 254 254   0   0
  0.3019211E+02  0.1718057E-08  0.1718057E-08  0.3000000E-08  0.5000000E-15
   1.0000000000000000E-004
  CAR 
 NiAl                                    
      5.47987589    -25.03990535  301      1.73206159      1.00000000
    -25.040  0.0000E+00  0.0000E+00
    -24.938  0.0000E+00  0.0000E+00
    -24.836  0.0000E+00  0.0000E+00
    -24.735  0.0000E+00  0.0000E+00
    -24.633  0.0000E+00  0.0000E+00
    -24.531  0.0000E+00  0.0000E+00
    -24.430  0.0000E+00  0.0000E+00
    -24.328  0.0000E+00  0.0000E+00
    -24.226  0.0000E+00  0.0000E+00
    -24.124  0.0000E+00  0.0000E+00
    -24.023  0.0000E+00  0.0000E+00
    -23.921  0.3004E-12  0.3056E-13
    -23.819  0.2334E-04  0.2374E-05
    -23.717  0.6446E+00  0.6558E-01
    -23.616  0.1606E+02  0.1700E+01
    -23.514  0.2950E+01  0.2000E+01
    -23.412  0.8943E-03  0.2000E+01
    -23.310  0.1096E-09  0.2000E+01
    -23.209  0.0000E+00  0.2000E+01
    -23.107  0.0000E+00  0.2000E+01
    -23.005  0.0000E+00  0.2000E+01
    -22.904  0.0000E+00  0.2000E+01
    -22.802  0.0000E+00  0.2000E+01
    -22.700  0.0000E+00  0.2000E+01
    -22.598  0.0000E+00  0.2000E+01
    -22.497  0.0000E+00  0.2000E+01
    -22.395  0.0000E+00  0.2000E+01
    -22.293  0.0000E+00  0.2000E+01
    -22.191  0.0000E+00  0.2000E+01
    -22.090  0.0000E+00  0.2000E+01
    -21.988  0.0000E+00  0.2000E+01
    -21.886  0.0000E+00  0.2000E+01
    -21.784  0.0000E+00  0.2000E+01
    -21.683  0.0000E+00  0.2000E+01
    -21.581  0.0000E+00  0.2000E+01
    -21.479  0.0000E+00  0.2000E+01
    -21.378  0.0000E+00  0.2000E+01
    -21.276  0.0000E+00  0.2000E+01
    -21.174  0.0000E+00  0.2000E+01
    -21.072  0.0000E+00  0.2000E+01
    -20.971  0.0000E+00  0.2000E+01
    -20.869  0.0000E+00  0.2000E+01
    -20.767  0.0000E+00  0.2000E+01
    -20.665  0.0000E+00  0.2000E+01
    -20.564  0.0000E+00  0.2000E+01
    -20.462  0.0000E+00  0.2000E+01
    -20.360  0.0000E+00  0.2000E+01
    -20.258  0.0000E+00  0.2000E+01
    -20.157  0.0000E+00  0.2000E+01
    -20.055  0.0000E+00  0.2000E+01
    -19.953  0.0000E+00  0.2000E+01
    -19.852  0.0000E+00  0.2000E+01
    -19.750  0.0000E+00  0.2000E+01
    -19.648  0.0000E+00  0.2000E+01
    -19.546  0.0000E+00  0.2000E+01
    -19.445  0.0000E+00  0.2000E+01
    -19.343  0.0000E+00  0.2000E+01
    -19.241  0.0000E+00  0.2000E+01
    -19.139  0.0000E+00  0.2000E+01
    -19.038  0.0000E+00  0.2000E+01
    -18.936  0.0000E+00  0.2000E+01
    -18.834  0.0000E+00  0.2000E+01
    -18.732  0.0000E+00  0.2000E+01
    -18.631  0.0000E+00  0.2000E+01
    -18.529  0.0000E+00  0.2000E+01
    -18.427  0.0000E+00  0.2000E+01
    -18.326  0.0000E+00  0.2000E+01
    -18.224  0.0000E+00  0.2000E+01
    -18.122  0.0000E+00  0.2000E+01
    -18.020  0.0000E+00  0.2000E+01
    -17.919  0.0000E+00  0.2000E+01
    -17.817  0.0000E+00  0.2000E+01
    -17.715  0.0000E+00  0.2000E+01
    -17.613  0.0000E+00  0.2000E+01
    -17.512  0.0000E+00  0.2000E+01
    -17.410  0.0000E+00  0.2000E+01
    -17.308  0.0000E+00  0.2000E+01
    -17.206  0.0000E+00  0.2000E+01
    -17.105  0.0000E+00  0.2000E+01
    -17.003  0.0000E+00  0.2000E+01
    -16.901  0.0000E+00  0.2000E+01
    -16.800  0.0000E+00  0.2000E+01
    -16.698  0.0000E+00  0.2000E+01
    -16.596  0.0000E+00  0.2000E+01
    -16.494  0.0000E+00  0.2000E+01
    -16.393  0.0000E+00  0.2000E+01
    -16.291  0.0000E+00  0.2000E+01
    -16.189  0.0000E+00  0.2000E+01
    -16.087  0.0000E+00  0.2000E+01
    -15.986  0.0000E+00  0.2000E+01
    -15.884  0.0000E+00  0.2000E+01
    -15.782  0.0000E+00  0.2000E+01
    -15.681  0.0000E+00  0.2000E+01
    -15.579  0.0000E+00  0.2000E+01
    -15.477  0.0000E+00  0.2000E+01
    -15.375  0.0000E+00  0.2000E+01
    -15.274  0.0000E+00  0.2000E+01
    -15.172  0.0000E+00  0.2000E+01
    -15.070  0.0000E+00  0.2000E+01
    -14.968  0.0000E+00  0.2000E+01
    -14.867  0.0000E+00  0.2000E+01
    -14.765  0.0000E+00  0.2000E+01
    -14.663  0.0000E+00  0.2000E+01
    -14.561  0.0000E+00  0.2000E+01
    -14.460  0.0000E+00  0.2000E+01
    -14.358  0.0000E+00  0.2000E+01
    -14.256  0.0000E+00  0.2000E+01
    -14.155  0.0000E+00  0.2000E+01
    -14.053  0.0000E+00  0.2000E+01
    -13.951  0.0000E+00  0.2000E+01
    -13.849  0.0000E+00  0.2000E+01
    -13.748  0.0000E+00  0.2000E+01
    -13.646  0.0000E+00  0.2000E+01
    -13.544  0.0000E+00  0.2000E+01
    -13.442  0.0000E+00  0.2000E+01
    -13.341  0.0000E+00  0.2000E+01
    -13.239  0.0000E+00  0.2000E+01
    -13.137  0.0000E+00  0.2000E+01
    -13.035  0.0000E+00  0.2000E+01
    -12.934  0.0000E+00  0.2000E+01
    -12.832  0.0000E+00  0.2000E+01
    -12.730  0.0000E+00  0.2000E+01
    -12.629  0.0000E+00  0.2000E+01
    -12.527  0.4452E-07  0.2000E+01
    -12.425  0.2777E-01  0.2003E+01
    -12.323  0.8951E+01  0.2913E+01
    -12.222  0.1063E+02  0.3994E+01
    -12.120  0.5533E-01  0.4000E+01
    -12.018  0.1613E-06  0.4000E+01
    -11.916  0.0000E+00  0.4000E+01
    -11.815  0.0000E+00  0.4000E+01
    -11.713  0.0000E+00  0.4000E+01
    -11.611  0.0000E+00  0.4000E+01
    -11.509  0.0000E+00  0.4000E+01
    -11.408  0.0000E+00  0.4000E+01
    -11.306  0.0000E+00  0.4000E+01
    -11.204  0.0000E+00  0.4000E+01
    -11.103  0.0000E+00  0.4000E+01
    -11.001  0.0000E+00  0.4000E+01
    -10.899  0.0000E+00  0.4000E+01
    -10.797  0.0000E+00  0.4000E+01
    -10.696  0.0000E+00  0.4000E+01
    -10.594  0.0000E+00  0.4000E+01
    -10.492  0.0000E+00  0.4000E+01
    -10.390  0.0000E+00  0.4000E+01
    -10.289  0.0000E+00  0.4000E+01
    -10.187  0.0000E+00  0.4000E+01
    -10.085  0.0000E+00  0.4000E+01
     -9.983  0.0000E+00  0.4000E+01
     -9.882  0.0000E+00  0.4000E+01
     -9.780  0.0000E+00  0.4000E+01
     -9.678  0.0000E+00  0.4000E+01
     -9.577  0.0000E+00  0.4000E+01
     -9.475  0.2728E-15  0.4000E+01
     -9.373  0.1772E-06  0.4000E+01
     -9.271  0.2981E-01  0.4003E+01
     -9.170  0.3135E+01  0.4322E+01
     -9.068  0.3818E+01  0.4710E+01
     -8.966  0.2505E+02  0.7259E+01
     -8.864  0.3116E+01  0.7576E+01
     -8.763  0.4416E+01  0.8026E+01
     -8.661  0.3624E+02  0.1171E+02
     -8.559  0.2573E+02  0.1433E+02
     -8.457  0.2483E+02  0.1686E+02
     -8.356  0.8089E+01  0.1768E+02
     -8.254  0.2253E+02  0.1997E+02
     -8.152  0.2214E+02  0.2222E+02
     -8.051  0.2636E+02  0.2490E+02
     -7.949  0.7169E+02  0.3220E+02
     -7.847  0.2973E+01  0.3250E+02
     -7.745  0.2946E+01  0.3280E+02
     -7.644  0.9108E+02  0.4207E+02
     -7.542  0.2926E+02  0.4504E+02
     -7.440  0.2350E+02  0.4743E+02
     -7.338  0.1769E+02  0.4923E+02
     -7.237  0.2229E+02  0.5150E+02
     -7.135  0.5004E+02  0.5659E+02
     -7.033  0.4764E+02  0.6144E+02
     -6.932  0.7416E+02  0.6898E+02
     -6.830  0.4108E+02  0.7316E+02
     -6.728  0.3007E+02  0.7622E+02
     -6.626  0.9940E+02  0.8633E+02
     -6.525  0.2472E+02  0.8885E+02
     -6.423  0.1129E+02  0.9000E+02
     -6.321  0.1978E+01  0.9020E+02
     -6.219  0.3078E+02  0.9333E+02
     -6.118  0.1132E+03  0.1049E+03
     -6.016  0.9143E+02  0.1142E+03
     -5.914  0.3593E+02  0.1178E+03
     -5.812  0.4222E+02  0.1221E+03
     -5.711  0.6998E+02  0.1292E+03
     -5.609  0.8884E+02  0.1383E+03
     -5.507  0.2673E+02  0.1410E+03
     -5.406  0.2171E+02  0.1432E+03
     -5.304  0.7022E+02  0.1503E+03
     -5.202  0.6142E+02  0.1566E+03
     -5.100  0.8634E+02  0.1654E+03
     -4.999  0.7846E+02  0.1733E+03
     -4.897  0.1034E+02  0.1744E+03
     -4.795  0.5537E+02  0.1800E+03
     -4.693  0.1248E+03  0.1927E+03
     -4.592  0.4544E+02  0.1974E+03
     -4.490  0.7260E+02  0.2047E+03
     -4.388  0.6098E+02  0.2109E+03
     -4.286  0.7046E+02  0.2181E+03
     -4.185  0.1367E+03  0.2320E+03
     -4.083  0.8277E+02  0.2404E+03
     -3.981  0.3795E+02  0.2443E+03
     -3.880  0.7402E+02  0.2518E+03
     -3.778  0.6695E+02  0.2586E+03
     -3.676  0.8744E+02  0.2675E+03
     -3.574  0.5732E+02  0.2734E+03
     -3.473  0.3898E+02  0.2773E+03
     -3.371  0.6775E+01  0.2780E+03
     -3.269  0.7416E+02  0.2856E+03
     -3.167  0.8264E+02  0.2940E+03
     -3.066  0.1162E+03  0.3058E+03
     -2.964  0.7923E+02  0.3139E+03
     -2.862  0.1546E+03  0.3296E+03
     -2.760  0.1773E+03  0.3476E+03
     -2.659  0.1850E+02  0.3495E+03
     -2.557  0.2807E+01  0.3498E+03
     -2.455  0.4705E+02  0.3546E+03
     -2.354  0.1106E+03  0.3658E+03
     -2.252  0.1008E+03  0.3761E+03
     -2.150  0.9057E+02  0.3853E+03
     -2.048  0.4610E+02  0.3900E+03
     -1.947  0.8032E+02  0.3982E+03
     -1.845  0.1283E+03  0.4112E+03
     -1.743  0.1050E+03  0.4219E+03
     -1.641  0.4193E+02  0.4262E+03
     -1.540  0.8207E+02  0.4345E+03
     -1.438  0.5998E+02  0.4406E+03
     -1.336  0.1909E+03  0.4600E+03
     -1.234  0.9719E+02  0.4699E+03
     -1.133  0.7982E+02  0.4780E+03
     -1.031  0.7469E+02  0.4856E+03
     -0.929  0.1039E+03  0.4962E+03
     -0.828  0.1136E+03  0.5078E+03
     -0.726  0.6915E+02  0.5148E+03
     -0.624  0.3154E+02  0.5180E+03
     -0.522  0.1114E+03  0.5293E+03
     -0.421  0.2044E+03  0.5501E+03
     -0.319  0.8325E+02  0.5586E+03
     -0.217  0.1196E+03  0.5708E+03
     -0.115  0.4154E+02  0.5750E+03
     -0.014  0.5314E+02  0.5804E+03
      0.088  0.1037E+03  0.5909E+03
      0.190  0.9488E+02  0.6006E+03
      0.292  0.7807E+02  0.6085E+03
      0.393  0.8642E+02  0.6173E+03
      0.495  0.1401E+03  0.6316E+03
      0.597  0.6384E+02  0.6381E+03
      0.698  0.3842E+02  0.6420E+03
      0.800  0.5806E+02  0.6479E+03
      0.902  0.1552E+03  0.6637E+03
      1.004  0.2241E+03  0.6865E+03
      1.105  0.1061E+03  0.6973E+03
      1.207  0.7687E+02  0.7051E+03
      1.309  0.6302E+02  0.7115E+03
      1.411  0.8723E+02  0.7204E+03
      1.512  0.1369E+03  0.7343E+03
      1.614  0.1840E+03  0.7530E+03
      1.716  0.1307E+03  0.7663E+03
      1.818  0.5357E+02  0.7718E+03
      1.919  0.1338E+03  0.7854E+03
      2.021  0.1334E+03  0.7989E+03
      2.123  0.7116E+02  0.8062E+03
      2.224  0.7376E+02  0.8137E+03
      2.326  0.6299E+02  0.8201E+03
      2.428  0.1187E+03  0.8322E+03
      2.530  0.9663E+02  0.8420E+03
      2.631  0.1293E+03  0.8552E+03
      2.733  0.6713E+02  0.8620E+03
      2.835  0.1191E+03  0.8741E+03
      2.937  0.3144E+03  0.9061E+03
      3.038  0.1216E+03  0.9185E+03
      3.140  0.4579E+02  0.9231E+03
      3.242  0.1064E+03  0.9339E+03
      3.343  0.1353E+03  0.9477E+03
      3.445  0.1407E+03  0.9620E+03
      3.547  0.7027E+02  0.9692E+03
      3.649  0.1092E+03  0.9803E+03
      3.750  0.7921E+02  0.9883E+03
      3.852  0.9657E+02  0.9981E+03
      3.954  0.1703E+03  0.1015E+04
      4.056  0.7489E+02  0.1023E+04
      4.157  0.8713E+01  0.1024E+04
      4.259  0.2099E+00  0.1024E+04
      4.361  0.6534E-05  0.1024E+04
      4.463  0.8185E-13  0.1024E+04
      4.564  0.0000E+00  0.1024E+04
      4.666  0.0000E+00  0.1024E+04
      4.768  0.0000E+00  0.1024E+04
      4.869  0.0000E+00  0.1024E+04
      4.971  0.0000E+00  0.1024E+04
      5.073  0.0000E+00  0.1024E+04
      5.175  0.0000E+00  0.1024E+04
      5.276  0.0000E+00  0.1024E+04
      5.378  0.0000E+00  0.1024E+04
      5.480  0.0000E+00  0.1024E+04
