         278
 Energy:  -2059.1216568999998     
 X   0.00000000       0.00000000       0.00000000    
 X   14.4150839       0.00000000       0.00000000    
 X  -7.20754194       12.4838276       0.00000000    
 X   0.00000000       0.00000000       13.1162539    
 X   7.20754194       12.4838276       0.00000000    
 X   14.4150839       0.00000000       13.1162539    
 X  -7.20754194       12.4838276       13.1162539    
 X   7.20754194       12.4838276       13.1162539    
 Al   0.00000000       0.00000000       1.93994999    
 Al  -0.00000000       2.77418995      0.246099994    
 Al  -0.00000000       2.77418995       4.12598991    
 Al   2.40251994       1.38708997       2.43213010    
 Al   2.40251994       1.38708997       6.31202984    
 Al   0.00000000       0.00000000       4.61817980    
 Al   0.00000000       0.00000000       8.49806976    
 Al  -0.00000000       2.77418995       6.80423021    
 Al  -0.00000000       2.77418995       10.6841202    
 Al   2.40251994       1.38708997       8.99026012    
 Al   2.40251994       1.38708997       12.8701496    
 Al   0.00000000       0.00000000       11.1763096    
 Al  -2.40250993       4.16128016       1.93994999    
 Al  -2.40251994       6.93546009      0.246099994    
 Al  -2.40251994       6.93546009       4.12598991    
 Al   0.00000000       5.54836988       2.43213010    
 Al   0.00000000       5.54836988       6.31202984    
 Al  -2.40250993       4.16128016       4.61817980    
 Al  -2.40250993       4.16128016       8.49806976    
 Al  -2.40251994       6.93546009       6.80423021    
 Al  -2.40251994       6.93546009       10.6841202    
 Al   0.00000000       5.54836988       8.99026012    
 Al   0.00000000       5.54836988       12.8701496    
 Al  -2.40250993       4.16128016       11.1763096    
 Al  -4.80502987       8.32254982       1.93994999    
 Al  -4.80502987       11.0967398      0.246099994    
 Al  -4.80502987       11.0967398       4.12598991    
 Al  -2.40250993       9.70963955       2.43213010    
 Al  -2.40250993       9.70963955       6.31202984    
 Al  -4.80502987       8.32254982       4.61817980    
 Al  -4.80502987       8.32254982       8.49806976    
 Al  -4.80502987       11.0967398       6.80423021    
 Al  -4.80502987       11.0967398       10.6841202    
 Al  -2.40250993       9.70963955       8.99026012    
 Al  -2.40250993       9.70963955       12.8701496    
 Al  -4.80502987       8.32254982       11.1763096    
 Al   4.80502987       0.00000000       1.93994999    
 Al   4.80502987       2.77418995      0.246099994    
 Al   4.80502987       2.77418995       4.12598991    
 Al   7.20754004       1.38708997       2.43213010    
 Al   7.20754004       1.38708997       6.31202984    
 Al   4.80502987       0.00000000       4.61817980    
 Al   4.80502987       0.00000000       8.49806976    
 Al   4.80502987       2.77418995       6.80423021    
 Al   4.80502987       2.77418995       10.6841202    
 Al   7.20754004       1.38708997       8.99026012    
 Al   7.20754004       1.38708997       12.8701496    
 Al   4.80502987       0.00000000       11.1763096    
 Al   2.40250993       4.16128016       1.93994999    
 Al   2.40250993       6.93546009      0.246099994    
 Al   2.40250993       6.93546009       4.12598991    
 Al   4.80502987       5.54836988       2.43213010    
 Al   4.80502987       5.54836988       6.31202984    
 Al   2.40250993       4.16128016       4.61817980    
 Al   2.40250993       4.16128016       8.49806976    
 Al   2.40250993       6.93546009       6.80423021    
 Al   2.40250993       6.93546009       10.6841202    
 Al   4.80502987       5.54836988       8.99026012    
 Al   4.80502987       5.54836988       12.8701496    
 Al   2.40250993       4.16128016       11.1763096    
 Al   0.00000000       8.32254982       1.93994999    
 Al  -0.00000000       11.0967398      0.246099994    
 Al  -0.00000000       11.0967398       4.12598991    
 Al   2.40251994       9.70963955       2.43213010    
 Al   2.40251994       9.70963955       6.31202984    
 Al   0.00000000       8.32254982       4.61817980    
 Al   0.00000000       8.32254982       8.49806976    
 Al  -0.00000000       11.0967398       6.80423021    
 Al  -0.00000000       11.0967398       10.6841202    
 Al   2.40251994       9.70963955       8.99026012    
 Al   2.40251994       9.70963955       12.8701496    
 Al   0.00000000       8.32254982       11.1763096    
 Al   9.61005974       0.00000000       1.93994999    
 Al   9.61005020       2.77418995      0.246099994    
 Al   9.61005020       2.77418995       4.12598991    
 Al   12.0125704       1.38708997       2.43213010    
 Al   12.0125704       1.38708997       6.31202984    
 Al   9.61005974       0.00000000       4.61817980    
 Al   9.61005974       0.00000000       8.49806976    
 Al   9.61005020       2.77418995       6.80423021    
 Al   9.61005020       2.77418995       10.6841202    
 Al   12.0125704       1.38708997       8.99026012    
 Al   12.0125704       1.38708997       12.8701496    
 Al   9.61005974       0.00000000       11.1763096    
 Al   7.20754004       4.16128016       1.93994999    
 Al   7.20754004       6.93546009      0.246099994    
 Al   7.20754004       6.93546009       4.12598991    
 Al   9.61005974       5.54836988       2.43213010    
 Al   9.61005974       5.54836988       6.31202984    
 Al   7.20754004       4.16128016       4.61817980    
 Al   7.20754004       4.16128016       8.49806976    
 Al   7.20754004       6.93546009       6.80423021    
 Al   7.20754004       6.93546009       10.6841202    
 Al   9.61005974       5.54836988       8.99026012    
 Al   9.61005974       5.54836988       12.8701496    
 Al   7.20754004       4.16128016       11.1763096    
 Al   4.80502987       8.32254982       1.93994999    
 Al   4.80502987       11.0967398      0.246099994    
 Al   4.80502987       11.0967398       4.12598991    
 Al   7.20754004       9.70963955       2.43213010    
 Al   7.20754004       9.70963955       6.31202984    
 Al   4.80502987       8.32254982       4.61817980    
 Al   4.80502987       8.32254982       8.49806976    
 Al   4.80502987       11.0967398       6.80423021    
 Al   4.80502987       11.0967398       10.6841202    
 Al   7.20754004       9.70963955       8.99026012    
 Al   7.20754004       9.70963955       12.8701496    
 Al   4.80502987       8.32254982       11.1763096    
 O    1.47104001       0.00000000       3.27905989    
 O    3.13804007      0.113130003       1.09301996    
 O  -0.735520005       1.27395999       3.27905989    
 O    1.66699004       2.88732004       3.27905989    
 O    3.13804007       2.66105008       1.09301996    
 O   0.931479990       1.38708997       1.09301996    
 O    3.87355995       1.38708997       7.65114021    
 O   0.735520005       1.50022995       5.46510983    
 O    1.66700006       2.66105008       7.65114021    
 O    1.66700006      0.113130003       7.65114021    
 O   0.735520005       4.04814005       5.46510983    
 O   -1.47104001       2.77418995       5.46510983    
 O    1.47104001       2.77418995       12.0232401    
 O   -1.66699004       2.88732004       9.83718967    
 O  -0.735520005       4.04814005       12.0232401    
 O  -0.735520005       1.50022995       12.0232401    
 O   0.735520005       1.27395999       9.83718967    
 O    3.33399010       0.00000000       9.83718967    
 O  -0.931469977       4.16128016       3.27905989    
 O   0.735520005       4.27440977       1.09301996    
 O   -3.13803005       5.43522978       3.27905989    
 O  -0.735520005       7.04859018       3.27905989    
 O   0.735520005       6.82231998       1.09301996    
 O   -1.47104001       5.54836988       1.09301996    
 O    1.47104001       5.54836988       7.65114021    
 O   -1.66700006       5.66149998       5.46510983    
 O  -0.735520005       6.82231998       7.65114021    
 O  -0.735520005       4.27440977       7.65114021    
 O   -1.66700006       8.20942020       5.46510983    
 O   -3.87355995       6.93546009       5.46510983    
 O  -0.931479990       6.93546009       12.0232401    
 O   -4.06950998       7.04859018       9.83718967    
 O   -3.13804007       8.20942020       12.0232401    
 O   -3.13804007       5.66149998       12.0232401    
 O   -1.66699004       5.43522978       9.83718967    
 O   0.931469977       4.16128016       9.83718967    
 O   -3.33399010       8.32254982       3.27905989    
 O   -1.66699004       8.43568039       1.09301996    
 O   -5.54055023       9.59650993       3.27905989    
 O   -3.13803005       11.2098703       3.27905989    
 O   -1.66699004       10.9835997       1.09301996    
 O   -3.87354994       9.70963955       1.09301996    
 O  -0.931469977       9.70963955       7.65114021    
 O   -4.06950998       9.82277966       5.46510983    
 O   -3.13803005       10.9835997       7.65114021    
 O   -3.13803005       8.43568039       7.65114021    
 O   -4.06950998       12.3706999       5.46510983    
 O   -6.27607012       11.0967398       5.46510983    
 O   -3.33399010       11.0967398       12.0232401    
 O   -6.47202015       11.2098703       9.83718967    
 O   -5.54055023       12.3706999       12.0232401    
 O   -5.54055023       9.82277966       12.0232401    
 O   -4.06950998       9.59650993       9.83718967    
 O   -1.47104001       8.32254982       9.83718967    
 O    6.27607012       0.00000000       3.27905989    
 O    7.94305992      0.113130003       1.09301996    
 O    4.06950998       1.27395999       3.27905989    
 O    6.47202015       2.88732004       3.27905989    
 O    7.94305992       2.66105008       1.09301996    
 O    5.73649979       1.38708997       1.09301996    
 O    8.67858028       1.38708997       7.65114021    
 O    5.54055023       1.50022995       5.46510983    
 O    6.47202015       2.66105008       7.65114021    
 O    6.47202015      0.113130003       7.65114021    
 O    5.54055023       4.04814005       5.46510983    
 O    3.33399010       2.77418995       5.46510983    
 O    6.27607012       2.77418995       12.0232401    
 O    3.13803005       2.88732004       9.83718967    
 O    4.06950998       4.04814005       12.0232401    
 O    4.06950998       1.50022995       12.0232401    
 O    5.54055023       1.27395999       9.83718967    
 O    8.13901997       0.00000000       9.83718967    
 O    3.87354994       4.16128016       3.27905989    
 O    5.54055023       4.27440977       1.09301996    
 O    1.66699004       5.43522978       3.27905989    
 O    4.06950998       7.04859018       3.27905989    
 O    5.54055023       6.82231998       1.09301996    
 O    3.33399010       5.54836988       1.09301996    
 O    6.27607012       5.54836988       7.65114021    
 O    3.13803005       5.66149998       5.46510983    
 O    4.06950998       6.82231998       7.65114021    
 O    4.06950998       4.27440977       7.65114021    
 O    3.13803005       8.20942020       5.46510983    
 O   0.931469977       6.93546009       5.46510983    
 O    3.87354994       6.93546009       12.0232401    
 O   0.735520005       7.04859018       9.83718967    
 O    1.66699004       8.20942020       12.0232401    
 O    1.66699004       5.66149998       12.0232401    
 O    3.13803005       5.43522978       9.83718967    
 O    5.73649979       4.16128016       9.83718967    
 O    1.47104001       8.32254982       3.27905989    
 O    3.13804007       8.43568039       1.09301996    
 O  -0.735520005       9.59650993       3.27905989    
 O    1.66699004       11.2098703       3.27905989    
 O    3.13804007       10.9835997       1.09301996    
 O   0.931479990       9.70963955       1.09301996    
 O    3.87355995       9.70963955       7.65114021    
 O   0.735520005       9.82277966       5.46510983    
 O    1.66700006       10.9835997       7.65114021    
 O    1.66700006       8.43568039       7.65114021    
 O   0.735520005       12.3706999       5.46510983    
 O   -1.47104001       11.0967398       5.46510983    
 O    1.47104001       11.0967398       12.0232401    
 O   -1.66699004       11.2098703       9.83718967    
 O  -0.735520005       12.3706999       12.0232401    
 O  -0.735520005       9.82277966       12.0232401    
 O   0.735520005       9.59650993       9.83718967    
 O    3.33399010       8.32254982       9.83718967    
 O    11.0811005       0.00000000       3.27905989    
 O    12.7480898      0.113130003       1.09301996    
 O    8.87454033       1.27395999       3.27905989    
 O    11.2770500       2.88732004       3.27905989    
 O    12.7480898       2.66105008       1.09301996    
 O    10.5415297       1.38708997       1.09301996    
 O    13.4836102       1.38708997       7.65114021    
 O    10.3455696       1.50022995       5.46510983    
 O    11.2770500       2.66105008       7.65114021    
 O    11.2770500      0.113130003       7.65114021    
 O    10.3455696       4.04814005       5.46510983    
 O    8.13901043       2.77418995       5.46510983    
 O    11.0810900       2.77418995       12.0232401    
 O    7.94305992       2.88732004       9.83718967    
 O    8.87452984       4.04814005       12.0232401    
 O    8.87452984       1.50022995       12.0232401    
 O    10.3455801       1.27395999       9.83718967    
 O    12.9440403       0.00000000       9.83718967    
 O    8.67858028       4.16128016       3.27905989    
 O    10.3455801       4.27440977       1.09301996    
 O    6.47202015       5.43522978       3.27905989    
 O    8.87454033       7.04859018       3.27905989    
 O    10.3455801       6.82231998       1.09301996    
 O    8.13901997       5.54836988       1.09301996    
 O    11.0811005       5.54836988       7.65114021    
 O    7.94305992       5.66149998       5.46510983    
 O    8.87454033       6.82231998       7.65114021    
 O    8.87454033       4.27440977       7.65114021    
 O    7.94305992       8.20942020       5.46510983    
 O    5.73649979       6.93546009       5.46510983    
 O    8.67858028       6.93546009       12.0232401    
 O    5.54055023       7.04859018       9.83718967    
 O    6.47202015       8.20942020       12.0232401    
 O    6.47202015       5.66149998       12.0232401    
 O    7.94305992       5.43522978       9.83718967    
 O    10.5415297       4.16128016       9.83718967    
 O    6.27607012       8.32254982       3.27905989    
 O    7.94305992       8.43568039       1.09301996    
 O    4.06950998       9.59650993       3.27905989    
 O    6.47202015       11.2098703       3.27905989    
 O    7.94305992       10.9835997       1.09301996    
 O    5.73649979       9.70963955       1.09301996    
 O    8.67858028       9.70963955       7.65114021    
 O    5.54055023       9.82277966       5.46510983    
 O    6.47202015       10.9835997       7.65114021    
 O    6.47202015       8.43568039       7.65114021    
 O    5.54055023       12.3706999       5.46510983    
 O    3.33399010       11.0967398       5.46510983    
 O    6.27607012       11.0967398       12.0232401    
 O    3.13803005       11.2098703       9.83718967    
 O    4.06950998       12.3706999       12.0232401    
 O    4.06950998       9.82277966       12.0232401    
 O    5.54055023       9.59650993       9.83718967    
 O    8.13901997       8.32254982       9.83718967    
         278
 Energy:  -2059.1219007000000     
 X   0.00000000       0.00000000       0.00000000    
 X   14.4150839       0.00000000       0.00000000    
 X  -7.20754194       12.4838276       0.00000000    
 X   0.00000000       0.00000000       13.1162539    
 X   7.20754194       12.4838276       0.00000000    
 X   14.4150839       0.00000000       13.1162539    
 X  -7.20754194       12.4838276       13.1162539    
 X   7.20754194       12.4838276       13.1162539    
 Al  -0.00000000      -0.00000000       1.93973005    
 Al  -0.00000000       2.77418995      0.246309996    
 Al  -0.00000000       2.77418995       4.12578011    
 Al   2.40251994       1.38708997       2.43234992    
 Al   2.40251994       1.38708997       6.31181002    
 Al  -0.00000000      -0.00000000       4.61839008    
 Al  -0.00000000      -0.00000000       8.49785995    
 Al  -0.00000000       2.77418995       6.80444002    
 Al  -0.00000000       2.77418995       10.6839104    
 Al   2.40251994       1.38708997       8.99046993    
 Al   2.40251994       1.38708997       12.8699398    
 Al  -0.00000000      -0.00000000       11.1765203    
 Al  -2.40250993       4.16128016       1.93973005    
 Al  -2.40251994       6.93546009      0.246309996    
 Al  -2.40251994       6.93546009       4.12578011    
 Al   0.00000000       5.54836988       2.43234992    
 Al   0.00000000       5.54836988       6.31181002    
 Al  -2.40250993       4.16128016       4.61839008    
 Al  -2.40250993       4.16128016       8.49785995    
 Al  -2.40251994       6.93546009       6.80444002    
 Al  -2.40251994       6.93546009       10.6839104    
 Al   0.00000000       5.54836988       8.99046993    
 Al   0.00000000       5.54836988       12.8699398    
 Al  -2.40250993       4.16128016       11.1765203    
 Al  -4.80502987       8.32254982       1.93973005    
 Al  -4.80502987       11.0967398      0.246309996    
 Al  -4.80502987       11.0967398       4.12578011    
 Al  -2.40250993       9.70963955       2.43234992    
 Al  -2.40250993       9.70963955       6.31181002    
 Al  -4.80502987       8.32254982       4.61839008    
 Al  -4.80502987       8.32254982       8.49785995    
 Al  -4.80502987       11.0967398       6.80444002    
 Al  -4.80502987       11.0967398       10.6839104    
 Al  -2.40250993       9.70963955       8.99046993    
 Al  -2.40250993       9.70963955       12.8699398    
 Al  -4.80502987       8.32254982       11.1765203    
 Al   4.80502987      -0.00000000       1.93973005    
 Al   4.80502987       2.77418995      0.246309996    
 Al   4.80502987       2.77418995       4.12578011    
 Al   7.20754004       1.38708997       2.43234992    
 Al   7.20754004       1.38708997       6.31181002    
 Al   4.80502987      -0.00000000       4.61839008    
 Al   4.80502987      -0.00000000       8.49785995    
 Al   4.80502987       2.77418995       6.80444002    
 Al   4.80502987       2.77418995       10.6839104    
 Al   7.20754004       1.38708997       8.99046993    
 Al   7.20754004       1.38708997       12.8699398    
 Al   4.80502987      -0.00000000       11.1765203    
 Al   2.40250993       4.16128016       1.93973005    
 Al   2.40250993       6.93546009      0.246309996    
 Al   2.40250993       6.93546009       4.12578011    
 Al   4.80502987       5.54836988       2.43234992    
 Al   4.80502987       5.54836988       6.31181002    
 Al   2.40250993       4.16128016       4.61839008    
 Al   2.40250993       4.16128016       8.49785995    
 Al   2.40250993       6.93546009       6.80444002    
 Al   2.40250993       6.93546009       10.6839104    
 Al   4.80502987       5.54836988       8.99046993    
 Al   4.80502987       5.54836988       12.8699398    
 Al   2.40250993       4.16128016       11.1765203    
 Al   0.00000000       8.32254982       1.93973005    
 Al  -0.00000000       11.0967398      0.246309996    
 Al  -0.00000000       11.0967398       4.12578011    
 Al   2.40251994       9.70963955       2.43234992    
 Al   2.40251994       9.70963955       6.31181002    
 Al   0.00000000       8.32254982       4.61839008    
 Al   0.00000000       8.32254982       8.49785995    
 Al  -0.00000000       11.0967398       6.80444002    
 Al  -0.00000000       11.0967398       10.6839104    
 Al   2.40251994       9.70963955       8.99046993    
 Al   2.40251994       9.70963955       12.8699398    
 Al   0.00000000       8.32254982       11.1765203    
 Al   9.61005974      -0.00000000       1.93973005    
 Al   9.61005020       2.77418995      0.246309996    
 Al   9.61005020       2.77418995       4.12578011    
 Al   12.0125704       1.38708997       2.43234992    
 Al   12.0125704       1.38708997       6.31181002    
 Al   9.61005974      -0.00000000       4.61839008    
 Al   9.61005974      -0.00000000       8.49785995    
 Al   9.61005020       2.77418995       6.80444002    
 Al   9.61005020       2.77418995       10.6839104    
 Al   12.0125704       1.38708997       8.99046993    
 Al   12.0125704       1.38708997       12.8699398    
 Al   9.61005974      -0.00000000       11.1765203    
 Al   7.20754004       4.16128016       1.93973005    
 Al   7.20754004       6.93546009      0.246309996    
 Al   7.20754004       6.93546009       4.12578011    
 Al   9.61005974       5.54836988       2.43234992    
 Al   9.61005974       5.54836988       6.31181002    
 Al   7.20754004       4.16128016       4.61839008    
 Al   7.20754004       4.16128016       8.49785995    
 Al   7.20754004       6.93546009       6.80444002    
 Al   7.20754004       6.93546009       10.6839104    
 Al   9.61005974       5.54836988       8.99046993    
 Al   9.61005974       5.54836988       12.8699398    
 Al   7.20754004       4.16128016       11.1765203    
 Al   4.80502987       8.32254982       1.93973005    
 Al   4.80502987       11.0967398      0.246309996    
 Al   4.80502987       11.0967398       4.12578011    
 Al   7.20754004       9.70963955       2.43234992    
 Al   7.20754004       9.70963955       6.31181002    
 Al   4.80502987       8.32254982       4.61839008    
 Al   4.80502987       8.32254982       8.49785995    
 Al   4.80502987       11.0967398       6.80444002    
 Al   4.80502987       11.0967398       10.6839104    
 Al   7.20754004       9.70963955       8.99046993    
 Al   7.20754004       9.70963955       12.8699398    
 Al   4.80502987       8.32254982       11.1765203    
 O    1.47097003      -0.00000000       3.27905989    
 O    3.13800001      0.113190003       1.09301996    
 O  -0.735480011       1.27390003       3.27905989    
 O    1.66702998       2.88737988       3.27905989    
 O    3.13800001       2.66099000       1.09301996    
 O   0.931550026       1.38708997       1.09301996    
 O    3.87349010       1.38708997       7.65114021    
 O   0.735480011       1.50029004       5.46510983    
 O    1.66702998       2.66099000       7.65114021    
 O    1.66702998      0.113190003       7.65114021    
 O   0.735480011       4.04807997       5.46510983    
 O   -1.47097003       2.77418995       5.46510983    
 O    1.47097003       2.77418995       12.0232401    
 O   -1.66702998       2.88737988       9.83718967    
 O  -0.735490024       4.04807997       12.0232401    
 O  -0.735490024       1.50029004       12.0232401    
 O   0.735480011       1.27390003       9.83718967    
 O    3.33405995      -0.00000000       9.83718967    
 O  -0.931550026       4.16128016       3.27905989    
 O   0.735490024       4.27446985       1.09301996    
 O   -3.13800001       5.43517017       3.27905989    
 O  -0.735480011       7.04865980       3.27905989    
 O   0.735490024       6.82225990       1.09301996    
 O   -1.47097003       5.54836988       1.09301996    
 O    1.47097003       5.54836988       7.65114021    
 O   -1.66702998       5.66157007       5.46510983    
 O  -0.735480011       6.82225990       7.65114021    
 O  -0.735480011       4.27446985       7.65114021    
 O   -1.66702998       8.20936012       5.46510983    
 O   -3.87349010       6.93546009       5.46510983    
 O  -0.931550026       6.93546009       12.0232401    
 O   -4.06954002       7.04865980       9.83718967    
 O   -3.13800001       8.20936012       12.0232401    
 O   -3.13800001       5.66157007       12.0232401    
 O   -1.66702998       5.43517017       9.83718967    
 O   0.931550026       4.16128016       9.83718967    
 O   -3.33405995       8.32254982       3.27905989    
 O   -1.66702998       8.43575001       1.09301996    
 O   -5.54051018       9.59644985       3.27905989    
 O   -3.13800001       11.2099304       3.27905989    
 O   -1.66702998       10.9835396       1.09301996    
 O   -3.87348008       9.70963955       1.09301996    
 O  -0.931540012       9.70963955       7.65114021    
 O   -4.06955004       9.82283974       5.46510983    
 O   -3.13800001       10.9835396       7.65114021    
 O   -3.13800001       8.43575001       7.65114021    
 O   -4.06955004       12.3706303       5.46510983    
 O   -6.27600002       11.0967398       5.46510983    
 O   -3.33405995       11.0967398       12.0232401    
 O   -6.47206020       11.2099304       9.83718967    
 O   -5.54051018       12.3706303       12.0232401    
 O   -5.54051018       9.82283974       12.0232401    
 O   -4.06954002       9.59644985       9.83718967    
 O   -1.47097003       8.32254982       9.83718967    
 O    6.27600002      -0.00000000       3.27905989    
 O    7.94302988      0.113190003       1.09301996    
 O    4.06954002       1.27390003       3.27905989    
 O    6.47206020       2.88737988       3.27905989    
 O    7.94302988       2.66099000       1.09301996    
 O    5.73657990       1.38708997       1.09301996    
 O    8.67850971       1.38708997       7.65114021    
 O    5.54051018       1.50029004       5.46510983    
 O    6.47206020       2.66099000       7.65114021    
 O    6.47206020      0.113190003       7.65114021    
 O    5.54051018       4.04807997       5.46510983    
 O    3.33405995       2.77418995       5.46510983    
 O    6.27599001       2.77418995       12.0232401    
 O    3.13800001       2.88737988       9.83718967    
 O    4.06954002       4.04807997       12.0232401    
 O    4.06954002       1.50029004       12.0232401    
 O    5.54051018       1.27390003       9.83718967    
 O    8.13908958      -0.00000000       9.83718967    
 O    3.87348008       4.16128016       3.27905989    
 O    5.54051018       4.27446985       1.09301996    
 O    1.66702998       5.43517017       3.27905989    
 O    4.06954002       7.04865980       3.27905989    
 O    5.54051018       6.82225990       1.09301996    
 O    3.33405995       5.54836988       1.09301996    
 O    6.27600002       5.54836988       7.65114021    
 O    3.13800001       5.66157007       5.46510983    
 O    4.06955004       6.82225990       7.65114021    
 O    4.06955004       4.27446985       7.65114021    
 O    3.13800001       8.20936012       5.46510983    
 O   0.931540012       6.93546009       5.46510983    
 O    3.87348008       6.93546009       12.0232401    
 O   0.735480011       7.04865980       9.83718967    
 O    1.66702998       8.20936012       12.0232401    
 O    1.66702998       5.66157007       12.0232401    
 O    3.13800001       5.43517017       9.83718967    
 O    5.73656988       4.16128016       9.83718967    
 O    1.47097003       8.32254982       3.27905989    
 O    3.13800001       8.43575001       1.09301996    
 O  -0.735480011       9.59644985       3.27905989    
 O    1.66702998       11.2099304       3.27905989    
 O    3.13800001       10.9835396       1.09301996    
 O   0.931550026       9.70963955       1.09301996    
 O    3.87349010       9.70963955       7.65114021    
 O   0.735480011       9.82283974       5.46510983    
 O    1.66702998       10.9835396       7.65114021    
 O    1.66702998       8.43575001       7.65114021    
 O   0.735480011       12.3706303       5.46510983    
 O   -1.47097003       11.0967398       5.46510983    
 O    1.47097003       11.0967398       12.0232401    
 O   -1.66702998       11.2099304       9.83718967    
 O  -0.735490024       12.3706303       12.0232401    
 O  -0.735490024       9.82283974       12.0232401    
 O   0.735480011       9.59644985       9.83718967    
 O    3.33405995       8.32254982       9.83718967    
 O    11.0810204      -0.00000000       3.27905989    
 O    12.7480602      0.113190003       1.09301996    
 O    8.87456989       1.27390003       3.27905989    
 O    11.2770901       2.88737988       3.27905989    
 O    12.7480602       2.66099000       1.09301996    
 O    10.5416002       1.38708997       1.09301996    
 O    13.4835396       1.38708997       7.65114021    
 O    10.3455400       1.50029004       5.46510983    
 O    11.2770901       2.66099000       7.65114021    
 O    11.2770901      0.113190003       7.65114021    
 O    10.3455400       4.04807997       5.46510983    
 O    8.13908005       2.77418995       5.46510983    
 O    11.0810204       2.77418995       12.0232401    
 O    7.94302988       2.88737988       9.83718967    
 O    8.87456989       4.04807997       12.0232401    
 O    8.87456989       1.50029004       12.0232401    
 O    10.3455400       1.27390003       9.83718967    
 O    12.9441204      -0.00000000       9.83718967    
 O    8.67850971       4.16128016       3.27905989    
 O    10.3455400       4.27446985       1.09301996    
 O    6.47206020       5.43517017       3.27905989    
 O    8.87456989       7.04865980       3.27905989    
 O    10.3455400       6.82225990       1.09301996    
 O    8.13908958       5.54836988       1.09301996    
 O    11.0810299       5.54836988       7.65114021    
 O    7.94301987       5.66157007       5.46510983    
 O    8.87456989       6.82225990       7.65114021    
 O    8.87456989       4.27446985       7.65114021    
 O    7.94301987       8.20936012       5.46510983    
 O    5.73656988       6.93546009       5.46510983    
 O    8.67850971       6.93546009       12.0232401    
 O    5.54051018       7.04865980       9.83718967    
 O    6.47206020       8.20936012       12.0232401    
 O    6.47206020       5.66157007       12.0232401    
 O    7.94302988       5.43517017       9.83718967    
 O    10.5416002       4.16128016       9.83718967    
 O    6.27600002       8.32254982       3.27905989    
 O    7.94302988       8.43575001       1.09301996    
 O    4.06954002       9.59644985       3.27905989    
 O    6.47206020       11.2099304       3.27905989    
 O    7.94302988       10.9835396       1.09301996    
 O    5.73657990       9.70963955       1.09301996    