<?xml version="1.0" encoding="ISO-8859-1"?>
<modeling>
 <generator>
  <i name="program" type="string">vasp </i>
  <i name="version" type="string">6.2.1  </i>
  <i name="subversion" type="string">16May21 (build Jun 16 2021 03:23:30) complex                          parallel </i>
  <i name="platform" type="string">LinuxPGI </i>
  <i name="date" type="string">2022 04 26 </i>
  <i name="time" type="string">01:42:08 </i>
 </generator>
 <incar>
  <i type="string" name="SYSTEM">NiAl</i>
  <i type="int" name="ISTART">     0</i>
  <i type="int" name="NELM">   250</i>
  <i type="int" name="NELMIN">     6</i>
  <i name="EDIFF">      0.00000500</i>
  <i type="int" name="ISIF">     0</i>
  <i name="ENCUT">    360.00000000</i>
  <i type="string" name="LREAL">Auto</i>
  <i type="logical" name="LPLANE"> T  </i>
  <i type="int" name="ISMEAR">     0</i>
  <i name="SIGMA">      0.05000000</i>
  <i type="logical" name="LWAVE"> F  </i>
  <i type="logical" name="LCHARG"> F  </i>
  <i type="int" name="IVDW">    12</i>
 </incar>
 <primitive_cell>
  <structure name="primitive_cell" >
   <crystal>
    <varray name="basis" >
     <v>       0.00000000     -15.14622176       0.00000000 </v>
     <v>       0.00000000      -7.57311088     -13.11701281 </v>
     <v>      29.00000000       0.00000000       0.00000000 </v>
    </varray>
    <i name="volume">   5761.52236213 </i>
    <varray name="rec_basis" >
     <v>       0.00000000      -0.06602307       0.03811843 </v>
     <v>       0.00000000       0.00000000      -0.07623687 </v>
     <v>       0.03448276       0.00000000       0.00000000 </v>
    </varray>
   </crystal>
   <varray name="positions" >
    <v>       0.44444450       0.44444418       0.10434517 </v>
    <v>       0.44444439       0.77777770       0.10434517 </v>
    <v>       0.44444423       0.11111143       0.10434517 </v>
    <v>       0.77777779       0.44444418       0.10434517 </v>
    <v>       0.77777768       0.77777770       0.10434517 </v>
    <v>       0.77777752       0.11111143       0.10434517 </v>
    <v>       0.11111120       0.44444418       0.10434517 </v>
    <v>       0.11111109       0.77777770       0.10434517 </v>
    <v>       0.11111093       0.11111143       0.10434517 </v>
    <v>       0.55555543       0.55555561       0.17318552 </v>
    <v>       0.55555532       0.88888912       0.17318552 </v>
    <v>       0.55555554       0.22222209       0.17318552 </v>
    <v>       0.88888873       0.55555561       0.17318552 </v>
    <v>       0.88888862       0.88888912       0.17318552 </v>
    <v>       0.88888884       0.22222209       0.17318552 </v>
    <v>       0.22222214       0.55555561       0.17318552 </v>
    <v>       0.22222203       0.88888912       0.17318552 </v>
    <v>       0.22222225       0.22222209       0.17318552 </v>
    <v>       0.66666637       0.66666703       0.24249897 </v>
    <v>       0.66666659       0.00000000       0.24249897 </v>
    <v>       0.66666648       0.33333352       0.24249897 </v>
    <v>       0.99999978       0.66666703       0.24249897 </v>
    <v>       0.00000000       0.00000000       0.24249897 </v>
    <v>       0.99999989       0.33333352       0.24249897 </v>
    <v>       0.33333307       0.66666703       0.24249897 </v>
    <v>       0.33333329       0.00000000       0.24249897 </v>
    <v>       0.33333318       0.33333352       0.24249897 </v>
    <v>       0.77777768       0.77777770       0.31173069 </v>
    <v>       0.77777752       0.11111143       0.31173069 </v>
    <v>       0.77777779       0.44444418       0.31173069 </v>
    <v>       0.11111109       0.77777770       0.31173069 </v>
    <v>       0.11111093       0.11111143       0.31173069 </v>
    <v>       0.11111120       0.44444418       0.31173069 </v>
    <v>       0.44444439       0.77777770       0.31173069 </v>
    <v>       0.44444423       0.11111143       0.31173069 </v>
    <v>       0.44444450       0.44444418       0.31173069 </v>
    <v>       0.88888862       0.88888912       0.38096241 </v>
    <v>       0.88888884       0.22222209       0.38096241 </v>
    <v>       0.88888873       0.55555561       0.38096241 </v>
    <v>       0.22222203       0.88888912       0.38096241 </v>
    <v>       0.22222225       0.22222209       0.38096241 </v>
    <v>       0.22222214       0.55555561       0.38096241 </v>
    <v>       0.55555532       0.88888912       0.38096241 </v>
    <v>       0.55555554       0.22222209       0.38096241 </v>
    <v>       0.55555543       0.55555561       0.38096241 </v>
    <v>       0.00000000       0.00000000       0.45027586 </v>
    <v>       0.99999989       0.33333352       0.45027586 </v>
    <v>       0.99999978       0.66666703       0.45027586 </v>
    <v>       0.33333329       0.00000000       0.45027586 </v>
    <v>       0.33333318       0.33333352       0.45027586 </v>
    <v>       0.33333307       0.66666703       0.45027586 </v>
    <v>       0.66666659       0.00000000       0.45027586 </v>
    <v>       0.66666648       0.33333352       0.45027586 </v>
    <v>       0.66666637       0.66666703       0.45027586 </v>
    <v>       0.11111093       0.11111143       0.51911621 </v>
    <v>       0.11111120       0.44444418       0.51911621 </v>
    <v>       0.11111109       0.77777770       0.51911621 </v>
    <v>       0.44444423       0.11111143       0.51911621 </v>
    <v>       0.44444450       0.44444418       0.51911621 </v>
    <v>       0.44444439       0.77777770       0.51911621 </v>
    <v>       0.77777752       0.11111143       0.51911621 </v>
    <v>       0.77777779       0.44444418       0.51911621 </v>
    <v>       0.77777768       0.77777770       0.51911621 </v>
    <v>       0.27777824       0.27777742       0.10434517 </v>
    <v>       0.27777813       0.61111094       0.10434517 </v>
    <v>       0.27777802       0.94444445       0.10434517 </v>
    <v>       0.61111153       0.27777742       0.10434517 </v>
    <v>       0.61111142       0.61111094       0.10434517 </v>
    <v>       0.61111131       0.94444445       0.10434517 </v>
    <v>       0.94444483       0.27777742       0.10434517 </v>
    <v>       0.94444472       0.61111094       0.10434517 </v>
    <v>       0.94444461       0.94444445       0.10434517 </v>
    <v>       0.38888917       0.38888885       0.17318552 </v>
    <v>       0.38888906       0.72222236       0.17318552 </v>
    <v>       0.38888928       0.05555533       0.17318552 </v>
    <v>       0.72222247       0.38888885       0.17318552 </v>
    <v>       0.72222236       0.72222236       0.17318552 </v>
    <v>       0.72222258       0.05555533       0.17318552 </v>
    <v>       0.05555588       0.38888885       0.17318552 </v>
    <v>       0.05555577       0.72222236       0.17318552 </v>
    <v>       0.05555599       0.05555533       0.17318552 </v>
    <v>       0.50000011       0.50000027       0.24249897 </v>
    <v>       0.50000038       0.83333303       0.24249897 </v>
    <v>       0.50000022       0.16666676       0.24249897 </v>
    <v>       0.83333340       0.50000027       0.24249897 </v>
    <v>       0.83333367       0.83333303       0.24249897 </v>
    <v>       0.83333351       0.16666676       0.24249897 </v>
    <v>       0.16666681       0.50000027       0.24249897 </v>
    <v>       0.16666708       0.83333303       0.24249897 </v>
    <v>       0.16666692       0.16666676       0.24249897 </v>
    <v>       0.61111142       0.61111094       0.31173069 </v>
    <v>       0.61111131       0.94444445       0.31173069 </v>
    <v>       0.61111153       0.27777742       0.31173069 </v>
    <v>       0.94444472       0.61111094       0.31173069 </v>
    <v>       0.94444461       0.94444445       0.31173069 </v>
    <v>       0.94444483       0.27777742       0.31173069 </v>
    <v>       0.27777813       0.61111094       0.31173069 </v>
    <v>       0.27777802       0.94444445       0.31173069 </v>
    <v>       0.27777824       0.27777742       0.31173069 </v>
    <v>       0.72222236       0.72222236       0.38096241 </v>
    <v>       0.72222258       0.05555533       0.38096241 </v>
    <v>       0.72222247       0.38888885       0.38096241 </v>
    <v>       0.05555577       0.72222236       0.38096241 </v>
    <v>       0.05555599       0.05555533       0.38096241 </v>
    <v>       0.05555588       0.38888885       0.38096241 </v>
    <v>       0.38888906       0.72222236       0.38096241 </v>
    <v>       0.38888928       0.05555533       0.38096241 </v>
    <v>       0.38888917       0.38888885       0.38096241 </v>
    <v>       0.83333367       0.83333303       0.45027586 </v>
    <v>       0.83333351       0.16666676       0.45027586 </v>
    <v>       0.83333340       0.50000027       0.45027586 </v>
    <v>       0.16666708       0.83333303       0.45027586 </v>
    <v>       0.16666692       0.16666676       0.45027586 </v>
    <v>       0.16666681       0.50000027       0.45027586 </v>
    <v>       0.50000038       0.83333303       0.45027586 </v>
    <v>       0.50000022       0.16666676       0.45027586 </v>
    <v>       0.50000011       0.50000027       0.45027586 </v>
    <v>       0.94444461       0.94444445       0.51911621 </v>
    <v>       0.94444483       0.27777742       0.51911621 </v>
    <v>       0.94444472       0.61111094       0.51911621 </v>
    <v>       0.27777802       0.94444445       0.51911621 </v>
    <v>       0.27777824       0.27777742       0.51911621 </v>
    <v>       0.27777813       0.61111094       0.51911621 </v>
    <v>       0.61111131       0.94444445       0.51911621 </v>
    <v>       0.61111153       0.27777742       0.51911621 </v>
    <v>       0.61111142       0.61111094       0.51911621 </v>
    <v>       0.27777785       0.44444418       0.10434517 </v>
    <v>       0.27777774       0.77777770       0.10434517 </v>
    <v>       0.27777758       0.11111143       0.10434517 </v>
    <v>       0.61111115       0.44444418       0.10434517 </v>
    <v>       0.61111104       0.77777770       0.10434517 </v>
    <v>       0.61111088       0.11111143       0.10434517 </v>
    <v>       0.94444444       0.44444418       0.10434517 </v>
    <v>       0.94444433       0.77777770       0.10434517 </v>
    <v>       0.94444417       0.11111143       0.10434517 </v>
    <v>       0.38888879       0.55555561       0.17318552 </v>
    <v>       0.38888868       0.88888912       0.17318552 </v>
    <v>       0.38888890       0.22222209       0.17318552 </v>
    <v>       0.72222208       0.55555561       0.17318552 </v>
    <v>       0.72222197       0.88888912       0.17318552 </v>
    <v>       0.72222219       0.22222209       0.17318552 </v>
    <v>       0.05555549       0.55555561       0.17318552 </v>
    <v>       0.05555538       0.88888912       0.17318552 </v>
    <v>       0.05555560       0.22222209       0.17318552 </v>
    <v>       0.49999972       0.66666703       0.24249897 </v>
    <v>       0.49999994       0.00000000       0.24249897 </v>
    <v>       0.49999983       0.33333352       0.24249897 </v>
    <v>       0.83333302       0.66666703       0.24249897 </v>
    <v>       0.83333324       0.00000000       0.24249897 </v>
    <v>       0.83333313       0.33333352       0.24249897 </v>
    <v>       0.16666643       0.66666703       0.24249897 </v>
    <v>       0.16666665       0.00000000       0.24249897 </v>
    <v>       0.16666654       0.33333352       0.24249897 </v>
    <v>       0.61111104       0.77777770       0.31173069 </v>
    <v>       0.61111088       0.11111143       0.31173069 </v>
    <v>       0.61111115       0.44444418       0.31173069 </v>
    <v>       0.94444433       0.77777770       0.31173069 </v>
    <v>       0.94444417       0.11111143       0.31173069 </v>
    <v>       0.94444444       0.44444418       0.31173069 </v>
    <v>       0.27777774       0.77777770       0.31173069 </v>
    <v>       0.27777758       0.11111143       0.31173069 </v>
    <v>       0.27777785       0.44444418       0.31173069 </v>
    <v>       0.72222197       0.88888912       0.38096241 </v>
    <v>       0.72222219       0.22222209       0.38096241 </v>
    <v>       0.72222208       0.55555561       0.38096241 </v>
    <v>       0.05555538       0.88888912       0.38096241 </v>
    <v>       0.05555560       0.22222209       0.38096241 </v>
    <v>       0.05555549       0.55555561       0.38096241 </v>
    <v>       0.38888868       0.88888912       0.38096241 </v>
    <v>       0.38888890       0.22222209       0.38096241 </v>
    <v>       0.38888879       0.55555561       0.38096241 </v>
    <v>       0.83333324       0.00000000       0.45027586 </v>
    <v>       0.83333313       0.33333352       0.45027586 </v>
    <v>       0.83333302       0.66666703       0.45027586 </v>
    <v>       0.16666665       0.00000000       0.45027586 </v>
    <v>       0.16666654       0.33333352       0.45027586 </v>
    <v>       0.16666643       0.66666703       0.45027586 </v>
    <v>       0.49999994       0.00000000       0.45027586 </v>
    <v>       0.49999983       0.33333352       0.45027586 </v>
    <v>       0.49999972       0.66666703       0.45027586 </v>
    <v>       0.94444417       0.11111143       0.51911621 </v>
    <v>       0.94444444       0.44444418       0.51911621 </v>
    <v>       0.94444433       0.77777770       0.51911621 </v>
    <v>       0.27777758       0.11111143       0.51911621 </v>
    <v>       0.27777785       0.44444418       0.51911621 </v>
    <v>       0.27777774       0.77777770       0.51911621 </v>
    <v>       0.61111088       0.11111143       0.51911621 </v>
    <v>       0.61111115       0.44444418       0.51911621 </v>
    <v>       0.61111104       0.77777770       0.51911621 </v>
    <v>       0.44444488       0.27777742       0.10434517 </v>
    <v>       0.44444477       0.61111094       0.10434517 </v>
    <v>       0.44444466       0.94444445       0.10434517 </v>
    <v>       0.77777818       0.27777742       0.10434517 </v>
    <v>       0.77777807       0.61111094       0.10434517 </v>
    <v>       0.77777796       0.94444445       0.10434517 </v>
    <v>       0.11111159       0.27777742       0.10434517 </v>
    <v>       0.11111148       0.61111094       0.10434517 </v>
    <v>       0.11111137       0.94444445       0.10434517 </v>
    <v>       0.55555582       0.38888885       0.17318552 </v>
    <v>       0.55555571       0.72222236       0.17318552 </v>
    <v>       0.55555593       0.05555533       0.17318552 </v>
    <v>       0.88888911       0.38888885       0.17318552 </v>
    <v>       0.88888900       0.72222236       0.17318552 </v>
    <v>       0.88888922       0.05555533       0.17318552 </v>
    <v>       0.22222252       0.38888885       0.17318552 </v>
    <v>       0.22222241       0.72222236       0.17318552 </v>
    <v>       0.22222264       0.05555533       0.17318552 </v>
    <v>       0.66666675       0.50000027       0.24249897 </v>
    <v>       0.66666702       0.83333303       0.24249897 </v>
    <v>       0.66666686       0.16666676       0.24249897 </v>
    <v>       0.00000016       0.50000027       0.24249897 </v>
    <v>       0.00000043       0.83333303       0.24249897 </v>
    <v>       0.00000027       0.16666676       0.24249897 </v>
    <v>       0.33333346       0.50000027       0.24249897 </v>
    <v>       0.33333373       0.83333303       0.24249897 </v>
    <v>       0.33333357       0.16666676       0.24249897 </v>
    <v>       0.77777807       0.61111094       0.31173069 </v>
    <v>       0.77777796       0.94444445       0.31173069 </v>
    <v>       0.77777818       0.27777742       0.31173069 </v>
    <v>       0.11111148       0.61111094       0.31173069 </v>
    <v>       0.11111137       0.94444445       0.31173069 </v>
    <v>       0.11111159       0.27777742       0.31173069 </v>
    <v>       0.44444477       0.61111094       0.31173069 </v>
    <v>       0.44444466       0.94444445       0.31173069 </v>
    <v>       0.44444488       0.27777742       0.31173069 </v>
    <v>       0.88888900       0.72222236       0.38096241 </v>
    <v>       0.88888922       0.05555533       0.38096241 </v>
    <v>       0.88888911       0.38888885       0.38096241 </v>
    <v>       0.22222241       0.72222236       0.38096241 </v>
    <v>       0.22222264       0.05555533       0.38096241 </v>
    <v>       0.22222252       0.38888885       0.38096241 </v>
    <v>       0.55555571       0.72222236       0.38096241 </v>
    <v>       0.55555593       0.05555533       0.38096241 </v>
    <v>       0.55555582       0.38888885       0.38096241 </v>
    <v>       0.00000043       0.83333303       0.45027586 </v>
    <v>       0.00000027       0.16666676       0.45027586 </v>
    <v>       0.00000016       0.50000027       0.45027586 </v>
    <v>       0.33333373       0.83333303       0.45027586 </v>
    <v>       0.33333357       0.16666676       0.45027586 </v>
    <v>       0.33333346       0.50000027       0.45027586 </v>
    <v>       0.66666702       0.83333303       0.45027586 </v>
    <v>       0.66666686       0.16666676       0.45027586 </v>
    <v>       0.66666675       0.50000027       0.45027586 </v>
    <v>       0.11111137       0.94444445       0.51911621 </v>
    <v>       0.11111159       0.27777742       0.51911621 </v>
    <v>       0.11111148       0.61111094       0.51911621 </v>
    <v>       0.44444466       0.94444445       0.51911621 </v>
    <v>       0.44444488       0.27777742       0.51911621 </v>
    <v>       0.44444477       0.61111094       0.51911621 </v>
    <v>       0.77777796       0.94444445       0.51911621 </v>
    <v>       0.77777818       0.27777742       0.51911621 </v>
    <v>       0.77777807       0.61111094       0.51911621 </v>
    <v>       0.54875669       0.40253067       0.65689655 </v>
    <v>       0.50682642       0.48639123       0.65689655 </v>
   </varray>
  </structure>
  <varray name="primitive_index" >
   <v type="int" >        1 </v>
   <v type="int" >        2 </v>
   <v type="int" >        3 </v>
   <v type="int" >        4 </v>
   <v type="int" >        5 </v>
   <v type="int" >        6 </v>
   <v type="int" >        7 </v>
   <v type="int" >        8 </v>
   <v type="int" >        9 </v>
   <v type="int" >       10 </v>
   <v type="int" >       11 </v>
   <v type="int" >       12 </v>
   <v type="int" >       13 </v>
   <v type="int" >       14 </v>
   <v type="int" >       15 </v>
   <v type="int" >       16 </v>
   <v type="int" >       17 </v>
   <v type="int" >       18 </v>
   <v type="int" >       19 </v>
   <v type="int" >       20 </v>
   <v type="int" >       21 </v>
   <v type="int" >       22 </v>
   <v type="int" >       23 </v>
   <v type="int" >       24 </v>
   <v type="int" >       25 </v>
   <v type="int" >       26 </v>
   <v type="int" >       27 </v>
   <v type="int" >       28 </v>
   <v type="int" >       29 </v>
   <v type="int" >       30 </v>
   <v type="int" >       31 </v>
   <v type="int" >       32 </v>
   <v type="int" >       33 </v>
   <v type="int" >       34 </v>
   <v type="int" >       35 </v>
   <v type="int" >       36 </v>
   <v type="int" >       37 </v>
   <v type="int" >       38 </v>
   <v type="int" >       39 </v>
   <v type="int" >       40 </v>
   <v type="int" >       41 </v>
   <v type="int" >       42 </v>
   <v type="int" >       43 </v>
   <v type="int" >       44 </v>
   <v type="int" >       45 </v>
   <v type="int" >       46 </v>
   <v type="int" >       47 </v>
   <v type="int" >       48 </v>
   <v type="int" >       49 </v>
   <v type="int" >       50 </v>
   <v type="int" >       51 </v>
   <v type="int" >       52 </v>
   <v type="int" >       53 </v>
   <v type="int" >       54 </v>
   <v type="int" >       55 </v>
   <v type="int" >       56 </v>
   <v type="int" >       57 </v>
   <v type="int" >       58 </v>
   <v type="int" >       59 </v>
   <v type="int" >       60 </v>
   <v type="int" >       61 </v>
   <v type="int" >       62 </v>
   <v type="int" >       63 </v>
   <v type="int" >       64 </v>
   <v type="int" >       65 </v>
   <v type="int" >       66 </v>
   <v type="int" >       67 </v>
   <v type="int" >       68 </v>
   <v type="int" >       69 </v>
   <v type="int" >       70 </v>
   <v type="int" >       71 </v>
   <v type="int" >       72 </v>
   <v type="int" >       73 </v>
   <v type="int" >       74 </v>
   <v type="int" >       75 </v>
   <v type="int" >       76 </v>
   <v type="int" >       77 </v>
   <v type="int" >       78 </v>
   <v type="int" >       79 </v>
   <v type="int" >       80 </v>
   <v type="int" >       81 </v>
   <v type="int" >       82 </v>
   <v type="int" >       83 </v>
   <v type="int" >       84 </v>
   <v type="int" >       85 </v>
   <v type="int" >       86 </v>
   <v type="int" >       87 </v>
   <v type="int" >       88 </v>
   <v type="int" >       89 </v>
   <v type="int" >       90 </v>
   <v type="int" >       91 </v>
   <v type="int" >       92 </v>
   <v type="int" >       93 </v>
   <v type="int" >       94 </v>
   <v type="int" >       95 </v>
   <v type="int" >       96 </v>
   <v type="int" >       97 </v>
   <v type="int" >       98 </v>
   <v type="int" >       99 </v>
   <v type="int" >      100 </v>
   <v type="int" >      101 </v>
   <v type="int" >      102 </v>
   <v type="int" >      103 </v>
   <v type="int" >      104 </v>
   <v type="int" >      105 </v>
   <v type="int" >      106 </v>
   <v type="int" >      107 </v>
   <v type="int" >      108 </v>
   <v type="int" >      109 </v>
   <v type="int" >      110 </v>
   <v type="int" >      111 </v>
   <v type="int" >      112 </v>
   <v type="int" >      113 </v>
   <v type="int" >      114 </v>
   <v type="int" >      115 </v>
   <v type="int" >      116 </v>
   <v type="int" >      117 </v>
   <v type="int" >      118 </v>
   <v type="int" >      119 </v>
   <v type="int" >      120 </v>
   <v type="int" >      121 </v>
   <v type="int" >      122 </v>
   <v type="int" >      123 </v>
   <v type="int" >      124 </v>
   <v type="int" >      125 </v>
   <v type="int" >      126 </v>
   <v type="int" >      127 </v>
   <v type="int" >      128 </v>
   <v type="int" >      129 </v>
   <v type="int" >      130 </v>
   <v type="int" >      131 </v>
   <v type="int" >      132 </v>
   <v type="int" >      133 </v>
   <v type="int" >      134 </v>
   <v type="int" >      135 </v>
   <v type="int" >      136 </v>
   <v type="int" >      137 </v>
   <v type="int" >      138 </v>
   <v type="int" >      139 </v>
   <v type="int" >      140 </v>
   <v type="int" >      141 </v>
   <v type="int" >      142 </v>
   <v type="int" >      143 </v>
   <v type="int" >      144 </v>
   <v type="int" >      145 </v>
   <v type="int" >      146 </v>
   <v type="int" >      147 </v>
   <v type="int" >      148 </v>
   <v type="int" >      149 </v>
   <v type="int" >      150 </v>
   <v type="int" >      151 </v>
   <v type="int" >      152 </v>
   <v type="int" >      153 </v>
   <v type="int" >      154 </v>
   <v type="int" >      155 </v>
   <v type="int" >      156 </v>
   <v type="int" >      157 </v>
   <v type="int" >      158 </v>
   <v type="int" >      159 </v>
   <v type="int" >      160 </v>
   <v type="int" >      161 </v>
   <v type="int" >      162 </v>
   <v type="int" >      163 </v>
   <v type="int" >      164 </v>
   <v type="int" >      165 </v>
   <v type="int" >      166 </v>
   <v type="int" >      167 </v>
   <v type="int" >      168 </v>
   <v type="int" >      169 </v>
   <v type="int" >      170 </v>
   <v type="int" >      171 </v>
   <v type="int" >      172 </v>
   <v type="int" >      173 </v>
   <v type="int" >      174 </v>
   <v type="int" >      175 </v>
   <v type="int" >      176 </v>
   <v type="int" >      177 </v>
   <v type="int" >      178 </v>
   <v type="int" >      179 </v>
   <v type="int" >      180 </v>
   <v type="int" >      181 </v>
   <v type="int" >      182 </v>
   <v type="int" >      183 </v>
   <v type="int" >      184 </v>
   <v type="int" >      185 </v>
   <v type="int" >      186 </v>
   <v type="int" >      187 </v>
   <v type="int" >      188 </v>
   <v type="int" >      189 </v>
   <v type="int" >      190 </v>
   <v type="int" >      191 </v>
   <v type="int" >      192 </v>
   <v type="int" >      193 </v>
   <v type="int" >      194 </v>
   <v type="int" >      195 </v>
   <v type="int" >      196 </v>
   <v type="int" >      197 </v>
   <v type="int" >      198 </v>
   <v type="int" >      199 </v>
   <v type="int" >      200 </v>
   <v type="int" >      201 </v>
   <v type="int" >      202 </v>
   <v type="int" >      203 </v>
   <v type="int" >      204 </v>
   <v type="int" >      205 </v>
   <v type="int" >      206 </v>
   <v type="int" >      207 </v>
   <v type="int" >      208 </v>
   <v type="int" >      209 </v>
   <v type="int" >      210 </v>
   <v type="int" >      211 </v>
   <v type="int" >      212 </v>
   <v type="int" >      213 </v>
   <v type="int" >      214 </v>
   <v type="int" >      215 </v>
   <v type="int" >      216 </v>
   <v type="int" >      217 </v>
   <v type="int" >      218 </v>
   <v type="int" >      219 </v>
   <v type="int" >      220 </v>
   <v type="int" >      221 </v>
   <v type="int" >      222 </v>
   <v type="int" >      223 </v>
   <v type="int" >      224 </v>
   <v type="int" >      225 </v>
   <v type="int" >      226 </v>
   <v type="int" >      227 </v>
   <v type="int" >      228 </v>
   <v type="int" >      229 </v>
   <v type="int" >      230 </v>
   <v type="int" >      231 </v>
   <v type="int" >      232 </v>
   <v type="int" >      233 </v>
   <v type="int" >      234 </v>
   <v type="int" >      235 </v>
   <v type="int" >      236 </v>
   <v type="int" >      237 </v>
   <v type="int" >      238 </v>
   <v type="int" >      239 </v>
   <v type="int" >      240 </v>
   <v type="int" >      241 </v>
   <v type="int" >      242 </v>
   <v type="int" >      243 </v>
   <v type="int" >      244 </v>
   <v type="int" >      245 </v>
   <v type="int" >      246 </v>
   <v type="int" >      247 </v>
   <v type="int" >      248 </v>
   <v type="int" >      249 </v>
   <v type="int" >      250 </v>
   <v type="int" >      251 </v>
   <v type="int" >      252 </v>
   <v type="int" >      253 </v>
   <v type="int" >      254 </v>
  </varray>
 </primitive_cell>
 <kpoints>
  <generation param="Gamma">
   <v type="int" name="divisions">       2        2        1 </v>
   <v name="usershift">      0.00000000       0.00000000       0.00000000 </v>
   <v name="genvec1">      0.50000000      -0.00000000       0.00000000 </v>
   <v name="genvec2">      0.00000000       0.50000000       0.00000000 </v>
   <v name="genvec3">      0.00000000       0.00000000       1.00000000 </v>
   <v name="shift">      0.00000000       0.00000000       0.00000000 </v>
  </generation>
  <varray name="kpointlist" >
   <v>       0.00000000       0.00000000       0.00000000 </v>
   <v>       0.50000000       0.00000000       0.00000000 </v>
   <v>       0.50000000       0.50000000       0.00000000 </v>
   <v>       0.00000000       0.50000000       0.00000000 </v>
  </varray>
  <varray name="weights" >
   <v>       0.25000000 </v>
   <v>       0.25000000 </v>
   <v>       0.25000000 </v>
   <v>       0.25000000 </v>
  </varray>
 </kpoints>
 <parameters>
  <separator name="general" >
   <i type="string" name="SYSTEM">NiAl</i>
   <i type="logical" name="LCOMPAT"> F  </i>
  </separator>
  <separator name="electronic" >
   <i type="string" name="PREC">normal</i>
   <i name="ENMAX">    360.00000000</i>
   <i name="ENAUG">   1139.60900000</i>
   <i name="EDIFF">      0.00000500</i>
   <i type="int" name="IALGO">    38</i>
   <i type="int" name="IWAVPR">    10</i>
   <i type="int" name="NBANDS">  1519</i>
   <i type="int" name="NBANDSLOW">    -1</i>
   <i type="int" name="NBANDSHIGH">    -1</i>
   <i name="NELECT">   2532.00000000</i>
   <i type="int" name="TURBO">     0</i>
   <i type="int" name="IRESTART">     0</i>
   <i type="int" name="NREBOOT">     0</i>
   <i type="int" name="NMIN">     0</i>
   <i name="EREF">      0.00000000</i>
   <separator name="electronic smearing" >
    <i type="int" name="ISMEAR">     0</i>
    <i name="SIGMA">      0.05000000</i>
    <i name="KSPACING">      0.50000000</i>
    <i type="logical" name="KGAMMA"> T  </i>
    <i type="logical" name="KBLOWUP"> T  </i>
   </separator>
   <separator name="electronic projectors" >
    <i type="logical" name="LREAL"> T  </i>
    <v name="ROPT">     -0.00050000     -0.00050000</v>
    <i type="int" name="LMAXPAW">  -100</i>
    <i type="int" name="LMAXMIX">     2</i>
    <i type="logical" name="NLSPLINE"> F  </i>
   </separator>
   <separator name="electronic startup" >
    <i type="int" name="ISTART">     0</i>
    <i type="int" name="ICHARG">     2</i>
    <i type="int" name="INIWAV">     1</i>
   </separator>
   <separator name="electronic spin" >
    <i type="int" name="ISPIN">     1</i>
    <i type="logical" name="LNONCOLLINEAR"> F  </i>
    <v name="MAGMOM">      1.00000000      1.00000000      1.00000000      1.00000000      1.00000000      1.00000000      1.00000000      1.00000000      1.00000000      1.00000000      1.00000000      1.00000000      1.00000000      1.00000000      1.00000000      1.00000000      1.00000000      1.00000000      1.00000000      1.00000000
      1.00000000      1.00000000      1.00000000      1.00000000      1.00000000      1.00000000      1.00000000      1.00000000      1.00000000      1.00000000      1.00000000      1.00000000      1.00000000      1.00000000      1.00000000      1.00000000      1.00000000      1.00000000      1.00000000      1.00000000
      1.00000000      1.00000000      1.00000000      1.00000000      1.00000000      1.00000000      1.00000000      1.00000000      1.00000000      1.00000000      1.00000000      1.00000000      1.00000000      1.00000000      1.00000000      1.00000000      1.00000000      1.00000000      1.00000000      1.00000000
      1.00000000      1.00000000      1.00000000      1.00000000      1.00000000      1.00000000      1.00000000      1.00000000      1.00000000      1.00000000      1.00000000      1.00000000      1.00000000      1.00000000      1.00000000      1.00000000      1.00000000      1.00000000      1.00000000      1.00000000
      1.00000000      1.00000000      1.00000000      1.00000000      1.00000000      1.00000000      1.00000000      1.00000000      1.00000000      1.00000000      1.00000000      1.00000000      1.00000000      1.00000000      1.00000000      1.00000000      1.00000000      1.00000000      1.00000000      1.00000000
      1.00000000      1.00000000      1.00000000      1.00000000      1.00000000      1.00000000      1.00000000      1.00000000      1.00000000      1.00000000      1.00000000      1.00000000      1.00000000      1.00000000      1.00000000      1.00000000      1.00000000      1.00000000      1.00000000      1.00000000
      1.00000000      1.00000000      1.00000000      1.00000000      1.00000000      1.00000000      1.00000000      1.00000000      1.00000000      1.00000000      1.00000000      1.00000000      1.00000000      1.00000000      1.00000000      1.00000000      1.00000000      1.00000000      1.00000000      1.00000000
      1.00000000      1.00000000      1.00000000      1.00000000      1.00000000      1.00000000      1.00000000      1.00000000      1.00000000      1.00000000      1.00000000      1.00000000      1.00000000      1.00000000      1.00000000      1.00000000      1.00000000      1.00000000      1.00000000      1.00000000
      1.00000000      1.00000000      1.00000000      1.00000000      1.00000000      1.00000000      1.00000000      1.00000000      1.00000000      1.00000000      1.00000000      1.00000000      1.00000000      1.00000000      1.00000000      1.00000000      1.00000000      1.00000000      1.00000000      1.00000000
      1.00000000      1.00000000      1.00000000      1.00000000      1.00000000      1.00000000      1.00000000      1.00000000      1.00000000      1.00000000      1.00000000      1.00000000      1.00000000      1.00000000      1.00000000      1.00000000      1.00000000      1.00000000      1.00000000      1.00000000
      1.00000000      1.00000000      1.00000000      1.00000000      1.00000000      1.00000000      1.00000000      1.00000000      1.00000000      1.00000000      1.00000000      1.00000000      1.00000000      1.00000000      1.00000000      1.00000000      1.00000000      1.00000000      1.00000000      1.00000000
      1.00000000      1.00000000      1.00000000      1.00000000      1.00000000      1.00000000      1.00000000      1.00000000      1.00000000      1.00000000      1.00000000      1.00000000      1.00000000      1.00000000      1.00000000      1.00000000      1.00000000      1.00000000      1.00000000      1.00000000
      1.00000000      1.00000000      1.00000000      1.00000000      1.00000000      1.00000000      1.00000000      1.00000000      1.00000000      1.00000000      1.00000000      1.00000000      1.00000000      1.00000000</v>
    <i name="NUPDOWN">     -1.00000000</i>
    <i type="logical" name="LSORBIT"> F  </i>
    <v name="SAXIS">      0.00000000      0.00000000      1.00000000</v>
    <i type="logical" name="LSPIRAL"> F  </i>
    <v name="QSPIRAL">      0.00000000      0.00000000      0.00000000</v>
    <i type="logical" name="LZEROZ"> F  </i>
   </separator>
   <separator name="electronic exchange-correlation" >
    <i type="logical" name="LASPH"> F  </i>
    <i type="logical" name="LMETAGGA"> F  </i>
   </separator>
   <separator name="electronic convergence" >
    <i type="int" name="NELM">   250</i>
    <i type="int" name="NELMDL">    -5</i>
    <i type="int" name="NELMIN">     6</i>
    <i name="ENINI">    360.00000000</i>
    <separator name="electronic convergence detail" >
     <i type="logical" name="LDIAG"> T  </i>
     <i type="logical" name="LSUBROT"> F  </i>
     <i name="WEIMIN">      0.00000000</i>
     <i name="EBREAK">      0.00000000</i>
     <i name="DEPER">      0.30000000</i>
     <i type="int" name="NRMM">     4</i>
     <i name="TIME">      0.40000000</i>
    </separator>
   </separator>
   <separator name="electronic mixer" >
    <i name="AMIX">      0.40000000</i>
    <i name="BMIX">      1.00000000</i>
    <i name="AMIN">      0.10000000</i>
    <i name="AMIX_MAG">      1.60000000</i>
    <i name="BMIX_MAG">      1.00000000</i>
    <separator name="electronic mixer details" >
     <i type="int" name="IMIX">     4</i>
     <i type="logical" name="MIXFIRST"> F  </i>
     <i type="int" name="MAXMIX">   -45</i>
     <i name="WC">    100.00000000</i>
     <i type="int" name="INIMIX">     1</i>
     <i type="int" name="MIXPRE">     1</i>
     <i type="int" name="MREMOVE">     5</i>
    </separator>
   </separator>
   <separator name="electronic dipolcorrection" >
    <i type="logical" name="LDIPOL"> F  </i>
    <i type="logical" name="LMONO"> F  </i>
    <i type="int" name="IDIPOL">     0</i>
    <i name="EPSILON">      1.00000000</i>
    <v name="DIPOL">   -100.00000000   -100.00000000   -100.00000000</v>
    <i name="EFIELD">      0.00000000</i>
   </separator>
  </separator>
  <separator name="grids" >
   <i type="int" name="NGX">    70</i>
   <i type="int" name="NGY">    70</i>
   <i type="int" name="NGZ">   140</i>
   <i type="int" name="NGXF">   140</i>
   <i type="int" name="NGYF">   140</i>
   <i type="int" name="NGZF">   280</i>
   <i type="logical" name="ADDGRID"> F  </i>
  </separator>
  <separator name="ionic" >
   <i type="int" name="NSW">     0</i>
   <i type="int" name="IBRION">    -1</i>
   <i type="int" name="MDALGO">     0</i>
   <i type="int" name="ISIF">     0</i>
   <i name="PSTRESS">      0.00000000</i>
   <i name="EDIFFG">      0.00005000</i>
   <i type="int" name="NFREE">     0</i>
   <i name="POTIM">      0.50000000</i>
   <i name="SMASS">     -3.00000000</i>
   <i name="SCALEE">      1.00000000</i>
  </separator>
  <separator name="ionic md" >
   <i name="TEBEG">      0.00010000</i>
   <i name="TEEND">      0.00010000</i>
   <i type="int" name="NBLOCK">     1</i>
   <i type="int" name="KBLOCK">     1</i>
   <i type="int" name="NPACO">   256</i>
   <i name="APACO">     16.00000000</i>
  </separator>
  <separator name="symmetry" >
   <i type="int" name="ISYM">     2</i>
   <i name="SYMPREC">      0.00001000</i>
  </separator>
  <separator name="dos" >
   <i type="int" name="LORBIT">     0</i>
   <v name="RWIGS">     -1.00000000     -1.00000000</v>
   <i type="int" name="NEDOS">   301</i>
   <i name="EMIN">     10.00000000</i>
   <i name="EMAX">    -10.00000000</i>
   <i name="EFERMI">      0.00000000</i>
  </separator>
  <separator name="writing" >
   <i type="int" name="NWRITE">     2</i>
   <i type="logical" name="LWAVE"> F  </i>
   <i type="logical" name="LDOWNSAMPLE"> F  </i>
   <i type="logical" name="LCHARG"> F  </i>
   <i type="logical" name="LPARD"> F  </i>
   <i type="logical" name="LVTOT"> F  </i>
   <i type="logical" name="LVHAR"> F  </i>
   <i type="logical" name="LELF"> F  </i>
   <i type="logical" name="LOPTICS"> F  </i>
   <v name="STM">      0.00000000      0.00000000      0.00000000      0.00000000      0.00000000      0.00000000      0.00000000</v>
  </separator>
  <separator name="performance" >
   <i type="int" name="NPAR">     1</i>
   <i type="int" name="NSIM">     4</i>
   <i type="int" name="NBLK">    -1</i>
   <i type="logical" name="LPLANE"> T  </i>
   <i type="logical" name="LSCALAPACK"> T  </i>
   <i type="logical" name="LSCAAWARE"> F  </i>
   <i type="logical" name="LSCALU"> F  </i>
   <i type="logical" name="LASYNC"> F  </i>
   <i type="logical" name="LORBITALREAL"> F  </i>
  </separator>
  <separator name="miscellaneous" >
   <i type="int" name="IDIOT">     3</i>
   <i type="int" name="PHON_NSTRUCT">    -1</i>
   <i type="logical" name="LMUSIC"> F  </i>
   <v name="POMASS">     58.69000000     16.00000000</v>
   <v name="DARWINR">      0.00000000      0.00000000</v>
   <v name="DARWINV">      1.00000000      1.00000000</v>
   <i type="logical" name="LCORR"> T  </i>
  </separator>
  <i type="logical" name="GGA_COMPAT"> T  </i>
  <i type="logical" name="LBERRY"> F  </i>
  <i type="int" name="ICORELEVEL">     0</i>
  <i type="logical" name="LDAU"> F  </i>
  <i type="int" name="I_CONSTRAINED_M">     0</i>
  <separator name="electronic exchange-correlation" >
   <i type="string" name="GGA">--</i>
   <i type="int" name="VOSKOWN">     0</i>
   <i type="logical" name="LHFCALC"> F  </i>
   <i type="string" name="PRECFOCK"></i>
   <i type="logical" name="LSYMGRAD"> F  </i>
   <i type="logical" name="LHFONE"> F  </i>
   <i type="logical" name="LRHFCALC"> F  </i>
   <i type="logical" name="LTHOMAS"> F  </i>
   <i type="logical" name="LMODELHF"> F  </i>
   <i type="logical" name="LFOCKACE"> F  </i>
   <i name="ENCUT4O">     -1.00000000</i>
   <i type="int" name="EXXOEP">     0</i>
   <i type="int" name="FOURORBIT">     0</i>
   <i name="AEXX">      0.00000000</i>
   <i name="HFALPHA">      0.00000000</i>
   <i name="MCALPHA">      0.00000000</i>
   <i name="ALDAX">      1.00000000</i>
   <i name="AGGAX">      1.00000000</i>
   <i name="ALDAC">      1.00000000</i>
   <i name="AGGAC">      1.00000000</i>
   <i type="int" name="NKREDX">     1</i>
   <i type="int" name="NKREDY">     1</i>
   <i type="int" name="NKREDZ">     1</i>
   <i type="logical" name="SHIFTRED"> F  </i>
   <i type="logical" name="ODDONLY"> F  </i>
   <i type="logical" name="EVENONLY"> F  </i>
   <i type="int" name="LMAXFOCK">     0</i>
   <i type="int" name="NMAXFOCKAE">     0</i>
   <i type="logical" name="LFOCKAEDFT"> F  </i>
   <i name="HFSCREEN">      0.00000000</i>
   <i name="HFSCREENC">      0.00000000</i>
   <i type="int" name="NBANDSGWLOW">     0</i>
  </separator>
  <separator name="vdW DFT" >
   <i type="logical" name="LUSE_VDW"> F  </i>
   <i name="Zab_VDW">     -0.84910000</i>
   <i name="PARAM1">      0.12340000</i>
   <i name="PARAM2">      1.00000000</i>
   <i name="PARAM3">      0.00000000</i>
  </separator>
  <separator name="model GW" >
   <i type="int" name="MODEL_GW">     0</i>
   <i name="MODEL_EPS0">     13.60989534</i>
   <i name="MODEL_ALPHA">      1.00000000</i>
  </separator>
  <separator name="linear response parameters" >
   <i type="logical" name="LEPSILON"> F  </i>
   <i type="logical" name="LRPA"> F  </i>
   <i type="logical" name="LNABLA"> F  </i>
   <i type="logical" name="LVEL"> F  </i>
   <i type="int" name="KINTER">     0</i>
   <i name="CSHIFT">      0.10000000</i>
   <i name="OMEGAMAX">     -1.00000000</i>
   <i name="DEG_THRESHOLD">      0.00200000</i>
   <i name="RTIME">     -0.10000000</i>
   <i name="WPLASMAI">      0.00000000</i>
   <v name="DFIELD">      0.00000000      0.00000000      0.00000000</v>
   <v name="WPLASMA">      0.00000000      0.00000000      0.00000000      0.00000000      0.00000000      0.00000000      0.00000000      0.00000000      0.00000000</v>
  </separator>
  <separator name="orbital magnetization" >
   <i type="logical" name="NUCIND"> F  </i>
   <v name="MAGPOS">      0.00000000      0.00000000      0.00000000</v>
   <i type="logical" name="LNICSALL"> T  </i>
   <i type="logical" name="ORBITALMAG"> F  </i>
   <i type="logical" name="LMAGBLOCH"> F  </i>
   <i type="logical" name="LCHIMAG"> F  </i>
   <i type="logical" name="LGAUGE"> T  </i>
   <i type="int" name="MAGATOM">     0</i>
   <v name="MAGDIPOL">      0.00000000      0.00000000      0.00000000</v>
   <v name="AVECCONST">      0.00000000      0.00000000      0.00000000</v>
  </separator>
  <separator name="response functions" >
   <i type="logical" name="LFINITE_TEMPERATURE"> F  </i>
   <i type="logical" name="LADDER"> F  </i>
   <i type="logical" name="LRPAFORCE"> F  </i>
   <i type="logical" name="LFXC"> F  </i>
   <i type="logical" name="LHARTREE"> T  </i>
   <i type="int" name="IBSE">     0</i>
   <v type="int" name="KPOINT">    -1     0     0     0</v>
   <i type="logical" name="LTCTC"> F  </i>
   <i type="logical" name="LTCTE"> F  </i>
   <i type="logical" name="LTETE"> F  </i>
   <i type="logical" name="LTRIPLET"> F  </i>
   <i type="logical" name="LFXCEPS"> F  </i>
   <i type="logical" name="LFXHEG"> F  </i>
   <i type="int" name="NATURALO">     2</i>
   <i type="logical" name="LHOLEGF"> F  </i>
   <i type="logical" name="L2ORDER"> F  </i>
   <i type="logical" name="LDMP1"> F  </i>
   <i type="logical" name="LMP2LT"> F  </i>
   <i type="logical" name="LSMP2LT"> F  </i>
   <i type="logical" name="LGWLF"> F  </i>
   <i name="ENCUTGW">     -2.00000000</i>
   <i name="ENCUTGWSOFT">     -2.00000000</i>
   <i name="ENCUTLF">     -1.00000000</i>
   <i type="logical" name="LESF_SPLINES"> F  </i>
   <i type="int" name="LMAXMP2">    -1</i>
   <i name="SCISSOR">      0.00000000</i>
   <i type="int" name="NOMEGA">     0</i>
   <i type="int" name="NOMEGAR">     0</i>
   <i type="int" name="NBANDSGW">    -1</i>
   <i type="int" name="NBANDSO">    -1</i>
   <i type="int" name="NBANDSV">    -1</i>
   <i type="int" name="NELM">   250</i>
   <i type="int" name="NELMHF">     1</i>
   <i type="int" name="DIM">     3</i>
   <i type="int" name="IESPILON">     4</i>
   <i type="int" name="ANTIRES">     0</i>
   <i name="OMEGAMAX">    -30.00000000</i>
   <i name="OMEGAMIN">    -30.00000000</i>
   <i name="OMEGATL">   -200.00000000</i>
   <i type="int" name="OMEGAGRID">     0</i>
   <i name="CSHIFT">     -0.10000000</i>
   <i type="logical" name="LSELFENERGY"> F  </i>
   <i type="logical" name="LSPECTRAL"> F  </i>
   <i type="logical" name="LSPECTRALGW"> F  </i>
   <i type="logical" name="LSINGLES"> F  </i>
   <i type="logical" name="LFERMIGW"> F  </i>
   <i type="logical" name="ODDONLYGW"> F  </i>
   <i type="logical" name="EVENONLYGW"> F  </i>
   <i type="int" name="NKREDLFX">     1</i>
   <i type="int" name="NKREDLFY">     1</i>
   <i type="int" name="NKREDLFZ">     1</i>
   <i type="int" name="MAXMEM">  2800</i>
   <i type="int" name="TELESCOPE">     0</i>
   <i type="int" name="NTAUPAR">    -1</i>
   <i type="int" name="NOMEGAPAR">    -1</i>
   <i name="DAMP_NEWTON">      0.80000001</i>
   <i name="LAMBDA">      1.00000000</i>
  </separator>
  <separator name="External order field" >
   <i name="OFIELD_KAPPA">      0.00000000</i>
   <v name="OFIELD_K">      0.00000000      0.00000000      0.00000000</v>
   <i name="OFIELD_Q6_NEAR">      0.00000000</i>
   <i name="OFIELD_Q6_FAR">      0.00000000</i>
   <i name="OFIELD_A">      0.00000000</i>
  </separator>
  <separator name="solvation model" >
   <i type="logical" name="LSOL"> F  </i>
  </separator>
 </parameters>
 <atominfo>
  <atoms>     254 </atoms>
  <types>       2 </types>
  <array name="atoms" >
   <dimension dim="1">ion</dimension>
   <field type="string">element</field>
   <field type="int">atomtype</field>
   <set>
    <rc><c>Ni</c><c>   1</c></rc>
    <rc><c>Ni</c><c>   1</c></rc>
    <rc><c>Ni</c><c>   1</c></rc>
    <rc><c>Ni</c><c>   1</c></rc>
    <rc><c>Ni</c><c>   1</c></rc>
    <rc><c>Ni</c><c>   1</c></rc>
    <rc><c>Ni</c><c>   1</c></rc>
    <rc><c>Ni</c><c>   1</c></rc>
    <rc><c>Ni</c><c>   1</c></rc>
    <rc><c>Ni</c><c>   1</c></rc>
    <rc><c>Ni</c><c>   1</c></rc>
    <rc><c>Ni</c><c>   1</c></rc>
    <rc><c>Ni</c><c>   1</c></rc>
    <rc><c>Ni</c><c>   1</c></rc>
    <rc><c>Ni</c><c>   1</c></rc>
    <rc><c>Ni</c><c>   1</c></rc>
    <rc><c>Ni</c><c>   1</c></rc>
    <rc><c>Ni</c><c>   1</c></rc>
    <rc><c>Ni</c><c>   1</c></rc>
    <rc><c>Ni</c><c>   1</c></rc>
    <rc><c>Ni</c><c>   1</c></rc>
    <rc><c>Ni</c><c>   1</c></rc>
    <rc><c>Ni</c><c>   1</c></rc>
    <rc><c>Ni</c><c>   1</c></rc>
    <rc><c>Ni</c><c>   1</c></rc>
    <rc><c>Ni</c><c>   1</c></rc>
    <rc><c>Ni</c><c>   1</c></rc>
    <rc><c>Ni</c><c>   1</c></rc>
    <rc><c>Ni</c><c>   1</c></rc>
    <rc><c>Ni</c><c>   1</c></rc>
    <rc><c>Ni</c><c>   1</c></rc>
    <rc><c>Ni</c><c>   1</c></rc>
    <rc><c>Ni</c><c>   1</c></rc>
    <rc><c>Ni</c><c>   1</c></rc>
    <rc><c>Ni</c><c>   1</c></rc>
    <rc><c>Ni</c><c>   1</c></rc>
    <rc><c>Ni</c><c>   1</c></rc>
    <rc><c>Ni</c><c>   1</c></rc>
    <rc><c>Ni</c><c>   1</c></rc>
    <rc><c>Ni</c><c>   1</c></rc>
    <rc><c>Ni</c><c>   1</c></rc>
    <rc><c>Ni</c><c>   1</c></rc>
    <rc><c>Ni</c><c>   1</c></rc>
    <rc><c>Ni</c><c>   1</c></rc>
    <rc><c>Ni</c><c>   1</c></rc>
    <rc><c>Ni</c><c>   1</c></rc>
    <rc><c>Ni</c><c>   1</c></rc>
    <rc><c>Ni</c><c>   1</c></rc>
    <rc><c>Ni</c><c>   1</c></rc>
    <rc><c>Ni</c><c>   1</c></rc>
    <rc><c>Ni</c><c>   1</c></rc>
    <rc><c>Ni</c><c>   1</c></rc>
    <rc><c>Ni</c><c>   1</c></rc>
    <rc><c>Ni</c><c>   1</c></rc>
    <rc><c>Ni</c><c>   1</c></rc>
    <rc><c>Ni</c><c>   1</c></rc>
    <rc><c>Ni</c><c>   1</c></rc>
    <rc><c>Ni</c><c>   1</c></rc>
    <rc><c>Ni</c><c>   1</c></rc>
    <rc><c>Ni</c><c>   1</c></rc>
    <rc><c>Ni</c><c>   1</c></rc>
    <rc><c>Ni</c><c>   1</c></rc>
    <rc><c>Ni</c><c>   1</c></rc>
    <rc><c>Ni</c><c>   1</c></rc>
    <rc><c>Ni</c><c>   1</c></rc>
    <rc><c>Ni</c><c>   1</c></rc>
    <rc><c>Ni</c><c>   1</c></rc>
    <rc><c>Ni</c><c>   1</c></rc>
    <rc><c>Ni</c><c>   1</c></rc>
    <rc><c>Ni</c><c>   1</c></rc>
    <rc><c>Ni</c><c>   1</c></rc>
    <rc><c>Ni</c><c>   1</c></rc>
    <rc><c>Ni</c><c>   1</c></rc>
    <rc><c>Ni</c><c>   1</c></rc>
    <rc><c>Ni</c><c>   1</c></rc>
    <rc><c>Ni</c><c>   1</c></rc>
    <rc><c>Ni</c><c>   1</c></rc>
    <rc><c>Ni</c><c>   1</c></rc>
    <rc><c>Ni</c><c>   1</c></rc>
    <rc><c>Ni</c><c>   1</c></rc>
    <rc><c>Ni</c><c>   1</c></rc>
    <rc><c>Ni</c><c>   1</c></rc>
    <rc><c>Ni</c><c>   1</c></rc>
    <rc><c>Ni</c><c>   1</c></rc>
    <rc><c>Ni</c><c>   1</c></rc>
    <rc><c>Ni</c><c>   1</c></rc>
    <rc><c>Ni</c><c>   1</c></rc>
    <rc><c>Ni</c><c>   1</c></rc>
    <rc><c>Ni</c><c>   1</c></rc>
    <rc><c>Ni</c><c>   1</c></rc>
    <rc><c>Ni</c><c>   1</c></rc>
    <rc><c>Ni</c><c>   1</c></rc>
    <rc><c>Ni</c><c>   1</c></rc>
    <rc><c>Ni</c><c>   1</c></rc>
    <rc><c>Ni</c><c>   1</c></rc>
    <rc><c>Ni</c><c>   1</c></rc>
    <rc><c>Ni</c><c>   1</c></rc>
    <rc><c>Ni</c><c>   1</c></rc>
    <rc><c>Ni</c><c>   1</c></rc>
    <rc><c>Ni</c><c>   1</c></rc>
    <rc><c>Ni</c><c>   1</c></rc>
    <rc><c>Ni</c><c>   1</c></rc>
    <rc><c>Ni</c><c>   1</c></rc>
    <rc><c>Ni</c><c>   1</c></rc>
    <rc><c>Ni</c><c>   1</c></rc>
    <rc><c>Ni</c><c>   1</c></rc>
    <rc><c>Ni</c><c>   1</c></rc>
    <rc><c>Ni</c><c>   1</c></rc>
    <rc><c>Ni</c><c>   1</c></rc>
    <rc><c>Ni</c><c>   1</c></rc>
    <rc><c>Ni</c><c>   1</c></rc>
    <rc><c>Ni</c><c>   1</c></rc>
    <rc><c>Ni</c><c>   1</c></rc>
    <rc><c>Ni</c><c>   1</c></rc>
    <rc><c>Ni</c><c>   1</c></rc>
    <rc><c>Ni</c><c>   1</c></rc>
    <rc><c>Ni</c><c>   1</c></rc>
    <rc><c>Ni</c><c>   1</c></rc>
    <rc><c>Ni</c><c>   1</c></rc>
    <rc><c>Ni</c><c>   1</c></rc>
    <rc><c>Ni</c><c>   1</c></rc>
    <rc><c>Ni</c><c>   1</c></rc>
    <rc><c>Ni</c><c>   1</c></rc>
    <rc><c>Ni</c><c>   1</c></rc>
    <rc><c>Ni</c><c>   1</c></rc>
    <rc><c>Ni</c><c>   1</c></rc>
    <rc><c>Ni</c><c>   1</c></rc>
    <rc><c>Ni</c><c>   1</c></rc>
    <rc><c>Ni</c><c>   1</c></rc>
    <rc><c>Ni</c><c>   1</c></rc>
    <rc><c>Ni</c><c>   1</c></rc>
    <rc><c>Ni</c><c>   1</c></rc>
    <rc><c>Ni</c><c>   1</c></rc>
    <rc><c>Ni</c><c>   1</c></rc>
    <rc><c>Ni</c><c>   1</c></rc>
    <rc><c>Ni</c><c>   1</c></rc>
    <rc><c>Ni</c><c>   1</c></rc>
    <rc><c>Ni</c><c>   1</c></rc>
    <rc><c>Ni</c><c>   1</c></rc>
    <rc><c>Ni</c><c>   1</c></rc>
    <rc><c>Ni</c><c>   1</c></rc>
    <rc><c>Ni</c><c>   1</c></rc>
    <rc><c>Ni</c><c>   1</c></rc>
    <rc><c>Ni</c><c>   1</c></rc>
    <rc><c>Ni</c><c>   1</c></rc>
    <rc><c>Ni</c><c>   1</c></rc>
    <rc><c>Ni</c><c>   1</c></rc>
    <rc><c>Ni</c><c>   1</c></rc>
    <rc><c>Ni</c><c>   1</c></rc>
    <rc><c>Ni</c><c>   1</c></rc>
    <rc><c>Ni</c><c>   1</c></rc>
    <rc><c>Ni</c><c>   1</c></rc>
    <rc><c>Ni</c><c>   1</c></rc>
    <rc><c>Ni</c><c>   1</c></rc>
    <rc><c>Ni</c><c>   1</c></rc>
    <rc><c>Ni</c><c>   1</c></rc>
    <rc><c>Ni</c><c>   1</c></rc>
    <rc><c>Ni</c><c>   1</c></rc>
    <rc><c>Ni</c><c>   1</c></rc>
    <rc><c>Ni</c><c>   1</c></rc>
    <rc><c>Ni</c><c>   1</c></rc>
    <rc><c>Ni</c><c>   1</c></rc>
    <rc><c>Ni</c><c>   1</c></rc>
    <rc><c>Ni</c><c>   1</c></rc>
    <rc><c>Ni</c><c>   1</c></rc>
    <rc><c>Ni</c><c>   1</c></rc>
    <rc><c>Ni</c><c>   1</c></rc>
    <rc><c>Ni</c><c>   1</c></rc>
    <rc><c>Ni</c><c>   1</c></rc>
    <rc><c>Ni</c><c>   1</c></rc>
    <rc><c>Ni</c><c>   1</c></rc>
    <rc><c>Ni</c><c>   1</c></rc>
    <rc><c>Ni</c><c>   1</c></rc>
    <rc><c>Ni</c><c>   1</c></rc>
    <rc><c>Ni</c><c>   1</c></rc>
    <rc><c>Ni</c><c>   1</c></rc>
    <rc><c>Ni</c><c>   1</c></rc>
    <rc><c>Ni</c><c>   1</c></rc>
    <rc><c>Ni</c><c>   1</c></rc>
    <rc><c>Ni</c><c>   1</c></rc>
    <rc><c>Ni</c><c>   1</c></rc>
    <rc><c>Ni</c><c>   1</c></rc>
    <rc><c>Ni</c><c>   1</c></rc>
    <rc><c>Ni</c><c>   1</c></rc>
    <rc><c>Ni</c><c>   1</c></rc>
    <rc><c>Ni</c><c>   1</c></rc>
    <rc><c>Ni</c><c>   1</c></rc>
    <rc><c>Ni</c><c>   1</c></rc>
    <rc><c>Ni</c><c>   1</c></rc>
    <rc><c>Ni</c><c>   1</c></rc>
    <rc><c>Ni</c><c>   1</c></rc>
    <rc><c>Ni</c><c>   1</c></rc>
    <rc><c>Ni</c><c>   1</c></rc>
    <rc><c>Ni</c><c>   1</c></rc>
    <rc><c>Ni</c><c>   1</c></rc>
    <rc><c>Ni</c><c>   1</c></rc>
    <rc><c>Ni</c><c>   1</c></rc>
    <rc><c>Ni</c><c>   1</c></rc>
    <rc><c>Ni</c><c>   1</c></rc>
    <rc><c>Ni</c><c>   1</c></rc>
    <rc><c>Ni</c><c>   1</c></rc>
    <rc><c>Ni</c><c>   1</c></rc>
    <rc><c>Ni</c><c>   1</c></rc>
    <rc><c>Ni</c><c>   1</c></rc>
    <rc><c>Ni</c><c>   1</c></rc>
    <rc><c>Ni</c><c>   1</c></rc>
    <rc><c>Ni</c><c>   1</c></rc>
    <rc><c>Ni</c><c>   1</c></rc>
    <rc><c>Ni</c><c>   1</c></rc>
    <rc><c>Ni</c><c>   1</c></rc>
    <rc><c>Ni</c><c>   1</c></rc>
    <rc><c>Ni</c><c>   1</c></rc>
    <rc><c>Ni</c><c>   1</c></rc>
    <rc><c>Ni</c><c>   1</c></rc>
    <rc><c>Ni</c><c>   1</c></rc>
    <rc><c>Ni</c><c>   1</c></rc>
    <rc><c>Ni</c><c>   1</c></rc>
    <rc><c>Ni</c><c>   1</c></rc>
    <rc><c>Ni</c><c>   1</c></rc>
    <rc><c>Ni</c><c>   1</c></rc>
    <rc><c>Ni</c><c>   1</c></rc>
    <rc><c>Ni</c><c>   1</c></rc>
    <rc><c>Ni</c><c>   1</c></rc>
    <rc><c>Ni</c><c>   1</c></rc>
    <rc><c>Ni</c><c>   1</c></rc>
    <rc><c>Ni</c><c>   1</c></rc>
    <rc><c>Ni</c><c>   1</c></rc>
    <rc><c>Ni</c><c>   1</c></rc>
    <rc><c>Ni</c><c>   1</c></rc>
    <rc><c>Ni</c><c>   1</c></rc>
    <rc><c>Ni</c><c>   1</c></rc>
    <rc><c>Ni</c><c>   1</c></rc>
    <rc><c>Ni</c><c>   1</c></rc>
    <rc><c>Ni</c><c>   1</c></rc>
    <rc><c>Ni</c><c>   1</c></rc>
    <rc><c>Ni</c><c>   1</c></rc>
    <rc><c>Ni</c><c>   1</c></rc>
    <rc><c>Ni</c><c>   1</c></rc>
    <rc><c>Ni</c><c>   1</c></rc>
    <rc><c>Ni</c><c>   1</c></rc>
    <rc><c>Ni</c><c>   1</c></rc>
    <rc><c>Ni</c><c>   1</c></rc>
    <rc><c>Ni</c><c>   1</c></rc>
    <rc><c>Ni</c><c>   1</c></rc>
    <rc><c>Ni</c><c>   1</c></rc>
    <rc><c>Ni</c><c>   1</c></rc>
    <rc><c>Ni</c><c>   1</c></rc>
    <rc><c>Ni</c><c>   1</c></rc>
    <rc><c>Ni</c><c>   1</c></rc>
    <rc><c>Ni</c><c>   1</c></rc>
    <rc><c>Ni</c><c>   1</c></rc>
    <rc><c>Ni</c><c>   1</c></rc>
    <rc><c>O </c><c>   2</c></rc>
    <rc><c>O </c><c>   2</c></rc>
   </set>
  </array>
  <array name="atomtypes" >
   <dimension dim="1">type</dimension>
   <field type="int">atomspertype</field>
   <field type="string">element</field>
   <field>mass</field>
   <field>valence</field>
   <field type="string">pseudopotential</field>
   <set>
    <rc><c> 252</c><c>Ni</c><c>     58.69000000</c><c>     10.00000000</c><c>  PAW Ni_GW 31Mar2010                   </c></rc>
    <rc><c>   2</c><c>O </c><c>     16.00000000</c><c>      6.00000000</c><c>  PAW O_GW 19Mar2012                    </c></rc>
   </set>
  </array>
 </atominfo>
 <structure name="initialpos" >
  <crystal>
   <varray name="basis" >
    <v>       0.00000000     -15.14622176       0.00000000 </v>
    <v>       0.00000000      -7.57311088     -13.11701281 </v>
    <v>      29.00000000       0.00000000       0.00000000 </v>
   </varray>
   <i name="volume">   5761.52236213 </i>
   <varray name="rec_basis" >
    <v>       0.00000000      -0.06602307       0.03811843 </v>
    <v>       0.00000000       0.00000000      -0.07623687 </v>
    <v>       0.03448276       0.00000000       0.00000000 </v>
   </varray>
  </crystal>
  <varray name="positions" >
   <v>       0.44444450       0.44444418       0.10434517 </v>
   <v>       0.44444439       0.77777770       0.10434517 </v>
   <v>       0.44444423       0.11111143       0.10434517 </v>
   <v>       0.77777779       0.44444418       0.10434517 </v>
   <v>       0.77777768       0.77777770       0.10434517 </v>
   <v>       0.77777752       0.11111143       0.10434517 </v>
   <v>       0.11111120       0.44444418       0.10434517 </v>
   <v>       0.11111109       0.77777770       0.10434517 </v>
   <v>       0.11111093       0.11111143       0.10434517 </v>
   <v>       0.55555543       0.55555561       0.17318552 </v>
   <v>       0.55555532       0.88888912       0.17318552 </v>
   <v>       0.55555554       0.22222209       0.17318552 </v>
   <v>       0.88888873       0.55555561       0.17318552 </v>
   <v>       0.88888862       0.88888912       0.17318552 </v>
   <v>       0.88888884       0.22222209       0.17318552 </v>
   <v>       0.22222214       0.55555561       0.17318552 </v>
   <v>       0.22222203       0.88888912       0.17318552 </v>
   <v>       0.22222225       0.22222209       0.17318552 </v>
   <v>       0.66666637       0.66666703       0.24249897 </v>
   <v>       0.66666659       0.00000000       0.24249897 </v>
   <v>       0.66666648       0.33333352       0.24249897 </v>
   <v>       0.99999978       0.66666703       0.24249897 </v>
   <v>       0.00000000       0.00000000       0.24249897 </v>
   <v>       0.99999989       0.33333352       0.24249897 </v>
   <v>       0.33333307       0.66666703       0.24249897 </v>
   <v>       0.33333329       0.00000000       0.24249897 </v>
   <v>       0.33333318       0.33333352       0.24249897 </v>
   <v>       0.77777768       0.77777770       0.31173069 </v>
   <v>       0.77777752       0.11111143       0.31173069 </v>
   <v>       0.77777779       0.44444418       0.31173069 </v>
   <v>       0.11111109       0.77777770       0.31173069 </v>
   <v>       0.11111093       0.11111143       0.31173069 </v>
   <v>       0.11111120       0.44444418       0.31173069 </v>
   <v>       0.44444439       0.77777770       0.31173069 </v>
   <v>       0.44444423       0.11111143       0.31173069 </v>
   <v>       0.44444450       0.44444418       0.31173069 </v>
   <v>       0.88888862       0.88888912       0.38096241 </v>
   <v>       0.88888884       0.22222209       0.38096241 </v>
   <v>       0.88888873       0.55555561       0.38096241 </v>
   <v>       0.22222203       0.88888912       0.38096241 </v>
   <v>       0.22222225       0.22222209       0.38096241 </v>
   <v>       0.22222214       0.55555561       0.38096241 </v>
   <v>       0.55555532       0.88888912       0.38096241 </v>
   <v>       0.55555554       0.22222209       0.38096241 </v>
   <v>       0.55555543       0.55555561       0.38096241 </v>
   <v>       0.00000000       0.00000000       0.45027586 </v>
   <v>       0.99999989       0.33333352       0.45027586 </v>
   <v>       0.99999978       0.66666703       0.45027586 </v>
   <v>       0.33333329       0.00000000       0.45027586 </v>
   <v>       0.33333318       0.33333352       0.45027586 </v>
   <v>       0.33333307       0.66666703       0.45027586 </v>
   <v>       0.66666659       0.00000000       0.45027586 </v>
   <v>       0.66666648       0.33333352       0.45027586 </v>
   <v>       0.66666637       0.66666703       0.45027586 </v>
   <v>       0.11111093       0.11111143       0.51911621 </v>
   <v>       0.11111120       0.44444418       0.51911621 </v>
   <v>       0.11111109       0.77777770       0.51911621 </v>
   <v>       0.44444423       0.11111143       0.51911621 </v>
   <v>       0.44444450       0.44444418       0.51911621 </v>
   <v>       0.44444439       0.77777770       0.51911621 </v>
   <v>       0.77777752       0.11111143       0.51911621 </v>
   <v>       0.77777779       0.44444418       0.51911621 </v>
   <v>       0.77777768       0.77777770       0.51911621 </v>
   <v>       0.27777824       0.27777742       0.10434517 </v>
   <v>       0.27777813       0.61111094       0.10434517 </v>
   <v>       0.27777802       0.94444445       0.10434517 </v>
   <v>       0.61111153       0.27777742       0.10434517 </v>
   <v>       0.61111142       0.61111094       0.10434517 </v>
   <v>       0.61111131       0.94444445       0.10434517 </v>
   <v>       0.94444483       0.27777742       0.10434517 </v>
   <v>       0.94444472       0.61111094       0.10434517 </v>
   <v>       0.94444461       0.94444445       0.10434517 </v>
   <v>       0.38888917       0.38888885       0.17318552 </v>
   <v>       0.38888906       0.72222236       0.17318552 </v>
   <v>       0.38888928       0.05555533       0.17318552 </v>
   <v>       0.72222247       0.38888885       0.17318552 </v>
   <v>       0.72222236       0.72222236       0.17318552 </v>
   <v>       0.72222258       0.05555533       0.17318552 </v>
   <v>       0.05555588       0.38888885       0.17318552 </v>
   <v>       0.05555577       0.72222236       0.17318552 </v>
   <v>       0.05555599       0.05555533       0.17318552 </v>
   <v>       0.50000011       0.50000027       0.24249897 </v>
   <v>       0.50000038       0.83333303       0.24249897 </v>
   <v>       0.50000022       0.16666676       0.24249897 </v>
   <v>       0.83333340       0.50000027       0.24249897 </v>
   <v>       0.83333367       0.83333303       0.24249897 </v>
   <v>       0.83333351       0.16666676       0.24249897 </v>
   <v>       0.16666681       0.50000027       0.24249897 </v>
   <v>       0.16666708       0.83333303       0.24249897 </v>
   <v>       0.16666692       0.16666676       0.24249897 </v>
   <v>       0.61111142       0.61111094       0.31173069 </v>
   <v>       0.61111131       0.94444445       0.31173069 </v>
   <v>       0.61111153       0.27777742       0.31173069 </v>
   <v>       0.94444472       0.61111094       0.31173069 </v>
   <v>       0.94444461       0.94444445       0.31173069 </v>
   <v>       0.94444483       0.27777742       0.31173069 </v>
   <v>       0.27777813       0.61111094       0.31173069 </v>
   <v>       0.27777802       0.94444445       0.31173069 </v>
   <v>       0.27777824       0.27777742       0.31173069 </v>
   <v>       0.72222236       0.72222236       0.38096241 </v>
   <v>       0.72222258       0.05555533       0.38096241 </v>
   <v>       0.72222247       0.38888885       0.38096241 </v>
   <v>       0.05555577       0.72222236       0.38096241 </v>
   <v>       0.05555599       0.05555533       0.38096241 </v>
   <v>       0.05555588       0.38888885       0.38096241 </v>
   <v>       0.38888906       0.72222236       0.38096241 </v>
   <v>       0.38888928       0.05555533       0.38096241 </v>
   <v>       0.38888917       0.38888885       0.38096241 </v>
   <v>       0.83333367       0.83333303       0.45027586 </v>
   <v>       0.83333351       0.16666676       0.45027586 </v>
   <v>       0.83333340       0.50000027       0.45027586 </v>
   <v>       0.16666708       0.83333303       0.45027586 </v>
   <v>       0.16666692       0.16666676       0.45027586 </v>
   <v>       0.16666681       0.50000027       0.45027586 </v>
   <v>       0.50000038       0.83333303       0.45027586 </v>
   <v>       0.50000022       0.16666676       0.45027586 </v>
   <v>       0.50000011       0.50000027       0.45027586 </v>
   <v>       0.94444461       0.94444445       0.51911621 </v>
   <v>       0.94444483       0.27777742       0.51911621 </v>
   <v>       0.94444472       0.61111094       0.51911621 </v>
   <v>       0.27777802       0.94444445       0.51911621 </v>
   <v>       0.27777824       0.27777742       0.51911621 </v>
   <v>       0.27777813       0.61111094       0.51911621 </v>
   <v>       0.61111131       0.94444445       0.51911621 </v>
   <v>       0.61111153       0.27777742       0.51911621 </v>
   <v>       0.61111142       0.61111094       0.51911621 </v>
   <v>       0.27777785       0.44444418       0.10434517 </v>
   <v>       0.27777774       0.77777770       0.10434517 </v>
   <v>       0.27777758       0.11111143       0.10434517 </v>
   <v>       0.61111115       0.44444418       0.10434517 </v>
   <v>       0.61111104       0.77777770       0.10434517 </v>
   <v>       0.61111088       0.11111143       0.10434517 </v>
   <v>       0.94444444       0.44444418       0.10434517 </v>
   <v>       0.94444433       0.77777770       0.10434517 </v>
   <v>       0.94444417       0.11111143       0.10434517 </v>
   <v>       0.38888879       0.55555561       0.17318552 </v>
   <v>       0.38888868       0.88888912       0.17318552 </v>
   <v>       0.38888890       0.22222209       0.17318552 </v>
   <v>       0.72222208       0.55555561       0.17318552 </v>
   <v>       0.72222197       0.88888912       0.17318552 </v>
   <v>       0.72222219       0.22222209       0.17318552 </v>
   <v>       0.05555549       0.55555561       0.17318552 </v>
   <v>       0.05555538       0.88888912       0.17318552 </v>
   <v>       0.05555560       0.22222209       0.17318552 </v>
   <v>       0.49999972       0.66666703       0.24249897 </v>
   <v>       0.49999994       0.00000000       0.24249897 </v>
   <v>       0.49999983       0.33333352       0.24249897 </v>
   <v>       0.83333302       0.66666703       0.24249897 </v>
   <v>       0.83333324       0.00000000       0.24249897 </v>
   <v>       0.83333313       0.33333352       0.24249897 </v>
   <v>       0.16666643       0.66666703       0.24249897 </v>
   <v>       0.16666665       0.00000000       0.24249897 </v>
   <v>       0.16666654       0.33333352       0.24249897 </v>
   <v>       0.61111104       0.77777770       0.31173069 </v>
   <v>       0.61111088       0.11111143       0.31173069 </v>
   <v>       0.61111115       0.44444418       0.31173069 </v>
   <v>       0.94444433       0.77777770       0.31173069 </v>
   <v>       0.94444417       0.11111143       0.31173069 </v>
   <v>       0.94444444       0.44444418       0.31173069 </v>
   <v>       0.27777774       0.77777770       0.31173069 </v>
   <v>       0.27777758       0.11111143       0.31173069 </v>
   <v>       0.27777785       0.44444418       0.31173069 </v>
   <v>       0.72222197       0.88888912       0.38096241 </v>
   <v>       0.72222219       0.22222209       0.38096241 </v>
   <v>       0.72222208       0.55555561       0.38096241 </v>
   <v>       0.05555538       0.88888912       0.38096241 </v>
   <v>       0.05555560       0.22222209       0.38096241 </v>
   <v>       0.05555549       0.55555561       0.38096241 </v>
   <v>       0.38888868       0.88888912       0.38096241 </v>
   <v>       0.38888890       0.22222209       0.38096241 </v>
   <v>       0.38888879       0.55555561       0.38096241 </v>
   <v>       0.83333324       0.00000000       0.45027586 </v>
   <v>       0.83333313       0.33333352       0.45027586 </v>
   <v>       0.83333302       0.66666703       0.45027586 </v>
   <v>       0.16666665       0.00000000       0.45027586 </v>
   <v>       0.16666654       0.33333352       0.45027586 </v>
   <v>       0.16666643       0.66666703       0.45027586 </v>
   <v>       0.49999994       0.00000000       0.45027586 </v>
   <v>       0.49999983       0.33333352       0.45027586 </v>
   <v>       0.49999972       0.66666703       0.45027586 </v>
   <v>       0.94444417       0.11111143       0.51911621 </v>
   <v>       0.94444444       0.44444418       0.51911621 </v>
   <v>       0.94444433       0.77777770       0.51911621 </v>
   <v>       0.27777758       0.11111143       0.51911621 </v>
   <v>       0.27777785       0.44444418       0.51911621 </v>
   <v>       0.27777774       0.77777770       0.51911621 </v>
   <v>       0.61111088       0.11111143       0.51911621 </v>
   <v>       0.61111115       0.44444418       0.51911621 </v>
   <v>       0.61111104       0.77777770       0.51911621 </v>
   <v>       0.44444488       0.27777742       0.10434517 </v>
   <v>       0.44444477       0.61111094       0.10434517 </v>
   <v>       0.44444466       0.94444445       0.10434517 </v>
   <v>       0.77777818       0.27777742       0.10434517 </v>
   <v>       0.77777807       0.61111094       0.10434517 </v>
   <v>       0.77777796       0.94444445       0.10434517 </v>
   <v>       0.11111159       0.27777742       0.10434517 </v>
   <v>       0.11111148       0.61111094       0.10434517 </v>
   <v>       0.11111137       0.94444445       0.10434517 </v>
   <v>       0.55555582       0.38888885       0.17318552 </v>
   <v>       0.55555571       0.72222236       0.17318552 </v>
   <v>       0.55555593       0.05555533       0.17318552 </v>
   <v>       0.88888911       0.38888885       0.17318552 </v>
   <v>       0.88888900       0.72222236       0.17318552 </v>
   <v>       0.88888922       0.05555533       0.17318552 </v>
   <v>       0.22222252       0.38888885       0.17318552 </v>
   <v>       0.22222241       0.72222236       0.17318552 </v>
   <v>       0.22222264       0.05555533       0.17318552 </v>
   <v>       0.66666675       0.50000027       0.24249897 </v>
   <v>       0.66666702       0.83333303       0.24249897 </v>
   <v>       0.66666686       0.16666676       0.24249897 </v>
   <v>       0.00000016       0.50000027       0.24249897 </v>
   <v>       0.00000043       0.83333303       0.24249897 </v>
   <v>       0.00000027       0.16666676       0.24249897 </v>
   <v>       0.33333346       0.50000027       0.24249897 </v>
   <v>       0.33333373       0.83333303       0.24249897 </v>
   <v>       0.33333357       0.16666676       0.24249897 </v>
   <v>       0.77777807       0.61111094       0.31173069 </v>
   <v>       0.77777796       0.94444445       0.31173069 </v>
   <v>       0.77777818       0.27777742       0.31173069 </v>
   <v>       0.11111148       0.61111094       0.31173069 </v>
   <v>       0.11111137       0.94444445       0.31173069 </v>
   <v>       0.11111159       0.27777742       0.31173069 </v>
   <v>       0.44444477       0.61111094       0.31173069 </v>
   <v>       0.44444466       0.94444445       0.31173069 </v>
   <v>       0.44444488       0.27777742       0.31173069 </v>
   <v>       0.88888900       0.72222236       0.38096241 </v>
   <v>       0.88888922       0.05555533       0.38096241 </v>
   <v>       0.88888911       0.38888885       0.38096241 </v>
   <v>       0.22222241       0.72222236       0.38096241 </v>
   <v>       0.22222264       0.05555533       0.38096241 </v>
   <v>       0.22222252       0.38888885       0.38096241 </v>
   <v>       0.55555571       0.72222236       0.38096241 </v>
   <v>       0.55555593       0.05555533       0.38096241 </v>
   <v>       0.55555582       0.38888885       0.38096241 </v>
   <v>       0.00000043       0.83333303       0.45027586 </v>
   <v>       0.00000027       0.16666676       0.45027586 </v>
   <v>       0.00000016       0.50000027       0.45027586 </v>
   <v>       0.33333373       0.83333303       0.45027586 </v>
   <v>       0.33333357       0.16666676       0.45027586 </v>
   <v>       0.33333346       0.50000027       0.45027586 </v>
   <v>       0.66666702       0.83333303       0.45027586 </v>
   <v>       0.66666686       0.16666676       0.45027586 </v>
   <v>       0.66666675       0.50000027       0.45027586 </v>
   <v>       0.11111137       0.94444445       0.51911621 </v>
   <v>       0.11111159       0.27777742       0.51911621 </v>
   <v>       0.11111148       0.61111094       0.51911621 </v>
   <v>       0.44444466       0.94444445       0.51911621 </v>
   <v>       0.44444488       0.27777742       0.51911621 </v>
   <v>       0.44444477       0.61111094       0.51911621 </v>
   <v>       0.77777796       0.94444445       0.51911621 </v>
   <v>       0.77777818       0.27777742       0.51911621 </v>
   <v>       0.77777807       0.61111094       0.51911621 </v>
   <v>       0.54875669       0.40253067       0.65689655 </v>
   <v>       0.50682642       0.48639123       0.65689655 </v>
  </varray>
 </structure>
 <calculation>
  <scstep>
   <time name="dav">   32.61   32.62</time>
   <time name="total">   33.20   33.23</time>
   <energy>
    <i name="alphaZ">  11989.56231627 </i>
    <i name="ewald">1644122.76899577 </i>
    <i name="hartreedc">**************** </i>
    <i name="XCdc">   2948.55356681 </i>
    <i name="pawpsdc"> 240645.55203634 </i>
    <i name="pawaedc">-260205.15184403 </i>
    <i name="eentropy">     -0.16971489 </i>
    <i name="bandstr">  18947.69531878 </i>
    <i name="atom"> 272423.81458302 </i>
    <i name="e_fr_energy">  22341.49423784 </i>
    <i name="e_wo_entrp">  22341.66395272 </i>
    <i name="e_0_energy">  22341.57909528 </i>
   </energy>
  </scstep>
  <scstep>
   <time name="dav">   32.49   32.49</time>
   <time name="total">   32.49   32.50</time>
   <energy>
    <i name="e_fr_energy">    101.40281395 </i>
    <i name="e_wo_entrp">    101.61802814 </i>
    <i name="e_0_energy">    101.51042104 </i>
   </energy>
  </scstep>
  <scstep>
   <time name="dav">   35.75   35.75</time>
   <time name="total">   35.75   35.76</time>
   <energy>
    <i name="e_fr_energy">  -1337.79103360 </i>
    <i name="e_wo_entrp">  -1336.96935038 </i>
    <i name="e_0_energy">  -1337.38019199 </i>
   </energy>
  </scstep>
  <scstep>
   <time name="dav">   51.04   51.05</time>
   <time name="total">   51.05   51.06</time>
   <energy>
    <i name="e_fr_energy">  -1555.45164268 </i>
    <i name="e_wo_entrp">  -1554.27358415 </i>
    <i name="e_0_energy">  -1554.86261342 </i>
   </energy>
  </scstep>
  <scstep>
   <time name="dav">   46.04   46.05</time>
   <time name="total">   47.79   47.80</time>
   <energy>
    <i name="e_fr_energy">  -1567.23342932 </i>
    <i name="e_wo_entrp">  -1566.03556271 </i>
    <i name="e_0_energy">  -1566.63449602 </i>
   </energy>
  </scstep>
  <scstep>
   <time name="dav">   40.00   40.01</time>
   <time name="total">   42.31   42.31</time>
   <energy>
    <i name="e_fr_energy">  -1944.62305368 </i>
    <i name="e_wo_entrp">  -1944.21727740 </i>
    <i name="e_0_energy">  -1944.42016554 </i>
   </energy>
  </scstep>
  <scstep>
   <time name="dav">   35.45   35.45</time>
   <time name="total">   37.77   37.77</time>
   <energy>
    <i name="e_fr_energy">  -1771.74331666 </i>
    <i name="e_wo_entrp">  -1771.17825045 </i>
    <i name="e_0_energy">  -1771.46078355 </i>
   </energy>
  </scstep>
  <scstep>
   <time name="dav">   41.95   41.96</time>
   <time name="total">   44.25   44.26</time>
   <energy>
    <i name="e_fr_energy">  -2275.98962910 </i>
    <i name="e_wo_entrp">  -2275.70927023 </i>
    <i name="e_0_energy">  -2275.84944967 </i>
   </energy>
  </scstep>
  <scstep>
   <time name="dav">   37.74   37.75</time>
   <time name="total">   40.05   40.05</time>
   <energy>
    <i name="e_fr_energy">  -1790.59742699 </i>
    <i name="e_wo_entrp">  -1790.21366198 </i>
    <i name="e_0_energy">  -1790.40554448 </i>
   </energy>
  </scstep>
  <scstep>
   <time name="dav">   40.30   40.31</time>
   <time name="total">   42.62   42.63</time>
   <energy>
    <i name="e_fr_energy">  -1716.68426523 </i>
    <i name="e_wo_entrp">  -1716.52403147 </i>
    <i name="e_0_energy">  -1716.60414835 </i>
   </energy>
  </scstep>
  <scstep>
   <time name="dav">   36.86   36.87</time>
   <time name="total">   39.18   39.18</time>
   <energy>
    <i name="e_fr_energy">  -1528.88358607 </i>
    <i name="e_wo_entrp">  -1528.48036164 </i>
    <i name="e_0_energy">  -1528.68197386 </i>
   </energy>
  </scstep>
  <scstep>
   <time name="dav">   42.53   42.53</time>
   <time name="total">   44.85   44.86</time>
   <energy>
    <i name="e_fr_energy">  -1616.92424899 </i>
    <i name="e_wo_entrp">  -1616.66615554 </i>
    <i name="e_0_energy">  -1616.79520226 </i>
   </energy>
  </scstep>
  <scstep>
   <time name="dav">   40.36   40.37</time>
   <time name="total">   42.72   42.73</time>
   <energy>
    <i name="e_fr_energy">  -1533.92673699 </i>
    <i name="e_wo_entrp">  -1533.08806490 </i>
    <i name="e_0_energy">  -1533.50740095 </i>
   </energy>
  </scstep>
  <scstep>
   <time name="dav">   36.32   36.32</time>
   <time name="total">   38.66   38.67</time>
   <energy>
    <i name="e_fr_energy">  -1503.86436446 </i>
    <i name="e_wo_entrp">  -1503.35663245 </i>
    <i name="e_0_energy">  -1503.61049846 </i>
   </energy>
  </scstep>
  <scstep>
   <time name="dav">   34.70   34.71</time>
   <time name="total">   37.05   37.06</time>
   <energy>
    <i name="e_fr_energy">  -1483.84350450 </i>
    <i name="e_wo_entrp">  -1483.50885404 </i>
    <i name="e_0_energy">  -1483.67617927 </i>
   </energy>
  </scstep>
  <scstep>
   <time name="dav">   47.63   47.63</time>
   <time name="total">   49.99   50.00</time>
   <energy>
    <i name="e_fr_energy">  -1465.76691752 </i>
    <i name="e_wo_entrp">  -1465.36187651 </i>
    <i name="e_0_energy">  -1465.56439702 </i>
   </energy>
  </scstep>
  <scstep>
   <time name="dav">   34.10   34.10</time>
   <time name="total">   36.46   36.47</time>
   <energy>
    <i name="e_fr_energy">  -1416.86013634 </i>
    <i name="e_wo_entrp">  -1416.38519627 </i>
    <i name="e_0_energy">  -1416.62266630 </i>
   </energy>
  </scstep>
  <scstep>
   <time name="dav">   37.00   37.01</time>
   <time name="total">   39.39   39.39</time>
   <energy>
    <i name="e_fr_energy">  -1398.86515529 </i>
    <i name="e_wo_entrp">  -1398.20876798 </i>
    <i name="e_0_energy">  -1398.53696163 </i>
   </energy>
  </scstep>
  <scstep>
   <time name="dav">   33.67   33.68</time>
   <time name="total">   36.09   36.10</time>
   <energy>
    <i name="e_fr_energy">  -1350.85742973 </i>
    <i name="e_wo_entrp">  -1350.00038475 </i>
    <i name="e_0_energy">  -1350.42890724 </i>
   </energy>
  </scstep>
  <scstep>
   <time name="dav">   34.88   34.88</time>
   <time name="total">   37.30   37.30</time>
   <energy>
    <i name="e_fr_energy">  -1344.22359239 </i>
    <i name="e_wo_entrp">  -1343.29096195 </i>
    <i name="e_0_energy">  -1343.75727717 </i>
   </energy>
  </scstep>
  <scstep>
   <time name="dav">   34.55   34.56</time>
   <time name="total">   36.98   36.99</time>
   <energy>
    <i name="e_fr_energy">  -1341.34662826 </i>
    <i name="e_wo_entrp">  -1340.33000497 </i>
    <i name="e_0_energy">  -1340.83831661 </i>
   </energy>
  </scstep>
  <scstep>
   <time name="dav">   34.89   34.90</time>
   <time name="total">   37.33   37.34</time>
   <energy>
    <i name="e_fr_energy">  -1341.10498594 </i>
    <i name="e_wo_entrp">  -1340.17980647 </i>
    <i name="e_0_energy">  -1340.64239621 </i>
   </energy>
  </scstep>
  <scstep>
   <time name="dav">   34.81   34.82</time>
   <time name="total">   37.27   37.28</time>
   <energy>
    <i name="e_fr_energy">  -1334.17170442 </i>
    <i name="e_wo_entrp">  -1333.06579717 </i>
    <i name="e_0_energy">  -1333.61875080 </i>
   </energy>
  </scstep>
  <scstep>
   <time name="dav">   34.86   34.86</time>
   <time name="total">   37.34   37.35</time>
   <energy>
    <i name="e_fr_energy">  -1333.42474334 </i>
    <i name="e_wo_entrp">  -1332.30749898 </i>
    <i name="e_0_energy">  -1332.86612116 </i>
   </energy>
  </scstep>
  <scstep>
   <time name="dav">   35.03   35.03</time>
   <time name="total">   37.52   37.53</time>
   <energy>
    <i name="e_fr_energy">  -1335.31934089 </i>
    <i name="e_wo_entrp">  -1334.28717391 </i>
    <i name="e_0_energy">  -1334.80325740 </i>
   </energy>
  </scstep>
  <scstep>
   <time name="dav">   35.17   35.18</time>
   <time name="total">   37.68   37.69</time>
   <energy>
    <i name="e_fr_energy">  -1333.28193195 </i>
    <i name="e_wo_entrp">  -1332.16026855 </i>
    <i name="e_0_energy">  -1332.72110025 </i>
   </energy>
  </scstep>
  <scstep>
   <time name="dav">   35.25   35.26</time>
   <time name="total">   37.77   37.78</time>
   <energy>
    <i name="e_fr_energy">  -1328.59530117 </i>
    <i name="e_wo_entrp">  -1327.32831463 </i>
    <i name="e_0_energy">  -1327.96180790 </i>
   </energy>
  </scstep>
  <scstep>
   <time name="dav">   35.14   35.14</time>
   <time name="total">   37.67   37.67</time>
   <energy>
    <i name="e_fr_energy">  -1328.34134528 </i>
    <i name="e_wo_entrp">  -1327.07957026 </i>
    <i name="e_0_energy">  -1327.71045777 </i>
   </energy>
  </scstep>
  <scstep>
   <time name="dav">   35.19   35.19</time>
   <time name="total">   37.73   37.73</time>
   <energy>
    <i name="e_fr_energy">  -1327.94721617 </i>
    <i name="e_wo_entrp">  -1326.65435659 </i>
    <i name="e_0_energy">  -1327.30078638 </i>
   </energy>
  </scstep>
  <scstep>
   <time name="dav">   35.26   35.27</time>
   <time name="total">   37.83   37.83</time>
   <energy>
    <i name="e_fr_energy">  -1328.06605620 </i>
    <i name="e_wo_entrp">  -1326.77213871 </i>
    <i name="e_0_energy">  -1327.41909745 </i>
   </energy>
  </scstep>
  <scstep>
   <time name="dav">   35.09   35.09</time>
   <time name="total">   37.67   37.67</time>
   <energy>
    <i name="e_fr_energy">  -1327.82526914 </i>
    <i name="e_wo_entrp">  -1326.57677789 </i>
    <i name="e_0_energy">  -1327.20102351 </i>
   </energy>
  </scstep>
  <scstep>
   <time name="dav">   35.04   35.04</time>
   <time name="total">   37.64   37.64</time>
   <energy>
    <i name="e_fr_energy">  -1326.69298752 </i>
    <i name="e_wo_entrp">  -1325.36322379 </i>
[...]
       <r>    -2.1338   918.2941  1304.9437 </r>
       <r>    -2.0035   793.9904  1408.4687 </r>
       <r>    -1.8731   916.1479  1527.9213 </r>
       <r>    -1.7427   572.3659  1602.5496 </r>
       <r>    -1.6123   592.5872  1679.8145 </r>
       <r>    -1.4819   532.8713  1749.2934 </r>
       <r>    -1.3515   713.4682  1842.3194 </r>
       <r>    -1.2211   765.4277  1942.1203 </r>
       <r>    -1.0908   510.4939  2008.6814 </r>
       <r>    -0.9604   764.9184  2108.4158 </r>
       <r>    -0.8300   859.9027  2220.5348 </r>
       <r>    -0.6996   656.6037  2306.1466 </r>
       <r>    -0.5692  1060.1106  2444.3699 </r>
       <r>    -0.4388  1189.6061  2599.4775 </r>
       <r>    -0.3084   451.4695  2658.3427 </r>
       <r>    -0.1781   140.9415  2676.7194 </r>
       <r>    -0.0477   144.0482  2695.5013 </r>
       <r>     0.0827   162.1067  2716.6377 </r>
       <r>     0.2131    41.9648  2722.1093 </r>
       <r>     0.3435    49.0147  2728.5001 </r>
       <r>     0.4739    92.0927  2740.5077 </r>
       <r>     0.6043    89.7592  2752.2110 </r>
       <r>     0.7346    93.1524  2764.3567 </r>
       <r>     0.8650    79.8422  2774.7670 </r>
       <r>     0.9954   140.6933  2793.1114 </r>
       <r>     1.1258    68.9238  2802.0981 </r>
       <r>     1.2562    29.2118  2805.9069 </r>
       <r>     1.3866   123.7985  2822.0484 </r>
       <r>     1.5170    29.1877  2825.8541 </r>
       <r>     1.6473    85.8265  2837.0446 </r>
       <r>     1.7777    93.0487  2849.1769 </r>
       <r>     1.9081    77.0996  2859.2296 </r>
       <r>     2.0385    97.9448  2872.0002 </r>
       <r>     2.1689    39.9999  2877.2156 </r>
       <r>     2.2993   104.0230  2890.7787 </r>
       <r>     2.4297   107.1379  2904.7479 </r>
       <r>     2.5600    28.3284  2908.4416 </r>
       <r>     2.6904    61.2263  2916.4246 </r>
       <r>     2.8208    11.5586  2917.9317 </r>
       <r>     2.9512    48.1359  2924.2079 </r>
       <r>     3.0816   153.5055  2944.2228 </r>
       <r>     3.2120   154.3658  2964.3499 </r>
       <r>     3.3424    23.5469  2967.4201 </r>
       <r>     3.4727    39.3664  2972.5529 </r>
       <r>     3.6031    83.8306  2983.4832 </r>
       <r>     3.7335    51.6602  2990.2190 </r>
       <r>     3.8639    40.5919  2995.5116 </r>
       <r>     3.9943    20.1140  2998.1342 </r>
       <r>     4.1247    10.4417  2999.4956 </r>
       <r>     4.2551    63.3329  3007.7533 </r>
       <r>     4.3854    46.9223  3013.8713 </r>
       <r>     4.5158    83.1567  3024.7138 </r>
       <r>     4.6462    57.9555  3032.2704 </r>
       <r>     4.7766    43.8251  3037.9845 </r>
       <r>     4.9070     0.1188  3038.0000 </r>
       <r>     5.0374     0.0000  3038.0000 </r>
       <r>     5.1678     0.0000  3038.0000 </r>
       <r>     5.2981     0.0000  3038.0000 </r>
       <r>     5.4285     0.0000  3038.0000 </r>
       <r>     5.5589     0.0000  3038.0000 </r>
       <r>     5.6893     0.0000  3038.0000 </r>
       <r>     5.8197     0.0000  3038.0000 </r>
       <r>     5.9501     0.0000  3038.0000 </r>
       <r>     6.0805     0.0000  3038.0000 </r>
       <r>     6.2108     0.0000  3038.0000 </r>
       <r>     6.3412     0.0000  3038.0000 </r>
       <r>     6.4716     0.0000  3038.0000 </r>
      </set>
     </set>
    </array>
   </total>
  </dos>
 </calculation>
 <structure name="finalpos" >
  <crystal>
   <varray name="basis" >
    <v>       0.00000000     -15.14622176       0.00000000 </v>
    <v>       0.00000000      -7.57311088     -13.11701281 </v>
    <v>      29.00000000       0.00000000       0.00000000 </v>
   </varray>
   <i name="volume">   5761.52236213 </i>
   <varray name="rec_basis" >
    <v>       0.00000000      -0.06602307       0.03811843 </v>
    <v>       0.00000000       0.00000000      -0.07623687 </v>
    <v>       0.03448276       0.00000000       0.00000000 </v>
   </varray>
  </crystal>
  <varray name="positions" >
   <v>       0.44444450       0.44444418       0.10434517 </v>
   <v>       0.44444439       0.77777770       0.10434517 </v>
   <v>       0.44444423       0.11111143       0.10434517 </v>
   <v>       0.77777779       0.44444418       0.10434517 </v>
   <v>       0.77777768       0.77777770       0.10434517 </v>
   <v>       0.77777752       0.11111143       0.10434517 </v>
   <v>       0.11111120       0.44444418       0.10434517 </v>
   <v>       0.11111109       0.77777770       0.10434517 </v>
   <v>       0.11111093       0.11111143       0.10434517 </v>
   <v>       0.55555543       0.55555561       0.17318552 </v>
   <v>       0.55555532       0.88888912       0.17318552 </v>
   <v>       0.55555554       0.22222209       0.17318552 </v>
   <v>       0.88888873       0.55555561       0.17318552 </v>
   <v>       0.88888862       0.88888912       0.17318552 </v>
   <v>       0.88888884       0.22222209       0.17318552 </v>
   <v>       0.22222214       0.55555561       0.17318552 </v>
   <v>       0.22222203       0.88888912       0.17318552 </v>
   <v>       0.22222225       0.22222209       0.17318552 </v>
   <v>       0.66666637       0.66666703       0.24249897 </v>
   <v>       0.66666659       0.00000000       0.24249897 </v>
   <v>       0.66666648       0.33333352       0.24249897 </v>
   <v>       0.99999978       0.66666703       0.24249897 </v>
   <v>       0.00000000       0.00000000       0.24249897 </v>
   <v>       0.99999989       0.33333352       0.24249897 </v>
   <v>       0.33333307       0.66666703       0.24249897 </v>
   <v>       0.33333329       0.00000000       0.24249897 </v>
   <v>       0.33333318       0.33333352       0.24249897 </v>
   <v>       0.77777768       0.77777770       0.31173069 </v>
   <v>       0.77777752       0.11111143       0.31173069 </v>
   <v>       0.77777779       0.44444418       0.31173069 </v>
   <v>       0.11111109       0.77777770       0.31173069 </v>
   <v>       0.11111093       0.11111143       0.31173069 </v>
   <v>       0.11111120       0.44444418       0.31173069 </v>
   <v>       0.44444439       0.77777770       0.31173069 </v>
   <v>       0.44444423       0.11111143       0.31173069 </v>
   <v>       0.44444450       0.44444418       0.31173069 </v>
   <v>       0.88888862       0.88888912       0.38096241 </v>
   <v>       0.88888884       0.22222209       0.38096241 </v>
   <v>       0.88888873       0.55555561       0.38096241 </v>
   <v>       0.22222203       0.88888912       0.38096241 </v>
   <v>       0.22222225       0.22222209       0.38096241 </v>
   <v>       0.22222214       0.55555561       0.38096241 </v>
   <v>       0.55555532       0.88888912       0.38096241 </v>
   <v>       0.55555554       0.22222209       0.38096241 </v>
   <v>       0.55555543       0.55555561       0.38096241 </v>
   <v>       0.00000000       0.00000000       0.45027586 </v>
   <v>       0.99999989       0.33333352       0.45027586 </v>
   <v>       0.99999978       0.66666703       0.45027586 </v>
   <v>       0.33333329       0.00000000       0.45027586 </v>
   <v>       0.33333318       0.33333352       0.45027586 </v>
   <v>       0.33333307       0.66666703       0.45027586 </v>
   <v>       0.66666659       0.00000000       0.45027586 </v>
   <v>       0.66666648       0.33333352       0.45027586 </v>
   <v>       0.66666637       0.66666703       0.45027586 </v>
   <v>       0.11111093       0.11111143       0.51911621 </v>
   <v>       0.11111120       0.44444418       0.51911621 </v>
   <v>       0.11111109       0.77777770       0.51911621 </v>
   <v>       0.44444423       0.11111143       0.51911621 </v>
   <v>       0.44444450       0.44444418       0.51911621 </v>
   <v>       0.44444439       0.77777770       0.51911621 </v>
   <v>       0.77777752       0.11111143       0.51911621 </v>
   <v>       0.77777779       0.44444418       0.51911621 </v>
   <v>       0.77777768       0.77777770       0.51911621 </v>
   <v>       0.27777824       0.27777742       0.10434517 </v>
   <v>       0.27777813       0.61111094       0.10434517 </v>
   <v>       0.27777802       0.94444445       0.10434517 </v>
   <v>       0.61111153       0.27777742       0.10434517 </v>
   <v>       0.61111142       0.61111094       0.10434517 </v>
   <v>       0.61111131       0.94444445       0.10434517 </v>
   <v>       0.94444483       0.27777742       0.10434517 </v>
   <v>       0.94444472       0.61111094       0.10434517 </v>
   <v>       0.94444461       0.94444445       0.10434517 </v>
   <v>       0.38888917       0.38888885       0.17318552 </v>
   <v>       0.38888906       0.72222236       0.17318552 </v>
   <v>       0.38888928       0.05555533       0.17318552 </v>
   <v>       0.72222247       0.38888885       0.17318552 </v>
   <v>       0.72222236       0.72222236       0.17318552 </v>
   <v>       0.72222258       0.05555533       0.17318552 </v>
   <v>       0.05555588       0.38888885       0.17318552 </v>
   <v>       0.05555577       0.72222236       0.17318552 </v>
   <v>       0.05555599       0.05555533       0.17318552 </v>
   <v>       0.50000011       0.50000027       0.24249897 </v>
   <v>       0.50000038       0.83333303       0.24249897 </v>
   <v>       0.50000022       0.16666676       0.24249897 </v>
   <v>       0.83333340       0.50000027       0.24249897 </v>
   <v>       0.83333367       0.83333303       0.24249897 </v>
   <v>       0.83333351       0.16666676       0.24249897 </v>
   <v>       0.16666681       0.50000027       0.24249897 </v>
   <v>       0.16666708       0.83333303       0.24249897 </v>
   <v>       0.16666692       0.16666676       0.24249897 </v>
   <v>       0.61111142       0.61111094       0.31173069 </v>
   <v>       0.61111131       0.94444445       0.31173069 </v>
   <v>       0.61111153       0.27777742       0.31173069 </v>
   <v>       0.94444472       0.61111094       0.31173069 </v>
   <v>       0.94444461       0.94444445       0.31173069 </v>
   <v>       0.94444483       0.27777742       0.31173069 </v>
   <v>       0.27777813       0.61111094       0.31173069 </v>
   <v>       0.27777802       0.94444445       0.31173069 </v>
   <v>       0.27777824       0.27777742       0.31173069 </v>
   <v>       0.72222236       0.72222236       0.38096241 </v>
   <v>       0.72222258       0.05555533       0.38096241 </v>
   <v>       0.72222247       0.38888885       0.38096241 </v>
   <v>       0.05555577       0.72222236       0.38096241 </v>
   <v>       0.05555599       0.05555533       0.38096241 </v>
   <v>       0.05555588       0.38888885       0.38096241 </v>
   <v>       0.38888906       0.72222236       0.38096241 </v>
   <v>       0.38888928       0.05555533       0.38096241 </v>
   <v>       0.38888917       0.38888885       0.38096241 </v>
   <v>       0.83333367       0.83333303       0.45027586 </v>
   <v>       0.83333351       0.16666676       0.45027586 </v>
   <v>       0.83333340       0.50000027       0.45027586 </v>
   <v>       0.16666708       0.83333303       0.45027586 </v>
   <v>       0.16666692       0.16666676       0.45027586 </v>
   <v>       0.16666681       0.50000027       0.45027586 </v>
   <v>       0.50000038       0.83333303       0.45027586 </v>
   <v>       0.50000022       0.16666676       0.45027586 </v>
   <v>       0.50000011       0.50000027       0.45027586 </v>
   <v>       0.94444461       0.94444445       0.51911621 </v>
   <v>       0.94444483       0.27777742       0.51911621 </v>
   <v>       0.94444472       0.61111094       0.51911621 </v>
   <v>       0.27777802       0.94444445       0.51911621 </v>
   <v>       0.27777824       0.27777742       0.51911621 </v>
   <v>       0.27777813       0.61111094       0.51911621 </v>
   <v>       0.61111131       0.94444445       0.51911621 </v>
   <v>       0.61111153       0.27777742       0.51911621 </v>
   <v>       0.61111142       0.61111094       0.51911621 </v>
   <v>       0.27777785       0.44444418       0.10434517 </v>
   <v>       0.27777774       0.77777770       0.10434517 </v>
   <v>       0.27777758       0.11111143       0.10434517 </v>
   <v>       0.61111115       0.44444418       0.10434517 </v>
   <v>       0.61111104       0.77777770       0.10434517 </v>
   <v>       0.61111088       0.11111143       0.10434517 </v>
   <v>       0.94444444       0.44444418       0.10434517 </v>
   <v>       0.94444433       0.77777770       0.10434517 </v>
   <v>       0.94444417       0.11111143       0.10434517 </v>
   <v>       0.38888879       0.55555561       0.17318552 </v>
   <v>       0.38888868       0.88888912       0.17318552 </v>
   <v>       0.38888890       0.22222209       0.17318552 </v>
   <v>       0.72222208       0.55555561       0.17318552 </v>
   <v>       0.72222197       0.88888912       0.17318552 </v>
   <v>       0.72222219       0.22222209       0.17318552 </v>
   <v>       0.05555549       0.55555561       0.17318552 </v>
   <v>       0.05555538       0.88888912       0.17318552 </v>
   <v>       0.05555560       0.22222209       0.17318552 </v>
   <v>       0.49999972       0.66666703       0.24249897 </v>
   <v>       0.49999994       0.00000000       0.24249897 </v>
   <v>       0.49999983       0.33333352       0.24249897 </v>
   <v>       0.83333302       0.66666703       0.24249897 </v>
   <v>       0.83333324       0.00000000       0.24249897 </v>
   <v>       0.83333313       0.33333352       0.24249897 </v>
   <v>       0.16666643       0.66666703       0.24249897 </v>
   <v>       0.16666665       0.00000000       0.24249897 </v>
   <v>       0.16666654       0.33333352       0.24249897 </v>
   <v>       0.61111104       0.77777770       0.31173069 </v>
   <v>       0.61111088       0.11111143       0.31173069 </v>
   <v>       0.61111115       0.44444418       0.31173069 </v>
   <v>       0.94444433       0.77777770       0.31173069 </v>
   <v>       0.94444417       0.11111143       0.31173069 </v>
   <v>       0.94444444       0.44444418       0.31173069 </v>
   <v>       0.27777774       0.77777770       0.31173069 </v>
   <v>       0.27777758       0.11111143       0.31173069 </v>
   <v>       0.27777785       0.44444418       0.31173069 </v>
   <v>       0.72222197       0.88888912       0.38096241 </v>
   <v>       0.72222219       0.22222209       0.38096241 </v>
   <v>       0.72222208       0.55555561       0.38096241 </v>
   <v>       0.05555538       0.88888912       0.38096241 </v>
   <v>       0.05555560       0.22222209       0.38096241 </v>
   <v>       0.05555549       0.55555561       0.38096241 </v>
   <v>       0.38888868       0.88888912       0.38096241 </v>
   <v>       0.38888890       0.22222209       0.38096241 </v>
   <v>       0.38888879       0.55555561       0.38096241 </v>
   <v>       0.83333324       0.00000000       0.45027586 </v>
   <v>       0.83333313       0.33333352       0.45027586 </v>
   <v>       0.83333302       0.66666703       0.45027586 </v>
   <v>       0.16666665       0.00000000       0.45027586 </v>
   <v>       0.16666654       0.33333352       0.45027586 </v>
   <v>       0.16666643       0.66666703       0.45027586 </v>
   <v>       0.49999994       0.00000000       0.45027586 </v>
   <v>       0.49999983       0.33333352       0.45027586 </v>
   <v>       0.49999972       0.66666703       0.45027586 </v>
   <v>       0.94444417       0.11111143       0.51911621 </v>
   <v>       0.94444444       0.44444418       0.51911621 </v>
   <v>       0.94444433       0.77777770       0.51911621 </v>
   <v>       0.27777758       0.11111143       0.51911621 </v>
   <v>       0.27777785       0.44444418       0.51911621 </v>
   <v>       0.27777774       0.77777770       0.51911621 </v>
   <v>       0.61111088       0.11111143       0.51911621 </v>
   <v>       0.61111115       0.44444418       0.51911621 </v>
   <v>       0.61111104       0.77777770       0.51911621 </v>
   <v>       0.44444488       0.27777742       0.10434517 </v>
   <v>       0.44444477       0.61111094       0.10434517 </v>
   <v>       0.44444466       0.94444445       0.10434517 </v>
   <v>       0.77777818       0.27777742       0.10434517 </v>
   <v>       0.77777807       0.61111094       0.10434517 </v>
   <v>       0.77777796       0.94444445       0.10434517 </v>
   <v>       0.11111159       0.27777742       0.10434517 </v>
   <v>       0.11111148       0.61111094       0.10434517 </v>
   <v>       0.11111137       0.94444445       0.10434517 </v>
   <v>       0.55555582       0.38888885       0.17318552 </v>
   <v>       0.55555571       0.72222236       0.17318552 </v>
   <v>       0.55555593       0.05555533       0.17318552 </v>
   <v>       0.88888911       0.38888885       0.17318552 </v>
   <v>       0.88888900       0.72222236       0.17318552 </v>
   <v>       0.88888922       0.05555533       0.17318552 </v>
   <v>       0.22222252       0.38888885       0.17318552 </v>
   <v>       0.22222241       0.72222236       0.17318552 </v>
   <v>       0.22222264       0.05555533       0.17318552 </v>
   <v>       0.66666675       0.50000027       0.24249897 </v>
   <v>       0.66666702       0.83333303       0.24249897 </v>
   <v>       0.66666686       0.16666676       0.24249897 </v>
   <v>       0.00000016       0.50000027       0.24249897 </v>
   <v>       0.00000043       0.83333303       0.24249897 </v>
   <v>       0.00000027       0.16666676       0.24249897 </v>
   <v>       0.33333346       0.50000027       0.24249897 </v>
   <v>       0.33333373       0.83333303       0.24249897 </v>
   <v>       0.33333357       0.16666676       0.24249897 </v>
   <v>       0.77777807       0.61111094       0.31173069 </v>
   <v>       0.77777796       0.94444445       0.31173069 </v>
   <v>       0.77777818       0.27777742       0.31173069 </v>
   <v>       0.11111148       0.61111094       0.31173069 </v>
   <v>       0.11111137       0.94444445       0.31173069 </v>
   <v>       0.11111159       0.27777742       0.31173069 </v>
   <v>       0.44444477       0.61111094       0.31173069 </v>
   <v>       0.44444466       0.94444445       0.31173069 </v>
   <v>       0.44444488       0.27777742       0.31173069 </v>
   <v>       0.88888900       0.72222236       0.38096241 </v>
   <v>       0.88888922       0.05555533       0.38096241 </v>
   <v>       0.88888911       0.38888885       0.38096241 </v>
   <v>       0.22222241       0.72222236       0.38096241 </v>
   <v>       0.22222264       0.05555533       0.38096241 </v>
   <v>       0.22222252       0.38888885       0.38096241 </v>
   <v>       0.55555571       0.72222236       0.38096241 </v>
   <v>       0.55555593       0.05555533       0.38096241 </v>
   <v>       0.55555582       0.38888885       0.38096241 </v>
   <v>       0.00000043       0.83333303       0.45027586 </v>
   <v>       0.00000027       0.16666676       0.45027586 </v>
   <v>       0.00000016       0.50000027       0.45027586 </v>
   <v>       0.33333373       0.83333303       0.45027586 </v>
   <v>       0.33333357       0.16666676       0.45027586 </v>
   <v>       0.33333346       0.50000027       0.45027586 </v>
   <v>       0.66666702       0.83333303       0.45027586 </v>
   <v>       0.66666686       0.16666676       0.45027586 </v>
   <v>       0.66666675       0.50000027       0.45027586 </v>
   <v>       0.11111137       0.94444445       0.51911621 </v>
   <v>       0.11111159       0.27777742       0.51911621 </v>
   <v>       0.11111148       0.61111094       0.51911621 </v>
   <v>       0.44444466       0.94444445       0.51911621 </v>
   <v>       0.44444488       0.27777742       0.51911621 </v>
   <v>       0.44444477       0.61111094       0.51911621 </v>
   <v>       0.77777796       0.94444445       0.51911621 </v>
   <v>       0.77777818       0.27777742       0.51911621 </v>
   <v>       0.77777807       0.61111094       0.51911621 </v>
   <v>       0.54875669       0.40253067       0.65689655 </v>
   <v>       0.50682642       0.48639123       0.65689655 </v>
  </varray>
 </structure>
</modeling>
