LAMMPS (24 Mar 2022)
OMP_NUM_THREADS environment is not set. Defaulting to 1 thread. (src/comm.cpp:98)
  using 1 OpenMP thread(s) per MPI task
Reading data file ...
  triclinic box = (0 0 0) to (17.180573 14.878813 30) with tilt (8.5902867 0 0)
  1 by 1 by 1 MPI processor grid
  reading atoms ...
  252 atoms
  read_data CPU = 0.001 seconds
WARNING: Using 'neigh_modify every 1 delay 0 check yes' setting during minimization (src/min.cpp:187)
Neighbor list info ...
  update every 1 steps, delay 0 steps, check yes
  max neighbors/atom: 2000, page size: 100000
  master list distance cutoff = 8.28721
  ghost atom cutoff = 8.28721
  binsize = 4.143605, bins = 7 4 8
  1 neighbor lists, perpetual/occasional/extra = 1 0 0
  (1) pair eam/alloy, perpetual
      attributes: half, newton on
      pair build: half/bin/newton/tri
      stencil: half/bin/3d/tri
      bin: standard
Setting up cg style minimization ...
  Unit style    : metal
  Current step  : 0
Per MPI rank memory allocation (min/avg/max) = 4.505 | 4.505 | 4.505 Mbytes
   Step          Temp          E_pair         E_mol          TotEng         Press     
         0   0             -818.26948      0             -818.26948      3070.1795    
Loop time of 3.153e-06 on 1 procs for 0 steps with 252 atoms

126.9% CPU use with 1 MPI tasks x 1 OpenMP threads

Minimization stats:
  Stopping criterion = max iterations
  Energy initial, next-to-last, final = 
     -818.269482120694                  0  -818.269482120694
  Force two-norm initial, final = 1.4321668 1.4321668
  Force max component initial, final = 0.35423879 0.35423879
  Final line search alpha, max atom move = 0 0
  Iterations, force evaluations = 0 0

MPI task timing breakdown:
Section |  min time  |  avg time  |  max time  |%varavg| %total
---------------------------------------------------------------
Pair    | 0          | 0          | 0          |   0.0 |  0.00
Neigh   | 0          | 0          | 0          |   0.0 |  0.00
Comm    | 0          | 0          | 0          |   0.0 |  0.00
Output  | 0          | 0          | 0          |   0.0 |  0.00
Modify  | 0          | 0          | 0          |   0.0 |  0.00
Other   |            | 3.153e-06  |            |       |100.00

Nlocal:            252 ave         252 max         252 min
Histogram: 1 0 0 0 0 0 0 0 0 0
Nghost:           1431 ave        1431 max        1431 min
Histogram: 1 0 0 0 0 0 0 0 0 0
Neighs:          14400 ave       14400 max       14400 min
Histogram: 1 0 0 0 0 0 0 0 0 0

Total # of neighbors = 14400
Ave neighs/atom = 57.142857
Neighbor list builds = 0
Dangerous builds = 0
Setting up Verlet run ...
  Unit style    : metal
  Current step  : 0
  Time step     : 0.01
Per MPI rank memory allocation (min/avg/max) = 4.39 | 4.39 | 4.39 Mbytes
   Step          Temp          E_pair         E_mol          TotEng         Press     
         0   300           -818.26948      0             -808.53619      4425.8418    
       100   156.53118     -813.40701      0             -808.32846      5539.8819    
       200   166.40727     -813.72797      0             -808.329        2033.1741    
       300   179.45997     -814.16007      0             -808.33762     -2898.298     
       400   164.29446     -813.65359      0             -808.32317     -7147.8885    
       500   152.13776     -813.25277      0             -808.31677     -9772.8067    
       600   149.79123     -813.19117      0             -808.33129     -11314.349    
       700   149.84785     -813.18117      0             -808.31946     -9962.431     
       800   165.99827     -813.72443      0             -808.33873     -7192.0758    
       900   177.04713     -814.08536      0             -808.34119     -3203.072     
      1000   164.61119     -813.67733      0             -808.33664      882.06198    
      1100   161.46751     -813.57318      0             -808.33448      3567.045     
      1200   159.73576     -813.51596      0             -808.33344      4010.3185    
      1300   162.30766     -813.59244      0             -808.32648      2243.1532    
      1400   174.84789     -814.01909      0             -808.34627     -1175.9013    
      1500   164.36454     -813.66049      0             -808.3278      -4874.754     
      1600   158.60206     -813.48445      0             -808.33871     -7373.1214    
      1700   160.32644     -813.53789      0             -808.33621     -9315.9178    
      1800   146.32624     -813.05967      0             -808.31222     -8969.7159    
      1900   153.95931     -813.32246      0             -808.32736     -7449.7048    
      2000   162.17314     -813.5947       0             -808.33311     -4650.0289    
      2100   166.58295     -813.73619      0             -808.33152     -1286.2449    
      2200   158.00452     -813.44663      0             -808.32028      1173.3033    
      2300   150.37388     -813.20104      0             -808.32227      2097.8426    
      2400   161.9202      -813.58321      0             -808.32983      1107.1654    
      2500   166.63746     -813.738        0             -808.33156     -641.13133    
      2600   158.45683     -813.45044      0             -808.30942     -2942.3142    
      2700   160.1367      -813.51397      0             -808.31844     -5832.3995    
      2800   151.77219     -813.24362      0             -808.31948     -8128.6904    
      2900   149.40306     -813.16575      0             -808.31847     -8472.3654    
      3000   158.3174      -813.46526      0             -808.32876     -7420.0893    
      3100   168.99356     -813.81204      0             -808.32917     -5057.8131    
      3200   154.30751     -813.3158       0             -808.3094      -1791.8404    
      3300   172.987       -813.94616      0             -808.33372      615.2845     
      3400   168.39258     -813.79916      0             -808.33578      1586.5566    
      3500   157.18395     -813.40774      0             -808.30801      1134.9593    
      3600   169.85326     -813.83493      0             -808.32416     -736.93362    
      3700   164.76054     -813.67188      0             -808.32634     -3194.4572    
      3800   158.66167     -813.46353      0             -808.31587     -5222.7249    
      3900   157.88622     -813.4357       0             -808.31319     -6609.9007    
      4000   152.073       -813.2472       0             -808.3133      -6909.8951    
      4100   159.74709     -813.50261      0             -808.31973     -6347.0564    
      4200   156.64521     -813.39882      0             -808.31658     -4525.1421    
      4300   172.67287     -813.93216      0             -808.32991     -2845.6209    
      4400   160.95303     -813.52722      0             -808.30521     -754.55642    
      4500   158.35632     -813.45205      0             -808.31429      17.241658    
      4600   157.77774     -813.44059      0             -808.3216       164.26386    
      4700   162.74254     -813.61991      0             -808.33984     -811.00976    
      4800   164.07056     -813.64741      0             -808.32425     -2320.5863    
      4900   168.10994     -813.77887      0             -808.32466     -4226.017     
      5000   163.24757     -813.61437      0             -808.31792     -5820.0236    
      5100   156.24435     -813.39669      0             -808.32745     -6139.4034    
      5200   156.35226     -813.39331      0             -808.32057     -6324.6447    
      5300   173.19184     -813.96674      0             -808.34765     -5357.8928    
      5400   158.31311     -813.45066      0             -808.3143      -3789.3323    
      5500   163.35786     -813.62708      0             -808.32705     -2224.5951    
      5600   163.01535     -813.62479      0             -808.33587     -707.25855    
      5700   157.76558     -813.44126      0             -808.32266      168.82065    
      5800   164.67797     -813.66979      0             -808.32693      94.244636    
      5900   163.85266     -813.6457       0             -808.32962     -1180.9597    
      6000   168.43422     -813.78437      0             -808.31964     -2865.9273    
      6100   163.90549     -813.62725      0             -808.30945     -4753.1285    
      6200   152.32414     -813.25555      0             -808.3135      -5051.0143    
      6300   154.54637     -813.33002      0             -808.31587     -5310.3395    
      6400   160.98303     -813.55267      0             -808.32969     -4703.0509    
      6500   157.05979     -813.40739      0             -808.3117      -3675.5441    
      6600   167.76322     -813.77469      0             -808.33173     -3176.9487    
      6700   153.71152     -813.29179      0             -808.30473     -2140.0366    
      6800   154.64871     -813.33921      0             -808.32175     -1468.259     
      6900   161.32787     -813.5455       0             -808.31133     -1533.7333    
      7000   182.27206     -814.25914      0             -808.34545     -1654.7436    
      7100   164.36432     -813.66309      0             -808.3304      -2347.1519    
      7200   166.90789     -813.74479      0             -808.32958     -3594.5535    
      7300   163.38604     -813.63001      0             -808.32907     -4222.6866    
      7400   162.78966     -813.61526      0             -808.33366     -5229.7154    
      7500   168.46723     -813.79738      0             -808.33158     -5081.5413    
      7600   159.05665     -813.48181      0             -808.32133     -4698.7635    
      7700   164.29425     -813.65345      0             -808.32303     -3747.7043    
      7800   168.35345     -813.80665      0             -808.34454     -2694.5752    
      7900   165.14315     -813.69437      0             -808.33641     -1245.5782    
      8000   165.74511     -813.71193      0             -808.33445     -1082.397     
      8100   155.9494      -813.37783      0             -808.31816     -812.34586    
      8200   165.47501     -813.69971      0             -808.33099     -1665.7635    
      8300   165.2393      -813.68984      0             -808.32877     -3248.9071    
      8400   160.67267     -813.53764      0             -808.32473     -4363.7675    
      8500   159.92776     -813.52573      0             -808.33699     -5538.1335    
      8600   167.68248     -813.7846       0             -808.34426     -5844.877     
      8700   155.42504     -813.35706      0             -808.3144      -5099.0638    
      8800   156.59238     -813.39879      0             -808.31826     -4178.9073    
      8900   167.9333      -813.77734      0             -808.32886     -2901.2257    
      9000   165.6633      -813.71548      0             -808.34065     -1264.8939    
      9100   150.56412     -813.1976       0             -808.31266     -563.65109    
      9200   163.65336     -813.64215      0             -808.33254     -824.179      
      9300   169.37877     -813.82863      0             -808.33325     -2239.4073    
      9400   166.77582     -813.74547      0             -808.33454     -3480.1539    
      9500   163.23209     -813.62529      0             -808.32934     -3867.3074    
      9600   152.69017     -813.26915      0             -808.31522     -4190.683     
      9700   157.28464     -813.42952      0             -808.32653     -4243.1647    
      9800   162.12053     -813.59885      0             -808.33896     -4390.141     
      9900   151.99496     -813.24742      0             -808.31605     -3359.1443    
     10000   159.99027     -813.5201       0             -808.32933     -2828.1685    
Loop time of 4.73058 on 1 procs for 10000 steps with 252 atoms

Performance: 1826.413 ns/day, 0.013 hours/ns, 2113.904 timesteps/s
99.7% CPU use with 1 MPI tasks x 1 OpenMP threads

MPI task timing breakdown:
Section |  min time  |  avg time  |  max time  |%varavg| %total
---------------------------------------------------------------
Pair    | 4.452      | 4.452      | 4.452      |   0.0 | 94.11
Neigh   | 0          | 0          | 0          |   0.0 |  0.00
Comm    | 0.057103   | 0.057103   | 0.057103   |   0.0 |  1.21
Output  | 0.18173    | 0.18173    | 0.18173    |   0.0 |  3.84
Modify  | 0.02208    | 0.02208    | 0.02208    |   0.0 |  0.47
Other   |            | 0.01769    |            |       |  0.37

Nlocal:            252 ave         252 max         252 min
Histogram: 1 0 0 0 0 0 0 0 0 0
Nghost:           1431 ave        1431 max        1431 min
Histogram: 1 0 0 0 0 0 0 0 0 0
Neighs:          14400 ave       14400 max       14400 min
Histogram: 1 0 0 0 0 0 0 0 0 0

Total # of neighbors = 14400
Ave neighs/atom = 57.142857
Neighbor list builds = 0
Dangerous builds = 0
System init for write_restart ...
Total wall time: 0:00:04
