/store/Terry_project/NiAlO_EDIP_fitting_DFT/SlabAlO-2/SlabAlO_2_iter_last_no_ox_lmp.data (written by ASE) 

252 	 atoms 
1  atom types
0.0      17.180573460000002  xlo xhi
0.0             14.87881307  ylo yhi
0.0                      30  zlo zhi
     8.5902867300000008                       0                       0  xy xz yz


Atoms 

     1   1      11.453715611365713      6.6154174208190071      2.4775905000000003
     2   1      14.314177407694881      11.574969652043889      2.4768149999999998
     3   1      8.5919376113037718      1.6527778358821048      2.4773700000000001
     4   1      17.179464625788889      6.6138636263701072      2.4768479999999999
     5   1       20.04400242726858      11.566599724539488      2.4732774000000002
     6   1       14.31549361142765      1.6527778358821048      2.4773700000000001
     7   1      5.7279667687482654      6.6138636263701072      2.4768479999999999
     8   1      8.5932538150365438      11.574969652043889      2.4768149999999998
     9   1      2.8634288813657109      1.6544158444129811      2.4825579000000002
    10   1      14.318981181937165      8.2662592255444434      4.7967288000000003
    11   1      17.180224780261625      13.223375646281632      4.7946240000000007
    12   1      11.453715611365713      3.3054537518946803      4.7986044000000003
    13   1      20.044002427268577      8.2620001653031565      4.7993711999999995
    14   1      22.907780074275529      13.223375646281632      4.7946240000000007
    15   1      17.183301477356849      3.3067523746994296      4.8033966000000001
    16   1      8.5884502125999944      8.2662592255444434      4.7967288000000003
    17   1       11.45371569726858      13.227344569668054      4.7994551999999997
    18   1      5.7241297453745759      3.3067523746994296      4.8033966000000001
    19   1      17.182924879186604      9.9206511150683809      7.0678955999999999
    20   1      20.044002427268577      14.875904262044815      7.0597104000000002
    21   1      14.316033253240031      4.9610363928286105      7.0654047000000002
    22   1      22.905079975350553      9.9206511150683809      7.0678955999999999
    23   1 -0.00057735317112329995  0.00035962091190189991      7.0687262999999998
    24   1      2.8634289672685784       4.956089187482835      7.0746269999999996
    25   1      11.453715611365713      9.9207808583183557      7.0634306999999996
    26   1      5.7274352877082784  0.00035962091190189991      7.0687262999999998
    27   1      8.5913981412971268      4.9610363928286105      7.0654047000000002
    28   1       20.04400242726858      11.571474023701221      9.3491651999999998
    29   1      14.318214412943647      1.6525351624409332      9.3511958999999969
    30   1      17.179991553976912      6.6119897886520729      9.3548346000000002
    31   1      8.5918946598701229      11.571339221654807      9.3523154999999996
    32   1      2.8634288813657109       1.651547209253085      9.3680819999999994
    33   1      5.7274398405602467      6.6119897886520729      9.3548346000000002
    34   1      14.315536562861302      11.571339221654807      9.3523154999999996
    35   1      8.5892168097877803      1.6525351624409332      9.3511958999999969
    36   1      11.453715611365711      6.6132879650924288      9.3543530999999991
    37   1      22.907875082846765      13.223885989569935      11.640962099999999
    38   1       17.18022289039855      3.3058224488825547      11.651513700000001
    39   1      20.044002341365712      8.2656241978026159              11.6429505
    40   1      11.453715525462846      13.226835416684802      11.645783700000001
    41   1      5.7272083323328724      3.3058224488825547      11.651513700000001
    42   1      8.5962897082697918        8.26656662182247      11.646214799999999
    43   1      17.180129599884662      13.223885989569935      11.640962099999999
    44   1       11.45371569726858      3.3044272625809805              11.6393676
    45   1      14.311141514461628        8.26656662182247      11.646214799999999
    46   1      17.178764861031869  0.00021276702690100014               13.919226
    47   1      2.8634288813657114      4.9585803471551468              13.9234227
    48   1      22.899161267793588      9.9264434369965358              13.9081587
    49   1      5.7286663616995561  0.00021276702690100014               13.919226
    50   1      8.5880843522881634      4.9504920755821624      13.900852500000001
    51   1       11.45371569726858      9.9219445302885596              13.9085181
    52   1      20.044002255462846      14.875092474003717              13.9063803
    53   1      14.319347042248994      4.9504920755821624      13.900852500000001
    54   1      17.188843414937843      9.9264434369965358              13.9081587
    55   1      2.8634289672685784      1.6555238696223038              16.2462144
    56   1      5.7191030531916489      6.6112007651949707      16.236155100000001
    57   1      8.6007725493998421      11.572653913577673      16.233784200000002
    58   1      8.5960477198926082      1.6516119320899396      16.236832199999998
    59   1      11.453715611365713      6.5598748116286973      16.242584100000002
    60   1      14.306658845137315      11.572653913577673      16.233784200000002
    61   1      14.311383502838815      1.6516119320899396      16.236832199999998
    62   1      17.188328341345507      6.6112007651949707      16.236155100000001
    63   1       20.04400242726858      11.573851360453546      16.224263100000002
    64   1      7.1600427316481516      4.1334350004104845      2.4768479999999999
    65   1      10.024262864324564       9.091302206055186      2.4775905000000003
    66   1      12.885791746071334      14.050723206148787      2.4768479999999999
    67   1      12.889130361008949      4.1342935079246237      2.4768149999999998
    68   1       15.74959207143525      9.0887585241727393      2.4768149999999998
    69   1      18.607255839570726       14.05511751480088      2.4732774000000002
    70   1      18.613339566535778      4.1323964592581994      2.4825579000000002
    71   1      21.476175374505651      9.0942495501362206      2.4773700000000001
    72   1       24.33795337456759      14.050994446911053      2.4773700000000001
    73   1      10.021301019362927      5.7844885306459064      4.7967288000000003
    74   1      12.886566589934377      10.747274076739025      4.7967288000000003
    75   1      7.1551019423325268     0.82860422441904469      4.7993711999999995
    76   1      15.750359785360311       5.785338706024727      4.7994551999999997
    77   1      18.610177052476129      10.746625360489176      4.7946240000000007
    78   1      12.883667969483076     0.82802067737043938      4.7946240000000007
    79   1      4.2940821209773761      5.7836678153169645      4.8033966000000001
    80   1      7.1577502418285182      10.746284040517351      4.7986044000000003
    81   1      1.4333811710656439     0.82878842412485143      4.8033966000000001
    82   1      12.886791569543837      7.4386204873055135      7.0634306999999996
    83   1      15.751283756600989      12.400325980357882      7.0678955999999999
    84   1      10.022074574682962      2.4770445887149837      7.0678955999999999
    85   1      18.612888061065245      7.4397268758453974      7.0687262999999998
    86   1       21.47319772341643      12.400465394836349      7.0597104000000002
    87   1      15.748881740625544      2.4791224149602091      7.0687262999999998
    88   1      7.1603681317094843      7.4396530769325695      7.0654047000000002
    89   1      10.022685601778068      12.397332363168198      7.0654047000000002
    90   1      4.2920992250914907      2.4815597133292049      7.0746269999999996
    91   1      15.747127518172414      9.0917509510573744      9.3523154999999996
    92   1      18.611477106469849      14.052680365220015      9.3491651999999998
    93   1      12.885306566676825      4.1349316602171946      9.3523154999999996
    94   1      21.474604984188538      9.0920146036249747      9.3511958999999969
    95   1        24.3391036998636      14.053471918075338      9.3511958999999969
    96   1      18.610855255613462      4.1338307768381473      9.3680819999999994
    97   1      10.022418873375102      9.0923669339184734      9.3543530999999991
    98   1       12.88443233319631      14.052116309416528      9.3548346000000002
    99   1      7.1581564764879797      4.1339155860726455      9.3548346000000002
   100   1      18.610571518442768      10.746287909008748      11.640962099999999
   101   1       12.88415752992382     0.82784793435069659      11.640962099999999
   102   1      15.749918931845325      5.7855931337282227      11.645783700000001
   103   1      7.1568612330548298      10.746797210780132              11.6393676
   104   1      1.4310366241084249     0.82658740130740627      11.651513700000001
   105   1      4.2948160750755875      5.7867989127394157      11.651513700000001
   106   1      12.882912969182376      10.740331027408043      11.646214799999999
   107   1      7.1582404894921989     0.82679228256338022              11.6429505
   108   1      10.025487066086457      5.7911241836988658      11.646214799999999
   109   1      21.472494780253314      12.400871140068766              13.9063803
   110   1      15.748138938532005      2.4781295517640478               13.919226
   111   1      18.613376418865847       7.440866444138428               13.919226
   112   1      10.015210849682827       12.40547434725636      13.900852500000001
   113   1      4.2942566756037301      2.4803142078871154              13.9234227
   114   1      7.1495795047024107      7.4420552613027233      13.900852500000001
   115   1      15.759259408315458      12.402555570496419              13.9081587
   116   1       10.02413160474333       2.469022825436423              13.9081587
   117   1      12.887799296080136      7.4380385769263455              13.9085181
   118   1       24.33488853206806      14.048017791568268      16.236832199999998
   119   1      18.614299101563518      4.1318423722594719              16.2462144
   120   1      21.477220726497823      9.0983919604830383      16.236832199999998
   121   1      12.887917412522672      14.059730690793234      16.236155100000001
   122   1      7.1533047684457429      4.1270902281530448      16.236155100000001
   123   1      9.9761617255856638      9.1190735106503382      16.242584100000002
   124   1      18.613535940490422      14.051491696843849      16.224263100000002
   125   1      12.890883982142011      4.1419626433334233      16.233784200000002
   126   1      15.743827130010745      9.0834051272301508      16.233784200000002
   127   1      8.5905316390746727       6.612947240273126      2.4685217999999995
   128   1      11.453715611365713      11.572127352383124      2.4685217999999995
   129   1      5.7262632289868378      1.6535448386958631               2.4831702
   130   1      14.316899583656749       6.612947240273126      2.4685217999999995
   131   1      17.177434053811659        11.5705976616114      2.4777458999999999
   132   1      11.453715611365713      1.6568265097065824      2.4777458999999999
   133   1      20.044002341365715      6.6121190855376506               2.4831702
   134   1      22.910570800725502        11.5705976616114      2.4777458999999999
   135   1      17.181168165550321      1.6535448386958631               2.4831702
   136   1      11.453715697268578      8.2660073272391674      4.8018068999999999
   137   1      14.315520928539453      13.228135824947119      4.7966435999999995
   138   1      8.5872888917369661      3.3065468982909336      4.7966435999999995
   139   1      17.181947648168201      8.2633391096913282      4.7966435999999995
   140   1      20.044002341365712      13.225611634309795      4.7933516999999997
   141   1      14.320142330994459      3.3065468982909336      4.7966435999999995
   142   1      5.7254837463689592      8.2633391096913282      4.7966435999999995
   143   1      8.5919104659977048      13.228135824947119      4.7966435999999995
   144   1      2.8634289672685784      3.3064028713804152      4.8049995000000001
   145   1      14.315295433512791      9.9181410593034762      7.0603331999999996
   146   1      8.5925454599927882  -0.0013039791774547998      7.0612560000000002
   147   1       11.45371569726858      4.9617395655342991      7.0603331999999996
   148   1      20.044002341365712      9.9218167212842889      7.0612560000000002
   149   1      14.314885934544373  -0.0013039791774547998      7.0612560000000002
   150   1      17.182663304955678      4.9583977841187767      7.0696836000000003
   151   1      8.5921359610243684      9.9181410593034762      7.0603331999999996
   152   1      2.8634288813657109   0.0024131946918232996      7.0696836000000003
   153   1      5.7247679177757469      4.9583977841187767      7.0696836000000003
   154   1       17.18419289141082      11.574499779127137      9.3473141999999996
   155   1       11.45371569726858      1.6490221258869755      9.3473141999999996
   156   1      14.315720824511661      6.6136277971829491      9.3554963999999998
   157   1      22.903811791320607      11.574499779127137      9.3473141999999996
   158   1       17.18330525708301      1.6547785898756275      9.3615557999999979
   159   1       20.04400242726858      6.6096514343899919      9.3615557999999979
   160   1      11.453715611365711      11.570766238563483      9.3554963999999998
   161   1      5.7241261374541494      1.6547785898756275      9.3615557999999979
   162   1       8.591710398219762      6.6136277971829491      9.3554963999999998
   163   1      20.044002341365712      13.225611634309795      11.646193799999999
   164   1       14.31516597789177      3.3051899505389493      11.641422299999999
   165   1       17.18063462284152      8.2683272317730463      11.641422299999999
   166   1      8.5882471382216963      13.224504650617384      11.641422299999999
   167   1      2.8634289672685784      3.3064028713804152      11.655913199999999
   168   1      5.7267967716956383      8.2683272317730463      11.641422299999999
   169   1      14.319184256315463      13.224504650617384      11.641422299999999
   170   1      8.5922652448396555      3.3051899505389493      11.641422299999999
   171   1      11.453715697268578      8.2660073272391674              11.6362959
   172   1      14.317453914859438   0.0001785457568400001              13.9098582
   173   1       17.18646613898818      4.9562021176740378      13.917092400000001
   174   1       20.04400242726858      9.9188515226275662              13.9098582
   175   1      2.8634289672685784   0.0068043787931724008      13.917092400000001
   176   1       5.720965083743244      4.9562021176740378      13.917092400000001
   177   1      8.5773437449839101      9.9266813492175245      13.899718799999997
   178   1       8.589977307871985   0.0001785457568400001              13.9098582
   179   1      11.453715611365711      4.9446591344943318      13.899718799999997
   180   1      14.330087477747512      9.9266813492175245      13.899718799999997
   181   1      17.183027533113027      1.6546183450588641      16.247305800000003
   182   1      20.044002255462846       6.609971924023518      16.247305800000003
   183   1      22.915527052557245      11.567736168281774              16.2384126
   184   1      5.7244036896183967      1.6546183450588641      16.247305800000003
   185   1      8.5512812445594264      6.5902859152387334      16.178551800000001
   186   1       11.45371569726858      11.617449853663784      16.178551800000001
   187   1      11.453715611365713      1.6625494963658274              16.2384126
   188   1      14.356149978171997      6.5902859152387334      16.178551800000001
   189   1      17.172477801979916      11.567736168281774              16.2384126
   190   1      10.018301033528211      4.1342935079246237      2.4768149999999998
   191   1      12.883168358406859       9.091302206055186      2.4775905000000003
   192   1      15.750051308163837      14.050994446911053      2.4773700000000001
   193   1      15.747388491083267      4.1334350004104845      2.4768479999999999
   194   1      18.611829308225772      9.0942495501362206      2.4773700000000001
   195   1      21.480748843160701       14.05511751480088      2.4732774000000002
   196   1       4.294091656195647      4.1323964592581994      2.4825579000000002
   197   1      7.1578391512961739      9.0887585241727393      2.4768149999999998
   198   1      10.021639648465824      14.050723206148787      2.4768479999999999
   199   1      12.886130203368497      5.7844885306459064      4.7967288000000003
   200   1      15.749680980902905      10.746284040517351      4.7986044000000003
   201   1      10.023763253248344     0.82802067737043938      4.7946240000000007
   202   1      18.613349273559784      5.7836678153169645      4.8033966000000001
   203   1      21.477827630255298      10.746625360489176      4.7946240000000007
   204   1      15.752329280398898     0.82860422441904469      4.7993711999999995
   205   1      7.1570716091768478       5.785338706024727      4.7994551999999997
   206   1      10.020864804602777      10.747274076739025      4.7967288000000003
   207   1      4.2934765916657787     0.82878842412485143      4.8033966000000001
   208   1      15.747063262827673      7.4396530769325695      7.0654047000000002
   209   1      18.614807131120731      12.400465394836349      7.0597104000000002
   210   1      12.885356648048459      2.4770445887149837      7.0678955999999999
   211   1      4.2945433334719105      7.4397268758453974      7.0687262999999998
   212   1      24.336720926130436      12.400325980357882      7.0678955999999999
   213   1      1.4347587094456664      2.4815597133292049      7.0746269999999996
   214   1      10.020639653187585      7.4386204873055135      7.0634306999999996
   215   1      12.884745620953353      12.397332363168198      7.0654047000000002
   216   1        7.15854965391161      2.4791224149602091      7.0687262999999998
   217   1      18.613399870348623      9.0920146036249747      9.3511958999999969
   218   1      21.476527576261581      14.052680365220015      9.3491651999999998
   219   1      15.749274746243445      4.1339155860726455      9.3548346000000002
   220   1      7.1603037045590101      9.0917509510573744      9.3523154999999996
   221   1      10.022998889535112      14.052116309416528      9.3548346000000002
   222   1      4.2965759671179633      4.1338307768381473      9.3680819999999994
   223   1      12.885012521162055      9.0923669339184734      9.3543530999999991
   224   1      15.748900982867822      14.053471918075338      9.3511958999999969
   225   1      10.022124656054601      4.1349316602171946      9.3523154999999996
   226   1      21.477433164288652      10.746287909008748      11.640962099999999
   227   1      15.749190733239223     0.82679228256338022              11.6429505
   228   1      18.612615319461572      5.7867989127394157      11.651513700000001
   229   1      10.024518253549047      10.740331027408043      11.646214799999999
   230   1      4.2958213104287317     0.82658740130740627      11.651513700000001
   231   1      7.1575122908860971      5.7855931337282227      11.645783700000001
   232   1      15.750569989676594      10.746797210780132              11.6393676
   233   1      10.023273692807605     0.82784793435069659      11.640962099999999
   234   1      12.881944156644964      5.7911241836988658      11.646214799999999
   235   1      24.328745274415969      12.402555570496419              13.9081587
   236   1      1.4326012589334272      2.4803142078871154              13.9234227
   237   1      21.474628263865579       7.440866444138428               13.919226
   238   1      12.892220373048596       12.40547434725636      13.900852500000001
   239   1      7.1592922841994193      2.4781295517640478               13.919226
   240   1      10.019631926651289      7.4380385769263455              13.9085181
   241   1      18.615509902478113      12.400871140068766              13.9063803
   242   1      12.883299617988095       2.469022825436423              13.9081587
   243   1      15.757851718029015      7.4420552613027233      13.900852500000001
   244   1      10.019513810208752      14.059730690793234      16.236155100000001
   245   1       4.293132121167905      4.1318423722594719              16.2462144
   246   1      7.1636040927206759      9.0834051272301508      16.233784200000002
   247   1      15.753115978857632      14.048017791568268      16.236832199999998
   248   1      10.016547240589412      4.1419626433334233      16.233784200000002
   249   1      12.931269668951494      9.1190735106503382      16.242584100000002
   250   1      21.474468742241001      14.051491696843849      16.224263100000002
   251   1      15.754126454285679      4.1270902281530448      16.236155100000001
   252   1        18.6107839562336      9.0983919604830383      16.236832199999998
