 254 254   0   0
  0.2268316E+02  0.1514622E-08  0.1514622E-08  0.2900000E-08  0.5000000E-15
   1.0000000000000000E-004
  CAR 
 NiAl                                    
      6.15914453    -26.92755014  301     -0.55775557      1.00000000
    -26.928  0.0000E+00  0.0000E+00
    -26.817  0.0000E+00  0.0000E+00
    -26.707  0.0000E+00  0.0000E+00
    -26.597  0.0000E+00  0.0000E+00
    -26.486  0.0000E+00  0.0000E+00
    -26.376  0.0000E+00  0.0000E+00
    -26.266  0.0000E+00  0.0000E+00
    -26.156  0.0000E+00  0.0000E+00
    -26.045  0.0000E+00  0.0000E+00
    -25.935  0.0000E+00  0.0000E+00
    -25.825  0.0000E+00  0.0000E+00
    -25.714  0.2013E-14  0.2220E-15
    -25.604  0.2908E-05  0.3207E-06
    -25.494  0.4210E+00  0.4643E-01
    -25.384  0.1536E+02  0.1741E+01
    -25.273  0.2351E+01  0.2000E+01
    -25.163  0.1961E-03  0.2000E+01
    -25.053  0.1585E-11  0.2000E+01
    -24.942  0.0000E+00  0.2000E+01
    -24.832  0.0000E+00  0.2000E+01
    -24.722  0.0000E+00  0.2000E+01
    -24.611  0.0000E+00  0.2000E+01
    -24.501  0.0000E+00  0.2000E+01
    -24.391  0.0000E+00  0.2000E+01
    -24.281  0.0000E+00  0.2000E+01
    -24.170  0.0000E+00  0.2000E+01
    -24.060  0.0000E+00  0.2000E+01
    -23.950  0.0000E+00  0.2000E+01
    -23.839  0.0000E+00  0.2000E+01
    -23.729  0.0000E+00  0.2000E+01
    -23.619  0.0000E+00  0.2000E+01
    -23.509  0.0000E+00  0.2000E+01
    -23.398  0.0000E+00  0.2000E+01
    -23.288  0.0000E+00  0.2000E+01
    -23.178  0.0000E+00  0.2000E+01
    -23.067  0.0000E+00  0.2000E+01
    -22.957  0.0000E+00  0.2000E+01
    -22.847  0.0000E+00  0.2000E+01
    -22.737  0.0000E+00  0.2000E+01
    -22.626  0.0000E+00  0.2000E+01
    -22.516  0.0000E+00  0.2000E+01
    -22.406  0.0000E+00  0.2000E+01
    -22.295  0.0000E+00  0.2000E+01
    -22.185  0.0000E+00  0.2000E+01
    -22.075  0.0000E+00  0.2000E+01
    -21.965  0.0000E+00  0.2000E+01
    -21.854  0.0000E+00  0.2000E+01
    -21.744  0.0000E+00  0.2000E+01
    -21.634  0.0000E+00  0.2000E+01
    -21.523  0.0000E+00  0.2000E+01
    -21.413  0.0000E+00  0.2000E+01
    -21.303  0.0000E+00  0.2000E+01
    -21.193  0.0000E+00  0.2000E+01
    -21.082  0.0000E+00  0.2000E+01
    -20.972  0.0000E+00  0.2000E+01
    -20.862  0.0000E+00  0.2000E+01
    -20.751  0.0000E+00  0.2000E+01
    -20.641  0.0000E+00  0.2000E+01
    -20.531  0.0000E+00  0.2000E+01
    -20.421  0.0000E+00  0.2000E+01
    -20.310  0.0000E+00  0.2000E+01
    -20.200  0.0000E+00  0.2000E+01
    -20.090  0.0000E+00  0.2000E+01
    -19.979  0.0000E+00  0.2000E+01
    -19.869  0.0000E+00  0.2000E+01
    -19.759  0.0000E+00  0.2000E+01
    -19.648  0.0000E+00  0.2000E+01
    -19.538  0.0000E+00  0.2000E+01
    -19.428  0.0000E+00  0.2000E+01
    -19.318  0.0000E+00  0.2000E+01
    -19.207  0.0000E+00  0.2000E+01
    -19.097  0.0000E+00  0.2000E+01
    -18.987  0.0000E+00  0.2000E+01
    -18.876  0.0000E+00  0.2000E+01
    -18.766  0.0000E+00  0.2000E+01
    -18.656  0.0000E+00  0.2000E+01
    -18.546  0.0000E+00  0.2000E+01
    -18.435  0.0000E+00  0.2000E+01
    -18.325  0.0000E+00  0.2000E+01
    -18.215  0.0000E+00  0.2000E+01
    -18.104  0.0000E+00  0.2000E+01
    -17.994  0.0000E+00  0.2000E+01
    -17.884  0.0000E+00  0.2000E+01
    -17.774  0.0000E+00  0.2000E+01
    -17.663  0.0000E+00  0.2000E+01
    -17.553  0.0000E+00  0.2000E+01
    -17.443  0.0000E+00  0.2000E+01
    -17.332  0.0000E+00  0.2000E+01
    -17.222  0.0000E+00  0.2000E+01
    -17.112  0.0000E+00  0.2000E+01
    -17.002  0.0000E+00  0.2000E+01
    -16.891  0.0000E+00  0.2000E+01
    -16.781  0.0000E+00  0.2000E+01
    -16.671  0.0000E+00  0.2000E+01
    -16.560  0.0000E+00  0.2000E+01
    -16.450  0.0000E+00  0.2000E+01
    -16.340  0.0000E+00  0.2000E+01
    -16.230  0.0000E+00  0.2000E+01
    -16.119  0.0000E+00  0.2000E+01
    -16.009  0.0000E+00  0.2000E+01
    -15.899  0.0000E+00  0.2000E+01
    -15.788  0.0000E+00  0.2000E+01
    -15.678  0.0000E+00  0.2000E+01
    -15.568  0.0000E+00  0.2000E+01
    -15.457  0.0000E+00  0.2000E+01
    -15.347  0.0000E+00  0.2000E+01
    -15.237  0.0000E+00  0.2000E+01
    -15.127  0.0000E+00  0.2000E+01
    -15.016  0.1812E-13  0.2000E+01
    -14.906  0.1297E-04  0.2000E+01
    -14.796  0.8060E+00  0.2089E+01
    -14.685  0.1591E+02  0.3844E+01
    -14.575  0.1416E+01  0.4000E+01
    -14.465  0.5158E-04  0.4000E+01
    -14.355  0.1721E-12  0.4000E+01
    -14.244  0.0000E+00  0.4000E+01
    -14.134  0.0000E+00  0.4000E+01
    -14.024  0.0000E+00  0.4000E+01
    -13.913  0.0000E+00  0.4000E+01
    -13.803  0.0000E+00  0.4000E+01
    -13.693  0.0000E+00  0.4000E+01
    -13.583  0.0000E+00  0.4000E+01
    -13.472  0.0000E+00  0.4000E+01
    -13.362  0.0000E+00  0.4000E+01
    -13.252  0.0000E+00  0.4000E+01
    -13.141  0.0000E+00  0.4000E+01
    -13.031  0.0000E+00  0.4000E+01
    -12.921  0.0000E+00  0.4000E+01
    -12.811  0.0000E+00  0.4000E+01
    -12.700  0.0000E+00  0.4000E+01
    -12.590  0.0000E+00  0.4000E+01
    -12.480  0.0000E+00  0.4000E+01
    -12.369  0.0000E+00  0.4000E+01
    -12.259  0.0000E+00  0.4000E+01
    -12.149  0.0000E+00  0.4000E+01
    -12.039  0.0000E+00  0.4000E+01
    -11.928  0.0000E+00  0.4000E+01
    -11.818  0.0000E+00  0.4000E+01
    -11.708  0.0000E+00  0.4000E+01
    -11.597  0.0000E+00  0.4000E+01
    -11.487  0.0000E+00  0.4000E+01
    -11.377  0.0000E+00  0.4000E+01
    -11.267  0.0000E+00  0.4000E+01
    -11.156  0.0000E+00  0.4000E+01
    -11.046  0.0000E+00  0.4000E+01
    -10.936  0.0000E+00  0.4000E+01
    -10.825  0.0000E+00  0.4000E+01
    -10.715  0.0000E+00  0.4000E+01
    -10.605  0.0000E+00  0.4000E+01
    -10.494  0.0000E+00  0.4000E+01
    -10.384  0.0000E+00  0.4000E+01
    -10.274  0.0000E+00  0.4000E+01
    -10.164  0.0000E+00  0.4000E+01
    -10.053  0.0000E+00  0.4000E+01
     -9.943  0.0000E+00  0.4000E+01
     -9.833  0.0000E+00  0.4000E+01
     -9.722  0.0000E+00  0.4000E+01
     -9.612  0.0000E+00  0.4000E+01
     -9.502  0.0000E+00  0.4000E+01
     -9.392  0.2038E-13  0.4000E+01
     -9.281  0.8129E-05  0.4000E+01
     -9.171  0.2944E+00  0.4032E+01
     -9.061  0.3993E+01  0.4473E+01
     -8.950  0.1155E+01  0.4600E+01
     -8.840  0.2360E+02  0.7202E+01
     -8.730  0.2697E+01  0.7500E+01
     -8.620  0.8927E+00  0.7598E+01
     -8.509  0.3961E+01  0.8035E+01
     -8.399  0.2613E+02  0.1092E+02
     -8.289  0.2781E+02  0.1398E+02
     -8.178  0.2226E+02  0.1644E+02
     -8.068  0.5089E+01  0.1700E+02
     -7.958  0.4059E+01  0.1745E+02
     -7.848  0.2272E+02  0.1995E+02
     -7.737  0.9714E+01  0.2102E+02
     -7.627  0.2704E+02  0.2401E+02
     -7.517  0.6874E+02  0.3159E+02
     -7.406  0.2309E+02  0.3413E+02
     -7.296  0.3312E+01  0.3450E+02
     -7.186  0.7855E+01  0.3537E+02
     -7.076  0.7572E+02  0.4372E+02
     -6.965  0.2935E+02  0.4695E+02
     -6.855  0.2464E+02  0.4967E+02
     -6.745  0.1924E+02  0.5179E+02
     -6.634  0.2878E+02  0.5497E+02
     -6.524  0.4460E+02  0.5989E+02
     -6.414  0.5014E+02  0.6542E+02
     -6.304  0.7624E+02  0.7383E+02
     -6.193  0.1354E+02  0.7532E+02
     -6.083  0.4707E+02  0.8051E+02
     -5.973  0.8019E+02  0.8935E+02
     -5.862  0.5916E+02  0.9588E+02
     -5.752  0.1345E+01  0.9603E+02
     -5.642  0.7712E+01  0.9688E+02
     -5.531  0.3765E+02  0.1010E+03
     -5.421  0.1214E+03  0.1144E+03
     -5.311  0.8710E+02  0.1240E+03
     -5.201  0.6063E+02  0.1307E+03
     -5.090  0.1131E+03  0.1432E+03
     -4.980  0.1036E+03  0.1546E+03
     -4.870  0.3796E+02  0.1588E+03
     -4.759  0.1439E+03  0.1747E+03
     -4.649  0.2353E+03  0.2006E+03
     -4.539  0.1869E+03  0.2212E+03
     -4.429  0.2299E+03  0.2466E+03
     -4.318  0.3015E+03  0.2798E+03
     -4.208  0.2243E+03  0.3046E+03
     -4.098  0.2525E+03  0.3324E+03
     -3.987  0.3171E+03  0.3674E+03
     -3.877  0.4192E+03  0.4136E+03
     -3.767  0.5237E+03  0.4714E+03
     -3.657  0.4153E+03  0.5172E+03
     -3.546  0.4717E+03  0.5692E+03
     -3.436  0.3793E+03  0.6110E+03
     -3.326  0.3390E+03  0.6484E+03
     -3.215  0.3844E+03  0.6908E+03
     -3.105  0.5208E+03  0.7483E+03
     -2.995  0.4030E+03  0.7927E+03
     -2.885  0.4624E+03  0.8437E+03
     -2.774  0.5869E+03  0.9084E+03
     -2.664  0.4941E+03  0.9629E+03
     -2.554  0.5443E+03  0.1023E+04
     -2.443  0.6496E+03  0.1095E+04
     -2.333  0.7166E+03  0.1174E+04
     -2.223  0.8981E+03  0.1273E+04
     -2.113  0.8014E+03  0.1361E+04
     -2.002  0.9073E+03  0.1461E+04
     -1.892  0.8073E+03  0.1550E+04
     -1.782  0.5636E+03  0.1612E+04
     -1.671  0.5864E+03  0.1677E+04
     -1.561  0.5313E+03  0.1736E+04
     -1.451  0.6080E+03  0.1803E+04
     -1.341  0.8324E+03  0.1894E+04
     -1.230  0.6352E+03  0.1965E+04
     -1.120  0.5712E+03  0.2028E+04
     -1.010  0.7670E+03  0.2112E+04
     -0.899  0.8778E+03  0.2209E+04
     -0.789  0.6440E+03  0.2280E+04
     -0.679  0.8972E+03  0.2379E+04
     -0.568  0.1267E+04  0.2519E+04
     -0.458  0.9449E+03  0.2623E+04
     -0.348  0.3394E+03  0.2660E+04
     -0.238  0.1352E+03  0.2675E+04
     -0.127  0.1409E+03  0.2691E+04
     -0.017  0.1690E+03  0.2709E+04
      0.093  0.9164E+02  0.2719E+04
      0.204  0.5183E+02  0.2725E+04
      0.314  0.3076E+02  0.2729E+04
      0.424  0.1019E+03  0.2740E+04
      0.534  0.9129E+02  0.2750E+04
      0.645  0.1026E+03  0.2761E+04
      0.755  0.7230E+02  0.2769E+04
      0.865  0.1108E+03  0.2781E+04
      0.976  0.1451E+03  0.2797E+04
      1.086  0.4213E+02  0.2802E+04
      1.196  0.2690E+02  0.2805E+04
      1.306  0.1312E+03  0.2819E+04
      1.417  0.3780E+02  0.2824E+04
      1.527  0.4500E+02  0.2829E+04
      1.637  0.1137E+03  0.2841E+04
      1.748  0.8357E+02  0.2850E+04
      1.858  0.7729E+02  0.2859E+04
      1.968  0.1051E+03  0.2870E+04
      2.078  0.3972E+02  0.2875E+04
      2.189  0.6977E+02  0.2883E+04
      2.299  0.1299E+03  0.2897E+04
      2.409  0.7699E+02  0.2905E+04
      2.520  0.3520E+02  0.2909E+04
      2.630  0.5560E+02  0.2915E+04
      2.740  0.1969E+02  0.2918E+04
      2.850  0.3001E+02  0.2921E+04
      2.961  0.7295E+02  0.2929E+04
      3.071  0.2121E+03  0.2952E+04
      3.181  0.1091E+03  0.2964E+04
      3.292  0.2252E+02  0.2967E+04
      3.402  0.2781E+02  0.2970E+04
      3.512  0.1152E+03  0.2983E+04
      3.622  0.1518E+02  0.2984E+04
      3.733  0.8941E+02  0.2994E+04
      3.843  0.1297E+02  0.2996E+04
      3.953  0.2197E+02  0.2998E+04
      4.064  0.8801E+01  0.2999E+04
      4.174  0.6600E+02  0.3006E+04
      4.284  0.2558E+02  0.3009E+04
      4.395  0.6750E+02  0.3017E+04
      4.505  0.8601E+02  0.3026E+04
      4.615  0.5935E+02  0.3033E+04
      4.725  0.4910E+02  0.3038E+04
      4.836  0.4014E+00  0.3038E+04
      4.946  0.1837E-05  0.3038E+04
      5.056  0.0000E+00  0.3038E+04
      5.167  0.0000E+00  0.3038E+04
      5.277  0.0000E+00  0.3038E+04
      5.387  0.0000E+00  0.3038E+04
      5.497  0.0000E+00  0.3038E+04
      5.608  0.0000E+00  0.3038E+04
      5.718  0.0000E+00  0.3038E+04
      5.828  0.0000E+00  0.3038E+04
      5.939  0.0000E+00  0.3038E+04
      6.049  0.0000E+00  0.3038E+04
      6.159  0.0000E+00  0.3038E+04
