       N       E                     dE             d eps       ncg     rms          rms(c)
DAV:   1     0.244646706642E+04    0.24465E+04   -0.20513E+05  4144   0.854E+02
DAV:   2    -0.670615422320E+03   -0.31171E+04   -0.29410E+04  5560   0.203E+02
DAV:   3    -0.936978948648E+03   -0.26636E+03   -0.25546E+03  6440   0.453E+01
DAV:   4    -0.950762765275E+03   -0.13784E+02   -0.13472E+02  6336   0.100E+01
DAV:   5    -0.951208260739E+03   -0.44550E+00   -0.44285E+00  6264   0.202E+00    0.675E+01
DAV:   6    -0.965527913636E+03   -0.14320E+02   -0.19974E+02  6008   0.173E+01    0.443E+01
DAV:   7    -0.986392385581E+03   -0.20864E+02   -0.41276E+02  5864   0.300E+01    0.323E+01
DAV:   8    -0.933226462486E+03    0.53166E+02   -0.29868E+02  5464   0.200E+01    0.995E+00
DAV:   9    -0.942492099692E+03   -0.92656E+01   -0.45268E+01  5432   0.153E+01    0.108E+01
DAV:  10    -0.922702686494E+03    0.19789E+02   -0.21596E+01  5512   0.915E+00    0.336E+00
DAV:  11    -0.922051953712E+03    0.65073E+00   -0.10703E+01  5296   0.329E+00    0.222E+00
DAV:  12    -0.921978572441E+03    0.73381E-01   -0.10560E+00  5288   0.140E+00    0.134E+00
DAV:  13    -0.921946658244E+03    0.31914E-01   -0.25375E-01  5056   0.751E-01    0.916E-01
DAV:  14    -0.921831684138E+03    0.11497E+00   -0.19071E-01  4672   0.519E-01    0.867E-01
DAV:  15    -0.921789595352E+03    0.42089E-01   -0.15049E-01  5192   0.411E-01    0.698E-01
DAV:  16    -0.921790469341E+03   -0.87399E-03   -0.25263E-02  5864   0.212E-01    0.346E-01
DAV:  17    -0.921790011568E+03    0.45777E-03   -0.17487E-02  5056   0.155E-01    0.135E-01
DAV:  18    -0.921791201643E+03   -0.11901E-02   -0.95346E-03  4736   0.104E-01    0.152E-01
DAV:  19    -0.921794069871E+03   -0.28682E-02   -0.27419E-03  4856   0.662E-02    0.159E-01
DAV:  20    -0.921797508809E+03   -0.34389E-02   -0.15810E-03  4464   0.531E-02    0.109E-01
DAV:  21    -0.921799580738E+03   -0.20719E-02   -0.92586E-04  4904   0.394E-02    0.347E-02
DAV:  22    -0.921800956219E+03   -0.13755E-02   -0.32521E-04  4680   0.202E-02    0.244E-02
DAV:  23    -0.921802196731E+03   -0.12405E-02   -0.26270E-04  4576   0.162E-02    0.326E-02
DAV:  24    -0.921802778729E+03   -0.58200E-03   -0.78722E-05  4792   0.108E-02    0.248E-02
DAV:  25    -0.921803215471E+03   -0.43674E-03   -0.12114E-04  4216   0.116E-02    0.731E-03
DAV:  26    -0.921803997714E+03   -0.78224E-03   -0.57573E-05  4344   0.733E-03    0.114E-02
DAV:  27    -0.921804578164E+03   -0.58045E-03   -0.37081E-05  3728   0.636E-03    0.855E-03
DAV:  28    -0.921804978393E+03   -0.40023E-03   -0.26506E-05  3760   0.332E-03    0.311E-03
DAV:  29    -0.921805122478E+03   -0.14409E-03   -0.66168E-06  3272   0.196E-03    0.189E-03
DAV:  30    -0.921805216133E+03   -0.93655E-04   -0.54631E-06  3168   0.163E-03    0.936E-04
DAV:  31    -0.921805239778E+03   -0.23645E-04   -0.11568E-06  2816   0.104E-03    0.546E-04
DAV:  32    -0.921805245811E+03   -0.60322E-05   -0.38068E-07  2384   0.747E-04    0.623E-04
DAV:  33    -0.921805250030E+03   -0.42191E-05   -0.26226E-07  2472   0.638E-04
   1 F= -.99476587E+03 E0= -.99471988E+03  d E =-.994766E+03
       N       E                     dE             d eps       ncg     rms          rms(c)
DAV:   1    -0.925028584981E+03   -0.32233E+01   -0.29603E+03  4224   0.551E+01    0.418E+01
DAV:   2    -0.932803232287E+03   -0.77746E+01   -0.84292E+01  4432   0.800E+00    0.397E+01
DAV:   3    -0.932251829903E+03    0.55140E+00   -0.43206E+00  6032   0.414E+00    0.307E+01
DAV:   4    -0.107011079450E+04   -0.13786E+03   -0.27605E+01  6744   0.264E+01    0.319E+01
DAV:   5    -0.929743734083E+03    0.14037E+03   -0.13056E+02  7000   0.217E+01    0.491E+00
DAV:   6    -0.931877762564E+03   -0.21340E+01   -0.22360E+01  5296   0.578E+00    0.347E+00
DAV:   7    -0.931982922712E+03   -0.10516E+00   -0.59830E+00  5152   0.305E+00    0.214E+00
DAV:   8    -0.931787461375E+03    0.19546E+00   -0.93592E-01  5224   0.197E+00    0.922E-01
DAV:   9    -0.931811393371E+03   -0.23932E-01   -0.51193E-01  5160   0.110E+00    0.100E+00
DAV:  10    -0.931811208085E+03    0.18529E-03   -0.11144E-01  4984   0.442E-01    0.108E+00
DAV:  11    -0.931805165730E+03    0.60424E-02   -0.29005E-02  5152   0.360E-01    0.666E-01
DAV:  12    -0.931802657863E+03    0.25079E-02   -0.81108E-02  6008   0.497E-01    0.313E-01
DAV:  13    -0.931805545965E+03   -0.28881E-02   -0.43283E-02  4984   0.221E-01    0.483E-01
DAV:  14    -0.931802412932E+03    0.31330E-02   -0.26119E-03  5280   0.129E-01    0.394E-01
DAV:  15    -0.931801753188E+03    0.65974E-03   -0.63238E-03  5024   0.917E-02    0.202E-01
DAV:  16    -0.931801649559E+03    0.10363E-03   -0.59535E-04  5808   0.401E-02    0.164E-01
DAV:  17    -0.931801465563E+03    0.18400E-03   -0.41305E-04  5792   0.471E-02    0.110E-01
DAV:  18    -0.931801479257E+03   -0.13693E-04   -0.81984E-04  5424   0.330E-02    0.352E-02
DAV:  19    -0.931801509002E+03   -0.29745E-04   -0.84181E-05  5216   0.139E-02    0.255E-02
DAV:  20    -0.931801532530E+03   -0.23528E-04   -0.95786E-06  3248   0.106E-02    0.148E-02
DAV:  21    -0.931801591122E+03   -0.58591E-04   -0.12124E-04  6088   0.200E-02    0.171E-02
DAV:  22    -0.931801612751E+03   -0.21630E-04   -0.55080E-05  4144   0.759E-03    0.285E-02
DAV:  23    -0.931801616466E+03   -0.37149E-05   -0.16607E-06  2472   0.244E-03
   2 F= -.10047648E+04 E0= -.10047227E+04  d E =-.999888E+01
       N       E                     dE             d eps       ncg     rms          rms(c)
DAV:   1    -0.931816175177E+03   -0.14562E-01   -0.78148E+00  4096   0.414E+00    0.114E+00
DAV:   2    -0.931853829068E+03   -0.37654E-01   -0.40103E-01  4480   0.771E-01    0.604E-01
DAV:   3    -0.931853455524E+03    0.37354E-03   -0.74373E-03  5616   0.126E-01    0.438E-01
DAV:   4    -0.931855862377E+03   -0.24069E-02   -0.37271E-03  5568   0.190E-01    0.173E-01
DAV:   5    -0.931853226243E+03    0.26361E-02   -0.54744E-03  5368   0.171E-01    0.118E-01
DAV:   6    -0.931852880384E+03    0.34586E-03   -0.12110E-03  5032   0.596E-02    0.917E-02
DAV:   7    -0.931852872158E+03    0.82257E-05   -0.24776E-04  5104   0.268E-02    0.798E-02
DAV:   8    -0.931852846986E+03    0.25172E-04   -0.17685E-04  5128   0.209E-02    0.548E-02
DAV:   9    -0.931852831237E+03    0.15749E-04   -0.14221E-04  4920   0.169E-02    0.321E-02
DAV:  10    -0.931852821462E+03    0.97748E-05   -0.59487E-05  5024   0.137E-02    0.124E-02
DAV:  11    -0.931852826384E+03   -0.49214E-05   -0.52358E-05  4584   0.842E-03    0.717E-03
DAV:  12    -0.931852827486E+03   -0.11021E-05   -0.42729E-06  2576   0.306E-03
   3 F= -.10048159E+04 E0= -.10047743E+04  d E =-.100500E+02
       N       E                     dE             d eps       ncg     rms          rms(c)
DAV:   1    -0.929166187996E+03    0.26866E+01   -0.65792E+02  4104   0.396E+01    0.247E+01
DAV:   2    -0.934228780945E+03   -0.50626E+01   -0.54142E+01  4288   0.102E+01    0.122E+01
DAV:   3    -0.934461295154E+03   -0.23251E+00   -0.26952E+00  5328   0.222E+00    0.917E+00
DAV:   4    -0.934339810948E+03    0.12148E+00   -0.39802E-01  5240   0.178E+00    0.825E+00
DAV:   5    -0.934147677962E+03    0.19213E+00   -0.88499E-02  5104   0.118E+00    0.677E+00
DAV:   6    -0.934100514777E+03    0.47163E-01   -0.56776E-01  5272   0.124E+00    0.326E+00
DAV:   7    -0.934109581524E+03   -0.90667E-02   -0.35686E-01  4760   0.822E-01    0.243E+00
DAV:   8    -0.934076474654E+03    0.33107E-01   -0.99434E-02  4968   0.668E-01    0.167E+00
DAV:   9    -0.934080719062E+03   -0.42444E-02   -0.10104E-01  4944   0.365E-01    0.118E+00
DAV:  10    -0.934077644070E+03    0.30750E-02   -0.85652E-03  5184   0.238E-01    0.651E-01
DAV:  11    -0.934079180974E+03   -0.15369E-02   -0.25671E-02  5936   0.285E-01    0.303E-01
DAV:  12    -0.934079355507E+03   -0.17453E-03   -0.11225E-02  4904   0.154E-01    0.382E-01
DAV:  13    -0.934078796590E+03    0.55892E-03   -0.19547E-03  5056   0.691E-02    0.304E-01
DAV:  14    -0.934078309112E+03    0.48748E-03   -0.18715E-03  5704   0.606E-02    0.185E-01
DAV:  15    -0.934077987119E+03    0.32199E-03   -0.87217E-04  5680   0.582E-02    0.112E-01
DAV:  16    -0.934078013229E+03   -0.26110E-04   -0.84264E-04  4856   0.283E-02    0.476E-02
DAV:  17    -0.934078007572E+03    0.56563E-05   -0.61738E-05  5368   0.104E-02    0.353E-02
DAV:  18    -0.934077996196E+03    0.11377E-04   -0.73370E-05  6136   0.162E-02    0.133E-02
DAV:  19    -0.934078007355E+03   -0.11159E-04   -0.60675E-05  4272   0.836E-03    0.132E-02
DAV:  20    -0.934078008716E+03   -0.13605E-05   -0.43497E-06  2632   0.447E-03
   4 F= -.10070480E+04 E0= -.10070071E+04  d E =-.223208E+01
       N       E                     dE             d eps       ncg     rms          rms(c)
DAV:   1    -0.933847893958E+03    0.23011E+00   -0.55714E+01  4104   0.112E+01    0.445E+00
DAV:   2    -0.934265801240E+03   -0.41791E+00   -0.46030E+00  4752   0.261E+00    0.191E+00
DAV:   3    -0.934249348870E+03    0.16452E-01   -0.94055E-02  5280   0.102E+00    0.133E+00
DAV:   4    -0.934266764759E+03   -0.17416E-01   -0.93930E-02  5104   0.764E-01    0.104E+00
DAV:   5    -0.934226432850E+03    0.40332E-01   -0.31549E-02  5168   0.570E-01    0.557E-01
DAV:   6    -0.934229081318E+03   -0.26485E-02   -0.34690E-02  5056   0.270E-01    0.369E-01
DAV:   7    -0.934225981320E+03    0.31000E-02   -0.11304E-02  5000   0.243E-01    0.256E-01
DAV:   8    -0.934226287330E+03   -0.30601E-03   -0.82190E-03  4928   0.114E-01    0.209E-01
DAV:   9    -0.934225532173E+03    0.75516E-03   -0.17151E-03  5232   0.132E-01    0.652E-02
DAV:  10    -0.934225827797E+03   -0.29562E-03   -0.32780E-03  4680   0.568E-02    0.829E-02
DAV:  11    -0.934225767882E+03    0.59915E-04   -0.15712E-04  5280   0.242E-02    0.606E-02
DAV:  12    -0.934225742337E+03    0.25545E-04   -0.24574E-04  5224   0.231E-02    0.230E-02
DAV:  13    -0.934225748388E+03   -0.60516E-05   -0.87929E-05  4520   0.130E-02    0.112E-02
DAV:  14    -0.934225748719E+03   -0.33110E-06   -0.18985E-05  3616   0.690E-03
   5 F= -.10071936E+04 E0= -.10071524E+04  d E =-.237773E+01
       N       E                     dE             d eps       ncg     rms          rms(c)
DAV:   1    -0.934220077808E+03    0.56706E-02   -0.18849E+00  4128   0.203E+00    0.660E-01
DAV:   2    -0.934231825585E+03   -0.11748E-01   -0.12717E-01  4664   0.409E-01    0.301E-01
DAV:   3    -0.934231509988E+03    0.31560E-03   -0.20419E-03  5472   0.845E-02    0.236E-01
DAV:   4    -0.934233463388E+03   -0.19534E-02   -0.16546E-03  5576   0.119E-01    0.207E-01
DAV:   5    -0.934231156239E+03    0.23071E-02   -0.88036E-04  5664   0.115E-01    0.648E-02
DAV:   6    -0.934231262751E+03   -0.10651E-03   -0.12234E-03  4880   0.445E-02    0.544E-02
DAV:   7    -0.934231181137E+03    0.81614E-04   -0.21411E-04  5016   0.309E-02    0.357E-02
DAV:   8    -0.934231193792E+03   -0.12655E-04   -0.28303E-04  5424   0.224E-02    0.230E-02
DAV:   9    -0.934231183973E+03    0.98197E-05   -0.50320E-05  5016   0.185E-02    0.129E-02
DAV:  10    -0.934231188658E+03   -0.46857E-05   -0.70211E-05  4544   0.966E-03    0.127E-02
DAV:  11    -0.934231185519E+03    0.31396E-05   -0.11003E-05  3256   0.104E-02
   6 F= -.10071995E+04 E0= -.10071583E+04  d E =-.238355E+01
       N       E                     dE             d eps       ncg     rms          rms(c)
DAV:   1    -0.934395208565E+03   -0.16402E+00   -0.39797E+01  4096   0.950E+00    0.354E+00
DAV:   2    -0.934677976542E+03   -0.28277E+00   -0.30436E+00  4592   0.227E+00    0.175E+00
DAV:   3    -0.934676995599E+03    0.98094E-03   -0.81863E-02  5608   0.404E-01    0.142E+00
DAV:   4    -0.934704022738E+03   -0.27027E-01   -0.18450E-02  5784   0.486E-01    0.112E+00
DAV:   5    -0.934669013944E+03    0.35009E-01   -0.11405E-02  5712   0.458E-01    0.659E-01
DAV:   6    -0.934668629019E+03    0.38493E-03   -0.21587E-02  4704   0.206E-01    0.279E-01
DAV:   7    -0.934668590501E+03    0.38518E-04   -0.74237E-03  4936   0.114E-01    0.201E-01
DAV:   8    -0.934668606329E+03   -0.15828E-04   -0.23650E-03  5192   0.670E-02    0.122E-01
DAV:   9    -0.934668842255E+03   -0.23593E-03   -0.11064E-03  4848   0.544E-02    0.101E-01
DAV:  10    -0.934668552860E+03    0.28939E-03   -0.73461E-04  4952   0.507E-02    0.603E-02
DAV:  11    -0.934668516510E+03    0.36350E-04   -0.26566E-04  5000   0.324E-02    0.279E-02
DAV:  12    -0.934668532029E+03   -0.15519E-04   -0.27774E-04  4992   0.184E-02    0.239E-02
DAV:  13    -0.934668534396E+03   -0.23664E-05   -0.35442E-05  4256   0.698E-03
   7 F= -.10076493E+04 E0= -.10076086E+04  d E =-.449814E+00
       N       E                     dE             d eps       ncg     rms          rms(c)
DAV:   1    -0.933585258636E+03    0.10833E+01   -0.18857E+02  4144   0.210E+01    0.990E+00
DAV:   2    -0.934958715269E+03   -0.13735E+01   -0.14618E+01  4424   0.499E+00    0.463E+00
DAV:   3    -0.934954372642E+03    0.43426E-02   -0.37640E-01  5592   0.720E-01    0.356E+00
DAV:   4    -0.934942256545E+03    0.12116E-01   -0.61432E-02  5344   0.581E-01    0.225E+00
DAV:   5    -0.934984081976E+03   -0.41825E-01   -0.87316E-02  5536   0.767E-01    0.178E+00
DAV:   6    -0.934927574775E+03    0.56507E-01   -0.33860E-02  5552   0.637E-01    0.737E-01
DAV:   7    -0.934929259395E+03   -0.16846E-02   -0.42122E-02  4920   0.290E-01    0.678E-01
DAV:   8    -0.934926617355E+03    0.26420E-02   -0.11530E-02  5168   0.186E-01    0.478E-01
DAV:   9    -0.934926179706E+03    0.43765E-03   -0.65892E-03  5000   0.941E-02    0.353E-01
DAV:  10    -0.934925454475E+03    0.72523E-03   -0.13878E-03  5544   0.778E-02    0.228E-01
DAV:  11    -0.934925316048E+03    0.13843E-03   -0.28580E-03  4944   0.631E-02    0.964E-02
DAV:  12    -0.934925240926E+03    0.75122E-04   -0.43681E-04  5056   0.391E-02    0.660E-02
DAV:  13    -0.934925229705E+03    0.11220E-04   -0.45640E-04  5176   0.281E-02    0.293E-02
DAV:  14    -0.934925230504E+03   -0.79877E-06   -0.15320E-04  5600   0.175E-02    0.201E-02
DAV:  15    -0.934925236721E+03   -0.62164E-05   -0.45335E-05  4064   0.665E-03    0.169E-02
DAV:  16    -0.934925239606E+03   -0.28849E-05   -0.21763E-06  2440   0.400E-03
   8 F= -.10079331E+04 E0= -.10078931E+04  d E =-.733688E+00
       N       E                     dE             d eps       ncg     rms          rms(c)
DAV:   1    -0.934841619239E+03    0.83617E-01   -0.56685E+01  4128   0.115E+01    0.424E+00
DAV:   2    -0.935189306780E+03   -0.34769E+00   -0.38256E+00  4704   0.245E+00    0.186E+00
DAV:   3    -0.935197327100E+03   -0.80203E-02   -0.97415E-02  5256   0.695E-01    0.140E+00
DAV:   4    -0.935184346444E+03    0.12981E-01   -0.24158E-02  5112   0.410E-01    0.121E+00
DAV:   5    -0.935175747883E+03    0.85986E-02   -0.21426E-02  5264   0.412E-01    0.636E-01
DAV:   6    -0.935177790397E+03   -0.20425E-02   -0.42378E-02  4952   0.238E-01    0.489E-01
DAV:   7    -0.935176470472E+03    0.13199E-02   -0.48706E-03  4976   0.125E-01    0.435E-01
DAV:   8    -0.935176358516E+03    0.11196E-03   -0.31306E-03  5528   0.857E-02    0.337E-01
DAV:   9    -0.935176307635E+03    0.50881E-04   -0.25210E-03  4888   0.776E-02    0.199E-01
DAV:  10    -0.935175854718E+03    0.45292E-03   -0.11326E-03  5320   0.927E-02    0.801E-02
DAV:  11    -0.935176179869E+03   -0.32515E-03   -0.42126E-03  5080   0.756E-02    0.129E-01
DAV:  12    -0.935176147468E+03    0.32400E-04   -0.39585E-04  4992   0.305E-02    0.133E-01
DAV:  13    -0.935176056300E+03    0.91168E-04   -0.14612E-04  5648   0.213E-02    0.879E-02
DAV:  14    -0.935175994143E+03    0.62157E-04   -0.38187E-04  5976   0.285E-02    0.265E-02
DAV:  15    -0.935176000085E+03   -0.59422E-05   -0.17848E-04  4760   0.140E-02    0.192E-02
DAV:  16    -0.935176003274E+03   -0.31888E-05   -0.32537E-05  3824   0.533E-03
   9 F= -.10082101E+04 E0= -.10081703E+04  d E =-.276989E+00
       N       E                     dE             d eps       ncg     rms          rms(c)
DAV:   1    -0.932078149025E+03    0.30979E+01   -0.51755E+02  4128   0.359E+01    0.205E+01
DAV:   2    -0.935609204019E+03   -0.35311E+01   -0.38426E+01  4744   0.722E+00    0.850E+00
DAV:   3    -0.935690003346E+03   -0.80799E-01   -0.13737E+00  5184   0.236E+00    0.605E+00
DAV:   4    -0.935521520229E+03    0.16848E+00   -0.28980E-01  5120   0.131E+00    0.554E+00
DAV:   5    -0.935426275005E+03    0.95245E-01   -0.20613E-01  5384   0.135E+00    0.329E+00
DAV:   6    -0.935450566823E+03   -0.24292E-01   -0.55430E-01  4976   0.842E-01    0.232E+00
DAV:   7    -0.935438677175E+03    0.11890E-01   -0.53045E-02  5040   0.417E-01    0.238E+00
DAV:   8    -0.935435917354E+03    0.27598E-02   -0.37953E-02  5272   0.269E-01    0.220E+00
DAV:   9    -0.935443379482E+03   -0.74621E-02   -0.26140E-02  4888   0.322E-01    0.146E+00
DAV:  10    -0.935439037214E+03    0.43423E-02   -0.20161E-02  5056   0.248E-01    0.731E-01
DAV:  11    -0.935432942253E+03    0.60950E-02   -0.19629E-02  5960   0.291E-01    0.466E-01
DAV:  12    -0.935434801428E+03   -0.18592E-02   -0.15382E-02  4728   0.110E-01    0.466E-01
DAV:  13    -0.935434889009E+03   -0.87581E-04   -0.37754E-04  6160   0.230E-02    0.501E-01
DAV:  14    -0.935435300305E+03   -0.41130E-03   -0.35911E-03  6640   0.159E-01    0.710E-01
DAV:  15    -0.935439728160E+03   -0.44279E-02   -0.22544E-02  6104   0.199E-01    0.107E+00
DAV:  16    -0.935439376321E+03    0.35184E-03   -0.24683E-03  4848   0.733E-02    0.113E+00
DAV:  17    -0.935436615043E+03    0.27613E-02   -0.21174E-03  6088   0.102E-01    0.100E+00
DAV:  18    -0.935443569247E+03   -0.69542E-02   -0.50836E-03  6336   0.229E-01    0.148E+00
DAV:  19    -0.935449924578E+03   -0.63553E-02   -0.13247E-02  4856   0.168E-01    0.178E+00
DAV:  20    -0.935439935178E+03    0.99894E-02   -0.40087E-03  6344   0.221E-01    0.163E+00
DAV:  21    -0.935439750282E+03    0.18490E-03   -0.46134E-03  4416   0.621E-02    0.157E+00
DAV:  22    -0.935440964716E+03   -0.12144E-02   -0.31064E-04  5352   0.428E-02    0.149E+00
DAV:  23    -0.935438698317E+03    0.22664E-02   -0.44703E-04  6256   0.670E-02    0.119E+00
DAV:  24    -0.935437548693E+03    0.11496E-02   -0.18202E-03  5200   0.542E-02    0.105E+00
DAV:  25    -0.935437155566E+03    0.39313E-03   -0.59310E-04  5312   0.252E-02    0.967E-01
DAV:  26    -0.935436225498E+03    0.93007E-03   -0.30581E-04  6240   0.429E-02    0.774E-01
DAV:  27    -0.935435454897E+03    0.77060E-03   -0.13826E-03  6200   0.492E-02    0.554E-01
DAV:  28    -0.935434839342E+03    0.61556E-03   -0.65545E-04  6320   0.405E-02    0.404E-01
DAV:  29    -0.935434578180E+03    0.26116E-03   -0.58580E-04  5160   0.294E-02    0.273E-01
DAV:  30    -0.935434479003E+03    0.99176E-04   -0.21488E-04  5168   0.150E-02    0.219E-01
DAV:  31    -0.935434092884E+03    0.38612E-03   -0.37515E-04  6952   0.457E-02    0.134E-01
DAV:  32    -0.935434045633E+03    0.47251E-04   -0.77145E-04  4672   0.279E-02    0.639E-02
DAV:  33    -0.935434021075E+03    0.24558E-04   -0.70618E-05  5896   0.121E-02    0.495E-02
DAV:  34    -0.935434021765E+03   -0.68944E-06   -0.42021E-05  4000   0.630E-03
  10 F= -.10085468E+04 E0= -.10085055E+04  d E =-.613686E+00
       N       E                     dE             d eps       ncg     rms          rms(c)
DAV:   1    -0.935251500619E+03    0.18252E+00   -0.77287E+01  4104   0.126E+01    0.548E+00
DAV:   2    -0.935766060254E+03   -0.51456E+00   -0.56206E+00  4808   0.269E+00    0.247E+00
DAV:   3    -0.935794862156E+03   -0.28802E-01   -0.13405E-01  5352   0.107E+00    0.182E+00
DAV:   4    -0.935744723265E+03    0.50139E-01   -0.72156E-02  5216   0.748E-01    0.151E+00
DAV:   5    -0.935735262856E+03    0.94604E-02   -0.38568E-02  5072   0.428E-01    0.921E-01
DAV:   6    -0.935732112023E+03    0.31508E-02   -0.38997E-02  4832   0.289E-01    0.674E-01
DAV:   7    -0.935731060264E+03    0.10518E-02   -0.55722E-03  5080   0.179E-01    0.567E-01
DAV:   8    -0.935731799767E+03   -0.73950E-03   -0.75563E-03  4864   0.116E-01    0.330E-01
DAV:   9    -0.935730556596E+03    0.12432E-02   -0.31658E-03  5744   0.163E-01    0.711E-02
DAV:  10    -0.935730938182E+03   -0.38159E-03   -0.44537E-03  4704   0.671E-02    0.109E-01
DAV:  11    -0.935730894429E+03    0.43753E-04   -0.32071E-04  5576   0.265E-02    0.879E-02
DAV:  12    -0.935730843599E+03    0.50830E-04   -0.12498E-04  5232   0.236E-02    0.564E-02
DAV:  13    -0.935730834498E+03    0.91008E-05   -0.15775E-04  4800   0.152E-02    0.311E-02
DAV:  14    -0.935730836089E+03   -0.15904E-05   -0.47324E-05  4312   0.743E-03
  11 F= -.10088938E+04 E0= -.10088514E+04  d E =-.346928E+00
       N       E                     dE             d eps       ncg     rms          rms(c)
DAV:   1    -0.935256812587E+03    0.47402E+00   -0.90952E+01  4104   0.135E+01    0.609E+00
DAV:   2    -0.935863292221E+03   -0.60648E+00   -0.66325E+00  4864   0.283E+00    0.281E+00
DAV:   3    -0.935869053832E+03   -0.57616E-02   -0.14399E-01  5288   0.104E+00    0.201E+00
DAV:   4    -0.935841694895E+03    0.27359E-01   -0.80715E-02  5184   0.735E-01    0.172E+00
DAV:   5    -0.935824814495E+03    0.16880E-01   -0.40000E-02  5144   0.484E-01    0.997E-01
DAV:   6    -0.935823438155E+03    0.13763E-02   -0.48142E-02  4824   0.306E-01    0.763E-01
DAV:   7    -0.935821827515E+03    0.16106E-02   -0.66848E-03  5272   0.200E-01    0.677E-01
DAV:   8    -0.935822955815E+03   -0.11283E-02   -0.10250E-02  4816   0.127E-01    0.404E-01
DAV:   9    -0.935821174137E+03    0.17817E-02   -0.42682E-03  5616   0.189E-01    0.668E-02
DAV:  10    -0.935821720506E+03   -0.54637E-03   -0.62193E-03  4712   0.780E-02    0.128E-01
DAV:  11    -0.935821645418E+03    0.75088E-04   -0.45474E-04  5464   0.329E-02    0.100E-01
DAV:  12    -0.935821594225E+03    0.51193E-04   -0.16794E-04  4904   0.237E-02    0.693E-02
DAV:  13    -0.935821571003E+03    0.23222E-04   -0.18477E-04  5264   0.183E-02    0.423E-02
DAV:  14    -0.935821571270E+03   -0.26679E-06   -0.78976E-05  4776   0.974E-03    0.205E-02
DAV:  15    -0.935821572391E+03   -0.11214E-05   -0.11886E-05  3416   0.596E-03
  12 F= -.10090389E+04 E0= -.10089951E+04  d E =-.492111E+00
       N       E                     dE             d eps       ncg     rms          rms(c)
DAV:   1    -0.935428210403E+03    0.39336E+00   -0.10313E+02  4096   0.142E+01    0.643E+00
DAV:   2    -0.936087521447E+03   -0.65931E+00   -0.71768E+00  4632   0.300E+00    0.290E+00
DAV:   3    -0.936114187414E+03   -0.26666E-01   -0.17064E-01  5416   0.967E-01    0.216E+00
DAV:   4    -0.936072630225E+03    0.41557E-01   -0.61980E-02  5312   0.666E-01    0.188E+00
DAV:   5    -0.936064966387E+03    0.76638E-02   -0.54224E-02  5128   0.527E-01    0.102E+00
DAV:   6    -0.936058409868E+03    0.65565E-02   -0.77510E-02  4912   0.394E-01    0.656E-01
DAV:   7    -0.936057109115E+03    0.13008E-02   -0.10338E-02  4936   0.161E-01    0.657E-01
DAV:   8    -0.936057203214E+03   -0.94099E-04   -0.23312E-03  5168   0.483E-02    0.608E-01
DAV:   9    -0.936058958576E+03   -0.17554E-02   -0.24425E-03  5168   0.120E-01    0.426E-01
DAV:  10    -0.936059128045E+03   -0.16947E-03   -0.31585E-03  4744   0.671E-02    0.467E-01
DAV:  11    -0.936059015750E+03    0.11230E-03   -0.49228E-04  4816   0.309E-02    0.454E-01
DAV:  12    -0.936058870793E+03    0.14496E-03   -0.49821E-05  5008   0.132E-02    0.449E-01
DAV:  13    -0.936058205734E+03    0.66506E-03   -0.24056E-04  6696   0.336E-02    0.403E-01
DAV:  14    -0.936057972720E+03    0.23301E-03   -0.45494E-04  4584   0.205E-02    0.351E-01
DAV:  15    -0.936057675754E+03    0.29697E-03   -0.91833E-05  6344   0.174E-02    0.324E-01
DAV:  16    -0.936057638282E+03    0.37472E-04   -0.91230E-05  4160   0.785E-03    0.304E-01
DAV:  17    -0.936057659386E+03   -0.21104E-04   -0.14495E-06  2448   0.205E-03    0.305E-01
DAV:  18    -0.936057654469E+03    0.49170E-05   -0.47290E-07  2288   0.927E-04
  13 F= -.10093314E+04 E0= -.10092861E+04  d E =-.292503E+00
       N       E                     dE             d eps       ncg     rms          rms(c)
DAV:   1    -0.935265621864E+03    0.79204E+00   -0.13118E+02  4104   0.161E+01    0.785E+00
DAV:   2    -0.936135362614E+03   -0.86974E+00   -0.96329E+00  4672   0.343E+00    0.365E+00
DAV:   3    -0.936143049850E+03   -0.76872E-02   -0.24183E-01  5296   0.103E+00    0.265E+00
DAV:   4    -0.936117915966E+03    0.25134E-01   -0.80767E-02  5192   0.683E-01    0.234E+00
DAV:   5    -0.936100437129E+03    0.17479E-01   -0.66687E-02  5160   0.658E-01    0.126E+00
DAV:   6    -0.936097779720E+03    0.26574E-02   -0.11972E-01  4848   0.448E-01    0.923E-01
DAV:   7    -0.936095284344E+03    0.24954E-02   -0.12784E-02  4912   0.184E-01    0.930E-01
DAV:   8    -0.936095327070E+03   -0.42726E-04   -0.33101E-03  5192   0.576E-02    0.862E-01
DAV:   9    -0.936097908129E+03   -0.25811E-02   -0.34320E-03  5032   0.134E-01    0.570E-01
DAV:  10    -0.936096780368E+03    0.11278E-02   -0.30118E-03  4784   0.911E-02    0.530E-01
DAV:  11    -0.936095394601E+03    0.13858E-02   -0.13492E-03  5160   0.682E-02    0.438E-01
DAV:  12    -0.936095036392E+03    0.35821E-03   -0.13927E-03  5168   0.351E-02    0.350E-01
DAV:  13    -0.936094265826E+03    0.77057E-03   -0.45743E-04  6568   0.461E-02    0.281E-01
DAV:  14    -0.936094081694E+03    0.18413E-03   -0.10152E-03  4704   0.300E-02    0.205E-01
DAV:  15    -0.936093771258E+03    0.31044E-03   -0.37157E-04  6200   0.379E-02    0.143E-01
DAV:  16    -0.936093833143E+03   -0.61885E-04   -0.39254E-03  6528   0.941E-02    0.995E-02
DAV:  17    -0.936093803143E+03    0.30000E-04   -0.88247E-04  4472   0.412E-02    0.116E-01
DAV:  18    -0.936094060112E+03   -0.25697E-03   -0.16472E-04  5512   0.329E-02    0.166E-01
DAV:  19    -0.936094151850E+03   -0.91738E-04   -0.18069E-04  5208   0.152E-02    0.182E-01
DAV:  20    -0.936093936209E+03    0.21564E-03   -0.82364E-05  5408   0.257E-02    0.142E-01
DAV:  21    -0.936093883140E+03    0.53069E-04   -0.17418E-04  4768   0.148E-02    0.116E-01
DAV:  22    -0.936093834978E+03    0.48162E-04   -0.81108E-05  4560   0.111E-02    0.863E-02
DAV:  23    -0.936093802915E+03    0.32063E-04   -0.47870E-05  5016   0.943E-03    0.670E-02
DAV:  24    -0.936093781827E+03    0.21088E-04   -0.59046E-05  4048   0.922E-03    0.420E-02
DAV:  25    -0.936093768007E+03    0.13820E-04   -0.53275E-05  5400   0.120E-02    0.165E-02
DAV:  26    -0.936093773104E+03   -0.50971E-05   -0.50087E-05  3520   0.628E-03    0.405E-03
DAV:  27    -0.936093776520E+03   -0.34160E-05   -0.55593E-06  2776   0.321E-03
  14 F= -.10094316E+04 E0= -.10093846E+04  d E =-.392639E+00
       N       E                     dE             d eps       ncg     rms          rms(c)
DAV:   1    -0.935812710061E+03    0.28106E+00   -0.69327E+01  4096   0.118E+01    0.455E+00
DAV:   2    -0.936234178495E+03   -0.42147E+00   -0.46027E+00  4800   0.238E+00    0.215E+00
DAV:   3    -0.936243962276E+03   -0.97838E-02   -0.95505E-02  5320   0.793E-01    0.159E+00
DAV:   4    -0.936222040095E+03    0.21922E-01   -0.38400E-02  5296   0.529E-01    0.136E+00
DAV:   5    -0.936218602288E+03    0.34378E-02   -0.36074E-02  5072   0.434E-01    0.794E-01
DAV:   6    -0.936211923351E+03    0.66789E-02   -0.48524E-02  4872   0.319E-01    0.499E-01
DAV:   7    -0.936211672974E+03    0.25038E-03   -0.68026E-03  5016   0.128E-01    0.494E-01
DAV:   8    -0.936211710144E+03   -0.37170E-04   -0.20998E-03  5232   0.509E-02    0.431E-01
DAV:   9    -0.936212230381E+03   -0.52024E-03   -0.20272E-03  4968   0.850E-02    0.178E-01
DAV:  10    -0.936211716020E+03    0.51436E-03   -0.11306E-03  5464   0.798E-02    0.107E-01
DAV:  11    -0.936211741833E+03   -0.25812E-04   -0.17754E-03  5328   0.571E-02    0.855E-02
DAV:  12    -0.936211780727E+03   -0.38895E-04   -0.42686E-04  5064   0.200E-02    0.109E-01
DAV:  13    -0.936211804205E+03   -0.23478E-04   -0.63740E-05  4864   0.147E-02    0.881E-02
DAV:  14    -0.936211758063E+03    0.46143E-04   -0.63482E-05  4832   0.178E-02    0.503E-02
DAV:  15    -0.936211748816E+03    0.92465E-05   -0.11712E-04  4928   0.149E-02    0.240E-02
DAV:  16    -0.936211752515E+03   -0.36987E-05   -0.47637E-05  3792   0.622E-03
  15 F= -.10096040E+04 E0= -.10095560E+04  d E =-.172469E+00
       N       E                     dE             d eps       ncg     rms          rms(c)
DAV:   1    -0.935439819860E+03    0.77193E+00   -0.12841E+02  4112   0.160E+01    0.699E+00
DAV:   2    -0.936251387163E+03   -0.81157E+00   -0.88665E+00  4824   0.324E+00    0.330E+00
DAV:   3    -0.936249971478E+03    0.14157E-02   -0.18963E-01  5344   0.103E+00    0.237E+00
DAV:   4    -0.936229826751E+03    0.20145E-01   -0.72078E-02  5224   0.671E-01    0.207E+00
DAV:   5    -0.936218521393E+03    0.11305E-01   -0.66648E-02  5144   0.642E-01    0.117E+00
DAV:   6    -0.936208711863E+03    0.98095E-02   -0.10544E-01  4936   0.442E-01    0.823E-01
DAV:   7    -0.936207516717E+03    0.11951E-02   -0.12063E-02  5000   0.178E-01    0.856E-01
DAV:   8    -0.936207585273E+03   -0.68556E-04   -0.42973E-03  5144   0.676E-02    0.766E-01
DAV:   9    -0.936208272394E+03   -0.68712E-03   -0.46221E-03  4864   0.119E-01    0.320E-01
DAV:  10    -0.936206813697E+03    0.14587E-02   -0.28856E-03  5600   0.129E-01    0.202E-01
DAV:  11    -0.936206927932E+03   -0.11423E-03   -0.57569E-03  5304   0.936E-02    0.154E-01
DAV:  12    -0.936207031356E+03   -0.10342E-03   -0.10318E-03  5144   0.319E-02    0.195E-01
DAV:  13    -0.936207151773E+03   -0.12042E-03   -0.19202E-04  5992   0.263E-02    0.179E-01
DAV:  14    -0.936207033515E+03    0.11826E-03   -0.11593E-04  4832   0.230E-02    0.108E-01
DAV:  15    -0.936206921040E+03    0.11247E-03   -0.39487E-04  5864   0.366E-02    0.744E-02
DAV:  16    -0.936206942225E+03   -0.21185E-04   -0.36955E-04  4504   0.153E-02    0.607E-02
DAV:  17    -0.936206941851E+03    0.37388E-06   -0.14820E-05  3752   0.526E-03
  16 F= -.10096735E+04 E0= -.10096245E+04  d E =-.241884E+00
       N       E                     dE             d eps       ncg     rms          rms(c)
DAV:   1    -0.936080972347E+03    0.12597E+00   -0.43982E+01  4096   0.910E+00    0.276E+00
DAV:   2    -0.936321440113E+03   -0.24047E+00   -0.26396E+00  4872   0.176E+00    0.134E+00
DAV:   3    -0.936326063835E+03   -0.46237E-02   -0.64213E-02  5344   0.435E-01    0.106E+00
DAV:   4    -0.936324844411E+03    0.12194E-02   -0.14468E-02  5424   0.372E-01    0.914E-01
DAV:   5    -0.936321734819E+03    0.31096E-02   -0.16959E-02  5296   0.372E-01    0.592E-01
DAV:   6    -0.936316511452E+03    0.52234E-02   -0.41521E-02  5056   0.350E-01    0.331E-01
DAV:   7    -0.936316622615E+03   -0.11116E-03   -0.13542E-02  4800   0.136E-01    0.363E-01
DAV:   8    -0.936316421733E+03    0.20088E-03   -0.15679E-03  5664   0.490E-02    0.307E-01
DAV:   9    -0.936315517332E+03    0.90440E-03   -0.18576E-03  6112   0.737E-02    0.177E-01
DAV:  10    -0.936315386780E+03    0.13055E-03   -0.43687E-03  5864   0.106E-01    0.596E-02
DAV:  11    -0.936315555584E+03   -0.16880E-03   -0.22019E-03  4776   0.464E-02    0.114E-01
DAV:  12    -0.936315478993E+03    0.76592E-04   -0.10381E-04  5512   0.263E-02    0.799E-02
DAV:  13    -0.936315504359E+03   -0.25366E-04   -0.43528E-04  5144   0.242E-02    0.166E-02
DAV:  14    -0.936315525782E+03   -0.21423E-04   -0.42691E-05  4104   0.122E-02    0.690E-03
DAV:  15    -0.936315532754E+03   -0.69715E-05   -0.52319E-06  2880   0.378E-03    0.537E-03
DAV:  16    -0.936315539709E+03   -0.69555E-05   -0.30958E-06  2680   0.346E-03    0.492E-03
DAV:  17    -0.936315556155E+03   -0.16446E-04   -0.47509E-06  3080   0.210E-03    0.562E-03
DAV:  18    -0.936315569363E+03   -0.13208E-04   -0.19163E-06  2824   0.297E-03    0.318E-03
DAV:  19    -0.936315576284E+03   -0.69214E-05   -0.48740E-06  3024   0.242E-03    0.440E-03
DAV:  20    -0.936315577314E+03   -0.10294E-05   -0.60147E-07  2344   0.169E-03
  17 F= -.10098405E+04 E0= -.10097909E+04  d E =-.167017E+00
       N       E                     dE             d eps       ncg     rms          rms(c)
DAV:   1    -0.936236881918E+03    0.78694E-01   -0.13510E+01  4096   0.504E+00    0.149E+00
DAV:   2    -0.936309277537E+03   -0.72396E-01   -0.79247E-01  4848   0.922E-01    0.687E-01
DAV:   3    -0.936308928189E+03    0.34935E-03   -0.15812E-02  5416   0.191E-01    0.530E-01
DAV:   4    -0.936312629277E+03   -0.37011E-02   -0.56742E-03  5392   0.203E-01    0.444E-01
DAV:   5    -0.936310972752E+03    0.16565E-02   -0.42598E-03  6304   0.245E-01    0.268E-01
DAV:   6    -0.936307447293E+03    0.35255E-02   -0.92098E-03  5104   0.170E-01    0.108E-01
DAV:   7    -0.936307532384E+03   -0.85091E-04   -0.24235E-03  4920   0.616E-02    0.114E-01
DAV:   8    -0.936307538112E+03   -0.57288E-05   -0.41366E-04  5552   0.252E-02    0.818E-02
DAV:   9    -0.936307521139E+03    0.16973E-04   -0.15303E-04  4656   0.184E-02    0.543E-02
DAV:  10    -0.936307499525E+03    0.21615E-04   -0.17156E-04  4864   0.258E-02    0.206E-02
DAV:  11    -0.936307517752E+03   -0.18228E-04   -0.22242E-04  4832   0.167E-02    0.263E-02
DAV:  12    -0.936307516714E+03    0.10387E-05   -0.19158E-05  3536   0.749E-03
  18 F= -.10098649E+04 E0= -.10098149E+04  d E =-.191483E+00
       N       E                     dE             d eps       ncg     rms          rms(c)
DAV:   1    -0.936326913337E+03   -0.19396E-01   -0.67861E+00  4128   0.374E+00    0.151E+00
DAV:   2    -0.936382465237E+03   -0.55552E-01   -0.61226E-01  4752   0.835E-01    0.667E-01
DAV:   3    -0.936380028805E+03    0.24364E-02   -0.14403E-02  5392   0.318E-01    0.480E-01
DAV:   4    -0.936382262858E+03   -0.22341E-02   -0.11328E-02  5344   0.255E-01    0.377E-01
DAV:   5    -0.936378731095E+03    0.35318E-02   -0.49051E-03  5440   0.222E-01    0.239E-01
DAV:   6    -0.936377246060E+03    0.14850E-02   -0.71176E-03  4904   0.136E-01    0.145E-01
DAV:   7    -0.936377080568E+03    0.16549E-03   -0.13431E-03  5264   0.916E-02    0.101E-01
DAV:   8    -0.936377092272E+03   -0.11704E-04   -0.11709E-03  4896   0.406E-02    0.580E-02
DAV:   9    -0.936377068917E+03    0.23354E-04   -0.29887E-04  5024   0.284E-02    0.387E-02
DAV:  10    -0.936377073282E+03   -0.43648E-05   -0.19424E-04  4872   0.152E-02    0.210E-02
DAV:  11    -0.936377078624E+03   -0.53419E-05   -0.35426E-05  4672   0.872E-03    0.151E-02
DAV:  12    -0.936377079359E+03   -0.73509E-06   -0.76594E-06  2968   0.494E-03
  19 F= -.10099531E+04 E0= -.10099025E+04  d E =-.881303E-01
       N       E                     dE             d eps       ncg     rms          rms(c)
DAV:   1    -0.936334729797E+03    0.42349E-01   -0.76517E+00  4120   0.393E+00    0.160E+00
DAV:   2    -0.936397832863E+03   -0.63103E-01   -0.69411E-01  4720   0.877E-01    0.726E-01
DAV:   3    -0.936393648958E+03    0.41839E-02   -0.16377E-02  5384   0.322E-01    0.515E-01
DAV:   4    -0.936399226602E+03   -0.55776E-02   -0.15448E-02  5288   0.274E-01    0.401E-01
DAV:   5    -0.936393649127E+03    0.55775E-02   -0.44124E-03  5488   0.264E-01    0.251E-01
DAV:   6    -0.936391734830E+03    0.19143E-02   -0.74351E-03  4912   0.148E-01    0.162E-01
DAV:   7    -0.936391485317E+03    0.24951E-03   -0.17166E-03  5168   0.104E-01    0.119E-01
DAV:   8    -0.936391496224E+03   -0.10907E-04   -0.15294E-03  4840   0.472E-02    0.651E-02
DAV:   9    -0.936391484031E+03    0.12193E-04   -0.39252E-04  4976   0.289E-02    0.448E-02
DAV:  10    -0.936391483103E+03    0.92736E-06   -0.19287E-04  4960   0.166E-02    0.215E-02
DAV:  11    -0.936391495979E+03   -0.12875E-04   -0.59817E-05  5088   0.107E-02    0.159E-02
DAV:  12    -0.936391499368E+03   -0.33899E-05   -0.10724E-05  3192   0.585E-03
  20 F= -.10099872E+04 E0= -.10099360E+04  d E =-.122296E+00
       N       E                     dE             d eps       ncg     rms          rms(c)
DAV:   1    -0.936405363466E+03   -0.13867E-01   -0.20925E+00  4232   0.202E+00    0.622E-01
DAV:   2    -0.936416746533E+03   -0.11383E-01   -0.13077E-01  4928   0.391E-01    0.293E-01
DAV:   3    -0.936418055592E+03   -0.13091E-02   -0.40705E-03  5584   0.146E-01    0.245E-01
DAV:   4    -0.936416465704E+03    0.15899E-02   -0.14555E-03  5560   0.118E-01    0.204E-01
DAV:   5    -0.936416437294E+03    0.28410E-04   -0.12307E-03  5128   0.689E-02    0.158E-01
DAV:   6    -0.936416077353E+03    0.35994E-03   -0.16226E-03  4920   0.652E-02    0.643E-02
DAV:   7    -0.936416094555E+03   -0.17203E-04   -0.54154E-04  4944   0.313E-02    0.262E-02
DAV:   8    -0.936416092391E+03    0.21647E-05   -0.12879E-04  4944   0.182E-02    0.134E-02
DAV:   9    -0.936416097748E+03   -0.53576E-05   -0.27685E-05  4664   0.100E-02    0.917E-03
DAV:  10    -0.936416100812E+03   -0.30638E-05   -0.84312E-06  2968   0.481E-03
  21 F= -.10100333E+04 E0= -.10099810E+04  d E =-.460824E-01
       N       E                     dE             d eps       ncg     rms          rms(c)
DAV:   1    -0.936371065313E+03    0.45032E-01   -0.74991E+00  4248   0.383E+00    0.122E+00
DAV:   2    -0.936412307651E+03   -0.41242E-01   -0.47433E-01  4920   0.753E-01    0.568E-01
DAV:   3    -0.936418638409E+03   -0.63308E-02   -0.14605E-02  5664   0.292E-01    0.482E-01
DAV:   4    -0.936411224721E+03    0.74137E-02   -0.50881E-03  5608   0.238E-01    0.402E-01
DAV:   5    -0.936411197962E+03    0.26760E-04   -0.45329E-03  5120   0.127E-01    0.309E-01
DAV:   6    -0.936409935673E+03    0.12623E-02   -0.62181E-03  4936   0.126E-01    0.114E-01
DAV:   7    -0.936409962317E+03   -0.26644E-04   -0.20348E-03  4920   0.593E-02    0.527E-02
DAV:   8    -0.936409942255E+03    0.20063E-04   -0.42941E-04  5256   0.353E-02    0.267E-02
DAV:   9    -0.936409956943E+03   -0.14688E-04   -0.13602E-04  5064   0.172E-02    0.172E-02
DAV:  10    -0.936409956343E+03    0.60008E-06   -0.24661E-05  4360   0.883E-03
  22 F= -.10100680E+04 E0= -.10100132E+04  d E =-.807341E-01
       N       E                     dE             d eps       ncg     rms          rms(c)
DAV:   1    -0.936392664273E+03    0.17293E-01   -0.16620E+00  4224   0.184E+00    0.672E-01
DAV:   2    -0.936404259077E+03   -0.11595E-01   -0.12770E-01  4600   0.389E-01    0.253E-01
DAV:   3    -0.936404998054E+03   -0.73898E-03   -0.50699E-03  5464   0.133E-01    0.207E-01
DAV:   4    -0.936404044601E+03    0.95345E-03   -0.12221E-03  5528   0.111E-01    0.163E-01
DAV:   5    -0.936403897073E+03    0.14753E-03   -0.11892E-03  5272   0.754E-02    0.133E-01
DAV:   6    -0.936403477682E+03    0.41939E-03   -0.10628E-03  5056   0.626E-02    0.448E-02
DAV:   7    -0.936403527080E+03   -0.49398E-04   -0.64030E-04  4888   0.306E-02    0.281E-02
DAV:   8    -0.936403521118E+03    0.59623E-05   -0.10087E-04  5208   0.159E-02    0.168E-02
DAV:   9    -0.936403529911E+03   -0.87934E-05   -0.24660E-05  4248   0.764E-03    0.905E-03
DAV:  10    -0.936403533821E+03   -0.39102E-05   -0.61320E-06  2968   0.413E-03
  23 F= -.10100903E+04 E0= -.10100342E+04  d E =-.222805E-01
       N       E                     dE             d eps       ncg     rms          rms(c)
DAV:   1    -0.936377995851E+03    0.25534E-01   -0.11534E+00  4216   0.153E+00    0.559E-01
DAV:   2    -0.936386093065E+03   -0.80972E-02   -0.89291E-02  4600   0.324E-01    0.213E-01
DAV:   3    -0.936386575726E+03   -0.48266E-03   -0.35258E-03  5472   0.111E-01    0.174E-01
DAV:   4    -0.936385941709E+03    0.63402E-03   -0.85022E-04  5568   0.931E-02    0.136E-01
DAV:   5    -0.936385851490E+03    0.90219E-04   -0.87806E-04  5216   0.645E-02    0.111E-01
DAV:   6    -0.936385540275E+03    0.31122E-03   -0.72353E-04  5032   0.513E-02    0.422E-02
DAV:   7    -0.936385575817E+03   -0.35542E-04   -0.42050E-04  4888   0.257E-02    0.212E-02
DAV:   8    -0.936385573415E+03    0.24013E-05   -0.80438E-05  4928   0.136E-02    0.129E-02
DAV:   9    -0.936385579830E+03   -0.64148E-05   -0.14144E-05  3600   0.735E-03    0.791E-03
DAV:  10    -0.936385583675E+03   -0.38452E-05   -0.67117E-06  2872   0.381E-03
  24 F= -.10100962E+04 E0= -.10100391E+04  d E =-.282598E-01
       N       E                     dE             d eps       ncg     rms          rms(c)
DAV:   1    -0.936349192218E+03    0.36388E-01   -0.26885E+00  4248   0.236E+00    0.783E-01
DAV:   2    -0.936366161325E+03   -0.16969E-01   -0.18387E-01  4640   0.463E-01    0.317E-01
DAV:   3    -0.936367449704E+03   -0.12884E-02   -0.66458E-03  5536   0.158E-01    0.270E-01
DAV:   4    -0.936365856348E+03    0.15934E-02   -0.14358E-03  5512   0.124E-01    0.217E-01
DAV:   5    -0.936365734285E+03    0.12206E-03   -0.14139E-03  5192   0.744E-02    0.178E-01
DAV:   6    -0.936365250324E+03    0.48396E-03   -0.11637E-03  5040   0.637E-02    0.635E-02
DAV:   7    -0.936365319279E+03   -0.68955E-04   -0.79410E-04  4936   0.329E-02    0.286E-02
DAV:   8    -0.936365310074E+03    0.92049E-05   -0.12974E-04  4952   0.171E-02    0.180E-02
DAV:   9    -0.936365317911E+03   -0.78365E-05   -0.23316E-05  4480   0.898E-03    0.101E-02
DAV:  10    -0.936365320824E+03   -0.29127E-05   -0.98817E-06  3336   0.480E-03
  25 F= -.10101132E+04 E0= -.10100543E+04  d E =-.169200E-01
       N       E                     dE             d eps       ncg     rms          rms(c)
DAV:   1    -0.936333430382E+03    0.31888E-01   -0.14362E+00  4256   0.172E+00    0.566E-01
DAV:   2    -0.936342483888E+03   -0.90535E-02   -0.97900E-02  4600   0.337E-01    0.233E-01
DAV:   3    -0.936343276382E+03   -0.79249E-03   -0.35355E-03  5592   0.117E-01    0.200E-01
DAV:   4    -0.936342309488E+03    0.96689E-03   -0.77168E-04  5528   0.929E-02    0.159E-01
DAV:   5    -0.936342253082E+03    0.56407E-04   -0.77838E-04  5192   0.537E-02    0.131E-01
DAV:   6    -0.936341998994E+03    0.25409E-03   -0.63825E-04  5024   0.465E-02    0.472E-02
DAV:   7    -0.936342037212E+03   -0.38218E-04   -0.43290E-04  4944   0.241E-02    0.204E-02
DAV:   8    -0.936342033645E+03    0.35673E-05   -0.64887E-05  4848   0.123E-02    0.129E-02
DAV:   9    -0.936342038796E+03   -0.51510E-05   -0.12200E-05  3504   0.621E-03    0.677E-03
DAV:  10    -0.936342041239E+03   -0.24431E-05   -0.48287E-06  2704   0.365E-03
  26 F= -.10101171E+04 E0= -.10100568E+04  d E =-.208317E-01
       N       E                     dE             d eps       ncg     rms          rms(c)
DAV:   1    -0.936308167831E+03    0.33871E-01   -0.14423E+00  4208   0.169E+00    0.534E-01
DAV:   2    -0.936317181573E+03   -0.90137E-02   -0.95521E-02  4848   0.330E-01    0.256E-01
DAV:   3    -0.936320789387E+03   -0.36078E-02   -0.35896E-03  5712   0.190E-01    0.242E-01
DAV:   4    -0.936316679250E+03    0.41101E-02   -0.12653E-03  5528   0.150E-01    0.172E-01
DAV:   5    -0.936316776013E+03   -0.96763E-04   -0.13179E-03  5224   0.683E-02    0.124E-01
DAV:   6    -0.936316492842E+03    0.28317E-03   -0.16173E-03  4952   0.615E-02    0.574E-02
DAV:   7    -0.936316489123E+03    0.37186E-05   -0.34473E-04  5072   0.293E-02    0.327E-02
DAV:   8    -0.936316505563E+03   -0.16440E-04   -0.21401E-04  4928   0.204E-02    0.194E-02
DAV:   9    -0.936316503192E+03    0.23711E-05   -0.49258E-05  4832   0.161E-02
  27 F= -.10101265E+04 E0= -.10100639E+04  d E =-.942328E-02
       N       E                     dE             d eps       ncg     rms          rms(c)
DAV:   1    -0.936284950977E+03    0.31555E-01   -0.91864E-01  4216   0.136E+00    0.440E-01
DAV:   2    -0.936290861282E+03   -0.59103E-02   -0.62984E-02  4840   0.267E-01    0.205E-01
DAV:   3    -0.936293270132E+03   -0.24088E-02   -0.23283E-03  5688   0.156E-01    0.195E-01
DAV:   4    -0.936290539826E+03    0.27303E-02   -0.85178E-04  5544   0.122E-01    0.136E-01
DAV:   5    -0.936290604044E+03   -0.64218E-04   -0.85486E-04  5200   0.564E-02    0.951E-02
DAV:   6    -0.936290435764E+03    0.16828E-03   -0.10900E-03  4936   0.492E-02    0.473E-02
DAV:   7    -0.936290429649E+03    0.61153E-05   -0.20105E-04  5120   0.237E-02    0.279E-02
DAV:   8    -0.936290446327E+03   -0.16678E-04   -0.15591E-04  4856   0.168E-02    0.167E-02
DAV:   9    -0.936290445415E+03    0.91143E-06   -0.34488E-05  4704   0.132E-02
  28 F= -.10101284E+04 E0= -.10100638E+04  d E =-.113195E-01
       N       E                     dE             d eps       ncg     rms          rms(c)
DAV:   1    -0.936258764064E+03    0.31682E-01   -0.81204E-01  4328   0.129E+00    0.426E-01
DAV:   2    -0.936264291481E+03   -0.55274E-02   -0.57854E-02  4744   0.258E-01    0.190E-01
DAV:   3    -0.936265412629E+03   -0.11211E-02   -0.27422E-03  5552   0.125E-01    0.170E-01
DAV:   4    -0.936264021497E+03    0.13911E-02   -0.67710E-04  5400   0.980E-02    0.124E-01
DAV:   5    -0.936264039455E+03   -0.17958E-04   -0.93119E-04  5104   0.524E-02    0.101E-01
DAV:   6    -0.936263848507E+03    0.19095E-03   -0.45283E-04  4992   0.399E-02    0.474E-02
DAV:   7    -0.936263877124E+03   -0.28617E-04   -0.23890E-04  5264   0.185E-02    0.146E-02
DAV:   8    -0.936263879759E+03   -0.26353E-05   -0.40191E-05  4600   0.937E-03
  29 F= -.10101350E+04 E0= -.10100682E+04  d E =-.665363E-02
       N       E                     dE             d eps       ncg     rms          rms(c)
DAV:   1    -0.936237655155E+03    0.26222E-01   -0.46041E-01  4328   0.973E-01    0.325E-01
DAV:   2    -0.936240767269E+03   -0.31121E-02   -0.32761E-02  4744   0.194E-01    0.138E-01
DAV:   3    -0.936241452401E+03   -0.68513E-03   -0.14441E-03  5600   0.935E-02    0.126E-01
DAV:   4    -0.936240628547E+03    0.82385E-03   -0.36869E-04  5408   0.739E-02    0.906E-02
DAV:   5    -0.936240655026E+03   -0.26479E-04   -0.55142E-04  5120   0.394E-02    0.725E-02
DAV:   6    -0.936240547904E+03    0.10712E-03   -0.27707E-04  5008   0.304E-02    0.333E-02
DAV:   7    -0.936240565284E+03   -0.17380E-04   -0.11978E-04  5112   0.146E-02    0.109E-02
DAV:   8    -0.936240567070E+03   -0.17859E-05   -0.29813E-05  4512   0.817E-03
  30 F= -.10101368E+04 E0= -.10100681E+04  d E =-.838803E-02
       N       E                     dE             d eps       ncg     rms          rms(c)
DAV:   1    -0.936222335485E+03    0.18230E-01   -0.80285E-01  4120   0.121E+00    0.429E-01
DAV:   2    -0.936227425041E+03   -0.50896E-02   -0.55133E-02  4576   0.248E-01    0.170E-01
DAV:   3    -0.936227357261E+03    0.67780E-04   -0.14672E-03  5552   0.577E-02    0.137E-01
DAV:   4    -0.936227361749E+03   -0.44888E-05   -0.58463E-04  4856   0.409E-02    0.101E-01
DAV:   5    -0.936227529961E+03   -0.16821E-03   -0.15816E-04  5504   0.536E-02    0.744E-02
DAV:   6    -0.936227213391E+03    0.31657E-03   -0.27753E-04  5640   0.461E-02    0.336E-02
DAV:   7    -0.936227219332E+03   -0.59414E-05   -0.14284E-04  5016   0.177E-02    0.134E-02
DAV:   8    -0.936227224974E+03   -0.56424E-05   -0.35637E-05  4520   0.847E-03    0.973E-03
DAV:   9    -0.936227226152E+03   -0.11778E-05   -0.11005E-05  3424   0.589E-03
  31 F= -.10101406E+04 E0= -.10100706E+04  d E =-.380433E-02
       N       E                     dE             d eps       ncg     rms          rms(c)
DAV:   1    -0.936215459993E+03    0.11765E-01   -0.30533E-01  4168   0.749E-01    0.267E-01
DAV:   2    -0.936217396127E+03   -0.19361E-02   -0.20948E-02  4576   0.153E-01    0.101E-01
DAV:   3    -0.936217381699E+03    0.14428E-04   -0.60787E-04  5528   0.369E-02    0.828E-02
DAV:   4    -0.936217364447E+03    0.17252E-04   -0.21890E-04  4760   0.245E-02    0.618E-02
DAV:   5    -0.936217459464E+03   -0.95017E-04   -0.58355E-05  5280   0.332E-02    0.454E-02
DAV:   6    -0.936217322371E+03    0.13709E-03   -0.11066E-04  5376   0.301E-02    0.195E-02
DAV:   7    -0.936217325755E+03   -0.33837E-05   -0.55359E-05  4784   0.108E-02    0.774E-03
DAV:   8    -0.936217328860E+03   -0.31051E-05   -0.13250E-05  3472   0.511E-03
  32 F= -.10101413E+04 E0= -.10100704E+04  d E =-.447752E-02
       N       E                     dE             d eps       ncg     rms          rms(c)
DAV:   1    -0.936201174833E+03    0.16151E-01   -0.33175E-01  4320   0.847E-01    0.248E-01
DAV:   2    -0.936203048829E+03   -0.18740E-02   -0.20452E-02  4680   0.162E-01    0.113E-01
DAV:   3    -0.936203250381E+03   -0.20155E-03   -0.12912E-03  5320   0.610E-02    0.973E-02
DAV:   4    -0.936203036476E+03    0.21390E-03   -0.25472E-04  5496   0.498E-02    0.809E-02
DAV:   5    -0.936202988719E+03    0.47757E-04   -0.15130E-04  5184   0.292E-02    0.695E-02
DAV:   6    -0.936202949253E+03    0.39466E-04   -0.15950E-04  4936   0.233E-02    0.255E-02
DAV:   7    -0.936202959948E+03   -0.10695E-04   -0.11320E-04  4864   0.123E-02    0.150E-02
DAV:   8    -0.936202958475E+03    0.14724E-05   -0.12224E-05  3352   0.626E-03
  33 F= -.10101441E+04 E0= -.10100721E+04  d E =-.287366E-02
       N       E                     dE             d eps       ncg     rms          rms(c)
DAV:   1    -0.936194779192E+03    0.81808E-02   -0.74675E-02  4312   0.401E-01    0.120E-01
DAV:   2    -0.936195212714E+03   -0.43352E-03   -0.47449E-03  4704   0.770E-02    0.524E-02
DAV:   3    -0.936195264333E+03   -0.51619E-04   -0.26058E-04  5424   0.284E-02    0.455E-02
DAV:   4    -0.936195214432E+03    0.49901E-04   -0.51547E-05  5232   0.232E-02    0.379E-02
DAV:   5    -0.936195206599E+03    0.78331E-05   -0.35801E-05  4392   0.137E-02    0.320E-02
DAV:   6    -0.936195201143E+03    0.54558E-05   -0.43485E-05  4728   0.120E-02    0.983E-03
DAV:   7    -0.936195203476E+03   -0.23325E-05   -0.25164E-05  4152   0.611E-03
  34 F= -.10101445E+04 E0= -.10100720E+04  d E =-.328365E-02
       N       E                     dE             d eps       ncg     rms          rms(c)
DAV:   1    -0.936187167234E+03    0.80339E-02   -0.18726E-01  4216   0.612E-01    0.205E-01
DAV:   2    -0.936188288927E+03   -0.11217E-02   -0.12580E-02  4648   0.121E-01    0.863E-02
DAV:   3    -0.936188272319E+03    0.16609E-04   -0.39943E-04  5432   0.331E-02    0.665E-02
DAV:   4    -0.936188257894E+03    0.14425E-04   -0.16392E-04  4752   0.205E-02    0.501E-02
DAV:   5    -0.936188346277E+03   -0.88383E-04   -0.54013E-05  5200   0.323E-02    0.345E-02
DAV:   6    -0.936188241858E+03    0.10442E-03   -0.12777E-04  5296   0.282E-02    0.200E-02
DAV:   7    -0.936188237431E+03    0.44270E-05   -0.36168E-05  4736   0.878E-03
  35 F= -.10101456E+04 E0= -.10100725E+04  d E =-.104211E-02
       N       E                     dE             d eps       ncg     rms          rms(c)
DAV:   1    -0.936184774281E+03    0.34676E-02   -0.33049E-02  4232   0.257E-01    0.835E-02
DAV:   2    -0.936184989267E+03   -0.21499E-03   -0.23412E-03  4776   0.517E-02    0.412E-02
DAV:   3    -0.936185038005E+03   -0.48738E-04   -0.64282E-05  5440   0.240E-02    0.359E-02
DAV:   4    -0.936184979005E+03    0.59000E-04   -0.17688E-05  4648   0.188E-02    0.277E-02
DAV:   5    -0.936184984099E+03   -0.50943E-05   -0.51161E-05  4664   0.127E-02    0.169E-02
DAV:   6    -0.936184977812E+03    0.62874E-05   -0.37531E-05  4632   0.905E-03    0.939E-03
DAV:   7    -0.936184977227E+03    0.58458E-06   -0.46704E-06  2536   0.451E-03
  36 F= -.10101457E+04 E0= -.10100724E+04  d E =-.114525E-02
       N       E                     dE             d eps       ncg     rms          rms(c)
DAV:   1    -0.936176150509E+03    0.88273E-02   -0.10208E-01  4336   0.470E-01    0.165E-01
DAV:   2    -0.936176977306E+03   -0.82680E-03   -0.92506E-03  4880   0.976E-02    0.848E-02
DAV:   3    -0.936176914924E+03    0.62382E-04   -0.22311E-04  5472   0.320E-02    0.652E-02
DAV:   4    -0.936176989973E+03   -0.75049E-04   -0.26096E-04  5040   0.301E-02    0.475E-02
DAV:   5    -0.936176926760E+03    0.63213E-04   -0.54720E-05  5336   0.297E-02    0.295E-02
DAV:   6    -0.936176916192E+03    0.10568E-04   -0.78514E-05  5112   0.197E-02    0.222E-02
DAV:   7    -0.936176906332E+03    0.98606E-05   -0.49341E-05  4792   0.145E-02    0.151E-02
DAV:   8    -0.936176906012E+03    0.31925E-06   -0.22451E-05  4392   0.875E-03
  37 F= -.10101463E+04 E0= -.10100723E+04  d E =-.612253E-03
       N       E                     dE             d eps       ncg     rms          rms(c)
DAV:   1    -0.936175657227E+03    0.12491E-02   -0.19975E-03  4360   0.661E-02    0.244E-02
DAV:   2    -0.936175672717E+03   -0.15490E-04   -0.16720E-04  4848   0.136E-02    0.903E-03
DAV:   3    -0.936175672644E+03    0.72963E-07   -0.33002E-06  2528   0.395E-03    0.684E-03
DAV:   4    -0.936175675962E+03   -0.33175E-05   -0.31000E-06  3312   0.484E-03    0.628E-03
DAV:   5    -0.936175673479E+03    0.24824E-05   -0.94774E-07  2992   0.431E-03    0.301E-03
DAV:   6    -0.936175673825E+03   -0.34572E-06   -0.10375E-06  2240   0.217E-03
  38 F= -.10101463E+04 E0= -.10100723E+04  d E =-.616824E-03
       N       E                     dE             d eps       ncg     rms          rms(c)
DAV:   1    -0.936169975203E+03    0.56983E-02   -0.60848E-02  4256   0.350E-01    0.110E-01
DAV:   2    -0.936170333929E+03   -0.35873E-03   -0.38438E-03  4856   0.663E-02    0.471E-02
DAV:   3    -0.936170520981E+03   -0.18705E-03   -0.13343E-04  5592   0.398E-02    0.495E-02
DAV:   4    -0.936170316790E+03    0.20419E-03   -0.44824E-05  5120   0.321E-02    0.321E-02
DAV:   5    -0.936170322137E+03   -0.53470E-05   -0.52591E-05  4672   0.125E-02    0.216E-02
DAV:   6    -0.936170314419E+03    0.77179E-05   -0.44897E-05  4840   0.111E-02    0.834E-03
DAV:   7    -0.936170314993E+03   -0.57416E-06   -0.12517E-05  3536   0.494E-03
  39 F= -.10101466E+04 E0= -.10100722E+04  d E =-.346952E-03
       N       E                     dE             d eps       ncg     rms          rms(c)
DAV:   1    -0.936167145252E+03    0.31692E-02   -0.18191E-02  4280   0.191E-01    0.610E-02
DAV:   2    -0.936167254229E+03   -0.10898E-03   -0.11769E-03  4808   0.364E-02    0.260E-02
DAV:   3    -0.936167285682E+03   -0.31453E-04   -0.34359E-05  5120   0.173E-02    0.242E-02
DAV:   4    -0.936167252014E+03    0.33668E-04   -0.99082E-06  4176   0.140E-02    0.177E-02
DAV:   5    -0.936167254464E+03   -0.24498E-05   -0.16372E-05  3960   0.753E-03    0.115E-02
DAV:   6    -0.936167252324E+03    0.21396E-05   -0.15800E-05  4056   0.676E-03
  40 F= -.10101467E+04 E0= -.10100720E+04  d E =-.402561E-03
