<?xml version="1.0" encoding="ISO-8859-1"?>
<modeling>
 <generator>
  <i name="program" type="string">vasp </i>
  <i name="version" type="string">6.2.1  </i>
  <i name="subversion" type="string">16May21 (build Jun 16 2021 03:23:30) complex                          parallel </i>
  <i name="platform" type="string">LinuxPGI </i>
  <i name="date" type="string">2022 04 25 </i>
  <i name="time" type="string">11:32:39 </i>
 </generator>
 <incar>
  <i type="string" name="SYSTEM">NiAl</i>
  <i type="int" name="ISTART">     0</i>
  <i type="int" name="NELMIN">     6</i>
  <i type="int" name="IBRION">     2</i>
  <i name="EDIFF">      0.00000500</i>
  <i type="int" name="NSW">    40</i>
  <i type="int" name="ISIF">     1</i>
  <i name="ENCUT">    360.00000000</i>
  <i name="POTIM">      0.20000000</i>
  <i type="string" name="LREAL">Auto</i>
  <i type="logical" name="LPLANE"> T  </i>
  <i type="int" name="ISMEAR">     0</i>
  <i name="SIGMA">      0.05000000</i>
  <i type="logical" name="LWAVE"> F  </i>
  <i type="logical" name="LCHARG"> F  </i>
  <i type="int" name="IVDW">    12</i>
 </incar>
 <primitive_cell>
  <structure name="primitive_cell" >
   <crystal>
    <varray name="basis" >
     <v>       0.00000000     -17.18057346       0.00000000 </v>
     <v>       0.00000000      -8.59028673     -14.87881307 </v>
     <v>      30.00000000       0.00000000       0.00000000 </v>
    </varray>
    <i name="volume">   7668.79622957 </i>
    <varray name="rec_basis" >
     <v>       0.00000000      -0.05820527       0.03360483 </v>
     <v>       0.00000000       0.00000000      -0.06720966 </v>
     <v>       0.03333333       0.00000000       0.00000000 </v>
    </varray>
   </crystal>
   <varray name="positions" >
    <v>       0.44647042       0.61313695       0.54813167 </v>
    <v>       0.61676438       0.44161789       0.54274033 </v>
    <v>       0.77933134       0.27645418       0.54457700 </v>
    <v>       0.94446263       0.11112916       0.54455700 </v>
    <v>       0.94469853       0.27765051       0.54439633 </v>
    <v>       0.94446231       0.44440843       0.54455703 </v>
    <v>       0.77756522       0.61141772       0.54477170 </v>
    <v>       0.61066527       0.77733149       0.54505137 </v>
    <v>       0.44475100       0.94423190       0.54477170 </v>
    <v>       0.61108088       0.94445975       0.54423703 </v>
    <v>       0.77779301       0.94445975       0.54423703 </v>
    <v>       0.94533687       0.77733149       0.54505140 </v>
    <v>       0.94435069       0.61141772       0.54477170 </v>
    <v>       0.83338994       0.66655317       0.46628503 </v>
    <v>       0.66659154       0.83325800       0.46624437 </v>
    <v>       0.72222214       0.88888878       0.38989003 </v>
    <v>       0.88918804       0.72203871       0.38970437 </v>
    <v>       0.94436763       0.77781601       0.31176303 </v>
    <v>       0.77772874       0.94439516       0.31179437 </v>
    <v>       0.94460836       0.94455377       0.31170337 </v>
    <v>       0.88918767       0.88877311       0.38970437 </v>
    <v>       0.83348356       0.83325793       0.46624437 </v>
    <v>       0.77779271       0.77774752       0.54423703 </v>
    <v>       0.77933153       0.44421420       0.54457700 </v>
    <v>       0.66769054       0.50002913       0.46598200 </v>
    <v>       0.83412399       0.33293785       0.46617733 </v>
    <v>       0.88871778       0.38906605       0.38961200 </v>
    <v>       0.72184811       0.55574460       0.38955770 </v>
    <v>       0.77788688       0.61083844       0.31170337 </v>
    <v>       0.61114991       0.77781608       0.31176303 </v>
    <v>       0.66677775       0.83344424       0.23383837 </v>
    <v>       0.83310763       0.66711780       0.23388603 </v>
    <v>       0.88886298       0.72238034       0.15701270 </v>
    <v>       0.72222205       0.88888885       0.15674603 </v>
    <v>       0.77790746       0.94457414       0.07850070 </v>
    <v>       0.94462679       0.77768650       0.07892070 </v>
    <v>       0.94437139       0.94434764       0.07907270 </v>
    <v>       0.88886298       0.88875651       0.15701270 </v>
    <v>       0.83311096       0.83344424       0.23383837 </v>
    <v>       0.77772849       0.77787596       0.31179433 </v>
    <v>       0.72210616       0.72203878       0.38970433 </v>
    <v>       0.66652204       0.66692618       0.46661397 </v>
    <v>       0.55530926       0.72197560       0.38993563 </v>
    <v>       0.50025968       0.83318871       0.46661397 </v>
    <v>       0.33336245       0.83435748       0.46598197 </v>
    <v>       0.27495109       0.78343131       0.54274027 </v>
    <v>       0.10978752       0.94599804       0.54457697 </v>
    <v>       0.27754735       0.94599804       0.54457697 </v>
    <v>       0.44336860       0.77829185       0.54522563 </v>
    <v>       0.49955860       0.66622512       0.46701230 </v>
    <v>       0.61162511       0.61003515       0.54522563 </v>
    <v>       0.61120903       0.94439529       0.31179433 </v>
    <v>       0.44417142       0.94455384       0.31170333 </v>
    <v>       0.38907810       0.88851436       0.38955763 </v>
    <v>       0.38887251       0.72177861       0.38999097 </v>
    <v>       0.22268194       0.72177854       0.38999097 </v>
    <v>       0.05574060       0.88851429       0.38955763 </v>
    <v>       0.99988468       0.83318864       0.46661397 </v>
    <v>       0.16754934       0.66622505       0.46701230 </v>
    <v>       0.27372584       0.61313681       0.54813163 </v>
    <v>       0.11167277       0.61003502       0.54522560 </v>
    <v>       0.27495100       0.44161775       0.54274027 </v>
    <v>       0.44336913       0.27833927       0.54522560 </v>
    <v>       0.61066523       0.11200349       0.54505127 </v>
    <v>       0.66652232       0.16655152       0.46661393 </v>
    <v>       0.83339018       0.00005713       0.46628493 </v>
    <v>       0.88885516       0.05552197       0.38959593 </v>
    <v>       0.72184793       0.22240685       0.38955760 </v>
    <v>       0.77749466       0.27796579       0.31171260 </v>
    <v>       0.61055419       0.44472297       0.31197627 </v>
    <v>       0.66615318       0.50009103       0.23391593 </v>
    <v>       0.49974106       0.66640732       0.23375593 </v>
    <v>       0.55547826       0.72214504       0.15730260 </v>
    <v>       0.38881138       0.88887668       0.15724227 </v>
    <v>       0.33342410       0.83281979       0.23391593 </v>
    <v>       0.27805654       0.77722053       0.31197627 </v>
    <v>       0.11129902       0.94416127       0.31171260 </v>
    <v>       0.27787259       0.94416133       0.31171260 </v>
    <v>       0.22221603       0.88890155       0.38954527 </v>
    <v>       0.16561310       0.83435748       0.46598193 </v>
    <v>       0.11167251       0.77829185       0.54522560 </v>
    <v>       0.94460768       0.61083844       0.31170333 </v>
    <v>       0.94455295       0.44422703       0.31183900 </v>
    <v>       0.94442060       0.27778963       0.31193897 </v>
    <v>       0.94455283       0.11121989       0.31183893 </v>
    <v>       0.83333552       0.16676263       0.23394127 </v>
    <v>       0.66658932       0.16664569       0.23403587 </v>
    <v>       0.49974140       0.33385116       0.23375590 </v>
    <v>       0.55518945       0.38928710       0.15703123 </v>
    <v>       0.38888911       0.55555574       0.15689827 </v>
    <v>       0.44428755       0.61095472       0.07849263 </v>
    <v>       0.61116739       0.44441657       0.07848860 </v>
    <v>       0.77791516       0.27773734       0.07896227 </v>
    <v>       0.72221023       0.22231216       0.15724223 </v>
    <v>       0.72209020       0.05552997       0.15701253 </v>
    <v>       0.88897740       0.05564429       0.15723557 </v>
    <v>       0.83310787       0.99977418       0.23388587 </v>
    <v>       0.77788709       0.11127494       0.31170323 </v>
    <v>       0.61115009       0.11103366       0.31176287 </v>
    <v>       0.55537222       0.05585446       0.38970417 </v>
    <v>       0.49988611       0.00005693       0.46628480 </v>
    <v>       0.33361572       0.16645528       0.46644947 </v>
    <v>       0.16627138       0.33293758       0.46617713 </v>
    <v>       0.99978866       0.50028224       0.46644947 </v>
    <v>       0.05574051       0.55574433       0.38955747 </v>
    <v>       0.22221596       0.38888230       0.38954517 </v>
    <v>       0.27805602       0.44472277       0.31197617 </v>
    <v>       0.11153985       0.61107139       0.31175613 </v>
    <v>       0.16718468       0.66640712       0.23375580 </v>
    <v>       0.99997910       0.83325578       0.23403580 </v>
    <v>       0.05564501       0.88887648       0.15724213 </v>
    <v>       0.22262062       0.72185577       0.15703117 </v>
    <v>       0.27774979       0.77783402       0.07848850 </v>
    <v>       0.11107074       0.94458187       0.07896217 </v>
    <v>       0.27768042       0.94458187       0.07896217 </v>
    <v>       0.44461397       0.94434730       0.07907253 </v>
    <v>       0.61102037       0.77768623       0.07892053 </v>
    <v>       0.77768087       0.61128048       0.07907257 </v>
    <v>       0.72221020       0.55547757       0.15724220 </v>
    <v>       0.83333518       0.49990191       0.23394123 </v>
    <v>       0.88893830       0.38871091       0.15711390 </v>
    <v>       0.83335154       0.33332410       0.23389453 </v>
    <v>       0.72200796       0.38899588       0.15715187 </v>
    <v>       0.66615301       0.33375559       0.23391587 </v>
    <v>       0.61072178       0.27820673       0.31175617 </v>
    <v>       0.55530915       0.22271508       0.38993547 </v>
    <v>       0.44440428       0.27820673       0.31175613 </v>
    <v>       0.38887225       0.38934866       0.38999080 </v>
    <v>       0.49955895       0.33421523       0.46701213 </v>
    <v>       0.33309298       0.49975929       0.46655580 </v>
    <v>       0.38888884       0.55555547       0.38914117 </v>
    <v>       0.44443520       0.61110224       0.31202187 </v>
    <v>       0.27779524       0.61110224       0.31202180 </v>
    <v>       0.33346324       0.50012968       0.23392380 </v>
    <v>       0.16708902       0.50009063       0.23391577 </v>
    <v>       0.00009589       0.49990177       0.23394103 </v>
    <v>       0.16665739       0.33332397       0.23389437 </v>
    <v>       0.22232922       0.38899581       0.15715173 </v>
    <v>       0.38881110       0.22231182       0.15724210 </v>
    <v>       0.55571389       0.05552977       0.15701243 </v>
    <v>       0.50045135       0.99977391       0.23388573 </v>
    <v>       0.33323580       0.16676229       0.23394107 </v>
    <v>       0.27787278       0.27796538       0.31171240 </v>
    <v>       0.11112300       0.27778923       0.31193867 </v>
    <v>       0.05555560       0.22222156       0.38949930 </v>
    <v>       0.00003566       0.16670228       0.46621327 </v>
    <v>       0.16627146       0.00078985       0.46617693 </v>
    <v>       0.22239965       0.05538365       0.38961167 </v>
    <v>       0.27756057       0.11121949       0.31183870 </v>
    <v>       0.38895613       0.05552150       0.38959573 </v>
    <v>       0.38907830       0.22240652       0.38955743 </v>
    <v>       0.50025917       0.16655132       0.46661380 </v>
    <v>       0.44475103       0.11101658       0.54477143 </v>
    <v>       0.27774129       0.11112869       0.54455670 </v>
    <v>       0.11098393       0.27765004       0.54439600 </v>
    <v>       0.27754742       0.27645377       0.54457673 </v>
    <v>       0.10978712       0.44421373       0.54457673 </v>
    <v>       0.16561323       0.50002880       0.46598177 </v>
    <v>       0.33336230       0.33227953       0.46598177 </v>
    <v>       0.49974012       0.50012988       0.23392397 </v>
    <v>       0.44443589       0.44446207       0.31202193 </v>
    <v>       0.72210653       0.05585446       0.38970420 </v>
    <v>       0.66659178       0.00015028       0.46624420 </v>
    <v>       0.83326199       0.50028251       0.46644963 </v>
    <v>       0.88885496       0.55562302       0.38959600 </v>
    <v>       0.44416718       0.77780653       0.07915597 </v>
    <v>       0.38885698       0.72185590       0.15703123 </v>
    <v>       0.33346313       0.66640665       0.23392387 </v>
    <v>       0.16708879       0.83281979       0.23391573 </v>
    <v>       0.11153913       0.77738869       0.31175600 </v>
    <v>       0.05604740       0.72197573       0.38993530 </v>
    <v>       0.99988377       0.66692638       0.46661357 </v>
    <v>       0.61113950       0.61083421       0.07915607 </v>
    <v>       0.55518924       0.55552341       0.15703137 </v>
    <v>       0.22232947       0.88867431       0.15715180 </v>
    <v>       0.77791523       0.44434714       0.07896253 </v>
    <v>       0.94442801       0.44447692       0.07888800 </v>
    <v>       0.94437144       0.61128055       0.07907300 </v>
    <v>       0.88897708       0.55537831       0.15723597 </v>
    <v>       0.72208951       0.72238020       0.15701283 </v>
    <v>       0.66658892       0.66676495       0.23403613 </v>
    <v>       0.61072104       0.61107173       0.31175643 </v>
    <v>       0.55511101       0.55553914       0.38999103 </v>
    <v>       0.50047935       0.49975989       0.46655600 </v>
    <v>       0.55511109       0.38934907       0.38999103 </v>
    <v>       0.72223451       0.38888270       0.38954550 </v>
    <v>       0.66768973       0.33228013       0.46598210 </v>
    <v>       0.61162410       0.27833974       0.54522573 </v>
    <v>       0.77756380       0.11101726       0.54477187 </v>
    <v>       0.83326097       0.16645575       0.46644990 </v>
    <v>       0.88871658       0.22221685       0.38961227 </v>
    <v>       0.94435766       0.27782109       0.07863630 </v>
    <v>       0.94442850       0.11109475       0.07888793 </v>
    <v>       0.88893848       0.22235033       0.15711423 </v>
    <v>       0.50009816       0.83325598       0.23403603 </v>
    <v>       0.44440404       0.77738869       0.31175633 </v>
    <v>       0.77790761       0.77751760       0.07850090 </v>
    <v>       0.61085136       0.94457387       0.07850077 </v>
    <v>       0.55571326       0.88875631       0.15701273 </v>
    <v>       0.77768183       0.11103823       0.07907267 </v>
    <v>       0.61102103       0.11129295       0.07892033 </v>
    <v>       0.44416832       0.27802594       0.07915537 </v>
    <v>       0.27775011       0.44441623       0.07848777 </v>
    <v>       0.11135997       0.61083407       0.07915480 </v>
    <v>       0.05564524       0.55547771       0.15724100 </v>
    <v>       0.05570985       0.72214490       0.15730137 </v>
    <v>       0.99997833       0.66676508       0.23403457 </v>
    <v>       0.61114001       0.27802601       0.07915570 </v>
    <v>       0.55547867       0.22237661       0.15730227 </v>
    <v>       0.50009777       0.16664595       0.23403547 </v>
    <v>       0.44417008       0.11127548       0.31170267 </v>
    <v>       0.38885682       0.38928710       0.15703063 </v>
    <v>       0.33342384       0.33375606       0.23391517 </v>
    <v>       0.44428858       0.44475772       0.07849207 </v>
    <v>       0.27809169       0.61095438       0.07849180 </v>
    <v>       0.22262034       0.55552348       0.15703033 </v>
    <v>       0.11135996       0.77780640       0.07915483 </v>
    <v>       0.66677737       0.99977841       0.23383807 </v>
    <v>       0.77749393       0.44453922       0.31171240 </v>
    <v>       0.11129962       0.44453949       0.31171260 </v>
    <v>       0.05555034       0.38906632       0.38961210 </v>
    <v>       0.00003705       0.33326146       0.46621397 </v>
    <v>       0.16661913       0.16672654       0.46623047 </v>
    <v>       0.11100844       0.11138933       0.54441333 </v>
    <v>       0.55537212       0.88877318       0.38970433 </v>
    <v>       0.22268253       0.55553820       0.38999077 </v>
    <v>       0.22239932       0.22221658       0.38961190 </v>
    <v>       0.33309350       0.66714730       0.46655623 </v>
    <v>       0.33361674       0.99992795       0.46644957 </v>
    <v>       0.44646926       0.44039299       0.54813160 </v>
    <v>       0.11107146       0.44434694       0.07896110 </v>
    <v>       0.11115508       0.27782088       0.07863473 </v>
    <v>       0.05555587       0.22222196       0.15691797 </v>
    <v>       0.00011505       0.16678226       0.23395320 </v>
    <v>       0.16665724       0.00001828       0.23389347 </v>
    <v>       0.22204425       0.05560517       0.15711293 </v>
    <v>       0.27781057       0.11109455       0.07888670 </v>
    <v>       0.38871183       0.05564422       0.15723490 </v>
    <v>       0.33323480       0.00000222       0.23394047 </v>
    <v>       0.16643546       0.16678226       0.23395350 </v>
    <v>       0.11112230       0.11108722       0.31193773 </v>
    <v>       0.05554805       0.05538473       0.38961060 </v>
    <v>       0.99978668       0.99992956       0.46644813 </v>
    <v>       0.27768160       0.27773694       0.07896140 </v>
    <v>       0.22204433       0.22235033       0.15711293 </v>
    <v>       0.05568395       0.38871098       0.15711267 </v>
    <v>       0.00011506       0.33310265       0.23395323 </v>
    <v>       0.44461440       0.11103816       0.07907200 </v>
    <v>       0.11115527       0.11102398       0.07863473 </v>
    <v>       0.05568368       0.05560517       0.15711263 </v>
    <v>       0.00009584       0.00000215       0.23393987 </v>
    <v>       0.94435015       0.94423190       0.54477173 </v>
    <v>       0.38888905       0.55555574       0.48333333 </v>
    <v>       0.38795474       0.52952833       0.51666667 </v>
   </varray>
  </structure>
  <varray name="primitive_index" >
   <v type="int" >        1 </v>
   <v type="int" >        2 </v>
   <v type="int" >        3 </v>
   <v type="int" >        4 </v>
   <v type="int" >        5 </v>
   <v type="int" >        6 </v>
   <v type="int" >        7 </v>
   <v type="int" >        8 </v>
   <v type="int" >        9 </v>
   <v type="int" >       10 </v>
   <v type="int" >       11 </v>
   <v type="int" >       12 </v>
   <v type="int" >       13 </v>
   <v type="int" >       14 </v>
   <v type="int" >       15 </v>
   <v type="int" >       16 </v>
   <v type="int" >       17 </v>
   <v type="int" >       18 </v>
   <v type="int" >       19 </v>
   <v type="int" >       20 </v>
   <v type="int" >       21 </v>
   <v type="int" >       22 </v>
   <v type="int" >       23 </v>
   <v type="int" >       24 </v>
   <v type="int" >       25 </v>
   <v type="int" >       26 </v>
   <v type="int" >       27 </v>
   <v type="int" >       28 </v>
   <v type="int" >       29 </v>
   <v type="int" >       30 </v>
   <v type="int" >       31 </v>
   <v type="int" >       32 </v>
   <v type="int" >       33 </v>
   <v type="int" >       34 </v>
   <v type="int" >       35 </v>
   <v type="int" >       36 </v>
   <v type="int" >       37 </v>
   <v type="int" >       38 </v>
   <v type="int" >       39 </v>
   <v type="int" >       40 </v>
   <v type="int" >       41 </v>
   <v type="int" >       42 </v>
   <v type="int" >       43 </v>
   <v type="int" >       44 </v>
   <v type="int" >       45 </v>
   <v type="int" >       46 </v>
   <v type="int" >       47 </v>
   <v type="int" >       48 </v>
   <v type="int" >       49 </v>
   <v type="int" >       50 </v>
   <v type="int" >       51 </v>
   <v type="int" >       52 </v>
   <v type="int" >       53 </v>
   <v type="int" >       54 </v>
   <v type="int" >       55 </v>
   <v type="int" >       56 </v>
   <v type="int" >       57 </v>
   <v type="int" >       58 </v>
   <v type="int" >       59 </v>
   <v type="int" >       60 </v>
   <v type="int" >       61 </v>
   <v type="int" >       62 </v>
   <v type="int" >       63 </v>
   <v type="int" >       64 </v>
   <v type="int" >       65 </v>
   <v type="int" >       66 </v>
   <v type="int" >       67 </v>
   <v type="int" >       68 </v>
   <v type="int" >       69 </v>
   <v type="int" >       70 </v>
   <v type="int" >       71 </v>
   <v type="int" >       72 </v>
   <v type="int" >       73 </v>
   <v type="int" >       74 </v>
   <v type="int" >       75 </v>
   <v type="int" >       76 </v>
   <v type="int" >       77 </v>
   <v type="int" >       78 </v>
   <v type="int" >       79 </v>
   <v type="int" >       80 </v>
   <v type="int" >       81 </v>
   <v type="int" >       82 </v>
   <v type="int" >       83 </v>
   <v type="int" >       84 </v>
   <v type="int" >       85 </v>
   <v type="int" >       86 </v>
   <v type="int" >       87 </v>
   <v type="int" >       88 </v>
   <v type="int" >       89 </v>
   <v type="int" >       90 </v>
   <v type="int" >       91 </v>
   <v type="int" >       92 </v>
   <v type="int" >       93 </v>
   <v type="int" >       94 </v>
   <v type="int" >       95 </v>
   <v type="int" >       96 </v>
   <v type="int" >       97 </v>
   <v type="int" >       98 </v>
   <v type="int" >       99 </v>
   <v type="int" >      100 </v>
   <v type="int" >      101 </v>
   <v type="int" >      102 </v>
   <v type="int" >      103 </v>
   <v type="int" >      104 </v>
   <v type="int" >      105 </v>
   <v type="int" >      106 </v>
   <v type="int" >      107 </v>
   <v type="int" >      108 </v>
   <v type="int" >      109 </v>
   <v type="int" >      110 </v>
   <v type="int" >      111 </v>
   <v type="int" >      112 </v>
   <v type="int" >      113 </v>
   <v type="int" >      114 </v>
   <v type="int" >      115 </v>
   <v type="int" >      116 </v>
   <v type="int" >      117 </v>
   <v type="int" >      118 </v>
   <v type="int" >      119 </v>
   <v type="int" >      120 </v>
   <v type="int" >      121 </v>
   <v type="int" >      122 </v>
   <v type="int" >      123 </v>
   <v type="int" >      124 </v>
   <v type="int" >      125 </v>
   <v type="int" >      126 </v>
   <v type="int" >      127 </v>
   <v type="int" >      128 </v>
   <v type="int" >      129 </v>
   <v type="int" >      130 </v>
   <v type="int" >      131 </v>
   <v type="int" >      132 </v>
   <v type="int" >      133 </v>
   <v type="int" >      134 </v>
   <v type="int" >      135 </v>
   <v type="int" >      136 </v>
   <v type="int" >      137 </v>
   <v type="int" >      138 </v>
   <v type="int" >      139 </v>
   <v type="int" >      140 </v>
   <v type="int" >      141 </v>
   <v type="int" >      142 </v>
   <v type="int" >      143 </v>
   <v type="int" >      144 </v>
   <v type="int" >      145 </v>
   <v type="int" >      146 </v>
   <v type="int" >      147 </v>
   <v type="int" >      148 </v>
   <v type="int" >      149 </v>
   <v type="int" >      150 </v>
   <v type="int" >      151 </v>
   <v type="int" >      152 </v>
   <v type="int" >      153 </v>
   <v type="int" >      154 </v>
   <v type="int" >      155 </v>
   <v type="int" >      156 </v>
   <v type="int" >      157 </v>
   <v type="int" >      158 </v>
   <v type="int" >      159 </v>
   <v type="int" >      160 </v>
   <v type="int" >      161 </v>
   <v type="int" >      162 </v>
   <v type="int" >      163 </v>
   <v type="int" >      164 </v>
   <v type="int" >      165 </v>
   <v type="int" >      166 </v>
   <v type="int" >      167 </v>
   <v type="int" >      168 </v>
   <v type="int" >      169 </v>
   <v type="int" >      170 </v>
   <v type="int" >      171 </v>
   <v type="int" >      172 </v>
   <v type="int" >      173 </v>
   <v type="int" >      174 </v>
   <v type="int" >      175 </v>
   <v type="int" >      176 </v>
   <v type="int" >      177 </v>
   <v type="int" >      178 </v>
   <v type="int" >      179 </v>
   <v type="int" >      180 </v>
   <v type="int" >      181 </v>
   <v type="int" >      182 </v>
   <v type="int" >      183 </v>
   <v type="int" >      184 </v>
   <v type="int" >      185 </v>
   <v type="int" >      186 </v>
   <v type="int" >      187 </v>
   <v type="int" >      188 </v>
   <v type="int" >      189 </v>
   <v type="int" >      190 </v>
   <v type="int" >      191 </v>
   <v type="int" >      192 </v>
   <v type="int" >      193 </v>
   <v type="int" >      194 </v>
   <v type="int" >      195 </v>
   <v type="int" >      196 </v>
   <v type="int" >      197 </v>
   <v type="int" >      198 </v>
   <v type="int" >      199 </v>
   <v type="int" >      200 </v>
   <v type="int" >      201 </v>
   <v type="int" >      202 </v>
   <v type="int" >      203 </v>
   <v type="int" >      204 </v>
   <v type="int" >      205 </v>
   <v type="int" >      206 </v>
   <v type="int" >      207 </v>
   <v type="int" >      208 </v>
   <v type="int" >      209 </v>
   <v type="int" >      210 </v>
   <v type="int" >      211 </v>
   <v type="int" >      212 </v>
   <v type="int" >      213 </v>
   <v type="int" >      214 </v>
   <v type="int" >      215 </v>
   <v type="int" >      216 </v>
   <v type="int" >      217 </v>
   <v type="int" >      218 </v>
   <v type="int" >      219 </v>
   <v type="int" >      220 </v>
   <v type="int" >      221 </v>
   <v type="int" >      222 </v>
   <v type="int" >      223 </v>
   <v type="int" >      224 </v>
   <v type="int" >      225 </v>
   <v type="int" >      226 </v>
   <v type="int" >      227 </v>
   <v type="int" >      228 </v>
   <v type="int" >      229 </v>
   <v type="int" >      230 </v>
   <v type="int" >      231 </v>
   <v type="int" >      232 </v>
   <v type="int" >      233 </v>
   <v type="int" >      234 </v>
   <v type="int" >      235 </v>
   <v type="int" >      236 </v>
   <v type="int" >      237 </v>
   <v type="int" >      238 </v>
   <v type="int" >      239 </v>
   <v type="int" >      240 </v>
   <v type="int" >      241 </v>
   <v type="int" >      242 </v>
   <v type="int" >      243 </v>
   <v type="int" >      244 </v>
   <v type="int" >      245 </v>
   <v type="int" >      246 </v>
   <v type="int" >      247 </v>
   <v type="int" >      248 </v>
   <v type="int" >      249 </v>
   <v type="int" >      250 </v>
   <v type="int" >      251 </v>
   <v type="int" >      252 </v>
   <v type="int" >      253 </v>
   <v type="int" >      254 </v>
  </varray>
 </primitive_cell>
 <kpoints>
  <generation param="Gamma">
   <v type="int" name="divisions">       2        2        1 </v>
   <v name="usershift">      0.00000000       0.00000000       0.00000000 </v>
   <v name="genvec1">      0.50000000       0.00000000       0.00000000 </v>
   <v name="genvec2">      0.00000000       0.50000000       0.00000000 </v>
   <v name="genvec3">      0.00000000       0.00000000       1.00000000 </v>
   <v name="shift">      0.00000000       0.00000000       0.00000000 </v>
  </generation>
  <varray name="kpointlist" >
   <v>       0.00000000       0.00000000       0.00000000 </v>
   <v>       0.50000000       0.00000000       0.00000000 </v>
   <v>       0.50000000       0.50000000       0.00000000 </v>
   <v>       0.00000000       0.50000000       0.00000000 </v>
  </varray>
  <varray name="weights" >
   <v>       0.25000000 </v>
   <v>       0.25000000 </v>
   <v>       0.25000000 </v>
   <v>       0.25000000 </v>
  </varray>
 </kpoints>
 <parameters>
  <separator name="general" >
   <i type="string" name="SYSTEM">NiAl</i>
   <i type="logical" name="LCOMPAT"> F  </i>
  </separator>
  <separator name="electronic" >
   <i type="string" name="PREC">normal</i>
   <i name="ENMAX">    360.00000000</i>
   <i name="ENAUG">   1139.60900000</i>
   <i name="EDIFF">      0.00000500</i>
   <i type="int" name="IALGO">    38</i>
   <i type="int" name="IWAVPR">    11</i>
   <i type="int" name="NBANDS">   512</i>
   <i type="int" name="NBANDSLOW">    -1</i>
   <i type="int" name="NBANDSHIGH">    -1</i>
   <i name="NELECT">    768.00000000</i>
   <i type="int" name="TURBO">     0</i>
   <i type="int" name="IRESTART">     0</i>
   <i type="int" name="NREBOOT">     0</i>
   <i type="int" name="NMIN">     0</i>
   <i name="EREF">      0.00000000</i>
   <separator name="electronic smearing" >
    <i type="int" name="ISMEAR">     0</i>
    <i name="SIGMA">      0.05000000</i>
    <i name="KSPACING">      0.50000000</i>
    <i type="logical" name="KGAMMA"> T  </i>
    <i type="logical" name="KBLOWUP"> T  </i>
   </separator>
   <separator name="electronic projectors" >
    <i type="logical" name="LREAL"> T  </i>
    <v name="ROPT">     -0.00050000     -0.00050000</v>
    <i type="int" name="LMAXPAW">  -100</i>
    <i type="int" name="LMAXMIX">     2</i>
    <i type="logical" name="NLSPLINE"> F  </i>
   </separator>
   <separator name="electronic startup" >
    <i type="int" name="ISTART">     0</i>
    <i type="int" name="ICHARG">     2</i>
    <i type="int" name="INIWAV">     1</i>
   </separator>
   <separator name="electronic spin" >
    <i type="int" name="ISPIN">     1</i>
    <i type="logical" name="LNONCOLLINEAR"> F  </i>
    <v name="MAGMOM">      1.00000000      1.00000000      1.00000000      1.00000000      1.00000000      1.00000000      1.00000000      1.00000000      1.00000000      1.00000000      1.00000000      1.00000000      1.00000000      1.00000000      1.00000000      1.00000000      1.00000000      1.00000000      1.00000000      1.00000000
      1.00000000      1.00000000      1.00000000      1.00000000      1.00000000      1.00000000      1.00000000      1.00000000      1.00000000      1.00000000      1.00000000      1.00000000      1.00000000      1.00000000      1.00000000      1.00000000      1.00000000      1.00000000      1.00000000      1.00000000
      1.00000000      1.00000000      1.00000000      1.00000000      1.00000000      1.00000000      1.00000000      1.00000000      1.00000000      1.00000000      1.00000000      1.00000000      1.00000000      1.00000000      1.00000000      1.00000000      1.00000000      1.00000000      1.00000000      1.00000000
      1.00000000      1.00000000      1.00000000      1.00000000      1.00000000      1.00000000      1.00000000      1.00000000      1.00000000      1.00000000      1.00000000      1.00000000      1.00000000      1.00000000      1.00000000      1.00000000      1.00000000      1.00000000      1.00000000      1.00000000
      1.00000000      1.00000000      1.00000000      1.00000000      1.00000000      1.00000000      1.00000000      1.00000000      1.00000000      1.00000000      1.00000000      1.00000000      1.00000000      1.00000000      1.00000000      1.00000000      1.00000000      1.00000000      1.00000000      1.00000000
      1.00000000      1.00000000      1.00000000      1.00000000      1.00000000      1.00000000      1.00000000      1.00000000      1.00000000      1.00000000      1.00000000      1.00000000      1.00000000      1.00000000      1.00000000      1.00000000      1.00000000      1.00000000      1.00000000      1.00000000
      1.00000000      1.00000000      1.00000000      1.00000000      1.00000000      1.00000000      1.00000000      1.00000000      1.00000000      1.00000000      1.00000000      1.00000000      1.00000000      1.00000000      1.00000000      1.00000000      1.00000000      1.00000000      1.00000000      1.00000000
      1.00000000      1.00000000      1.00000000      1.00000000      1.00000000      1.00000000      1.00000000      1.00000000      1.00000000      1.00000000      1.00000000      1.00000000      1.00000000      1.00000000      1.00000000      1.00000000      1.00000000      1.00000000      1.00000000      1.00000000
      1.00000000      1.00000000      1.00000000      1.00000000      1.00000000      1.00000000      1.00000000      1.00000000      1.00000000      1.00000000      1.00000000      1.00000000      1.00000000      1.00000000      1.00000000      1.00000000      1.00000000      1.00000000      1.00000000      1.00000000
      1.00000000      1.00000000      1.00000000      1.00000000      1.00000000      1.00000000      1.00000000      1.00000000      1.00000000      1.00000000      1.00000000      1.00000000      1.00000000      1.00000000      1.00000000      1.00000000      1.00000000      1.00000000      1.00000000      1.00000000
      1.00000000      1.00000000      1.00000000      1.00000000      1.00000000      1.00000000      1.00000000      1.00000000      1.00000000      1.00000000      1.00000000      1.00000000      1.00000000      1.00000000      1.00000000      1.00000000      1.00000000      1.00000000      1.00000000      1.00000000
      1.00000000      1.00000000      1.00000000      1.00000000      1.00000000      1.00000000      1.00000000      1.00000000      1.00000000      1.00000000      1.00000000      1.00000000      1.00000000      1.00000000      1.00000000      1.00000000      1.00000000      1.00000000      1.00000000      1.00000000
      1.00000000      1.00000000      1.00000000      1.00000000      1.00000000      1.00000000      1.00000000      1.00000000      1.00000000      1.00000000      1.00000000      1.00000000      1.00000000      1.00000000</v>
    <i name="NUPDOWN">     -1.00000000</i>
    <i type="logical" name="LSORBIT"> F  </i>
    <v name="SAXIS">      0.00000000      0.00000000      1.00000000</v>
    <i type="logical" name="LSPIRAL"> F  </i>
    <v name="QSPIRAL">      0.00000000      0.00000000      0.00000000</v>
    <i type="logical" name="LZEROZ"> F  </i>
   </separator>
   <separator name="electronic exchange-correlation" >
    <i type="logical" name="LASPH"> F  </i>
    <i type="logical" name="LMETAGGA"> F  </i>
   </separator>
   <separator name="electronic convergence" >
    <i type="int" name="NELM">    60</i>
    <i type="int" name="NELMDL">    -5</i>
    <i type="int" name="NELMIN">     6</i>
    <i name="ENINI">    360.00000000</i>
    <separator name="electronic convergence detail" >
     <i type="logical" name="LDIAG"> T  </i>
     <i type="logical" name="LSUBROT"> F  </i>
     <i name="WEIMIN">      0.00100000</i>
     <i name="EBREAK">      0.00000000</i>
     <i name="DEPER">      0.30000000</i>
     <i type="int" name="NRMM">     4</i>
     <i name="TIME">      0.40000000</i>
    </separator>
   </separator>
   <separator name="electronic mixer" >
    <i name="AMIX">      0.40000000</i>
    <i name="BMIX">      1.00000000</i>
    <i name="AMIN">      0.10000000</i>
    <i name="AMIX_MAG">      1.60000000</i>
    <i name="BMIX_MAG">      1.00000000</i>
    <separator name="electronic mixer details" >
     <i type="int" name="IMIX">     4</i>
     <i type="logical" name="MIXFIRST"> F  </i>
     <i type="int" name="MAXMIX">   -45</i>
     <i name="WC">    100.00000000</i>
     <i type="int" name="INIMIX">     1</i>
     <i type="int" name="MIXPRE">     1</i>
     <i type="int" name="MREMOVE">     5</i>
    </separator>
   </separator>
   <separator name="electronic dipolcorrection" >
    <i type="logical" name="LDIPOL"> F  </i>
    <i type="logical" name="LMONO"> F  </i>
    <i type="int" name="IDIPOL">     0</i>
    <i name="EPSILON">      1.00000000</i>
    <v name="DIPOL">   -100.00000000   -100.00000000   -100.00000000</v>
    <i name="EFIELD">      0.00000000</i>
   </separator>
  </separator>
  <separator name="grids" >
   <i type="int" name="NGX">    80</i>
   <i type="int" name="NGY">    80</i>
   <i type="int" name="NGZ">   140</i>
   <i type="int" name="NGXF">   160</i>
   <i type="int" name="NGYF">   160</i>
   <i type="int" name="NGZF">   280</i>
   <i type="logical" name="ADDGRID"> F  </i>
  </separator>
  <separator name="ionic" >
   <i type="int" name="NSW">    40</i>
   <i type="int" name="IBRION">     2</i>
   <i type="int" name="MDALGO">     0</i>
   <i type="int" name="ISIF">     1</i>
   <i name="PSTRESS">      0.00000000</i>
   <i name="EDIFFG">      0.00005000</i>
   <i type="int" name="NFREE">     1</i>
   <i name="POTIM">      0.20000000</i>
   <i name="SMASS">     -3.00000000</i>
   <i name="SCALEE">      1.00000000</i>
  </separator>
  <separator name="ionic md" >
   <i name="TEBEG">      0.00010000</i>
   <i name="TEEND">      0.00010000</i>
   <i type="int" name="NBLOCK">     1</i>
   <i type="int" name="KBLOCK">    40</i>
   <i type="int" name="NPACO">   256</i>
   <i name="APACO">     16.00000000</i>
  </separator>
  <separator name="symmetry" >
   <i type="int" name="ISYM">     2</i>
   <i name="SYMPREC">      0.00001000</i>
  </separator>
  <separator name="dos" >
   <i type="int" name="LORBIT">     0</i>
   <v name="RWIGS">     -1.00000000     -1.00000000</v>
   <i type="int" name="NEDOS">   301</i>
   <i name="EMIN">     10.00000000</i>
   <i name="EMAX">    -10.00000000</i>
   <i name="EFERMI">      0.00000000</i>
  </separator>
  <separator name="writing" >
   <i type="int" name="NWRITE">     2</i>
   <i type="logical" name="LWAVE"> F  </i>
   <i type="logical" name="LDOWNSAMPLE"> F  </i>
   <i type="logical" name="LCHARG"> F  </i>
   <i type="logical" name="LPARD"> F  </i>
   <i type="logical" name="LVTOT"> F  </i>
   <i type="logical" name="LVHAR"> F  </i>
   <i type="logical" name="LELF"> F  </i>
   <i type="logical" name="LOPTICS"> F  </i>
   <v name="STM">      0.00000000      0.00000000      0.00000000      0.00000000      0.00000000      0.00000000      0.00000000</v>
  </separator>
  <separator name="performance" >
   <i type="int" name="NPAR">     1</i>
   <i type="int" name="NSIM">     4</i>
   <i type="int" name="NBLK">    -1</i>
   <i type="logical" name="LPLANE"> T  </i>
   <i type="logical" name="LSCALAPACK"> T  </i>
   <i type="logical" name="LSCAAWARE"> F  </i>
   <i type="logical" name="LSCALU"> F  </i>
   <i type="logical" name="LASYNC"> F  </i>
   <i type="logical" name="LORBITALREAL"> F  </i>
  </separator>
  <separator name="miscellaneous" >
   <i type="int" name="IDIOT">     3</i>
   <i type="int" name="PHON_NSTRUCT">    -1</i>
   <i type="logical" name="LMUSIC"> F  </i>
   <v name="POMASS">     26.98200000     16.00000000</v>
   <v name="DARWINR">      0.00000000      0.00000000</v>
   <v name="DARWINV">      1.00000000      1.00000000</v>
   <i type="logical" name="LCORR"> T  </i>
  </separator>
  <i type="logical" name="GGA_COMPAT"> T  </i>
  <i type="logical" name="LBERRY"> F  </i>
  <i type="int" name="ICORELEVEL">     0</i>
  <i type="logical" name="LDAU"> F  </i>
  <i type="int" name="I_CONSTRAINED_M">     0</i>
  <separator name="electronic exchange-correlation" >
   <i type="string" name="GGA">--</i>
   <i type="int" name="VOSKOWN">     0</i>
   <i type="logical" name="LHFCALC"> F  </i>
   <i type="string" name="PRECFOCK"></i>
   <i type="logical" name="LSYMGRAD"> F  </i>
   <i type="logical" name="LHFONE"> F  </i>
   <i type="logical" name="LRHFCALC"> F  </i>
   <i type="logical" name="LTHOMAS"> F  </i>
   <i type="logical" name="LMODELHF"> F  </i>
   <i type="logical" name="LFOCKACE"> F  </i>
   <i name="ENCUT4O">     -1.00000000</i>
   <i type="int" name="EXXOEP">     0</i>
   <i type="int" name="FOURORBIT">     0</i>
   <i name="AEXX">      0.00000000</i>
   <i name="HFALPHA">      0.00000000</i>
   <i name="MCALPHA">      0.00000000</i>
   <i name="ALDAX">      1.00000000</i>
   <i name="AGGAX">      1.00000000</i>
   <i name="ALDAC">      1.00000000</i>
   <i name="AGGAC">      1.00000000</i>
   <i type="int" name="NKREDX">     1</i>
   <i type="int" name="NKREDY">     1</i>
   <i type="int" name="NKREDZ">     1</i>
   <i type="logical" name="SHIFTRED"> F  </i>
   <i type="logical" name="ODDONLY"> F  </i>
   <i type="logical" name="EVENONLY"> F  </i>
   <i type="int" name="LMAXFOCK">     0</i>
   <i type="int" name="NMAXFOCKAE">     0</i>
   <i type="logical" name="LFOCKAEDFT"> F  </i>
   <i name="HFSCREEN">      0.00000000</i>
   <i name="HFSCREENC">      0.00000000</i>
   <i type="int" name="NBANDSGWLOW">     0</i>
  </separator>
  <separator name="vdW DFT" >
   <i type="logical" name="LUSE_VDW"> F  </i>
   <i name="Zab_VDW">     -0.84910000</i>
   <i name="PARAM1">      0.12340000</i>
   <i name="PARAM2">      1.00000000</i>
   <i name="PARAM3">      0.00000000</i>
  </separator>
  <separator name="model GW" >
   <i type="int" name="MODEL_GW">     0</i>
   <i name="MODEL_EPS0">     18.11526668</i>
   <i name="MODEL_ALPHA">      1.00000000</i>
  </separator>
  <separator name="linear response parameters" >
   <i type="logical" name="LEPSILON"> F  </i>
   <i type="logical" name="LRPA"> F  </i>
   <i type="logical" name="LNABLA"> F  </i>
   <i type="logical" name="LVEL"> F  </i>
   <i type="int" name="KINTER">     0</i>
   <i name="CSHIFT">      0.10000000</i>
   <i name="OMEGAMAX">     -1.00000000</i>
   <i name="DEG_THRESHOLD">      0.00200000</i>
   <i name="RTIME">     -0.10000000</i>
   <i name="WPLASMAI">      0.00000000</i>
   <v name="DFIELD">      0.00000000      0.00000000      0.00000000</v>
   <v name="WPLASMA">      0.00000000      0.00000000      0.00000000      0.00000000      0.00000000      0.00000000      0.00000000      0.00000000      0.00000000</v>
  </separator>
  <separator name="orbital magnetization" >
   <i type="logical" name="NUCIND"> F  </i>
   <v name="MAGPOS">      0.00000000      0.00000000      0.00000000</v>
   <i type="logical" name="LNICSALL"> T  </i>
   <i type="logical" name="ORBITALMAG"> F  </i>
   <i type="logical" name="LMAGBLOCH"> F  </i>
   <i type="logical" name="LCHIMAG"> F  </i>
   <i type="logical" name="LGAUGE"> T  </i>
   <i type="int" name="MAGATOM">     0</i>
   <v name="MAGDIPOL">      0.00000000      0.00000000      0.00000000</v>
   <v name="AVECCONST">      0.00000000      0.00000000      0.00000000</v>
  </separator>
  <separator name="response functions" >
   <i type="logical" name="LFINITE_TEMPERATURE"> F  </i>
   <i type="logical" name="LADDER"> F  </i>
   <i type="logical" name="LRPAFORCE"> F  </i>
   <i type="logical" name="LFXC"> F  </i>
   <i type="logical" name="LHARTREE"> T  </i>
   <i type="int" name="IBSE">     0</i>
   <v type="int" name="KPOINT">    -1     0     0     0</v>
   <i type="logical" name="LTCTC"> F  </i>
   <i type="logical" name="LTCTE"> F  </i>
   <i type="logical" name="LTETE"> F  </i>
   <i type="logical" name="LTRIPLET"> F  </i>
   <i type="logical" name="LFXCEPS"> F  </i>
   <i type="logical" name="LFXHEG"> F  </i>
   <i type="int" name="NATURALO">     2</i>
   <i type="logical" name="LHOLEGF"> F  </i>
   <i type="logical" name="L2ORDER"> F  </i>
   <i type="logical" name="LDMP1"> F  </i>
   <i type="logical" name="LMP2LT"> F  </i>
   <i type="logical" name="LSMP2LT"> F  </i>
   <i type="logical" name="LGWLF"> F  </i>
   <i name="ENCUTGW">     -2.00000000</i>
   <i name="ENCUTGWSOFT">     -2.00000000</i>
   <i name="ENCUTLF">     -1.00000000</i>
   <i type="logical" name="LESF_SPLINES"> F  </i>
   <i type="int" name="LMAXMP2">    -1</i>
   <i name="SCISSOR">      0.00000000</i>
   <i type="int" name="NOMEGA">     0</i>
   <i type="int" name="NOMEGAR">     0</i>
   <i type="int" name="NBANDSGW">    -1</i>
   <i type="int" name="NBANDSO">    -1</i>
   <i type="int" name="NBANDSV">    -1</i>
   <i type="int" name="NELM">     1</i>
   <i type="int" name="NELMHF">     1</i>
   <i type="int" name="DIM">     3</i>
   <i type="int" name="IESPILON">     4</i>
   <i type="int" name="ANTIRES">     0</i>
   <i name="OMEGAMAX">    -30.00000000</i>
   <i name="OMEGAMIN">    -30.00000000</i>
   <i name="OMEGATL">   -200.00000000</i>
   <i type="int" name="OMEGAGRID">     0</i>
   <i name="CSHIFT">     -0.10000000</i>
   <i type="logical" name="LSELFENERGY"> F  </i>
   <i type="logical" name="LSPECTRAL"> F  </i>
   <i type="logical" name="LSPECTRALGW"> F  </i>
   <i type="logical" name="LSINGLES"> F  </i>
   <i type="logical" name="LFERMIGW"> F  </i>
   <i type="logical" name="ODDONLYGW"> F  </i>
   <i type="logical" name="EVENONLYGW"> F  </i>
   <i type="int" name="NKREDLFX">     1</i>
   <i type="int" name="NKREDLFY">     1</i>
   <i type="int" name="NKREDLFZ">     1</i>
   <i type="int" name="MAXMEM">  2800</i>
   <i type="int" name="TELESCOPE">     0</i>
   <i type="int" name="NTAUPAR">    -1</i>
   <i type="int" name="NOMEGAPAR">    -1</i>
   <i name="DAMP_NEWTON">      0.80000001</i>
   <i name="LAMBDA">      1.00000000</i>
  </separator>
  <separator name="External order field" >
   <i name="OFIELD_KAPPA">      0.00000000</i>
   <v name="OFIELD_K">      0.00000000      0.00000000      0.00000000</v>
   <i name="OFIELD_Q6_NEAR">      0.00000000</i>
   <i name="OFIELD_Q6_FAR">      0.00000000</i>
   <i name="OFIELD_A">      0.00000000</i>
  </separator>
  <separator name="solvation model" >
   <i type="logical" name="LSOL"> F  </i>
  </separator>
 </parameters>
 <atominfo>
  <atoms>     254 </atoms>
  <types>       2 </types>
  <array name="atoms" >
   <dimension dim="1">ion</dimension>
   <field type="string">element</field>
   <field type="int">atomtype</field>
   <set>
    <rc><c>Al</c><c>   1</c></rc>
    <rc><c>Al</c><c>   1</c></rc>
    <rc><c>Al</c><c>   1</c></rc>
    <rc><c>Al</c><c>   1</c></rc>
    <rc><c>Al</c><c>   1</c></rc>
    <rc><c>Al</c><c>   1</c></rc>
    <rc><c>Al</c><c>   1</c></rc>
    <rc><c>Al</c><c>   1</c></rc>
    <rc><c>Al</c><c>   1</c></rc>
    <rc><c>Al</c><c>   1</c></rc>
    <rc><c>Al</c><c>   1</c></rc>
    <rc><c>Al</c><c>   1</c></rc>
    <rc><c>Al</c><c>   1</c></rc>
    <rc><c>Al</c><c>   1</c></rc>
    <rc><c>Al</c><c>   1</c></rc>
    <rc><c>Al</c><c>   1</c></rc>
    <rc><c>Al</c><c>   1</c></rc>
    <rc><c>Al</c><c>   1</c></rc>
    <rc><c>Al</c><c>   1</c></rc>
    <rc><c>Al</c><c>   1</c></rc>
    <rc><c>Al</c><c>   1</c></rc>
    <rc><c>Al</c><c>   1</c></rc>
    <rc><c>Al</c><c>   1</c></rc>
    <rc><c>Al</c><c>   1</c></rc>
    <rc><c>Al</c><c>   1</c></rc>
    <rc><c>Al</c><c>   1</c></rc>
    <rc><c>Al</c><c>   1</c></rc>
    <rc><c>Al</c><c>   1</c></rc>
    <rc><c>Al</c><c>   1</c></rc>
    <rc><c>Al</c><c>   1</c></rc>
    <rc><c>Al</c><c>   1</c></rc>
    <rc><c>Al</c><c>   1</c></rc>
    <rc><c>Al</c><c>   1</c></rc>
    <rc><c>Al</c><c>   1</c></rc>
    <rc><c>Al</c><c>   1</c></rc>
    <rc><c>Al</c><c>   1</c></rc>
    <rc><c>Al</c><c>   1</c></rc>
    <rc><c>Al</c><c>   1</c></rc>
    <rc><c>Al</c><c>   1</c></rc>
    <rc><c>Al</c><c>   1</c></rc>
    <rc><c>Al</c><c>   1</c></rc>
    <rc><c>Al</c><c>   1</c></rc>
    <rc><c>Al</c><c>   1</c></rc>
    <rc><c>Al</c><c>   1</c></rc>
    <rc><c>Al</c><c>   1</c></rc>
    <rc><c>Al</c><c>   1</c></rc>
    <rc><c>Al</c><c>   1</c></rc>
    <rc><c>Al</c><c>   1</c></rc>
    <rc><c>Al</c><c>   1</c></rc>
    <rc><c>Al</c><c>   1</c></rc>
    <rc><c>Al</c><c>   1</c></rc>
    <rc><c>Al</c><c>   1</c></rc>
    <rc><c>Al</c><c>   1</c></rc>
    <rc><c>Al</c><c>   1</c></rc>
    <rc><c>Al</c><c>   1</c></rc>
    <rc><c>Al</c><c>   1</c></rc>
    <rc><c>Al</c><c>   1</c></rc>
    <rc><c>Al</c><c>   1</c></rc>
    <rc><c>Al</c><c>   1</c></rc>
    <rc><c>Al</c><c>   1</c></rc>
    <rc><c>Al</c><c>   1</c></rc>
    <rc><c>Al</c><c>   1</c></rc>
    <rc><c>Al</c><c>   1</c></rc>
    <rc><c>Al</c><c>   1</c></rc>
    <rc><c>Al</c><c>   1</c></rc>
    <rc><c>Al</c><c>   1</c></rc>
    <rc><c>Al</c><c>   1</c></rc>
    <rc><c>Al</c><c>   1</c></rc>
    <rc><c>Al</c><c>   1</c></rc>
    <rc><c>Al</c><c>   1</c></rc>
    <rc><c>Al</c><c>   1</c></rc>
    <rc><c>Al</c><c>   1</c></rc>
    <rc><c>Al</c><c>   1</c></rc>
    <rc><c>Al</c><c>   1</c></rc>
    <rc><c>Al</c><c>   1</c></rc>
    <rc><c>Al</c><c>   1</c></rc>
    <rc><c>Al</c><c>   1</c></rc>
    <rc><c>Al</c><c>   1</c></rc>
    <rc><c>Al</c><c>   1</c></rc>
    <rc><c>Al</c><c>   1</c></rc>
    <rc><c>Al</c><c>   1</c></rc>
    <rc><c>Al</c><c>   1</c></rc>
    <rc><c>Al</c><c>   1</c></rc>
    <rc><c>Al</c><c>   1</c></rc>
    <rc><c>Al</c><c>   1</c></rc>
    <rc><c>Al</c><c>   1</c></rc>
    <rc><c>Al</c><c>   1</c></rc>
    <rc><c>Al</c><c>   1</c></rc>
    <rc><c>Al</c><c>   1</c></rc>
    <rc><c>Al</c><c>   1</c></rc>
    <rc><c>Al</c><c>   1</c></rc>
    <rc><c>Al</c><c>   1</c></rc>
    <rc><c>Al</c><c>   1</c></rc>
    <rc><c>Al</c><c>   1</c></rc>
    <rc><c>Al</c><c>   1</c></rc>
    <rc><c>Al</c><c>   1</c></rc>
    <rc><c>Al</c><c>   1</c></rc>
    <rc><c>Al</c><c>   1</c></rc>
    <rc><c>Al</c><c>   1</c></rc>
    <rc><c>Al</c><c>   1</c></rc>
    <rc><c>Al</c><c>   1</c></rc>
    <rc><c>Al</c><c>   1</c></rc>
    <rc><c>Al</c><c>   1</c></rc>
    <rc><c>Al</c><c>   1</c></rc>
    <rc><c>Al</c><c>   1</c></rc>
    <rc><c>Al</c><c>   1</c></rc>
    <rc><c>Al</c><c>   1</c></rc>
    <rc><c>Al</c><c>   1</c></rc>
    <rc><c>Al</c><c>   1</c></rc>
    <rc><c>Al</c><c>   1</c></rc>
    <rc><c>Al</c><c>   1</c></rc>
    <rc><c>Al</c><c>   1</c></rc>
    <rc><c>Al</c><c>   1</c></rc>
    <rc><c>Al</c><c>   1</c></rc>
    <rc><c>Al</c><c>   1</c></rc>
    <rc><c>Al</c><c>   1</c></rc>
    <rc><c>Al</c><c>   1</c></rc>
    <rc><c>Al</c><c>   1</c></rc>
    <rc><c>Al</c><c>   1</c></rc>
    <rc><c>Al</c><c>   1</c></rc>
    <rc><c>Al</c><c>   1</c></rc>
    <rc><c>Al</c><c>   1</c></rc>
    <rc><c>Al</c><c>   1</c></rc>
    <rc><c>Al</c><c>   1</c></rc>
    <rc><c>Al</c><c>   1</c></rc>
    <rc><c>Al</c><c>   1</c></rc>
    <rc><c>Al</c><c>   1</c></rc>
    <rc><c>Al</c><c>   1</c></rc>
    <rc><c>Al</c><c>   1</c></rc>
    <rc><c>Al</c><c>   1</c></rc>
    <rc><c>Al</c><c>   1</c></rc>
    <rc><c>Al</c><c>   1</c></rc>
    <rc><c>Al</c><c>   1</c></rc>
    <rc><c>Al</c><c>   1</c></rc>
    <rc><c>Al</c><c>   1</c></rc>
    <rc><c>Al</c><c>   1</c></rc>
    <rc><c>Al</c><c>   1</c></rc>
    <rc><c>Al</c><c>   1</c></rc>
    <rc><c>Al</c><c>   1</c></rc>
    <rc><c>Al</c><c>   1</c></rc>
    <rc><c>Al</c><c>   1</c></rc>
    <rc><c>Al</c><c>   1</c></rc>
    <rc><c>Al</c><c>   1</c></rc>
    <rc><c>Al</c><c>   1</c></rc>
    <rc><c>Al</c><c>   1</c></rc>
    <rc><c>Al</c><c>   1</c></rc>
    <rc><c>Al</c><c>   1</c></rc>
    <rc><c>Al</c><c>   1</c></rc>
    <rc><c>Al</c><c>   1</c></rc>
    <rc><c>Al</c><c>   1</c></rc>
    <rc><c>Al</c><c>   1</c></rc>
    <rc><c>Al</c><c>   1</c></rc>
    <rc><c>Al</c><c>   1</c></rc>
    <rc><c>Al</c><c>   1</c></rc>
    <rc><c>Al</c><c>   1</c></rc>
    <rc><c>Al</c><c>   1</c></rc>
    <rc><c>Al</c><c>   1</c></rc>
    <rc><c>Al</c><c>   1</c></rc>
    <rc><c>Al</c><c>   1</c></rc>
    <rc><c>Al</c><c>   1</c></rc>
    <rc><c>Al</c><c>   1</c></rc>
    <rc><c>Al</c><c>   1</c></rc>
    <rc><c>Al</c><c>   1</c></rc>
    <rc><c>Al</c><c>   1</c></rc>
    <rc><c>Al</c><c>   1</c></rc>
    <rc><c>Al</c><c>   1</c></rc>
    <rc><c>Al</c><c>   1</c></rc>
    <rc><c>Al</c><c>   1</c></rc>
    <rc><c>Al</c><c>   1</c></rc>
    <rc><c>Al</c><c>   1</c></rc>
    <rc><c>Al</c><c>   1</c></rc>
    <rc><c>Al</c><c>   1</c></rc>
    <rc><c>Al</c><c>   1</c></rc>
    <rc><c>Al</c><c>   1</c></rc>
    <rc><c>Al</c><c>   1</c></rc>
    <rc><c>Al</c><c>   1</c></rc>
    <rc><c>Al</c><c>   1</c></rc>
    <rc><c>Al</c><c>   1</c></rc>
    <rc><c>Al</c><c>   1</c></rc>
    <rc><c>Al</c><c>   1</c></rc>
    <rc><c>Al</c><c>   1</c></rc>
    <rc><c>Al</c><c>   1</c></rc>
    <rc><c>Al</c><c>   1</c></rc>
    <rc><c>Al</c><c>   1</c></rc>
    <rc><c>Al</c><c>   1</c></rc>
    <rc><c>Al</c><c>   1</c></rc>
    <rc><c>Al</c><c>   1</c></rc>
    <rc><c>Al</c><c>   1</c></rc>
    <rc><c>Al</c><c>   1</c></rc>
    <rc><c>Al</c><c>   1</c></rc>
    <rc><c>Al</c><c>   1</c></rc>
    <rc><c>Al</c><c>   1</c></rc>
    <rc><c>Al</c><c>   1</c></rc>
    <rc><c>Al</c><c>   1</c></rc>
    <rc><c>Al</c><c>   1</c></rc>
    <rc><c>Al</c><c>   1</c></rc>
    <rc><c>Al</c><c>   1</c></rc>
    <rc><c>Al</c><c>   1</c></rc>
    <rc><c>Al</c><c>   1</c></rc>
    <rc><c>Al</c><c>   1</c></rc>
    <rc><c>Al</c><c>   1</c></rc>
    <rc><c>Al</c><c>   1</c></rc>
    <rc><c>Al</c><c>   1</c></rc>
    <rc><c>Al</c><c>   1</c></rc>
    <rc><c>Al</c><c>   1</c></rc>
    <rc><c>Al</c><c>   1</c></rc>
    <rc><c>Al</c><c>   1</c></rc>
    <rc><c>Al</c><c>   1</c></rc>
    <rc><c>Al</c><c>   1</c></rc>
    <rc><c>Al</c><c>   1</c></rc>
    <rc><c>Al</c><c>   1</c></rc>
    <rc><c>Al</c><c>   1</c></rc>
    <rc><c>Al</c><c>   1</c></rc>
    <rc><c>Al</c><c>   1</c></rc>
    <rc><c>Al</c><c>   1</c></rc>
    <rc><c>Al</c><c>   1</c></rc>
    <rc><c>Al</c><c>   1</c></rc>
    <rc><c>Al</c><c>   1</c></rc>
    <rc><c>Al</c><c>   1</c></rc>
    <rc><c>Al</c><c>   1</c></rc>
    <rc><c>Al</c><c>   1</c></rc>
    <rc><c>Al</c><c>   1</c></rc>
    <rc><c>Al</c><c>   1</c></rc>
    <rc><c>Al</c><c>   1</c></rc>
    <rc><c>Al</c><c>   1</c></rc>
    <rc><c>Al</c><c>   1</c></rc>
    <rc><c>Al</c><c>   1</c></rc>
    <rc><c>Al</c><c>   1</c></rc>
    <rc><c>Al</c><c>   1</c></rc>
    <rc><c>Al</c><c>   1</c></rc>
    <rc><c>Al</c><c>   1</c></rc>
    <rc><c>Al</c><c>   1</c></rc>
    <rc><c>Al</c><c>   1</c></rc>
    <rc><c>Al</c><c>   1</c></rc>
    <rc><c>Al</c><c>   1</c></rc>
    <rc><c>Al</c><c>   1</c></rc>
    <rc><c>Al</c><c>   1</c></rc>
    <rc><c>Al</c><c>   1</c></rc>
    <rc><c>Al</c><c>   1</c></rc>
    <rc><c>Al</c><c>   1</c></rc>
    <rc><c>Al</c><c>   1</c></rc>
    <rc><c>Al</c><c>   1</c></rc>
    <rc><c>Al</c><c>   1</c></rc>
    <rc><c>Al</c><c>   1</c></rc>
    <rc><c>Al</c><c>   1</c></rc>
    <rc><c>Al</c><c>   1</c></rc>
    <rc><c>Al</c><c>   1</c></rc>
    <rc><c>Al</c><c>   1</c></rc>
    <rc><c>Al</c><c>   1</c></rc>
    <rc><c>Al</c><c>   1</c></rc>
    <rc><c>Al</c><c>   1</c></rc>
    <rc><c>Al</c><c>   1</c></rc>
    <rc><c>O </c><c>   2</c></rc>
    <rc><c>O </c><c>   2</c></rc>
   </set>
  </array>
  <array name="atomtypes" >
   <dimension dim="1">type</dimension>
   <field type="int">atomspertype</field>
   <field type="string">element</field>
   <field>mass</field>
   <field>valence</field>
   <field type="string">pseudopotential</field>
   <set>
    <rc><c> 252</c><c>Al</c><c>     26.98200000</c><c>      3.00000000</c><c>  PAW Al_GW 19Mar2012                   </c></rc>
    <rc><c>   2</c><c>O </c><c>     16.00000000</c><c>      6.00000000</c><c>  PAW O_GW 19Mar2012                    </c></rc>
   </set>
  </array>
 </atominfo>
 <structure name="initialpos" >
  <crystal>
   <varray name="basis" >
    <v>       0.00000000     -17.18057346       0.00000000 </v>
    <v>       0.00000000      -8.59028673     -14.87881307 </v>
    <v>      30.00000000       0.00000000       0.00000000 </v>
   </varray>
   <i name="volume">   7668.79622957 </i>
   <varray name="rec_basis" >
    <v>       0.00000000      -0.05820527       0.03360483 </v>
    <v>       0.00000000       0.00000000      -0.06720966 </v>
    <v>       0.03333333       0.00000000       0.00000000 </v>
   </varray>
  </crystal>
  <varray name="positions" >
   <v>       0.44647042       0.61313695       0.54813167 </v>
   <v>       0.61676438       0.44161789       0.54274033 </v>
   <v>       0.77933134       0.27645418       0.54457700 </v>
   <v>       0.94446263       0.11112916       0.54455700 </v>
   <v>       0.94469853       0.27765051       0.54439633 </v>
   <v>       0.94446231       0.44440843       0.54455703 </v>
   <v>       0.77756522       0.61141772       0.54477170 </v>
   <v>       0.61066527       0.77733149       0.54505137 </v>
   <v>       0.44475100       0.94423190       0.54477170 </v>
   <v>       0.61108088       0.94445975       0.54423703 </v>
   <v>       0.77779301       0.94445975       0.54423703 </v>
   <v>       0.94533687       0.77733149       0.54505140 </v>
   <v>       0.94435069       0.61141772       0.54477170 </v>
   <v>       0.83338994       0.66655317       0.46628503 </v>
   <v>       0.66659154       0.83325800       0.46624437 </v>
   <v>       0.72222214       0.88888878       0.38989003 </v>
   <v>       0.88918804       0.72203871       0.38970437 </v>
   <v>       0.94436763       0.77781601       0.31176303 </v>
   <v>       0.77772874       0.94439516       0.31179437 </v>
   <v>       0.94460836       0.94455377       0.31170337 </v>
   <v>       0.88918767       0.88877311       0.38970437 </v>
   <v>       0.83348356       0.83325793       0.46624437 </v>
   <v>       0.77779271       0.77774752       0.54423703 </v>
   <v>       0.77933153       0.44421420       0.54457700 </v>
   <v>       0.66769054       0.50002913       0.46598200 </v>
   <v>       0.83412399       0.33293785       0.46617733 </v>
   <v>       0.88871778       0.38906605       0.38961200 </v>
   <v>       0.72184811       0.55574460       0.38955770 </v>
   <v>       0.77788688       0.61083844       0.31170337 </v>
   <v>       0.61114991       0.77781608       0.31176303 </v>
   <v>       0.66677775       0.83344424       0.23383837 </v>
   <v>       0.83310763       0.66711780       0.23388603 </v>
   <v>       0.88886298       0.72238034       0.15701270 </v>
   <v>       0.72222205       0.88888885       0.15674603 </v>
   <v>       0.77790746       0.94457414       0.07850070 </v>
   <v>       0.94462679       0.77768650       0.07892070 </v>
   <v>       0.94437139       0.94434764       0.07907270 </v>
   <v>       0.88886298       0.88875651       0.15701270 </v>
   <v>       0.83311096       0.83344424       0.23383837 </v>
   <v>       0.77772849       0.77787596       0.31179433 </v>
   <v>       0.72210616       0.72203878       0.38970433 </v>
   <v>       0.66652204       0.66692618       0.46661397 </v>
   <v>       0.55530926       0.72197560       0.38993563 </v>
   <v>       0.50025968       0.83318871       0.46661397 </v>
   <v>       0.33336245       0.83435748       0.46598197 </v>
   <v>       0.27495109       0.78343131       0.54274027 </v>
   <v>       0.10978752       0.94599804       0.54457697 </v>
   <v>       0.27754735       0.94599804       0.54457697 </v>
   <v>       0.44336860       0.77829185       0.54522563 </v>
   <v>       0.49955860       0.66622512       0.46701230 </v>
   <v>       0.61162511       0.61003515       0.54522563 </v>
   <v>       0.61120903       0.94439529       0.31179433 </v>
   <v>       0.44417142       0.94455384       0.31170333 </v>
   <v>       0.38907810       0.88851436       0.38955763 </v>
   <v>       0.38887251       0.72177861       0.38999097 </v>
   <v>       0.22268194       0.72177854       0.38999097 </v>
   <v>       0.05574060       0.88851429       0.38955763 </v>
   <v>       0.99988468       0.83318864       0.46661397 </v>
   <v>       0.16754934       0.66622505       0.46701230 </v>
   <v>       0.27372584       0.61313681       0.54813163 </v>
   <v>       0.11167277       0.61003502       0.54522560 </v>
   <v>       0.27495100       0.44161775       0.54274027 </v>
   <v>       0.44336913       0.27833927       0.54522560 </v>
   <v>       0.61066523       0.11200349       0.54505127 </v>
   <v>       0.66652232       0.16655152       0.46661393 </v>
   <v>       0.83339018       0.00005713       0.46628493 </v>
   <v>       0.88885516       0.05552197       0.38959593 </v>
   <v>       0.72184793       0.22240685       0.38955760 </v>
   <v>       0.77749466       0.27796579       0.31171260 </v>
   <v>       0.61055419       0.44472297       0.31197627 </v>
   <v>       0.66615318       0.50009103       0.23391593 </v>
   <v>       0.49974106       0.66640732       0.23375593 </v>
   <v>       0.55547826       0.72214504       0.15730260 </v>
   <v>       0.38881138       0.88887668       0.15724227 </v>
   <v>       0.33342410       0.83281979       0.23391593 </v>
   <v>       0.27805654       0.77722053       0.31197627 </v>
   <v>       0.11129902       0.94416127       0.31171260 </v>
   <v>       0.27787259       0.94416133       0.31171260 </v>
   <v>       0.22221603       0.88890155       0.38954527 </v>
   <v>       0.16561310       0.83435748       0.46598193 </v>
   <v>       0.11167251       0.77829185       0.54522560 </v>
   <v>       0.94460768       0.61083844       0.31170333 </v>
   <v>       0.94455295       0.44422703       0.31183900 </v>
   <v>       0.94442060       0.27778963       0.31193897 </v>
   <v>       0.94455283       0.11121989       0.31183893 </v>
   <v>       0.83333552       0.16676263       0.23394127 </v>
   <v>       0.66658932       0.16664569       0.23403587 </v>
   <v>       0.49974140       0.33385116       0.23375590 </v>
   <v>       0.55518945       0.38928710       0.15703123 </v>
   <v>       0.38888911       0.55555574       0.15689827 </v>
   <v>       0.44428755       0.61095472       0.07849263 </v>
   <v>       0.61116739       0.44441657       0.07848860 </v>
   <v>       0.77791516       0.27773734       0.07896227 </v>
   <v>       0.72221023       0.22231216       0.15724223 </v>
   <v>       0.72209020       0.05552997       0.15701253 </v>
   <v>       0.88897740       0.05564429       0.15723557 </v>
   <v>       0.83310787       0.99977418       0.23388587 </v>
   <v>       0.77788709       0.11127494       0.31170323 </v>
   <v>       0.61115009       0.11103366       0.31176287 </v>
   <v>       0.55537222       0.05585446       0.38970417 </v>
   <v>       0.49988611       0.00005693       0.46628480 </v>
   <v>       0.33361572       0.16645528       0.46644947 </v>
   <v>       0.16627138       0.33293758       0.46617713 </v>
   <v>       0.99978866       0.50028224       0.46644947 </v>
   <v>       0.05574051       0.55574433       0.38955747 </v>
   <v>       0.22221596       0.38888230       0.38954517 </v>
   <v>       0.27805602       0.44472277       0.31197617 </v>
   <v>       0.11153985       0.61107139       0.31175613 </v>
   <v>       0.16718468       0.66640712       0.23375580 </v>
   <v>       0.99997910       0.83325578       0.23403580 </v>
   <v>       0.05564501       0.88887648       0.15724213 </v>
   <v>       0.22262062       0.72185577       0.15703117 </v>
   <v>       0.27774979       0.77783402       0.07848850 </v>
   <v>       0.11107074       0.94458187       0.07896217 </v>
   <v>       0.27768042       0.94458187       0.07896217 </v>
   <v>       0.44461397       0.94434730       0.07907253 </v>
   <v>       0.61102037       0.77768623       0.07892053 </v>
   <v>       0.77768087       0.61128048       0.07907257 </v>
   <v>       0.72221020       0.55547757       0.15724220 </v>
   <v>       0.83333518       0.49990191       0.23394123 </v>
   <v>       0.88893830       0.38871091       0.15711390 </v>
   <v>       0.83335154       0.33332410       0.23389453 </v>
   <v>       0.72200796       0.38899588       0.15715187 </v>
   <v>       0.66615301       0.33375559       0.23391587 </v>
   <v>       0.61072178       0.27820673       0.31175617 </v>
   <v>       0.55530915       0.22271508       0.38993547 </v>
   <v>       0.44440428       0.27820673       0.31175613 </v>
   <v>       0.38887225       0.38934866       0.38999080 </v>
   <v>       0.49955895       0.33421523       0.46701213 </v>
   <v>       0.33309298       0.49975929       0.46655580 </v>
   <v>       0.38888884       0.55555547       0.38914117 </v>
   <v>       0.44443520       0.61110224       0.31202187 </v>
   <v>       0.27779524       0.61110224       0.31202180 </v>
   <v>       0.33346324       0.50012968       0.23392380 </v>
   <v>       0.16708902       0.50009063       0.23391577 </v>
   <v>       0.00009589       0.49990177       0.23394103 </v>
   <v>       0.16665739       0.33332397       0.23389437 </v>
   <v>       0.22232922       0.38899581       0.15715173 </v>
   <v>       0.38881110       0.22231182       0.15724210 </v>
   <v>       0.55571389       0.05552977       0.15701243 </v>
   <v>       0.50045135       0.99977391       0.23388573 </v>
   <v>       0.33323580       0.16676229       0.23394107 </v>
   <v>       0.27787278       0.27796538       0.31171240 </v>
   <v>       0.11112300       0.27778923       0.31193867 </v>
   <v>       0.05555560       0.22222156       0.38949930 </v>
   <v>       0.00003566       0.16670228       0.46621327 </v>
   <v>       0.16627146       0.00078985       0.46617693 </v>
   <v>       0.22239965       0.05538365       0.38961167 </v>
   <v>       0.27756057       0.11121949       0.31183870 </v>
   <v>       0.38895613       0.05552150       0.38959573 </v>
   <v>       0.38907830       0.22240652       0.38955743 </v>
   <v>       0.50025917       0.16655132       0.46661380 </v>
   <v>       0.44475103       0.11101658       0.54477143 </v>
   <v>       0.27774129       0.11112869       0.54455670 </v>
   <v>       0.11098393       0.27765004       0.54439600 </v>
   <v>       0.27754742       0.27645377       0.54457673 </v>
   <v>       0.10978712       0.44421373       0.54457673 </v>
   <v>       0.16561323       0.50002880       0.46598177 </v>
   <v>       0.33336230       0.33227953       0.46598177 </v>
   <v>       0.49974012       0.50012988       0.23392397 </v>
   <v>       0.44443589       0.44446207       0.31202193 </v>
   <v>       0.72210653       0.05585446       0.38970420 </v>
   <v>       0.66659178       0.00015028       0.46624420 </v>
   <v>       0.83326199       0.50028251       0.46644963 </v>
   <v>       0.88885496       0.55562302       0.38959600 </v>
   <v>       0.44416718       0.77780653       0.07915597 </v>
   <v>       0.38885698       0.72185590       0.15703123 </v>
   <v>       0.33346313       0.66640665       0.23392387 </v>
   <v>       0.16708879       0.83281979       0.23391573 </v>
   <v>       0.11153913       0.77738869       0.31175600 </v>
   <v>       0.05604740       0.72197573       0.38993530 </v>
   <v>       0.99988377       0.66692638       0.46661357 </v>
   <v>       0.61113950       0.61083421       0.07915607 </v>
   <v>       0.55518924       0.55552341       0.15703137 </v>
   <v>       0.22232947       0.88867431       0.15715180 </v>
   <v>       0.77791523       0.44434714       0.07896253 </v>
   <v>       0.94442801       0.44447692       0.07888800 </v>
   <v>       0.94437144       0.61128055       0.07907300 </v>
   <v>       0.88897708       0.55537831       0.15723597 </v>
   <v>       0.72208951       0.72238020       0.15701283 </v>
   <v>       0.66658892       0.66676495       0.23403613 </v>
   <v>       0.61072104       0.61107173       0.31175643 </v>
   <v>       0.55511101       0.55553914       0.38999103 </v>
   <v>       0.50047935       0.49975989       0.46655600 </v>
   <v>       0.55511109       0.38934907       0.38999103 </v>
   <v>       0.72223451       0.38888270       0.38954550 </v>
   <v>       0.66768973       0.33228013       0.46598210 </v>
   <v>       0.61162410       0.27833974       0.54522573 </v>
   <v>       0.77756380       0.11101726       0.54477187 </v>
   <v>       0.83326097       0.16645575       0.46644990 </v>
   <v>       0.88871658       0.22221685       0.38961227 </v>
   <v>       0.94435766       0.27782109       0.07863630 </v>
   <v>       0.94442850       0.11109475       0.07888793 </v>
   <v>       0.88893848       0.22235033       0.15711423 </v>
   <v>       0.50009816       0.83325598       0.23403603 </v>
   <v>       0.44440404       0.77738869       0.31175633 </v>
   <v>       0.77790761       0.77751760       0.07850090 </v>
   <v>       0.61085136       0.94457387       0.07850077 </v>
   <v>       0.55571326       0.88875631       0.15701273 </v>
   <v>       0.77768183       0.11103823       0.07907267 </v>
   <v>       0.61102103       0.11129295       0.07892033 </v>
   <v>       0.44416832       0.27802594       0.07915537 </v>
   <v>       0.27775011       0.44441623       0.07848777 </v>
   <v>       0.11135997       0.61083407       0.07915480 </v>
   <v>       0.05564524       0.55547771       0.15724100 </v>
   <v>       0.05570985       0.72214490       0.15730137 </v>
   <v>       0.99997833       0.66676508       0.23403457 </v>
   <v>       0.61114001       0.27802601       0.07915570 </v>
   <v>       0.55547867       0.22237661       0.15730227 </v>
   <v>       0.50009777       0.16664595       0.23403547 </v>
   <v>       0.44417008       0.11127548       0.31170267 </v>
   <v>       0.38885682       0.38928710       0.15703063 </v>
   <v>       0.33342384       0.33375606       0.23391517 </v>
   <v>       0.44428858       0.44475772       0.07849207 </v>
   <v>       0.27809169       0.61095438       0.07849180 </v>
   <v>       0.22262034       0.55552348       0.15703033 </v>
   <v>       0.11135996       0.77780640       0.07915483 </v>
   <v>       0.66677737       0.99977841       0.23383807 </v>
   <v>       0.77749393       0.44453922       0.31171240 </v>
   <v>       0.11129962       0.44453949       0.31171260 </v>
   <v>       0.05555034       0.38906632       0.38961210 </v>
   <v>       0.00003705       0.33326146       0.46621397 </v>
   <v>       0.16661913       0.16672654       0.46623047 </v>
   <v>       0.11100844       0.11138933       0.54441333 </v>
   <v>       0.55537212       0.88877318       0.38970433 </v>
   <v>       0.22268253       0.55553820       0.38999077 </v>
   <v>       0.22239932       0.22221658       0.38961190 </v>
   <v>       0.33309350       0.66714730       0.46655623 </v>
   <v>       0.33361674       0.99992795       0.46644957 </v>
   <v>       0.44646926       0.44039299       0.54813160 </v>
   <v>       0.11107146       0.44434694       0.07896110 </v>
   <v>       0.11115508       0.27782088       0.07863473 </v>
   <v>       0.05555587       0.22222196       0.15691797 </v>
   <v>       0.00011505       0.16678226       0.23395320 </v>
   <v>       0.16665724       0.00001828       0.23389347 </v>
   <v>       0.22204425       0.05560517       0.15711293 </v>
   <v>       0.27781057       0.11109455       0.07888670 </v>
   <v>       0.38871183       0.05564422       0.15723490 </v>
   <v>       0.33323480       0.00000222       0.23394047 </v>
   <v>       0.16643546       0.16678226       0.23395350 </v>
   <v>       0.11112230       0.11108722       0.31193773 </v>
   <v>       0.05554805       0.05538473       0.38961060 </v>
   <v>       0.99978668       0.99992956       0.46644813 </v>
   <v>       0.27768160       0.27773694       0.07896140 </v>
   <v>       0.22204433       0.22235033       0.15711293 </v>
   <v>       0.05568395       0.38871098       0.15711267 </v>
   <v>       0.00011506       0.33310265       0.23395323 </v>
   <v>       0.44461440       0.11103816       0.07907200 </v>
   <v>       0.11115527       0.11102398       0.07863473 </v>
   <v>       0.05568368       0.05560517       0.15711263 </v>
   <v>       0.00009584       0.00000215       0.23393987 </v>
   <v>       0.94435015       0.94423190       0.54477173 </v>
   <v>       0.38888905       0.55555574       0.48333333 </v>
   <v>       0.38795474       0.52952833       0.51666667 </v>
  </varray>
 </structure>
 <calculation>
  <scstep>
   <time name="dav">    8.99    9.00</time>
   <time name="total">    9.47    9.58</time>
   <energy>
    <i name="alphaZ">    504.51365917 </i>
    <i name="ewald">  92314.94417951 </i>
    <i name="hartreedc">-106602.35298244 </i>
    <i name="XCdc">  -6586.65716169 </i>
    <i name="pawpsdc">  17380.74262607 </i>
    <i name="pawaedc">  -9326.59272269 </i>
    <i name="eentropy">     -0.07342875 </i>
    <i name="bandstr">    406.36554861 </i>
    <i name="atom">  14355.57734864 </i>
    <i name="e_fr_energy">   2446.46706642 </i>
    <i name="e_wo_entrp">   2446.54049517 </i>
    <i name="e_0_energy">   2446.50378080 </i>
   </energy>
  </scstep>
  <scstep>
   <time name="dav">   11.36   11.36</time>
   <time name="total">   11.36   11.37</time>
   <energy>
    <i name="e_fr_energy">   -670.61542232 </i>
    <i name="e_wo_entrp">   -670.49280541 </i>
    <i name="e_0_energy">   -670.55411387 </i>
   </energy>
  </scstep>
  <scstep>
   <time name="dav">   12.83   12.83</time>
   <time name="total">   12.83   12.83</time>
   <energy>
    <i name="e_fr_energy">   -936.97894865 </i>
    <i name="e_wo_entrp">   -936.76479855 </i>
    <i name="e_0_energy">   -936.87187360 </i>
   </energy>
  </scstep>
  <scstep>
   <time name="dav">   12.66   12.66</time>
   <time name="total">   12.66   12.66</time>
   <energy>
    <i name="e_fr_energy">   -950.76276528 </i>
    <i name="e_wo_entrp">   -950.52816260 </i>
    <i name="e_0_energy">   -950.64546394 </i>
   </energy>
  </scstep>
  <scstep>
   <time name="dav">   12.54   12.54</time>
   <time name="total">   13.46   13.47</time>
   <energy>
    <i name="e_fr_energy">   -951.20826074 </i>
    <i name="e_wo_entrp">   -950.97236260 </i>
    <i name="e_0_energy">   -951.09031167 </i>
   </energy>
  </scstep>
  <scstep>
   <time name="dav">   12.11   12.12</time>
   <time name="total">   13.47   13.47</time>
   <energy>
    <i name="e_fr_energy">   -965.52791364 </i>
    <i name="e_wo_entrp">   -965.39705607 </i>
    <i name="e_0_energy">   -965.46248485 </i>
   </energy>
  </scstep>
  <scstep>
   <time name="dav">   11.87   11.87</time>
   <time name="total">   13.21   13.21</time>
   <energy>
    <i name="e_fr_energy">   -986.39238558 </i>
    <i name="e_wo_entrp">   -986.22539595 </i>
    <i name="e_0_energy">   -986.30889077 </i>
   </energy>
  </scstep>
  <scstep>
   <time name="dav">   11.19   11.19</time>
   <time name="total">   12.55   12.55</time>
   <energy>
    <i name="e_fr_energy">   -933.22646249 </i>
    <i name="e_wo_entrp">   -933.09731789 </i>
    <i name="e_0_energy">   -933.16189019 </i>
   </energy>
  </scstep>
  <scstep>
   <time name="dav">   11.14   11.14</time>
   <time name="total">   12.52   12.52</time>
   <energy>
    <i name="e_fr_energy">   -942.49209969 </i>
    <i name="e_wo_entrp">   -942.38730561 </i>
    <i name="e_0_energy">   -942.43970265 </i>
   </energy>
  </scstep>
  <scstep>
   <time name="dav">   11.28   11.28</time>
   <time name="total">   12.66   12.67</time>
   <energy>
    <i name="e_fr_energy">   -922.70268649 </i>
    <i name="e_wo_entrp">   -922.60003577 </i>
    <i name="e_0_energy">   -922.65136113 </i>
   </energy>
  </scstep>
  <scstep>
   <time name="dav">   10.90   10.90</time>
   <time name="total">   12.28   12.29</time>
   <energy>
    <i name="e_fr_energy">   -922.05195371 </i>
    <i name="e_wo_entrp">   -921.95704600 </i>
    <i name="e_0_energy">   -922.00449986 </i>
   </energy>
  </scstep>
  <scstep>
   <time name="dav">   10.89   10.89</time>
   <time name="total">   12.28   12.28</time>
   <energy>
    <i name="e_fr_energy">   -921.97857244 </i>
    <i name="e_wo_entrp">   -921.88053454 </i>
    <i name="e_0_energy">   -921.92955349 </i>
   </energy>
  </scstep>
  <scstep>
   <time name="dav">   10.49   10.49</time>
   <time name="total">   11.90   11.90</time>
   <energy>
    <i name="e_fr_energy">   -921.94665824 </i>
    <i name="e_wo_entrp">   -921.85283520 </i>
    <i name="e_0_energy">   -921.89974672 </i>
   </energy>
  </scstep>
  <scstep>
   <time name="dav">    9.84    9.85</time>
   <time name="total">   11.25   11.25</time>
   <energy>
    <i name="e_fr_energy">   -921.83168414 </i>
    <i name="e_wo_entrp">   -921.73672184 </i>
    <i name="e_0_energy">   -921.78420299 </i>
   </energy>
  </scstep>
  <scstep>
   <time name="dav">   10.72   10.73</time>
   <time name="total">   12.13   12.13</time>
   <energy>
    <i name="e_fr_energy">   -921.78959535 </i>
    <i name="e_wo_entrp">   -921.69656340 </i>
    <i name="e_0_energy">   -921.74307938 </i>
   </energy>
  </scstep>
  <scstep>
   <time name="dav">   11.86   11.86</time>
   <time name="total">   13.29   13.29</time>
   <energy>
    <i name="e_fr_energy">   -921.79046934 </i>
    <i name="e_wo_entrp">   -921.69752531 </i>
    <i name="e_0_energy">   -921.74399732 </i>
   </energy>
  </scstep>
  <scstep>
   <time name="dav">   10.49   10.49</time>
   <time name="total">   11.93   11.93</time>
   <energy>
    <i name="e_fr_energy">   -921.79001157 </i>
    <i name="e_wo_entrp">   -921.69735760 </i>
    <i name="e_0_energy">   -921.74368458 </i>
   </energy>
  </scstep>
  <scstep>
   <time name="dav">    9.95    9.95</time>
   <time name="total">   11.39   11.39</time>
   <energy>
    <i name="e_fr_energy">   -921.79120164 </i>
    <i name="e_wo_entrp">   -921.69893391 </i>
    <i name="e_0_energy">   -921.74506778 </i>
   </energy>
  </scstep>
  <scstep>
   <time name="dav">   10.16   10.16</time>
   <time name="total">   11.64   11.64</time>
   <energy>
    <i name="e_fr_energy">   -921.79406987 </i>
    <i name="e_wo_entrp">   -921.70195717 </i>
    <i name="e_0_energy">   -921.74801352 </i>
   </energy>
  </scstep>
  <scstep>
   <time name="dav">    9.49    9.49</time>
   <time name="total">   10.96   10.96</time>
   <energy>
    <i name="e_fr_energy">   -921.79750881 </i>
    <i name="e_wo_entrp">   -921.70547669 </i>
    <i name="e_0_energy">   -921.75149275 </i>
   </energy>
  </scstep>
  <scstep>
   <time name="dav">   10.23   10.23</time>
   <time name="total">   11.73   11.73</time>
   <energy>
    <i name="e_fr_energy">   -921.79958074 </i>
    <i name="e_wo_entrp">   -921.70756179 </i>
    <i name="e_0_energy">   -921.75357126 </i>
   </energy>
  </scstep>
  <scstep>
   <time name="dav">    9.86    9.86</time>
   <time name="total">   11.36   11.36</time>
   <energy>
    <i name="e_fr_energy">   -921.80095622 </i>
    <i name="e_wo_entrp">   -921.70899082 </i>
    <i name="e_0_energy">   -921.75497352 </i>
   </energy>
  </scstep>
  <scstep>
   <time name="dav">    9.68    9.68</time>
   <time name="total">   11.18   11.18</time>
   <energy>
    <i name="e_fr_energy">   -921.80219673 </i>
    <i name="e_wo_entrp">   -921.71022922 </i>
    <i name="e_0_energy">   -921.75621297 </i>
   </energy>
  </scstep>
  <scstep>
   <time name="dav">   10.04   10.05</time>
   <time name="total">   11.59   11.59</time>
   <energy>
    <i name="e_fr_energy">   -921.80277873 </i>
    <i name="e_wo_entrp">   -921.71079534 </i>
    <i name="e_0_energy">   -921.75678704 </i>
   </energy>
  </scstep>
  <scstep>
   <time name="dav">    9.10    9.10</time>
   <time name="total">   10.65   10.65</time>
   <energy>
    <i name="e_fr_energy">   -921.80321547 </i>
    <i name="e_wo_entrp">   -921.71124798 </i>
    <i name="e_0_energy">   -921.75723172 </i>
   </energy>
  </scstep>
  <scstep>
   <time name="dav">    9.30    9.30</time>
   <time name="total">   10.86   10.86</time>
   <energy>
    <i name="e_fr_energy">   -921.80399771 </i>
    <i name="e_wo_entrp">   -921.71203119 </i>
    <i name="e_0_energy">   -921.75801445 </i>
   </energy>
  </scstep>
  <scstep>
   <time name="dav">    8.30    8.30</time>
   <time name="total">    9.89    9.89</time>
   <energy>
    <i name="e_fr_energy">   -921.80457816 </i>
    <i name="e_wo_entrp">   -921.71259736 </i>
    <i name="e_0_energy">   -921.75858776 </i>
   </energy>
  </scstep>
  <scstep>
   <time name="dav">    8.36    8.36</time>
   <time name="total">    9.96    9.96</time>
   <energy>
    <i name="e_fr_energy">   -921.80497839 </i>
    <i name="e_wo_entrp">   -921.71300325 </i>
    <i name="e_0_energy">   -921.75899082 </i>
   </energy>
  </scstep>
  <scstep>
   <time name="dav">    7.57    7.57</time>
   <time name="total">    9.22    9.22</time>
   <energy>
    <i name="e_fr_energy">   -921.80512248 </i>
    <i name="e_wo_entrp">   -921.71314988 </i>
    <i name="e_0_energy">   -921.75913618 </i>
   </energy>
  </scstep>
  <scstep>
   <time name="dav">    7.39    7.39</time>
   <time name="total">    9.03    9.03</time>
   <energy>
    <i name="e_fr_energy">   -921.80521613 </i>
    <i name="e_wo_entrp">   -921.71324078 </i>
    <i name="e_0_energy">   -921.75922846 </i>
   </energy>
  </scstep>
  <scstep>
   <time name="dav">    6.83    6.83</time>
   <time name="total">    8.49    8.49</time>
   <energy>
    <i name="e_fr_energy">   -921.80523978 </i>
    <i name="e_wo_entrp">   -921.71326300 </i>
    <i name="e_0_energy">   -921.75925139 </i>
   </energy>
  </scstep>
  <scstep>
   <time name="dav">    6.12    6.12</time>
   <time name="total">    7.81    7.81</time>
   <energy>
[...]
       <r>    -0.3958   128.4599   547.1139 </r>
       <r>    -0.3093   119.5932   557.4702 </r>
       <r>    -0.2227   105.9840   566.6480 </r>
       <r>    -0.1361    68.8991   572.6144 </r>
       <r>    -0.0495    59.4421   577.7619 </r>
       <r>     0.0371    77.3083   584.4565 </r>
       <r>     0.1237    71.9426   590.6864 </r>
       <r>     0.2103   110.1234   600.2227 </r>
       <r>     0.2969    83.8402   607.4829 </r>
       <r>     0.3835    74.3967   613.9254 </r>
       <r>     0.4701   113.1424   623.7231 </r>
       <r>     0.5567   121.0852   634.2086 </r>
       <r>     0.6433    88.3744   641.8615 </r>
       <r>     0.7299    47.1595   645.9453 </r>
       <r>     0.8165    42.9415   649.6639 </r>
       <r>     0.9031   129.8588   660.9091 </r>
       <r>     0.9897   166.2996   675.3100 </r>
       <r>     1.0763   176.2241   690.5704 </r>
       <r>     1.1629   121.3473   701.0786 </r>
       <r>     1.2495    62.2618   706.4702 </r>
       <r>     1.3361    44.8472   710.3538 </r>
       <r>     1.4227    98.3923   718.8742 </r>
       <r>     1.5093   153.3879   732.1570 </r>
       <r>     1.5959   129.1955   743.3448 </r>
       <r>     1.6825    97.5171   751.7894 </r>
       <r>     1.7691    85.3708   759.1822 </r>
       <r>     1.8557   114.6898   769.1139 </r>
       <r>     1.9422   129.5162   780.3295 </r>
       <r>     2.0288    89.8761   788.1124 </r>
       <r>     2.1154   109.2826   797.5759 </r>
       <r>     2.2020    89.1729   805.2979 </r>
       <r>     2.2886    44.2385   809.1288 </r>
       <r>     2.3752    62.9916   814.5836 </r>
       <r>     2.4618   128.2251   825.6874 </r>
       <r>     2.5484   134.7294   837.3545 </r>
       <r>     2.6350   120.7445   847.8105 </r>
       <r>     2.7216    81.1277   854.8358 </r>
       <r>     2.8082    72.0236   861.0728 </r>
       <r>     2.8948   157.4985   874.7115 </r>
       <r>     2.9814   249.4523   896.3131 </r>
       <r>     3.0680   138.5705   908.3128 </r>
       <r>     3.1546   103.7454   917.2968 </r>
       <r>     3.2412    89.2727   925.0274 </r>
       <r>     3.3278    97.3459   933.4572 </r>
       <r>     3.4144   160.6430   947.3683 </r>
       <r>     3.5010   121.3302   957.8750 </r>
       <r>     3.5876   100.8272   966.6062 </r>
       <r>     3.6742    76.7470   973.2522 </r>
       <r>     3.7608    70.4389   979.3520 </r>
       <r>     3.8474    84.3590   986.6571 </r>
       <r>     3.9340   101.5656   995.4523 </r>
       <r>     4.0206   197.7645  1012.5780 </r>
       <r>     4.1072   111.8480  1022.2636 </r>
       <r>     4.1937    19.5402  1023.9557 </r>
       <r>     4.2803     0.5117  1024.0000 </r>
       <r>     4.3669     0.0002  1024.0000 </r>
       <r>     4.4535     0.0000  1024.0000 </r>
       <r>     4.5401     0.0000  1024.0000 </r>
       <r>     4.6267     0.0000  1024.0000 </r>
       <r>     4.7133     0.0000  1024.0000 </r>
       <r>     4.7999     0.0000  1024.0000 </r>
       <r>     4.8865     0.0000  1024.0000 </r>
       <r>     4.9731     0.0000  1024.0000 </r>
       <r>     5.0597     0.0000  1024.0000 </r>
       <r>     5.1463     0.0000  1024.0000 </r>
       <r>     5.2329     0.0000  1024.0000 </r>
       <r>     5.3195     0.0000  1024.0000 </r>
      </set>
     </set>
    </array>
   </total>
  </dos>
 </calculation>
 <structure name="finalpos" >
  <crystal>
   <varray name="basis" >
    <v>       0.00000000     -17.18057346       0.00000000 </v>
    <v>       0.00000000      -8.59028673     -14.87881307 </v>
    <v>      30.00000000       0.00000000       0.00000000 </v>
   </varray>
   <i name="volume">   7668.79622957 </i>
   <varray name="rec_basis" >
    <v>       0.00000000      -0.05820527       0.03360483 </v>
    <v>       0.00000000       0.00000000      -0.06720966 </v>
    <v>       0.03333333       0.00000000       0.00000000 </v>
   </varray>
  </crystal>
  <varray name="positions" >
   <v>       0.44725192       0.61365653       0.54278301 </v>
   <v>       0.61636245       0.44154515       0.54103981 </v>
   <v>       0.78007571       0.27608741       0.54137988 </v>
   <v>       0.94460196       0.11101832       0.54080597 </v>
   <v>       0.94559196       0.27693641       0.54074426 </v>
   <v>       0.94444448       0.44398522       0.54077328 </v>
   <v>       0.77736007       0.61157642       0.54075222 </v>
   <v>       0.61110141       0.77762093       0.54091634 </v>
   <v>       0.44504373       0.94383427       0.54070930 </v>
   <v>       0.61153283       0.94403524       0.54046661 </v>
   <v>       0.77766413       0.94396172       0.54050905 </v>
   <v>       0.94439704       0.77752899       0.54088783 </v>
   <v>       0.94412688       0.61147406       0.54070149 </v>
   <v>       0.83300364       0.66706843       0.46324427 </v>
   <v>       0.66697978       0.83347543       0.46317143 </v>
   <v>       0.72225227       0.88876852       0.38803671 </v>
   <v>       0.88897939       0.72234619       0.38786187 </v>
   <v>       0.94428722       0.77782389       0.31160981 </v>
   <v>       0.77780912       0.94431337       0.31152680 </v>
   <v>       0.94444194       0.94438177       0.31159240 </v>
   <v>       0.88911720       0.88847395       0.38788269 </v>
   <v>       0.83278205       0.83349775       0.46317736 </v>
   <v>       0.77754121       0.77810497       0.54045077 </v>
   <v>       0.77998494       0.44353143       0.54134897 </v>
   <v>       0.67020562       0.49930511       0.46373164 </v>
   <v>       0.83498092       0.33231303       0.46363379 </v>
   <v>       0.88932813       0.38857262       0.38796029 </v>
   <v>       0.72231301       0.55552583       0.38784946 </v>
   <v>       0.77774174       0.61124709       0.31156408 </v>
   <v>       0.61113708       0.77783380       0.31162078 </v>
   <v>       0.66690728       0.83351715       0.23518958 </v>
   <v>       0.83304666       0.66725605       0.23525596 </v>
   <v>       0.88863447       0.72289337       0.15968884 </v>
   <v>       0.72222223       0.88889231       0.15968589 </v>
   <v>       0.77777143       0.94435452       0.08258119 </v>
   <v>       0.94423225       0.77788764       0.08242417 </v>
   <v>       0.94419669       0.94457409       0.08254925 </v>
   <v>       0.88865234       0.88851264       0.15969682 </v>
   <v>       0.83295182       0.83356255       0.23517526 </v>
   <v>       0.77771082       0.77787492       0.31150588 </v>
   <v>       0.72179728       0.72231079       0.38787585 </v>
   <v>       0.66686650       0.66680508       0.46336278 </v>
   <v>       0.55539806       0.72196364       0.38808063 </v>
   <v>       0.50025555       0.83340302       0.46334965 </v>
   <v>       0.33287001       0.83664963       0.46374138 </v>
   <v>       0.27509215       0.78274806       0.54108742 </v>
   <v>       0.10964616       0.94644398       0.54139367 </v>
   <v>       0.27704425       0.94639553       0.54139671 </v>
   <v>       0.44396860       0.77897551       0.54176174 </v>
   <v>       0.50049082       0.66695483       0.46417047 </v>
   <v>       0.61255925       0.61040666       0.54177549 </v>
   <v>       0.61124360       0.94430170       0.31154944 </v>
   <v>       0.44460861       0.94434543       0.31154745 </v>
   <v>       0.38890863       0.88893345       0.38784905 </v>
   <v>       0.38791429       0.72346856       0.38785668 </v>
   <v>       0.22171520       0.72340670       0.38789132 </v>
   <v>       0.05543070       0.88891843       0.38793379 </v>
   <v>      -0.00052679       0.83340477       0.46337196 </v>
   <v>       0.16558419       0.66690667       0.46417305 </v>
   <v>       0.27190723       0.61372603       0.54277162 </v>
   <v>       0.10995530       0.61023393       0.54173688 </v>
   <v>       0.27502531       0.44142489       0.54105226 </v>
   <v>       0.44389925       0.27640884       0.54174304 </v>
   <v>       0.61114044       0.11080321       0.54092819 </v>
   <v>       0.66699167       0.16591493       0.46340994 </v>
   <v>       0.83316837      -0.00038529       0.46327775 </v>
   <v>       0.88893350       0.05540811       0.38778587 </v>
   <v>       0.72242909       0.22183970       0.38787772 </v>
   <v>       0.77790156       0.27753484       0.31152513 </v>
   <v>       0.61186217       0.44398978       0.31133572 </v>
   <v>       0.66664610       0.50014971       0.23522479 </v>
   <v>       0.50030109       0.66697719       0.23492757 </v>
   <v>       0.55608679       0.72267344       0.15972168 </v>
   <v>       0.38909589       0.88889284       0.15976857 </v>
   <v>       0.33346998       0.83332895       0.23522339 </v>
   <v>       0.27737579       0.77849859       0.31133788 </v>
   <v>       0.11091867       0.94449337       0.31156106 </v>
   <v>       0.27791943       0.94443758       0.31151606 </v>
   <v>       0.22140841       0.89039687       0.38807380 </v>
   <v>       0.16364220       0.83668321       0.46377897 </v>
   <v>       0.10992019       0.77912928       0.54180551 </v>
   <v>       0.94430178       0.61123121       0.31154804 </v>
   <v>       0.94443673       0.44442309       0.31166498 </v>
   <v>       0.94461381       0.27768700       0.31193297 </v>
   <v>       0.94451508       0.11108345       0.31167175 </v>
   <v>       0.83322213       0.16644118       0.23562766 </v>
   <v>       0.66682332       0.16614415       0.23548697 </v>
   <v>       0.50037124       0.33259283       0.23494309 </v>
   <v>       0.55608812       0.38834302       0.15990772 </v>
   <v>       0.38887243       0.55555320       0.16055974 </v>
   <v>       0.44437617       0.61097451       0.08308825 </v>
   <v>       0.61133051       0.44431844       0.08279803 </v>
   <v>       0.77806865       0.27756286       0.08290943 </v>
   <v>       0.72220351       0.22200197       0.15982831 </v>
   <v>       0.72185061       0.05527888       0.15974176 </v>
   <v>       0.88897438       0.05561742       0.15999314 </v>
   <v>       0.83312064      -0.00028134       0.23528964 </v>
   <v>       0.77784812       0.11092245       0.31159625 </v>
   <v>       0.61122745       0.11083348       0.31165211 </v>
   <v>       0.55579742       0.05550794       0.38793400 </v>
   <v>       0.50055503      -0.00050392       0.46326258 </v>
   <v>       0.33312023       0.16575107       0.46363513 </v>
   <v>       0.16575600       0.33217707       0.46368375 </v>
   <v>       0.99928433       0.49961036       0.46362022 </v>
   <v>       0.05527694       0.55540355       0.38788214 </v>
   <v>       0.22132485       0.38783691       0.38802793 </v>
   <v>       0.27735972       0.44389760       0.31133604 </v>
   <v>       0.11114565       0.61096154       0.31162677 </v>
   <v>       0.16598454       0.66699528       0.23497191 </v>
   <v>       0.99953400       0.83346319       0.23542991 </v>
   <v>       0.05537650       0.88893809       0.15980100 </v>
   <v>       0.22163173       0.72277699       0.15991158 </v>
   <v>       0.27764930       0.77802334       0.08280972 </v>
   <v>       0.11085452       0.94475791       0.08291859 </v>
   <v>       0.27776357       0.94464700       0.08288051 </v>
   <v>       0.44455449       0.94453678       0.08253767 </v>
   <v>       0.61118252       0.77788935       0.08240980 </v>
   <v>       0.77792170       0.61121047       0.08254060 </v>
   <v>       0.72219291       0.55583287       0.15979610 </v>
   <v>       0.83318611       0.50041925       0.23560567 </v>
   <v>       0.88933961       0.38845916       0.16035337 </v>
   <v>       0.83365740       0.33321128       0.23558489 </v>
   <v>       0.72288201       0.38857283       0.16003402 </v>
   <v>       0.66667884       0.33315417       0.23525784 </v>
   <v>       0.61108329       0.27777011       0.31164642 </v>
   <v>       0.55546363       0.22223565       0.38811196 </v>
   <v>       0.44440290       0.27769120       0.31158888 </v>
   <v>       0.38789983       0.38817811       0.38786654 </v>
   <v>       0.50051361       0.33201817       0.46416471 </v>
   <v>       0.32799655       0.49436086       0.46516538 </v>
   <v>       0.38886164       0.55536730       0.38303781 </v>
   <v>       0.44487551       0.61155017       0.31047168 </v>
   <v>       0.27671197       0.61152158       0.31047944 </v>
   <v>       0.33317376       0.49980969       0.23491374 </v>
   <v>       0.16649897       0.50013369       0.23522323 </v>
   <v>      -0.00026927       0.50041500       0.23560481 </v>
   <v>       0.16654156       0.33315179       0.23556297 </v>
   <v>       0.22184871       0.38859779       0.16002413 </v>
   <v>       0.38917315       0.22198175       0.15977690 </v>
   <v>       0.55626770       0.05524418       0.15971286 </v>
   <v>       0.50067252      -0.00037068       0.23525563 </v>
   <v>       0.33376028       0.16637748       0.23559589 </v>
   <v>       0.27792142       0.27742532       0.31150134 </v>
   <v>       0.11101865       0.27764637       0.31193679 </v>
   <v>       0.05557694       0.22207686       0.38805037 </v>
   <v>       0.00018169       0.16663064       0.46347181 </v>
   <v>       0.16586199       0.00149564       0.46366728 </v>
   <v>       0.22194650       0.05595400       0.38796827 </v>
   <v>       0.27778196       0.11103267       0.31166904 </v>
   <v>       0.38903073       0.05533047       0.38776021 </v>
   <v>       0.38892649       0.22174333       0.38784263 </v>
   <v>       0.50028704       0.16583451       0.46337497 </v>
   <v>       0.44503357       0.11050826       0.54073396 </v>
   <v>       0.27745915       0.11091379       0.54087913 </v>
   <v>       0.11033484       0.27680834       0.54083487 </v>
   <v>       0.27694535       0.27582055       0.54142512 </v>
   <v>       0.10941219       0.44334336       0.54140953 </v>
   <v>       0.16353661       0.49911788       0.46374597 </v>
   <v>       0.33271544       0.32992357       0.46372567 </v>
   <v>       0.50025987       0.49980005       0.23493097 </v>
   <v>       0.44488980       0.44332247       0.31046840 </v>
   <v>       0.72194436       0.05560203       0.38790866 </v>
   <v>       0.66709533      -0.00082921       0.46321695 </v>
   <v>       0.83408197       0.49966633       0.46359573 </v>
   <v>       0.88876432       0.55561096       0.38775683 </v>
   <v>       0.44422741       0.77811601       0.08262148 </v>
   <v>       0.38885375       0.72275012       0.15987771 </v>
   <v>       0.33315733       0.66691864       0.23491792 </v>
   <v>       0.16650241       0.83334410       0.23526220 </v>
   <v>       0.11114503       0.77772151       0.31165529 </v>
   <v>       0.05581676       0.72189531       0.38809696 </v>
   <v>      -0.00061335       0.66673182       0.46333449 </v>
   <v>       0.61144011       0.61091067       0.08259802 </v>
   <v>       0.55606274       0.55553755       0.15989758 </v>
   <v>       0.22181680       0.88962947       0.16005173 </v>
   <v>       0.77803850       0.44439847       0.08288698 </v>
   <v>       0.94457324       0.44425933       0.08298710 </v>
   <v>       0.94419799       0.61127161       0.08251953 </v>
   <v>       0.88897006       0.55547264       0.15995091 </v>
   <v>       0.72181891       0.72290043       0.15972170 </v>
   <v>       0.66674580       0.66703241       0.23545754 </v>
   <v>       0.61102617       0.61099291       0.31160783 </v>
   <v>       0.55688585       0.55449181       0.38788742 </v>
   <v>       0.51049717       0.49448667       0.46514077 </v>
   <v>       0.55686375       0.38823502       0.38787609 </v>
   <v>       0.72380613       0.38796257       0.38804501 </v>
   <v>       0.67025050       0.33005866       0.46373120 </v>
   <v>       0.61271961       0.27639453       0.54180020 </v>
   <v>       0.77757631       0.11056054       0.54084057 </v>
   <v>       0.83419925       0.16587040       0.46364732 </v>
   <v>       0.88941676       0.22186341       0.38796739 </v>
   <v>       0.94455680       0.27775089       0.08302635 </v>
   <v>       0.94454726       0.11122397       0.08301414 </v>
   <v>       0.88934046       0.22228468       0.16037353 </v>
   <v>       0.50037539       0.83341381       0.23540680 </v>
   <v>       0.44437230       0.77769018       0.31158049 </v>
   <v>       0.77774717       0.77784651       0.08257067 </v>
   <v>       0.61119825       0.94435320       0.08254693 </v>
   <v>       0.55622482       0.88851238       0.15970526 </v>
   <v>       0.77798360       0.11081727       0.08257773 </v>
   <v>       0.61123775       0.11083601       0.08242098 </v>
   <v>       0.44432158       0.27758735       0.08263037 </v>
   <v>       0.27773020       0.44432242       0.08280583 </v>
   <v>       0.11094265       0.61094031       0.08260204 </v>
   <v>       0.05536652       0.55575833       0.15977429 </v>
   <v>       0.05466841       0.72269383       0.15971615 </v>
   <v>       0.99951066       0.66707281       0.23541196 </v>
   <v>       0.61150567       0.27756420       0.08262909 </v>
   <v>       0.55614546       0.22118678       0.15973504 </v>
   <v>       0.50046588       0.16606876       0.23542227 </v>
   <v>       0.44465931       0.11082632       0.31154822 </v>
   <v>       0.38891907       0.38833888       0.15987269 </v>
   <v>       0.33350514       0.33312344       0.23521614 </v>
   <v>       0.44443440       0.44460534       0.08309265 </v>
   <v>       0.27798621       0.61102711       0.08310533 </v>
   <v>       0.22166537       0.55560051       0.15990106 </v>
   <v>       0.11090705       0.77821244       0.08262070 </v>
   <v>       0.66694304       0.99953399       0.23521107 </v>
   <v>       0.77784567       0.44452363       0.31151031 </v>
   <v>       0.11083153       0.44450088       0.31151802 </v>
   <v>       0.05526508       0.38851763       0.38800321 </v>
   <v>       0.00012123       0.33276090       0.46347889 </v>
   <v>       0.16627266       0.16662165       0.46353098 </v>
   <v>       0.11043179       0.11207788       0.54081929 </v>
   <v>       0.55571241       0.88845928       0.38789335 </v>
   <v>       0.22169641       0.55438750       0.38788446 </v>
   <v>       0.22194769       0.22176525       0.38799485 </v>
   <v>       0.32804063       0.67699248       0.46515489 </v>
   <v>       0.33310880       0.00063345       0.46360732 </v>
   <v>       0.44732605       0.43835603       0.54276557 </v>
   <v>       0.11091158       0.44445477       0.08289304 </v>
   <v>       0.11104318       0.27777419       0.08305589 </v>
   <v>       0.05559932       0.22225332       0.16040541 </v>
   <v>       0.00017586       0.16687024       0.23609827 </v>
   <v>       0.16652818       0.00034194       0.23559141 </v>
   <v>       0.22175003       0.05600670       0.16034553 </v>
   <v>       0.27760425       0.11122970       0.08302197 </v>
   <v>       0.38881863       0.05560389       0.15997117 </v>
   <v>       0.33371797      -0.00014459       0.23560399 </v>
   <v>       0.16643314       0.16681829       0.23606199 </v>
   <v>       0.11103968       0.11124583       0.31192872 </v>
   <v>       0.05536975       0.05590557       0.38800789 </v>
   <v>       0.99942739       0.00063680       0.46365108 </v>
   <v>       0.27781799       0.27761040       0.08289144 </v>
   <v>       0.22176927       0.22229173       0.16033430 </v>
   <v>       0.05560868       0.38845196       0.16036455 </v>
   <v>       0.00015980       0.33309462       0.23608704 </v>
   <v>       0.44461011       0.11082650       0.08254612 </v>
   <v>       0.11101039       0.11127351       0.08306835 </v>
   <v>       0.05561647       0.05600307       0.16039683 </v>
   <v>      -0.00021198      -0.00011307       0.23563071 </v>
   <v>       0.94425212       0.94388835       0.54075109 </v>
   <v>       0.38879572       0.55537758       0.44614071 </v>
   <v>       0.38880056       0.55527051       0.56546370 </v>
  </varray>
 </structure>
</modeling>
