 254 254   0   0
  0.3019211E+02  0.1718057E-08  0.1718057E-08  0.3000000E-08  0.5000000E-15
   1.0000000000000000E-004
  CAR 
 NiAl                                    
      5.70079911    -27.89440674  301      1.81887375      1.00000000
    -27.894  0.0000E+00  0.0000E+00
    -27.782  0.0000E+00  0.0000E+00
    -27.670  0.0000E+00  0.0000E+00
    -27.558  0.0000E+00  0.0000E+00
    -27.446  0.0000E+00  0.0000E+00
    -27.334  0.0000E+00  0.0000E+00
    -27.223  0.0000E+00  0.0000E+00
    -27.111  0.0000E+00  0.0000E+00
    -26.999  0.0000E+00  0.0000E+00
    -26.887  0.0000E+00  0.0000E+00
    -26.775  0.0000E+00  0.0000E+00
    -26.663  0.9914E-15  0.1110E-15
    -26.551  0.1854E-05  0.2076E-06
    -26.439  0.3828E+00  0.4286E-01
    -26.327  0.1521E+02  0.1747E+01
    -26.215  0.2262E+01  0.2000E+01
    -26.103  0.1460E-03  0.2000E+01
    -25.991  0.6791E-12  0.2000E+01
    -25.879  0.0000E+00  0.2000E+01
    -25.767  0.0000E+00  0.2000E+01
    -25.655  0.0000E+00  0.2000E+01
    -25.543  0.0000E+00  0.2000E+01
    -25.431  0.0000E+00  0.2000E+01
    -25.319  0.0000E+00  0.2000E+01
    -25.207  0.0000E+00  0.2000E+01
    -25.095  0.0000E+00  0.2000E+01
    -24.983  0.0000E+00  0.2000E+01
    -24.871  0.0000E+00  0.2000E+01
    -24.759  0.0000E+00  0.2000E+01
    -24.647  0.0000E+00  0.2000E+01
    -24.535  0.0000E+00  0.2000E+01
    -24.423  0.0000E+00  0.2000E+01
    -24.311  0.0000E+00  0.2000E+01
    -24.199  0.0000E+00  0.2000E+01
    -24.087  0.0000E+00  0.2000E+01
    -23.975  0.0000E+00  0.2000E+01
    -23.863  0.0000E+00  0.2000E+01
    -23.751  0.0000E+00  0.2000E+01
    -23.639  0.0000E+00  0.2000E+01
    -23.527  0.0000E+00  0.2000E+01
    -23.415  0.0000E+00  0.2000E+01
    -23.303  0.0000E+00  0.2000E+01
    -23.191  0.0000E+00  0.2000E+01
    -23.079  0.0000E+00  0.2000E+01
    -22.967  0.0000E+00  0.2000E+01
    -22.855  0.0000E+00  0.2000E+01
    -22.743  0.0000E+00  0.2000E+01
    -22.631  0.0000E+00  0.2000E+01
    -22.519  0.0000E+00  0.2000E+01
    -22.407  0.0000E+00  0.2000E+01
    -22.295  0.0000E+00  0.2000E+01
    -22.183  0.0000E+00  0.2000E+01
    -22.071  0.0000E+00  0.2000E+01
    -21.959  0.0000E+00  0.2000E+01
    -21.847  0.0000E+00  0.2000E+01
    -21.735  0.0000E+00  0.2000E+01
    -21.623  0.0000E+00  0.2000E+01
    -21.511  0.0000E+00  0.2000E+01
    -21.399  0.0000E+00  0.2000E+01
    -21.287  0.0000E+00  0.2000E+01
    -21.175  0.0000E+00  0.2000E+01
    -21.063  0.0000E+00  0.2000E+01
    -20.951  0.0000E+00  0.2000E+01
    -20.839  0.0000E+00  0.2000E+01
    -20.727  0.0000E+00  0.2000E+01
    -20.615  0.0000E+00  0.2000E+01
    -20.503  0.0000E+00  0.2000E+01
    -20.391  0.0000E+00  0.2000E+01
    -20.279  0.0000E+00  0.2000E+01
    -20.168  0.0000E+00  0.2000E+01
    -20.056  0.0000E+00  0.2000E+01
    -19.944  0.0000E+00  0.2000E+01
    -19.832  0.0000E+00  0.2000E+01
    -19.720  0.0000E+00  0.2000E+01
    -19.608  0.0000E+00  0.2000E+01
    -19.496  0.0000E+00  0.2000E+01
    -19.384  0.0000E+00  0.2000E+01
    -19.272  0.0000E+00  0.2000E+01
    -19.160  0.0000E+00  0.2000E+01
    -19.048  0.0000E+00  0.2000E+01
    -18.936  0.0000E+00  0.2000E+01
    -18.824  0.0000E+00  0.2000E+01
    -18.712  0.0000E+00  0.2000E+01
    -18.600  0.0000E+00  0.2000E+01
    -18.488  0.0000E+00  0.2000E+01
    -18.376  0.0000E+00  0.2000E+01
    -18.264  0.0000E+00  0.2000E+01
    -18.152  0.0000E+00  0.2000E+01
    -18.040  0.0000E+00  0.2000E+01
    -17.928  0.0000E+00  0.2000E+01
    -17.816  0.0000E+00  0.2000E+01
    -17.704  0.0000E+00  0.2000E+01
    -17.592  0.0000E+00  0.2000E+01
    -17.480  0.0000E+00  0.2000E+01
    -17.368  0.0000E+00  0.2000E+01
    -17.256  0.0000E+00  0.2000E+01
    -17.144  0.0000E+00  0.2000E+01
    -17.032  0.0000E+00  0.2000E+01
    -16.920  0.0000E+00  0.2000E+01
    -16.808  0.0000E+00  0.2000E+01
    -16.696  0.0000E+00  0.2000E+01
    -16.584  0.0000E+00  0.2000E+01
    -16.472  0.0000E+00  0.2000E+01
    -16.360  0.0000E+00  0.2000E+01
    -16.248  0.0000E+00  0.2000E+01
    -16.136  0.0000E+00  0.2000E+01
    -16.024  0.0000E+00  0.2000E+01
    -15.912  0.0000E+00  0.2000E+01
    -15.800  0.0000E+00  0.2000E+01
    -15.688  0.0000E+00  0.2000E+01
    -15.576  0.0000E+00  0.2000E+01
    -15.464  0.0000E+00  0.2000E+01
    -15.352  0.0000E+00  0.2000E+01
    -15.240  0.2894E-08  0.2000E+01
    -15.128  0.1618E-01  0.2002E+01
    -15.016  0.9255E+01  0.3038E+01
    -14.904  0.8577E+01  0.3999E+01
    -14.792  0.1164E-01  0.4000E+01
    -14.680  0.1554E-08  0.4000E+01
    -14.568  0.0000E+00  0.4000E+01
    -14.456  0.0000E+00  0.4000E+01
    -14.344  0.0000E+00  0.4000E+01
    -14.232  0.0000E+00  0.4000E+01
    -14.120  0.0000E+00  0.4000E+01
    -14.008  0.0000E+00  0.4000E+01
    -13.896  0.0000E+00  0.4000E+01
    -13.784  0.0000E+00  0.4000E+01
    -13.672  0.0000E+00  0.4000E+01
    -13.560  0.0000E+00  0.4000E+01
    -13.448  0.0000E+00  0.4000E+01
    -13.336  0.0000E+00  0.4000E+01
    -13.225  0.0000E+00  0.4000E+01
    -13.113  0.0000E+00  0.4000E+01
    -13.001  0.0000E+00  0.4000E+01
    -12.889  0.0000E+00  0.4000E+01
    -12.777  0.0000E+00  0.4000E+01
    -12.665  0.0000E+00  0.4000E+01
    -12.553  0.0000E+00  0.4000E+01
    -12.441  0.0000E+00  0.4000E+01
    -12.329  0.0000E+00  0.4000E+01
    -12.217  0.0000E+00  0.4000E+01
    -12.105  0.0000E+00  0.4000E+01
    -11.993  0.0000E+00  0.4000E+01
    -11.881  0.0000E+00  0.4000E+01
    -11.769  0.0000E+00  0.4000E+01
    -11.657  0.0000E+00  0.4000E+01
    -11.545  0.0000E+00  0.4000E+01
    -11.433  0.0000E+00  0.4000E+01
    -11.321  0.0000E+00  0.4000E+01
    -11.209  0.0000E+00  0.4000E+01
    -11.097  0.0000E+00  0.4000E+01
    -10.985  0.0000E+00  0.4000E+01
    -10.873  0.0000E+00  0.4000E+01
    -10.761  0.0000E+00  0.4000E+01
    -10.649  0.0000E+00  0.4000E+01
    -10.537  0.0000E+00  0.4000E+01
    -10.425  0.0000E+00  0.4000E+01
    -10.313  0.0000E+00  0.4000E+01
    -10.201  0.0000E+00  0.4000E+01
    -10.089  0.0000E+00  0.4000E+01
     -9.977  0.0000E+00  0.4000E+01
     -9.865  0.0000E+00  0.4000E+01
     -9.753  0.0000E+00  0.4000E+01
     -9.641  0.0000E+00  0.4000E+01
     -9.529  0.0000E+00  0.4000E+01
     -9.417  0.2311E-10  0.4000E+01
     -9.305  0.7096E-03  0.4000E+01
     -9.193  0.3023E+01  0.4339E+01
     -9.081  0.1554E+02  0.6079E+01
     -8.969  0.6342E+01  0.6789E+01
     -8.857  0.2285E+02  0.9348E+01
     -8.745  0.2261E+01  0.9601E+01
     -8.633  0.9314E+01  0.1064E+02
     -8.521  0.4188E+02  0.1533E+02
     -8.409  0.3314E+02  0.1904E+02
     -8.297  0.1825E+02  0.2109E+02
     -8.185  0.2299E+02  0.2366E+02
     -8.073  0.1809E+02  0.2569E+02
     -7.961  0.2939E+02  0.2898E+02
     -7.849  0.6327E+02  0.3607E+02
     -7.737  0.3875E+01  0.3650E+02
     -7.625  0.1604E+02  0.3830E+02
     -7.513  0.8499E+02  0.4781E+02
     -7.401  0.2335E+02  0.5043E+02
     -7.289  0.1530E+02  0.5214E+02
     -7.177  0.3962E+02  0.5658E+02
     -7.065  0.4433E+02  0.6154E+02
     -6.953  0.4462E+02  0.6654E+02
     -6.841  0.7380E+02  0.7481E+02
     -6.729  0.3922E+02  0.7920E+02
     -6.617  0.4211E+02  0.8391E+02
     -6.505  0.7794E+02  0.9264E+02
     -6.393  0.2844E+02  0.9583E+02
     -6.281  0.1652E+01  0.9601E+02
     -6.170  0.7694E+01  0.9687E+02
     -6.058  0.9976E+02  0.1080E+03
     -5.946  0.8746E+02  0.1178E+03
     -5.834  0.5155E+02  0.1236E+03
     -5.722  0.3407E+02  0.1274E+03
     -5.610  0.8651E+02  0.1371E+03
     -5.498  0.6628E+02  0.1445E+03
     -5.386  0.2491E+02  0.1473E+03
     -5.274  0.5148E+02  0.1531E+03
     -5.162  0.3849E+02  0.1574E+03
     -5.050  0.8141E+02  0.1665E+03
     -4.938  0.8027E+02  0.1755E+03
     -4.826  0.2342E+02  0.1781E+03
     -4.714  0.4303E+02  0.1829E+03
     -4.602  0.1209E+03  0.1965E+03
     -4.490  0.5532E+02  0.2027E+03
     -4.378  0.4268E+02  0.2075E+03
     -4.266  0.5759E+02  0.2139E+03
     -4.154  0.8495E+02  0.2234E+03
     -4.042  0.1077E+03  0.2355E+03
     -3.930  0.7472E+02  0.2439E+03
     -3.818  0.4603E+02  0.2490E+03
     -3.706  0.6976E+02  0.2568E+03
     -3.594  0.9185E+02  0.2671E+03
     -3.482  0.5561E+02  0.2733E+03
     -3.370  0.3409E+02  0.2772E+03
     -3.258  0.1586E+02  0.2789E+03
     -3.146  0.8870E+02  0.2889E+03
     -3.034  0.1013E+03  0.3002E+03
     -2.922  0.8250E+02  0.3094E+03
     -2.810  0.1295E+03  0.3239E+03
     -2.698  0.1757E+03  0.3436E+03
     -2.586  0.4762E+02  0.3490E+03
     -2.474  0.7511E+01  0.3498E+03
     -2.362  0.5331E+02  0.3558E+03
     -2.250  0.1139E+03  0.3685E+03
     -2.138  0.7996E+02  0.3775E+03
     -2.026  0.9529E+02  0.3881E+03
     -1.914  0.5203E+02  0.3940E+03
     -1.802  0.1028E+03  0.4055E+03
     -1.690  0.1346E+03  0.4206E+03
     -1.578  0.4217E+02  0.4253E+03
     -1.466  0.8185E+02  0.4344E+03
     -1.354  0.7458E+02  0.4428E+03
     -1.242  0.1593E+03  0.4606E+03
     -1.130  0.1115E+03  0.4731E+03
     -1.018  0.8150E+02  0.4822E+03
     -0.906  0.7254E+02  0.4904E+03
     -0.794  0.1313E+03  0.5051E+03
     -0.682  0.8629E+02  0.5147E+03
     -0.570  0.4872E+02  0.5202E+03
     -0.458  0.7647E+02  0.5288E+03
     -0.346  0.1828E+03  0.5492E+03
     -0.234  0.1036E+03  0.5608E+03
     -0.122  0.9755E+02  0.5717E+03
     -0.010  0.5589E+02  0.5780E+03
      0.102  0.8730E+02  0.5878E+03
      0.214  0.7278E+02  0.5959E+03
      0.326  0.1000E+03  0.6071E+03
      0.438  0.7496E+02  0.6155E+03
      0.550  0.1367E+03  0.6308E+03
      0.662  0.6795E+02  0.6384E+03
      0.774  0.5970E+02  0.6451E+03
      0.885  0.5466E+02  0.6512E+03
      0.997  0.1659E+03  0.6698E+03
      1.109  0.1855E+03  0.6906E+03
      1.221  0.1049E+03  0.7023E+03
      1.333  0.6740E+02  0.7099E+03
      1.445  0.7865E+02  0.7187E+03
      1.557  0.1090E+03  0.7309E+03
      1.669  0.1656E+03  0.7495E+03
      1.781  0.1418E+03  0.7653E+03
      1.893  0.4903E+02  0.7708E+03
      2.005  0.1168E+03  0.7839E+03
      2.117  0.1189E+03  0.7972E+03
      2.229  0.8841E+02  0.8071E+03
      2.341  0.6400E+02  0.8143E+03
      2.453  0.9170E+02  0.8246E+03
      2.565  0.8911E+02  0.8345E+03
      2.677  0.1405E+03  0.8503E+03
      2.789  0.7788E+02  0.8590E+03
      2.901  0.9372E+02  0.8695E+03
      3.013  0.2848E+03  0.9014E+03
      3.125  0.1332E+03  0.9163E+03
      3.237  0.6359E+02  0.9234E+03
      3.349  0.1092E+03  0.9356E+03
      3.461  0.1375E+03  0.9510E+03
      3.573  0.1159E+03  0.9640E+03
      3.685  0.8487E+02  0.9735E+03
      3.797  0.1031E+03  0.9851E+03
      3.909  0.8051E+02  0.9941E+03
      4.021  0.1595E+03  0.1012E+04
      4.133  0.9180E+02  0.1022E+04
      4.245  0.1567E+02  0.1024E+04
      4.357  0.1972E+00  0.1024E+04
      4.469  0.7179E-06  0.1024E+04
      4.581  0.0000E+00  0.1024E+04
      4.693  0.0000E+00  0.1024E+04
      4.805  0.0000E+00  0.1024E+04
      4.917  0.0000E+00  0.1024E+04
      5.029  0.0000E+00  0.1024E+04
      5.141  0.0000E+00  0.1024E+04
      5.253  0.0000E+00  0.1024E+04
      5.365  0.0000E+00  0.1024E+04
      5.477  0.0000E+00  0.1024E+04
      5.589  0.0000E+00  0.1024E+04
      5.701  0.0000E+00  0.1024E+04
