LAMMPS (24 Mar 2022)
OMP_NUM_THREADS environment is not set. Defaulting to 1 thread. (src/comm.cpp:98)
  using 1 OpenMP thread(s) per MPI task
Reading data file ...
  orthogonal box = (0 0 0) to (16.198 16.198 16.198)
  1 by 1 by 1 MPI processor grid
  reading atoms ...
  256 atoms
  read_data CPU = 0.001 seconds
WARNING: Using 'neigh_modify every 1 delay 0 check yes' setting during minimization (src/min.cpp:187)
Neighbor list info ...
  update every 1 steps, delay 0 steps, check yes
  max neighbors/atom: 2000, page size: 100000
  master list distance cutoff = 8.28721
  ghost atom cutoff = 8.28721
  binsize = 4.143605, bins = 4 4 4
  1 neighbor lists, perpetual/occasional/extra = 1 0 0
  (1) pair eam/alloy, perpetual
      attributes: half, newton on
      pair build: half/bin/atomonly/newton
      stencil: half/bin/3d
      bin: standard
Setting up cg style minimization ...
  Unit style    : metal
  Current step  : 0
Per MPI rank memory allocation (min/avg/max) = 4.536 | 4.536 | 4.536 Mbytes
   Step          Temp          E_pair         E_mol          TotEng         Press     
         0   0             -859.7768       0             -859.7768       521.60793    
Loop time of 3.017e-06 on 1 procs for 0 steps with 256 atoms

99.4% CPU use with 1 MPI tasks x 1 OpenMP threads

Minimization stats:
  Stopping criterion = max iterations
  Energy initial, next-to-last, final = 
     -859.776799325802                  0  -859.776799325802
  Force two-norm initial, final = 1.8460594 1.8460594
  Force max component initial, final = 1.3119056 1.3119056
  Final line search alpha, max atom move = 0 0
  Iterations, force evaluations = 0 0

MPI task timing breakdown:
Section |  min time  |  avg time  |  max time  |%varavg| %total
---------------------------------------------------------------
Pair    | 0          | 0          | 0          |   0.0 |  0.00
Neigh   | 0          | 0          | 0          |   0.0 |  0.00
Comm    | 0          | 0          | 0          |   0.0 |  0.00
Output  | 0          | 0          | 0          |   0.0 |  0.00
Modify  | 0          | 0          | 0          |   0.0 |  0.00
Other   |            | 3.017e-06  |            |       |100.00

Nlocal:            256 ave         256 max         256 min
Histogram: 1 0 0 0 0 0 0 0 0 0
Nghost:           2201 ave        2201 max        2201 min
Histogram: 1 0 0 0 0 0 0 0 0 0
Neighs:          17922 ave       17922 max       17922 min
Histogram: 1 0 0 0 0 0 0 0 0 0

Total # of neighbors = 17922
Ave neighs/atom = 70.007812
Neighbor list builds = 0
Dangerous builds = 0
Setting up Verlet run ...
  Unit style    : metal
  Current step  : 0
  Time step     : 0.01
Per MPI rank memory allocation (min/avg/max) = 4.421 | 4.421 | 4.421 Mbytes
   Step          Temp          E_pair         E_mol          TotEng         Press     
         0   300           -859.7768       0             -849.8884       3006.8059    
       100   143.96499     -854.42568      0             -849.6804       4774.1997    
       200   162.18562     -855.04949      0             -849.70363      4552.0408    
       300   166.69585     -855.20617      0             -849.71166      4518.3342    
       400   162.93119     -855.07598      0             -849.70555      4562.1242    
       500   162.27652     -855.03669      0             -849.68784      4534.4852    
       600   157.87851     -854.89383      0             -849.68994      4518.283     
       700   154.52428     -854.78402      0             -849.69069      4475.9732    
       800   148.06885     -854.56638      0             -849.68583      4713.3391    
       900   149.72407     -854.6174       0             -849.6823       4380.9375    
      1000   161.29535     -855.01885      0             -849.70234      4444.0299    
      1100   160.68881     -854.99786      0             -849.70134      4546.5109    
      1200   160.51119     -854.9865       0             -849.69584      4447.8175    
      1300   160.57894     -854.98376      0             -849.69086      4435.2884    
      1400   158.12646     -854.91283      0             -849.70077      4637.5045    
      1500   155.29518     -854.79922      0             -849.68048      4575.6361    
      1600   156.17541     -854.84225      0             -849.6945       4458.4153    
      1700   163.8923      -855.09944      0             -849.69733      4454.6455    
      1800   162.57026     -855.05959      0             -849.70105      4336.2867    
      1900   155.28108     -854.80513      0             -849.68686      4506.2164    
      2000   155.20471     -854.81516      0             -849.69941      4549.7824    
      2100   159.93226     -854.96357      0             -849.69199      4579.4362    
      2200   156.5899      -854.85452      0             -849.69311      4492.3503    
      2300   165.26511     -855.14293      0             -849.69557      4266.7594    
      2400   146.86324     -854.51754      0             -849.67673      4673.8911    
      2500   151.31695     -854.6758       0             -849.68819      4483.3359    
      2600   159.58828     -854.95374      0             -849.6935       4532.309     
      2700   155.6472      -854.81988      0             -849.68954      4588.9553    
      2800   156.87129     -854.85682      0             -849.68613      4629.3054    
      2900   163.89659     -855.09476      0             -849.69251      4509.3929    
      3000   147.83929     -854.54799      0             -849.67501      4876.1751    
      3100   166.61445     -855.1906       0             -849.69876      4375.2739    
      3200   149.43373     -854.60684      0             -849.6813       4887.6687    
      3300   156.68286     -854.86575      0             -849.70127      4650.7061    
      3400   158.04209     -854.90877      0             -849.69949      4809.7751    
      3500   150.90001     -854.66587      0             -849.692        4879.6615    
      3600   159.74847     -854.96008      0             -849.69455      4575.572     
      3700   155.59108     -854.82304      0             -849.69455      4561.6546    
      3800   150.89518     -854.6618       0             -849.68809      4889.8589    
      3900   148.63699     -854.58616      0             -849.68688      4828.4568    
      4000   156.66842     -854.86688      0             -849.70288      4515.5857    
      4100   145.67259     -854.48429      0             -849.68273      4712.5933    
      4200   159.75624     -854.96501      0             -849.69923      4414.6924    
      4300   160.35599     -854.98207      0             -849.69652      4564.4021    
      4400   152.84505     -854.73176      0             -849.69378      4737.6827    
      4500   148.23778     -854.56309      0             -849.67697      4787.167     
      4600   154.95379     -854.81389      0             -849.70641      4709.7723    
      4700   146.63358     -854.51051      0             -849.67727      4621.2496    
      4800   156.0565      -854.83773      0             -849.6939       4459.2177    
      4900   155.61828     -854.83143      0             -849.70204      4570.0501    
      5000   148.40089     -854.58212      0             -849.69063      4660.1586    
      5100   153.67365     -854.76005      0             -849.69477      4666.9774    
      5200   143.15077     -854.41505      0             -849.69661      4936.4452    
      5300   153.56782     -854.75751      0             -849.69571      4509.3189    
      5400   165.65547     -855.17647      0             -849.71624      4410.8745    
      5500   140.39963     -854.297        0             -849.66924      4498.9941    
      5600   161.17615     -855.01905      0             -849.70646      4435.2655    
      5700   155.2558      -854.81947      0             -849.70203      4743.4875    
      5800   153.22769     -854.75103      0             -849.70044      4654.8716    
      5900   158.95326     -854.94316      0             -849.70384      4408.3482    
      6000   161.05806     -855.01395      0             -849.70526      4473.255     
      6100   156.26297     -854.84857      0             -849.69793      4604.7642    
      6200   159.458       -854.96363      0             -849.70768      4519.4635    
      6300   167.91646     -855.24142      0             -849.70667      4205.7504    
      6400   167.30784     -855.22785      0             -849.71316      4298.8484    
      6500   152.99968     -854.73776      0             -849.69469      4758.9689    
      6600   161.75251     -855.03274      0             -849.70117      4423.9282    
      6700   159.52251     -854.95217      0             -849.6941       4661.7432    
      6800   155.95044     -854.84367      0             -849.70334      4338.3695    
      6900   162.58031     -855.07035      0             -849.71149      4680.6444    
      7000   155.90274     -854.83919      0             -849.70043      4755.0787    
      7100   160.42683     -854.98558      0             -849.6977       4386.1195    
      7200   157.02669     -854.87665      0             -849.70084      4479.4413    
      7300   153.3752      -854.74317      0             -849.68772      4690.7999    
      7400   159.04889     -854.94557      0             -849.70311      4546.2567    
      7500   157.12942     -854.88258      0             -849.70338      4498.7921    
      7600   163.48274     -855.10022      0             -849.71161      4373.8785    
      7700   161.29728     -855.01952      0             -849.70294      4449.2344    
      7800   161.51907     -855.03458      0             -849.7107       4316.7944    
      7900   162.43231     -855.05504      0             -849.70105      4659.3865    
      8000   157.84324     -854.90145      0             -849.69873      4672.3825    
      8100   162.48746     -855.06371      0             -849.70791      4615.8474    
      8200   155.59749     -854.81974      0             -849.69104      4718.8745    
      8300   150.94225     -854.6613       0             -849.68604      4612.0887    
      8400   161.31677     -855.02296      0             -849.70574      4558.5169    
      8500   152.66666     -854.70394      0             -849.67184      4703.4106    
      8600   148.02344     -854.56825      0             -849.6892       4695.9665    
      8700   153.50162     -854.76373      0             -849.70411      4520.7394    
      8800   157.07912     -854.86763      0             -849.69009      4444.1107    
      8900   152.31479     -854.70126      0             -849.68076      4669.1503    
      9000   150.58131     -854.65252      0             -849.68915      4749.9049    
      9100   158.33408     -854.91442      0             -849.69552      4592.154     
      9200   165.5895      -855.16889      0             -849.71084      4492.9137    
      9300   147.16074     -854.52537      0             -849.67476      4804.7837    
      9400   155.74317     -854.82153      0             -849.68802      4568.6331    
      9500   149.41033     -854.61264      0             -849.68787      4728.791     
      9600   155.89616     -854.82838      0             -849.68983      4412.2425    
      9700   158.9872      -854.93495      0             -849.69452      4476.2221    
      9800   151.35455     -854.6769       0             -849.68805      4465.3627    
      9900   166.93942     -855.21136      0             -849.70881      4523.6251    
     10000   154.62314     -854.79414      0             -849.69755      4729.4902    
Loop time of 5.26642 on 1 procs for 10000 steps with 256 atoms

Performance: 1640.582 ns/day, 0.015 hours/ns, 1898.821 timesteps/s
99.7% CPU use with 1 MPI tasks x 1 OpenMP threads

MPI task timing breakdown:
Section |  min time  |  avg time  |  max time  |%varavg| %total
---------------------------------------------------------------
Pair    | 4.9533     | 4.9533     | 4.9533     |   0.0 | 94.06
Neigh   | 0          | 0          | 0          |   0.0 |  0.00
Comm    | 0.085319   | 0.085319   | 0.085319   |   0.0 |  1.62
Output  | 0.18251    | 0.18251    | 0.18251    |   0.0 |  3.47
Modify  | 0.022186   | 0.022186   | 0.022186   |   0.0 |  0.42
Other   |            | 0.02307    |            |       |  0.44

Nlocal:            256 ave         256 max         256 min
Histogram: 1 0 0 0 0 0 0 0 0 0
Nghost:           2201 ave        2201 max        2201 min
Histogram: 1 0 0 0 0 0 0 0 0 0
Neighs:          17922 ave       17922 max       17922 min
Histogram: 1 0 0 0 0 0 0 0 0 0

Total # of neighbors = 17922
Ave neighs/atom = 70.007812
Neighbor list builds = 0
Dangerous builds = 0
System init for write_restart ...
Total wall time: 0:00:05
