
Host: gadi-login-05.gadi.nci.org.au

Timers On : Thu Sep 22 21:21:21 2022
Timers Off: Thu Sep 22 21:21:23 2022

Wall Time:        2.17 seconds

                                                       Time (seconds)
Module                                       User      System        Wall        Calls

--------------------------------------------------------------------------------------

**************************************************************************************
