   1   1   0   0
  0.3048625E+04  0.1450000E-08  0.1450000E-08  0.1450000E-08  0.5000000E-15
   1.0000000000000000E-004
  CAR 
 NiAl                                    
      1.80054047    -25.23087197  301     -8.96806767      1.00000000
    -25.231  0.0000E+00  0.0000E+00
    -25.141  0.0000E+00  0.0000E+00
    -25.051  0.0000E+00  0.0000E+00
    -24.961  0.0000E+00  0.0000E+00
    -24.870  0.0000E+00  0.0000E+00
    -24.780  0.0000E+00  0.0000E+00
    -24.690  0.0000E+00  0.0000E+00
    -24.600  0.0000E+00  0.0000E+00
    -24.510  0.0000E+00  0.0000E+00
    -24.420  0.0000E+00  0.0000E+00
    -24.330  0.0000E+00  0.0000E+00
    -24.240  0.2007E-09  0.1809E-10
    -24.150  0.3349E-03  0.3018E-04
    -24.060  0.1159E+01  0.1045E+00
    -23.969  0.1710E+02  0.1645E+01
    -23.879  0.3934E+01  0.1999E+01
    -23.789  0.5702E-02  0.2000E+01
    -23.699  0.1912E-07  0.2000E+01
    -23.609  0.0000E+00  0.2000E+01
    -23.519  0.0000E+00  0.2000E+01
    -23.429  0.0000E+00  0.2000E+01
    -23.339  0.0000E+00  0.2000E+01
    -23.249  0.0000E+00  0.2000E+01
    -23.158  0.0000E+00  0.2000E+01
    -23.068  0.0000E+00  0.2000E+01
    -22.978  0.0000E+00  0.2000E+01
    -22.888  0.0000E+00  0.2000E+01
    -22.798  0.0000E+00  0.2000E+01
    -22.708  0.0000E+00  0.2000E+01
    -22.618  0.0000E+00  0.2000E+01
    -22.528  0.0000E+00  0.2000E+01
    -22.438  0.0000E+00  0.2000E+01
    -22.348  0.0000E+00  0.2000E+01
    -22.257  0.0000E+00  0.2000E+01
    -22.167  0.0000E+00  0.2000E+01
    -22.077  0.0000E+00  0.2000E+01
    -21.987  0.0000E+00  0.2000E+01
    -21.897  0.0000E+00  0.2000E+01
    -21.807  0.0000E+00  0.2000E+01
    -21.717  0.0000E+00  0.2000E+01
    -21.627  0.0000E+00  0.2000E+01
    -21.537  0.0000E+00  0.2000E+01
    -21.446  0.0000E+00  0.2000E+01
    -21.356  0.0000E+00  0.2000E+01
    -21.266  0.0000E+00  0.2000E+01
    -21.176  0.0000E+00  0.2000E+01
    -21.086  0.0000E+00  0.2000E+01
    -20.996  0.0000E+00  0.2000E+01
    -20.906  0.0000E+00  0.2000E+01
    -20.816  0.0000E+00  0.2000E+01
    -20.726  0.0000E+00  0.2000E+01
    -20.636  0.0000E+00  0.2000E+01
    -20.545  0.0000E+00  0.2000E+01
    -20.455  0.0000E+00  0.2000E+01
    -20.365  0.0000E+00  0.2000E+01
    -20.275  0.0000E+00  0.2000E+01
    -20.185  0.0000E+00  0.2000E+01
    -20.095  0.0000E+00  0.2000E+01
    -20.005  0.0000E+00  0.2000E+01
    -19.915  0.0000E+00  0.2000E+01
    -19.825  0.0000E+00  0.2000E+01
    -19.734  0.0000E+00  0.2000E+01
    -19.644  0.0000E+00  0.2000E+01
    -19.554  0.0000E+00  0.2000E+01
    -19.464  0.0000E+00  0.2000E+01
    -19.374  0.0000E+00  0.2000E+01
    -19.284  0.0000E+00  0.2000E+01
    -19.194  0.0000E+00  0.2000E+01
    -19.104  0.0000E+00  0.2000E+01
    -19.014  0.0000E+00  0.2000E+01
    -18.924  0.0000E+00  0.2000E+01
    -18.833  0.0000E+00  0.2000E+01
    -18.743  0.0000E+00  0.2000E+01
    -18.653  0.0000E+00  0.2000E+01
    -18.563  0.0000E+00  0.2000E+01
    -18.473  0.0000E+00  0.2000E+01
    -18.383  0.0000E+00  0.2000E+01
    -18.293  0.0000E+00  0.2000E+01
    -18.203  0.0000E+00  0.2000E+01
    -18.113  0.0000E+00  0.2000E+01
    -18.022  0.0000E+00  0.2000E+01
    -17.932  0.0000E+00  0.2000E+01
    -17.842  0.0000E+00  0.2000E+01
    -17.752  0.0000E+00  0.2000E+01
    -17.662  0.0000E+00  0.2000E+01
    -17.572  0.0000E+00  0.2000E+01
    -17.482  0.0000E+00  0.2000E+01
    -17.392  0.0000E+00  0.2000E+01
    -17.302  0.0000E+00  0.2000E+01
    -17.212  0.0000E+00  0.2000E+01
    -17.121  0.0000E+00  0.2000E+01
    -17.031  0.0000E+00  0.2000E+01
    -16.941  0.0000E+00  0.2000E+01
    -16.851  0.0000E+00  0.2000E+01
    -16.761  0.0000E+00  0.2000E+01
    -16.671  0.0000E+00  0.2000E+01
    -16.581  0.0000E+00  0.2000E+01
    -16.491  0.0000E+00  0.2000E+01
    -16.401  0.0000E+00  0.2000E+01
    -16.311  0.0000E+00  0.2000E+01
    -16.220  0.0000E+00  0.2000E+01
    -16.130  0.0000E+00  0.2000E+01
    -16.040  0.0000E+00  0.2000E+01
    -15.950  0.0000E+00  0.2000E+01
    -15.860  0.0000E+00  0.2000E+01
    -15.770  0.0000E+00  0.2000E+01
    -15.680  0.0000E+00  0.2000E+01
    -15.590  0.0000E+00  0.2000E+01
    -15.500  0.0000E+00  0.2000E+01
    -15.409  0.0000E+00  0.2000E+01
    -15.319  0.0000E+00  0.2000E+01
    -15.229  0.0000E+00  0.2000E+01
    -15.139  0.0000E+00  0.2000E+01
    -15.049  0.0000E+00  0.2000E+01
    -14.959  0.0000E+00  0.2000E+01
    -14.869  0.0000E+00  0.2000E+01
    -14.779  0.0000E+00  0.2000E+01
    -14.689  0.0000E+00  0.2000E+01
    -14.599  0.0000E+00  0.2000E+01
    -14.508  0.0000E+00  0.2000E+01
    -14.418  0.0000E+00  0.2000E+01
    -14.328  0.0000E+00  0.2000E+01
    -14.238  0.0000E+00  0.2000E+01
    -14.148  0.0000E+00  0.2000E+01
    -14.058  0.0000E+00  0.2000E+01
    -13.968  0.0000E+00  0.2000E+01
    -13.878  0.0000E+00  0.2000E+01
    -13.788  0.0000E+00  0.2000E+01
    -13.697  0.0000E+00  0.2000E+01
    -13.607  0.0000E+00  0.2000E+01
    -13.517  0.0000E+00  0.2000E+01
    -13.427  0.0000E+00  0.2000E+01
    -13.337  0.0000E+00  0.2000E+01
    -13.247  0.0000E+00  0.2000E+01
    -13.157  0.0000E+00  0.2000E+01
    -13.067  0.0000E+00  0.2000E+01
    -12.977  0.0000E+00  0.2000E+01
    -12.887  0.0000E+00  0.2000E+01
    -12.796  0.0000E+00  0.2000E+01
    -12.706  0.0000E+00  0.2000E+01
    -12.616  0.0000E+00  0.2000E+01
    -12.526  0.0000E+00  0.2000E+01
    -12.436  0.0000E+00  0.2000E+01
    -12.346  0.0000E+00  0.2000E+01
    -12.256  0.0000E+00  0.2000E+01
    -12.166  0.0000E+00  0.2000E+01
    -12.076  0.0000E+00  0.2000E+01
    -11.985  0.0000E+00  0.2000E+01
    -11.895  0.0000E+00  0.2000E+01
    -11.805  0.0000E+00  0.2000E+01
    -11.715  0.0000E+00  0.2000E+01
    -11.625  0.0000E+00  0.2000E+01
    -11.535  0.0000E+00  0.2000E+01
    -11.445  0.0000E+00  0.2000E+01
    -11.355  0.0000E+00  0.2000E+01
    -11.265  0.0000E+00  0.2000E+01
    -11.175  0.0000E+00  0.2000E+01
    -11.084  0.0000E+00  0.2000E+01
    -10.994  0.0000E+00  0.2000E+01
    -10.904  0.0000E+00  0.2000E+01
    -10.814  0.0000E+00  0.2000E+01
    -10.724  0.0000E+00  0.2000E+01
    -10.634  0.0000E+00  0.2000E+01
    -10.544  0.0000E+00  0.2000E+01
    -10.454  0.0000E+00  0.2000E+01
    -10.364  0.0000E+00  0.2000E+01
    -10.273  0.0000E+00  0.2000E+01
    -10.183  0.0000E+00  0.2000E+01
    -10.093  0.0000E+00  0.2000E+01
    -10.003  0.0000E+00  0.2000E+01
     -9.913  0.0000E+00  0.2000E+01
     -9.823  0.0000E+00  0.2000E+01
     -9.733  0.0000E+00  0.2000E+01
     -9.643  0.0000E+00  0.2000E+01
     -9.553  0.0000E+00  0.2000E+01
     -9.463  0.0000E+00  0.2000E+01
     -9.372  0.0000E+00  0.2000E+01
     -9.282  0.0000E+00  0.2000E+01
     -9.192  0.1152E-06  0.2000E+01
     -9.102  0.2593E-01  0.2002E+01
     -9.012  0.1385E+02  0.3250E+01
     -8.922  0.4997E+02  0.7752E+01
     -8.832  0.2750E+01  0.8000E+01
     -8.742  0.6121E-03  0.8000E+01
     -8.652  0.2795E-09  0.8000E+01
     -8.562  0.0000E+00  0.8000E+01
     -8.471  0.0000E+00  0.8000E+01
     -8.381  0.0000E+00  0.8000E+01
     -8.291  0.0000E+00  0.8000E+01
     -8.201  0.0000E+00  0.8000E+01
     -8.111  0.0000E+00  0.8000E+01
     -8.021  0.0000E+00  0.8000E+01
     -7.931  0.0000E+00  0.8000E+01
     -7.841  0.0000E+00  0.8000E+01
     -7.751  0.0000E+00  0.8000E+01
     -7.660  0.0000E+00  0.8000E+01
     -7.570  0.0000E+00  0.8000E+01
     -7.480  0.0000E+00  0.8000E+01
     -7.390  0.0000E+00  0.8000E+01
     -7.300  0.0000E+00  0.8000E+01
     -7.210  0.0000E+00  0.8000E+01
     -7.120  0.0000E+00  0.8000E+01
     -7.030  0.0000E+00  0.8000E+01
     -6.940  0.0000E+00  0.8000E+01
     -6.850  0.0000E+00  0.8000E+01
     -6.759  0.0000E+00  0.8000E+01
     -6.669  0.0000E+00  0.8000E+01
     -6.579  0.0000E+00  0.8000E+01
     -6.489  0.0000E+00  0.8000E+01
     -6.399  0.0000E+00  0.8000E+01
     -6.309  0.0000E+00  0.8000E+01
     -6.219  0.0000E+00  0.8000E+01
     -6.129  0.0000E+00  0.8000E+01
     -6.039  0.0000E+00  0.8000E+01
     -5.948  0.0000E+00  0.8000E+01
     -5.858  0.0000E+00  0.8000E+01
     -5.768  0.0000E+00  0.8000E+01
     -5.678  0.0000E+00  0.8000E+01
     -5.588  0.0000E+00  0.8000E+01
     -5.498  0.0000E+00  0.8000E+01
     -5.408  0.0000E+00  0.8000E+01
     -5.318  0.0000E+00  0.8000E+01
     -5.228  0.0000E+00  0.8000E+01
     -5.138  0.0000E+00  0.8000E+01
     -5.047  0.0000E+00  0.8000E+01
     -4.957  0.0000E+00  0.8000E+01
     -4.867  0.0000E+00  0.8000E+01
     -4.777  0.0000E+00  0.8000E+01
     -4.687  0.0000E+00  0.8000E+01
     -4.597  0.0000E+00  0.8000E+01
     -4.507  0.0000E+00  0.8000E+01
     -4.417  0.0000E+00  0.8000E+01
     -4.327  0.0000E+00  0.8000E+01
     -4.236  0.0000E+00  0.8000E+01
     -4.146  0.0000E+00  0.8000E+01
     -4.056  0.0000E+00  0.8000E+01
     -3.966  0.0000E+00  0.8000E+01
     -3.876  0.0000E+00  0.8000E+01
     -3.786  0.0000E+00  0.8000E+01
     -3.696  0.0000E+00  0.8000E+01
     -3.606  0.0000E+00  0.8000E+01
     -3.516  0.0000E+00  0.8000E+01
     -3.426  0.0000E+00  0.8000E+01
     -3.335  0.0000E+00  0.8000E+01
     -3.245  0.0000E+00  0.8000E+01
     -3.155  0.0000E+00  0.8000E+01
     -3.065  0.0000E+00  0.8000E+01
     -2.975  0.0000E+00  0.8000E+01
     -2.885  0.0000E+00  0.8000E+01
     -2.795  0.0000E+00  0.8000E+01
     -2.705  0.0000E+00  0.8000E+01
     -2.615  0.0000E+00  0.8000E+01
     -2.524  0.0000E+00  0.8000E+01
     -2.434  0.0000E+00  0.8000E+01
     -2.344  0.0000E+00  0.8000E+01
     -2.254  0.0000E+00  0.8000E+01
     -2.164  0.0000E+00  0.8000E+01
     -2.074  0.0000E+00  0.8000E+01
     -1.984  0.0000E+00  0.8000E+01
     -1.894  0.0000E+00  0.8000E+01
     -1.804  0.0000E+00  0.8000E+01
     -1.714  0.0000E+00  0.8000E+01
     -1.623  0.0000E+00  0.8000E+01
     -1.533  0.0000E+00  0.8000E+01
     -1.443  0.0000E+00  0.8000E+01
     -1.353  0.0000E+00  0.8000E+01
     -1.263  0.0000E+00  0.8000E+01
     -1.173  0.0000E+00  0.8000E+01
     -1.083  0.0000E+00  0.8000E+01
     -0.993  0.0000E+00  0.8000E+01
     -0.903  0.0000E+00  0.8000E+01
     -0.812  0.0000E+00  0.8000E+01
     -0.722  0.0000E+00  0.8000E+01
     -0.632  0.0000E+00  0.8000E+01
     -0.542  0.1540E-14  0.8000E+01
     -0.452  0.6480E-07  0.8000E+01
     -0.362  0.4941E-02  0.8000E+01
     -0.272  0.1063E+01  0.8096E+01
     -0.182  0.7252E+01  0.8750E+01
     -0.092  0.1156E+02  0.9791E+01
     -0.002  0.2323E+01  0.1000E+02
      0.089  0.3393E+01  0.1031E+02
      0.179  0.5227E+01  0.1078E+02
      0.269  0.1206E+02  0.1186E+02
      0.359  0.8165E+01  0.1260E+02
      0.449  0.4815E+01  0.1303E+02
      0.539  0.7242E+01  0.1369E+02
      0.629  0.3339E+01  0.1399E+02
      0.719  0.1467E+00  0.1400E+02
      0.809  0.4219E-04  0.1400E+02
      0.899  0.2540E-10  0.1400E+02
      0.990  0.0000E+00  0.1400E+02
      1.080  0.0000E+00  0.1400E+02
      1.170  0.0000E+00  0.1400E+02
      1.260  0.0000E+00  0.1400E+02
      1.350  0.0000E+00  0.1400E+02
      1.440  0.0000E+00  0.1400E+02
      1.530  0.0000E+00  0.1400E+02
      1.620  0.0000E+00  0.1400E+02
      1.710  0.0000E+00  0.1400E+02
      1.801  0.0000E+00  0.1400E+02
