/store/Terry_project/NiAlO_EDIP_fitting_DFT/DATA/O/O_iter_last_lmp.data (written by ASE) 

1 	 atoms 
1  atom types
0.0                    14.5  xlo xhi
0.0                    14.5  ylo yhi
0.0                    14.5  zlo zhi


Atoms 

     1   1                       0                       0                       0
