 vasp.6.2.1 16May21 (build Jun 16 2021 03:23:30) complex                         
 executed on             LinuxPGI date 2022.04.23  21:43:23
 running on    1 total cores
 distrk:  each k-point on    1 cores,    1 groups
 distr:  one band on NCORE=   1 cores,    1 groups


--------------------------------------------------------------------------------------------------------


 INCAR:
   SYSTEM = NiAl
   ISTART = 0
   EDIFF = 1E-7
   NELMIN = 6
   IVDW = 12
   LWAVE = .FALSE.
   LCHARG = .FALSE.
   LREAL = Auto
   NCORE = 1
   LPLANE = .TRUE.
   ENCUT = 360.00 eV
   ISMEAR = 0
   SIGMA = 0.05

 POTCAR:    PAW O_GW 19Mar2012                    
 POTCAR:    PAW O_GW 19Mar2012                    
   VRHFIN =O: s2p4                                                                                  
   LEXCH  = PE                                                                                      
   EATOM  =   432.3788 eV,   31.7789 Ry                                                             
                                                                                                    
   TITEL  = PAW O_GW 19Mar2012                                                                      
   LULTRA =        F    use ultrasoft PP ?                                                          
   IUNSCR =        1    unscreen: 0-lin 1-nonlin 2-no                                               
   RPACOR =    0.800    partial core radius                                                         
   POMASS =   16.000; ZVAL   =    6.000    mass and valenz                                          
   RCORE  =    1.600    outmost cutoff radius                                                       
   RWIGS  =    1.600; RWIGS  =    0.847    wigner-seitz radius (au A)                               
   ENMAX  =  434.431; ENMIN  =  325.824 eV                                                          
   ICORE  =        3    local potential                                                             
   LCOR   =        T    correct aug charges                                                         
   LPAW   =        T    paw PP                                                                      
   EAUG   = 1139.609                                                                                
   DEXC   =    0.000                                                                                
   RMAX   =    1.629    core radius for proj-oper                                                   
   RAUG   =    1.300    factor for augmentation sphere                                              
   RDEP   =    1.652    radius for radial grids                                                     
   RDEPT  =    1.200    core radius for aug-charge                                                  
                                                                                                    
   Atomic configuration                                                                             
    5 entries                                                                                       
     n  l   j            E        occ.                                                              
     1  0  0.50      -514.6923   2.0000                                                             
     2  0  0.50       -23.9615   2.0000                                                             
     2  1  0.50        -9.0305   4.0000                                                             
     3  2  1.50        -9.5241   0.0000                                                             
     4  3  2.50        -9.5241   0.0000                                                             
   Description                                                                                      
     l       E           TYP  RCUT    TYP  RCUT                                                     
     0    -23.9615316     23  1.150                                                                 
     0    -25.3221142     23  1.150                                                                 
     0    244.9048680     23  1.300                                                                 
     1     -9.0304908     23  1.500                                                                 
     1     -6.9258396     23  1.500                                                                 
     1    122.4524340     23  1.500                                                                 
     2     13.6058260     23  1.500                                                                 
     2    190.4815640     23  1.600                                                                 
     3     54.4233040     23  1.400                                                                 
  local pseudopotential read in
  partial core-charges read in
  partial kinetic energy density read in
  kinetic energy density of atom read in
  atomic valenz-charges read in
  non local Contribution for L=            0  read in
    real space projection operators read in
  non local Contribution for L=            0  read in
    real space projection operators read in
  non local Contribution for L=            0  read in
    real space projection operators read in
  non local Contribution for L=            1  read in
    real space projection operators read in
  non local Contribution for L=            1  read in
    real space projection operators read in
  non local Contribution for L=            1  read in
    real space projection operators read in
  non local Contribution for L=            2  read in
    real space projection operators read in
  non local Contribution for L=            2  read in
    real space projection operators read in
    PAW grid and wavefunctions read in
 
   number of l-projection  operators is LMAX  =            8
   number of lm-projection operators is LMMAX =           22
 
 -----------------------------------------------------------------------------
|                                                                             |
|               ----> ADVICE to this user running VASP <----                  |
|                                                                             |
|     You have a (more or less) 'small supercell' and for smaller cells       |
|     it is recommended to use the reciprocal-space projection scheme!        |
|     The real-space optimization is not efficient for small cells and it     |
|     is also less accurate ...                                               |
|     Therefore, set LREAL=.FALSE. in the INCAR file.                         |
|                                                                             |
 -----------------------------------------------------------------------------

 Optimization of the real space projectors (new method)

 maximal supplied QI-value         = 23.62
 optimisation between [QCUT,QGAM] = [  9.68, 19.37] = [ 26.27,105.06] Ry 
 Optimized for a Real-space Cutoff    2.14 Angstroem

   l    n(q)    QCUT    max X(q) W(low)/X(q) W(high)/X(q)  e(spline) 
   0     13     9.685   116.464    0.15E-03    0.15E-03    0.47E-05
   0     13     9.685   116.329    0.15E-03    0.15E-03    0.46E-05
   0     13     9.685     0.942    0.20E-04    0.50E-04    0.17E-05
   1     12     9.685    29.046    0.36E-03    0.11E-02    0.25E-04
   1     12     9.685    24.247    0.38E-03    0.11E-02    0.26E-04
   1     12     9.685     2.381    0.13E-03    0.38E-03    0.78E-05
   2     12     9.685     2.237    0.60E-05    0.28E-04    0.14E-05
   2     12     9.685     1.850    0.17E-04    0.70E-04    0.25E-05
  PAW O_GW 19Mar2012                    :
 energy of atom  1       EATOM= -432.3788
 kinetic energy error for atom=    0.3913 (will be added to EATOM!!)
 
 
 POSCAR: New structure
  positions in cartesian coordinates
  No initial velocities read in
 exchange correlation table for  LEXCH =        8
   RHO(1)=    0.500       N(1)  =     2000
   RHO(2)=  100.500       N(2)  =     4000

 VTST: version 4.1, (05/19/21)

 CHAIN: initializing optimizer
 
 OPT: Using VASP Dynamics algorithm
 CHAIN: Read ICHAIN             0
 
 POSCAR: New structure
  positions in cartesian coordinates
  No initial velocities read in
 


--------------------------------------------------------------------------------------------------------


 ion  position               nearest neighbor table
   1  0.000  0.000  0.000-
 
  LATTYP: Found a simple cubic cell.
 ALAT       =    14.5000000000
  
  Lattice vectors:
  
 A1 = (  14.5000000000,   0.0000000000,   0.0000000000)
 A2 = (   0.0000000000,  14.5000000000,   0.0000000000)
 A3 = (   0.0000000000,   0.0000000000,  14.5000000000)


Analysis of symmetry for initial positions (statically):
=====================================================================
 Subroutine PRICEL returns:
 Original cell was already a primitive cell.
 

 Routine SETGRP: Setting up the symmetry group for a 
 simple cubic supercell.


 Subroutine GETGRP returns: Found 48 space group operations
 (whereof 48 operations were pure point group operations)
 out of a pool of 48 trial point group operations.


The static configuration has the point symmetry O_h .


Analysis of symmetry for dynamics (positions and initial velocities):
=====================================================================
 Subroutine PRICEL returns:
 Original cell was already a primitive cell.
 

 Routine SETGRP: Setting up the symmetry group for a 
 simple cubic supercell.


 Subroutine GETGRP returns: Found 48 space group operations
 (whereof 48 operations were pure point group operations)
 out of a pool of 48 trial point group operations.


The dynamic configuration has the point symmetry O_h .


 Subroutine INISYM returns: Found 48 space group operations
 (whereof 48 operations are pure point group operations),
 and found     1 'primitive' translations


----------------------------------------------------------------------------------------

                                     Primitive cell                                     

  volume of cell :    3048.6250

  direct lattice vectors                    reciprocal lattice vectors
    14.500000000  0.000000000  0.000000000     0.068965517  0.000000000  0.000000000
     0.000000000 14.500000000  0.000000000     0.000000000  0.068965517  0.000000000
     0.000000000  0.000000000 14.500000000     0.000000000  0.000000000  0.068965517

  length of vectors
    14.500000000 14.500000000 14.500000000     0.068965517  0.068965517  0.068965517

  position of ions in fractional coordinates (direct lattice)
     0.000000000  0.000000000  0.000000000

  ion indices of the primitive-cell ions
   primitive index   ion index
                 1           1

----------------------------------------------------------------------------------------

 
 
 KPOINTS: Automatic generation                    

Automatic generation of k-mesh.
 Grid dimensions read from file:
 generate k-points for:    2    2    2

 Generating k-lattice:

  Cartesian coordinates                     Fractional coordinates (reciprocal lattice)
     0.034482759  0.000000000  0.000000000     0.500000000  0.000000000  0.000000000
     0.000000000  0.034482759  0.000000000     0.000000000  0.500000000  0.000000000
     0.000000000  0.000000000  0.034482759     0.000000000  0.000000000  0.500000000

  Length of vectors
     0.034482759  0.034482759  0.034482759

  Shift w.r.t. Gamma in fractional coordinates (k-lattice)
     0.000000000  0.000000000  0.000000000

 
 Subroutine IBZKPT returns following result:
 ===========================================
 
 Found      4 irreducible k-points:
 
 Following reciprocal coordinates:
            Coordinates               Weight
  0.000000  0.000000  0.000000      1.000000
  0.500000  0.000000  0.000000      3.000000
  0.500000  0.500000  0.000000      3.000000
  0.500000  0.500000  0.500000      1.000000
 
 Following cartesian coordinates:
            Coordinates               Weight
  0.000000  0.000000  0.000000      1.000000
  0.034483  0.000000  0.000000      3.000000
  0.034483  0.034483  0.000000      3.000000
  0.034483  0.034483  0.034483      1.000000
 


--------------------------------------------------------------------------------------------------------




 Dimension of arrays:
   k-points           NKPTS =      4   k-points in BZ     NKDIM =      4   number of bands    NBANDS=      7
   number of dos      NEDOS =    301   number of ions     NIONS =      1
   non local maximal  LDIM  =      8   non local SUM 2l+1 LMDIM =     22
   total plane-waves  NPLWV = 343000
   max r-space proj   IRMAX =   4649   max aug-charges    IRDMAX=   1404
   dimension x,y,z NGX =    70 NGY =   70 NGZ =   70
   dimension x,y,z NGXF=   140 NGYF=  140 NGZF=  140
   support grid    NGXF=   140 NGYF=  140 NGZF=  140
   ions per type =               1
   NGX,Y,Z   is equivalent  to a cutoff of   8.03,  8.03,  8.03 a.u.
   NGXF,Y,Z  is equivalent  to a cutoff of  16.05, 16.05, 16.05 a.u.

 SYSTEM =  NiAl                                    
 POSCAR =  New structure                           

 Startparameter for this run:
   NWRITE =      2    write-flag & timer
   PREC   = normal    normal or accurate (medium, high low for compatibility)
   ISTART =      0    job   : 0-new  1-cont  2-samecut
   ICHARG =      2    charge: 1-file 2-atom 10-const
   ISPIN  =      1    spin polarized calculation?
   LNONCOLLINEAR =      F non collinear calculations
   LSORBIT =      F    spin-orbit coupling
   INIWAV =      1    electr: 0-lowe 1-rand  2-diag
   LASPH  =      F    aspherical Exc in radial PAW
 Electronic Relaxation 1
   ENCUT  =  360.0 eV  26.46 Ry    5.14 a.u.  22.43 22.43 22.43*2*pi/ulx,y,z
   ENINI  =  360.0     initial cutoff
   ENAUG  = 1139.6 eV  augmentation charge cutoff
   NELM   =     60;   NELMIN=  6; NELMDL= -5     # of ELM steps 
   EDIFF  = 0.1E-06   stopping-criterion for ELM
   LREAL  =      T    real-space projection
   NLSPLINE    = F    spline interpolate recip. space projectors
   LCOMPAT=      F    compatible to vasp.4.4
   GGA_COMPAT  = T    GGA compatible to vasp.4.4-vasp.4.6
   LMAXPAW     = -100 max onsite density
   LMAXMIX     =    2 max onsite mixed and CHGCAR
   VOSKOWN=      0    Vosko Wilk Nusair interpolation
   ROPT   =   -0.00050
 Ionic relaxation
   EDIFFG = 0.1E-05   stopping-criterion for IOM
   NSW    =      0    number of steps for IOM
   NBLOCK =      1;   KBLOCK =      1    inner block; outer block 
   IBRION =     -1    ionic relax: 0-MD 1-quasi-New 2-CG
   NFREE  =      0    steps in history (QN), initial steepest desc. (CG)
   ISIF   =      2    stress and relaxation
   IWAVPR =     10    prediction:  0-non 1-charg 2-wave 3-comb
   ISYM   =      2    0-nonsym 1-usesym 2-fastsym
   LCORR  =      T    Harris-Foulkes like correction to forces

   POTIM  = 0.5000    time-step for ionic-motion
   TEIN   =    0.0    initial temperature
   TEBEG  =    0.0;   TEEND  =   0.0 temperature during run
   SMASS  =  -3.00    Nose mass-parameter (am)
   estimated Nose-frequenzy (Omega)   =  0.10E-29 period in steps = 0.13E+47 mass=  -0.480E-26a.u.
   SCALEE = 1.0000    scale energy and forces
   NPACO  =    256;   APACO  = 16.0  distance and # of slots for P.C.
   PSTRESS=    0.0 pullay stress

  Mass of Ions in am
   POMASS =  16.00
  Ionic Valenz
   ZVAL   =   6.00
  Atomic Wigner-Seitz radii
   RWIGS  =  -1.00
  virtual crystal weights 
   VCA    =   1.00
   NELECT =       6.0000    total number of electrons
   NUPDOWN=      -1.0000    fix difference up-down

 DOS related values:
   EMIN   =  10.00;   EMAX   =-10.00  energy-range for DOS
   EFERMI =   0.00
   ISMEAR =     0;   SIGMA  =   0.05  broadening in eV -4-tet -1-fermi 0-gaus

 Electronic relaxation 2 (details)
   IALGO  =     38    algorithm
   LDIAG  =      T    sub-space diagonalisation (order eigenvalues)
   LSUBROT=      F    optimize rotation matrix (better conditioning)
   TURBO    =      0    0=normal 1=particle mesh
   IRESTART =      0    0=no restart 2=restart with 2 vectors
   NREBOOT  =      0    no. of reboots
   NMIN     =      0    reboot dimension
   EREF     =   0.00    reference energy to select bands
   IMIX   =      4    mixing-type and parameters
     AMIX     =   0.40;   BMIX     =  1.00
     AMIX_MAG =   1.60;   BMIX_MAG =  1.00
     AMIN     =   0.10
     WC   =   100.;   INIMIX=   1;  MIXPRE=   1;  MAXMIX= -45

 Intra band minimization:
   WEIMIN = 0.0000     energy-eigenvalue tresh-hold
   EBREAK =  0.36E-08  absolut break condition
   DEPER  =   0.30     relativ break condition  

   TIME   =   0.40     timestep for ELM

  volume/ion in A,a.u.               =    3048.63     20573.14
  Fermi-wavevector in a.u.,A,eV,Ry     =   0.205159  0.387694  0.572672  0.042090
  Thomas-Fermi vector in A             =   0.965827
 
 Write flags
   LWAVE        =      F    write WAVECAR
   LDOWNSAMPLE  =      F    k-point downsampling of WAVECAR
   LCHARG       =      F    write CHGCAR
   LVTOT        =      F    write LOCPOT, total local potential
   LVHAR        =      F    write LOCPOT, Hartree potential only
   LELF         =      F    write electronic localiz. function (ELF)
   LORBIT       =      0    0 simple, 1 ext, 2 COOP (PROOUT), +10 PAW based schemes


 Dipole corrections
   LMONO  =      F    monopole corrections only (constant potential shift)
   LDIPOL =      F    correct potential (dipole corrections)
   IDIPOL =      0    1-x, 2-y, 3-z, 4-all directions 
   EPSILON=  1.0000000 bulk dielectric constant

 Exchange correlation treatment:
   GGA     =    --    GGA type
   LEXCH   =     8    internal setting for exchange type
   VOSKOWN=      0    Vosko Wilk Nusair interpolation
   LHFCALC =     F    Hartree Fock is set to
   LHFONE  =     F    Hartree Fock one center treatment
   AEXX    =    0.0000 exact exchange contribution

 Linear response parameters
   LEPSILON=     F    determine dielectric tensor
   LRPA    =     F    only Hartree local field effects (RPA)
   LNABLA  =     F    use nabla operator in PAW spheres
   LVEL    =     F    velocity operator in full k-point grid
   LINTERFAST=   F  fast interpolation
   KINTER  =     0    interpolate to denser k-point grid
   CSHIFT  =0.1000    complex shift for real part using Kramers Kronig
   OMEGAMAX=  -1.0    maximum frequency
   DEG_THRESHOLD= 0.2000000E-02 threshold for treating states as degnerate
   RTIME   =   -0.100 relaxation time in fs
  (WPLASMAI=    0.000 imaginary part of plasma frequency in eV, 0.658/RTIME)
   DFIELD  = 0.0000000 0.0000000 0.0000000 field for delta impulse in time
 
 Orbital magnetization related:
   ORBITALMAG=     F  switch on orbital magnetization
   LCHIMAG   =     F  perturbation theory with respect to B field
   DQ        =  0.001000  dq finite difference perturbation B field
   LLRAUG    =     F  two centre corrections for induced B field



--------------------------------------------------------------------------------------------------------


 Static calculation
 charge density and potential will be updated during run
 non-spin polarized calculation
 Variant of blocked Davidson
 Davidson routine will perform the subspace rotation
 perform sub-space diagonalisation
    after iterative eigenvector-optimisation
 modified Broyden-mixing scheme, WC =      100.0
 initial mixing is a Kerker type mixing with AMIX =  0.4000 and BMIX =      1.0000
 Hartree-type preconditioning will be used
 using additional bands             4
 real space projection scheme for non local part
 use partial core corrections
 calculate Harris-corrections to forces 
   (improved forces if not selfconsistent)
 use gradient corrections 
 use of overlap-Matrix (Vanderbilt PP)
 Gauss-broadening in eV      SIGMA  =   0.05


--------------------------------------------------------------------------------------------------------


  energy-cutoff  :      360.00
  volume of cell :     3048.63
      direct lattice vectors                 reciprocal lattice vectors
    14.500000000  0.000000000  0.000000000     0.068965517  0.000000000  0.000000000
     0.000000000 14.500000000  0.000000000     0.000000000  0.068965517  0.000000000
     0.000000000  0.000000000 14.500000000     0.000000000  0.000000000  0.068965517

  length of vectors
    14.500000000 14.500000000 14.500000000     0.068965517  0.068965517  0.068965517


 
 k-points in units of 2pi/SCALE and weight: Automatic generation                    
   0.00000000  0.00000000  0.00000000       0.125
   0.03448276  0.00000000  0.00000000       0.375
   0.03448276  0.03448276  0.00000000       0.375
   0.03448276  0.03448276  0.03448276       0.125
 
 k-points in reciprocal lattice and weights: Automatic generation                    
   0.00000000  0.00000000  0.00000000       0.125
   0.50000000  0.00000000  0.00000000       0.375
   0.50000000  0.50000000  0.00000000       0.375
   0.50000000  0.50000000  0.50000000       0.125
 
 position of ions in fractional coordinates (direct lattice) 
   0.00000000  0.00000000  0.00000000
 
 position of ions in cartesian coordinates  (Angst):
   0.00000000  0.00000000  0.00000000
 


--------------------------------------------------------------------------------------------------------


 k-point   1 :   0.0000 0.0000 0.0000  plane waves:   47257
 k-point   2 :   0.5000 0.0000 0.0000  plane waves:   47316
 k-point   3 :   0.5000 0.5000 0.0000  plane waves:   47272
 k-point   4 :   0.5000 0.5000 0.5000  plane waves:   47216

 maximum and minimum number of plane-waves per node :     47316    47216

 maximum number of plane-waves:     47316
 maximum index in each direction: 
   IXMAX=   22   IYMAX=   22   IZMAX=   22
   IXMIN=  -22   IYMIN=  -22   IZMIN=  -22


 serial   3D FFT for wavefunctions
 parallel 3D FFT for charge:
    minimum data exchange during FFTs selected (reduces bandwidth)


 total amount of memory used by VASP MPI-rank0   293634. kBytes
=======================================================================

   base      :      30000. kBytes
   nonlr-proj:        940. kBytes
   fftplans  :      94700. kBytes
   grid      :     146764. kBytes
   one-center:         23. kBytes
   wavefun   :      21207. kBytes
 
     INWAV:  cpu time    0.0001: real time    0.0002
 Broyden mixing: mesh for mixing (old mesh)
   NGX = 45   NGY = 45   NGZ = 45
  (NGX  =140   NGY  =140   NGZ  =140)
  gives a total of  91125 points

 initial charge density was supplied:
 charge density of overlapping atoms calculated
 number of electron       6.0000000 magnetization 
 keeping initial charge density in first step


--------------------------------------------------------------------------------------------------------


 Maximum index for non-local projection operator          4457
 Maximum index for augmentation-charges          1189 (set IRDMAX)


--------------------------------------------------------------------------------------------------------


 First call to EWALD:  gamma=   0.122
 Maximum number of real-space cells 3x 3x 3
 Maximum number of reciprocal cells 3x 3x 3

    FEWALD:  cpu time    0.0005: real time    0.0005


--------------------------------------- Iteration      1(   1)  ---------------------------------------


    POTLOK:  cpu time    0.0455: real time    0.0646
    SETDIJ:  cpu time    0.0017: real time    0.0017
     EDDAV:  cpu time    0.0924: real time    0.1024
       DOS:  cpu time    0.0001: real time    0.0001
    --------------------------------------------
      LOOP:  cpu time    0.1399: real time    0.1688

 eigenvalue-minimisations  :    63
 total energy-change (2. order) : 0.4396511E+02  (-0.6215326E+02)
 number of electron       6.0000000 magnetization 
 augmentation part        6.0000000 magnetization 

 Free energy of the ion-electron system (eV)
  ---------------------------------------------------
  alpha Z        PSCENC =         0.02241325
  Ewald energy   TEWEN  =       -50.71838898
  -Hartree energ DENC   =      -323.05729963
  -exchange      EXHF   =         0.00000000
  -V(xc)+E(xc)   XCENC  =        24.43532410
  PAW double counting   =       349.15150874     -348.34814589
  entropy T*S    EENTRO =        -0.02246988
  eigenvalues    EBANDS =       -39.48534589
  atomic energy  EATOM  =       431.98751057
  Solvation  Ediel_sol  =         0.00000000
  ---------------------------------------------------
  free energy    TOTEN  =        43.96510641 eV

  energy without entropy =       43.98757629  energy(sigma->0) =       43.97634135


--------------------------------------------------------------------------------------------------------




--------------------------------------- Iteration      1(   2)  ---------------------------------------


     EDDAV:  cpu time    0.0810: real time    0.0815
       DOS:  cpu time    0.0001: real time    0.0001
    --------------------------------------------
      LOOP:  cpu time    0.0810: real time    0.0816

 eigenvalue-minimisations  :    84
 total energy-change (2. order) :-0.2833058E+02  (-0.2688241E+02)
 number of electron       6.0000000 magnetization 
 augmentation part        6.0000000 magnetization 

 Free energy of the ion-electron system (eV)
  ---------------------------------------------------
  alpha Z        PSCENC =         0.02241325
  Ewald energy   TEWEN  =       -50.71838898
  -Hartree energ DENC   =      -323.05729963
  -exchange      EXHF   =         0.00000000
  -V(xc)+E(xc)   XCENC  =        24.43532410
  PAW double counting   =       349.15150874     -348.34814589
  entropy T*S    EENTRO =        -0.00964139
  eigenvalues    EBANDS =       -67.82875236
  atomic energy  EATOM  =       431.98751057
  Solvation  Ediel_sol  =         0.00000000
  ---------------------------------------------------
  free energy    TOTEN  =        15.63452842 eV

  energy without entropy =       15.64416982  energy(sigma->0) =       15.63934912


--------------------------------------------------------------------------------------------------------




--------------------------------------- Iteration      1(   3)  ---------------------------------------


     EDDAV:  cpu time    0.0838: real time    0.0870
       DOS:  cpu time    0.0001: real time    0.0001
    --------------------------------------------
      LOOP:  cpu time    0.0838: real time    0.0871

 eigenvalue-minimisations  :    91
 total energy-change (2. order) :-0.1473656E+02  (-0.1468534E+02)
 number of electron       6.0000000 magnetization 
 augmentation part        6.0000000 magnetization 

 Free energy of the ion-electron system (eV)
  ---------------------------------------------------
  alpha Z        PSCENC =         0.02241325
  Ewald energy   TEWEN  =       -50.71838898
  -Hartree energ DENC   =      -323.05729963
  -exchange      EXHF   =         0.00000000
  -V(xc)+E(xc)   XCENC  =        24.43532410
  PAW double counting   =       349.15150874     -348.34814589
  entropy T*S    EENTRO =        -0.00019220
  eigenvalues    EBANDS =       -82.57476290
  atomic energy  EATOM  =       431.98751057
  Solvation  Ediel_sol  =         0.00000000
  ---------------------------------------------------
  free energy    TOTEN  =         0.89796708 eV

  energy without entropy =        0.89815928  energy(sigma->0) =        0.89806318


--------------------------------------------------------------------------------------------------------




--------------------------------------- Iteration      1(   4)  ---------------------------------------


     EDDAV:  cpu time    0.0550: real time    0.0555
       DOS:  cpu time    0.0001: real time    0.0001
    --------------------------------------------
      LOOP:  cpu time    0.0551: real time    0.0556

 eigenvalue-minimisations  :    56
 total energy-change (2. order) :-0.8038524E+00  (-0.7499435E+00)
 number of electron       6.0000000 magnetization 
 augmentation part        6.0000000 magnetization 

 Free energy of the ion-electron system (eV)
  ---------------------------------------------------
  alpha Z        PSCENC =         0.02241325
  Ewald energy   TEWEN  =       -50.71838898
  -Hartree energ DENC   =      -323.05729963
  -exchange      EXHF   =         0.00000000
  -V(xc)+E(xc)   XCENC  =        24.43532410
  PAW double counting   =       349.15150874     -348.34814589
  entropy T*S    EENTRO =        -0.06679814
  eigenvalues    EBANDS =       -83.31200933
  atomic energy  EATOM  =       431.98751057
  Solvation  Ediel_sol  =         0.00000000
  ---------------------------------------------------
  free energy    TOTEN  =         0.09411471 eV

  energy without entropy =        0.16091285  energy(sigma->0) =        0.12751378


--------------------------------------------------------------------------------------------------------




--------------------------------------- Iteration      1(   5)  ---------------------------------------


     EDDAV:  cpu time    0.0587: real time    0.0616
       DOS:  cpu time    0.0001: real time    0.0001
    CHARGE:  cpu time    0.0963: real time    0.1073
    MIXING:  cpu time    0.0420: real time    0.0425
    --------------------------------------------
      LOOP:  cpu time    0.1972: real time    0.2114

 eigenvalue-minimisations  :    63
 total energy-change (2. order) :-0.3819859E-01  (-0.2927444E-01)
 number of electron       6.0000014 magnetization 
 augmentation part        0.4581956 magnetization 

 Broyden mixing:
  rms(total) = 0.13549E+00    rms(broyden)= 0.13385E+00
  rms(prec ) = 0.13616E+00
  weight for this iteration     100.00

 Free energy of the ion-electron system (eV)
  ---------------------------------------------------
  alpha Z        PSCENC =         0.02241325
  Ewald energy   TEWEN  =       -50.71838898
  -Hartree energ DENC   =      -323.05729963
  -exchange      EXHF   =         0.00000000
  -V(xc)+E(xc)   XCENC  =        24.43532410
  PAW double counting   =       349.15150874     -348.34814589
  entropy T*S    EENTRO =        -0.07706613
  eigenvalues    EBANDS =       -83.33993992
  atomic energy  EATOM  =       431.98751057
  Solvation  Ediel_sol  =         0.00000000
  ---------------------------------------------------
  free energy    TOTEN  =         0.05591612 eV

  energy without entropy =        0.13298225  energy(sigma->0) =        0.09444919


--------------------------------------------------------------------------------------------------------




--------------------------------------- Iteration      1(   6)  ---------------------------------------


    POTLOK:  cpu time    0.0380: real time    0.0384
    SETDIJ:  cpu time    0.0017: real time    0.0017
     EDDAV:  cpu time    0.0629: real time    0.0634
       DOS:  cpu time    0.0001: real time    0.0001
    CHARGE:  cpu time    0.0811: real time    0.0817
    MIXING:  cpu time    0.0430: real time    0.0443
    --------------------------------------------
      LOOP:  cpu time    0.2268: real time    0.2296

 eigenvalue-minimisations  :    70
 total energy-change (2. order) : 0.1665736E-02  (-0.3794219E-02)
 number of electron       6.0000014 magnetization 
 augmentation part        0.4628929 magnetization 

 Broyden mixing:
  rms(total) = 0.76776E-01    rms(broyden)= 0.76650E-01
  rms(prec ) = 0.77379E-01
  weight for this iteration     100.00

 eigenvalues of (default mixing * dielectric matrix)
  average eigenvalue GAMMA=   2.0937
  2.0937

 Free energy of the ion-electron system (eV)
  ---------------------------------------------------
  alpha Z        PSCENC =         0.02241325
  Ewald energy   TEWEN  =       -50.71838898
  -Hartree energ DENC   =      -322.35626312
  -exchange      EXHF   =         0.00000000
  -V(xc)+E(xc)   XCENC  =        24.40153936
  PAW double counting   =       334.83108958     -334.04536179
  entropy T*S    EENTRO =        -0.07711393
  eigenvalues    EBANDS =       -83.98784309
  atomic energy  EATOM  =       431.98751057
  Solvation  Ediel_sol  =         0.00000000
  ---------------------------------------------------
  free energy    TOTEN  =         0.05758186 eV

  energy without entropy =        0.13469579  energy(sigma->0) =        0.09613883


--------------------------------------------------------------------------------------------------------




--------------------------------------- Iteration      1(   7)  ---------------------------------------


    POTLOK:  cpu time    0.0337: real time    0.0342
    SETDIJ:  cpu time    0.0017: real time    0.0017
     EDDAV:  cpu time    0.0535: real time    0.0538
       DOS:  cpu time    0.0001: real time    0.0001
    CHARGE:  cpu time    0.0796: real time    0.0803
    MIXING:  cpu time    0.0442: real time    0.0454
    --------------------------------------------
      LOOP:  cpu time    0.2128: real time    0.2155

 eigenvalue-minimisations  :    56
 total energy-change (2. order) :-0.1049511E-01  (-0.2851054E-03)
 number of electron       6.0000014 magnetization 
 augmentation part        0.4645955 magnetization 

 Broyden mixing:
  rms(total) = 0.15025E-01    rms(broyden)= 0.14989E-01
  rms(prec ) = 0.15243E-01
  weight for this iteration     100.00

 eigenvalues of (default mixing * dielectric matrix)
  average eigenvalue GAMMA=   1.8367
  1.1917  2.4816

 Free energy of the ion-electron system (eV)
  ---------------------------------------------------
  alpha Z        PSCENC =         0.02241325
  Ewald energy   TEWEN  =       -50.71838898
  -Hartree energ DENC   =      -322.26396511
  -exchange      EXHF   =         0.00000000
  -V(xc)+E(xc)   XCENC  =        24.40336677
  PAW double counting   =       319.27799241     -318.51067507
  entropy T*S    EENTRO =        -0.07711338
  eigenvalues    EBANDS =       -84.07405372
  atomic energy  EATOM  =       431.98751057
  Solvation  Ediel_sol  =         0.00000000
  ---------------------------------------------------
  free energy    TOTEN  =         0.04708675 eV

  energy without entropy =        0.12420013  energy(sigma->0) =        0.08564344


--------------------------------------------------------------------------------------------------------




--------------------------------------- Iteration      1(   8)  ---------------------------------------


    POTLOK:  cpu time    0.0342: real time    0.0345
    SETDIJ:  cpu time    0.0017: real time    0.0017
     EDDAV:  cpu time    0.0688: real time    0.0697
       DOS:  cpu time    0.0001: real time    0.0001
    CHARGE:  cpu time    0.0814: real time    0.0825
    MIXING:  cpu time    0.0456: real time    0.0464
    --------------------------------------------
      LOOP:  cpu time    0.2318: real time    0.2349

 eigenvalue-minimisations  :    77
 total energy-change (2. order) :-0.3431487E-03  (-0.1826404E-04)
 number of electron       6.0000014 magnetization 
 augmentation part        0.4643172 magnetization 

 Broyden mixing:
  rms(total) = 0.14329E-02    rms(broyden)= 0.14214E-02
  rms(prec ) = 0.15098E-02
  weight for this iteration     100.00

 eigenvalues of (default mixing * dielectric matrix)
  average eigenvalue GAMMA=   1.7469
  1.0701  2.4958  1.6747

 Free energy of the ion-electron system (eV)
  ---------------------------------------------------
  alpha Z        PSCENC =         0.02241325
  Ewald energy   TEWEN  =       -50.71838898
  -Hartree energ DENC   =      -322.38737044
  -exchange      EXHF   =         0.00000000
  -V(xc)+E(xc)   XCENC  =        24.41418818
  PAW double counting   =       316.06577039     -315.30239633
  entropy T*S    EENTRO =        -0.07711339
  eigenvalues    EBANDS =       -83.95786965
  atomic energy  EATOM  =       431.98751057
  Solvation  Ediel_sol  =         0.00000000
  ---------------------------------------------------
  free energy    TOTEN  =         0.04674360 eV

  energy without entropy =        0.12385699  energy(sigma->0) =        0.08530030


--------------------------------------------------------------------------------------------------------




--------------------------------------- Iteration      1(   9)  ---------------------------------------


    POTLOK:  cpu time    0.0341: real time    0.0342
    SETDIJ:  cpu time    0.0017: real time    0.0017
     EDDAV:  cpu time    0.0739: real time    0.0746
       DOS:  cpu time    0.0001: real time    0.0001
    CHARGE:  cpu time    0.0808: real time    0.0815
    MIXING:  cpu time    0.0470: real time    0.0471
    --------------------------------------------
      LOOP:  cpu time    0.2375: real time    0.2392

 eigenvalue-minimisations  :    84
 total energy-change (2. order) :-0.2352572E-05  (-0.2362197E-05)
 number of electron       6.0000014 magnetization 
 augmentation part        0.4641423 magnetization 

 Broyden mixing:
  rms(total) = 0.36811E-03    rms(broyden)= 0.36561E-03
  rms(prec ) = 0.41150E-03
  weight for this iteration     100.00

 eigenvalues of (default mixing * dielectric matrix)
  average eigenvalue GAMMA=   1.8058
  0.9691  1.3737  2.5612  2.3192

 Free energy of the ion-electron system (eV)
  ---------------------------------------------------
  alpha Z        PSCENC =         0.02241325
  Ewald energy   TEWEN  =       -50.71838898
  -Hartree energ DENC   =      -322.42160337
  -exchange      EXHF   =         0.00000000
  -V(xc)+E(xc)   XCENC  =        24.41646813
  PAW double counting   =       316.07133480     -315.30810022
  entropy T*S    EENTRO =        -0.07711341
  eigenvalues    EBANDS =       -83.92577953
  atomic energy  EATOM  =       431.98751057
  Solvation  Ediel_sol  =         0.00000000
  ---------------------------------------------------
  free energy    TOTEN  =         0.04674125 eV

  energy without entropy =        0.12385466  energy(sigma->0) =        0.08529795


--------------------------------------------------------------------------------------------------------




--------------------------------------- Iteration      1(  10)  ---------------------------------------


    POTLOK:  cpu time    0.0343: real time    0.0346
    SETDIJ:  cpu time    0.0017: real time    0.0020
     EDDAV:  cpu time    0.0687: real time    0.0689
       DOS:  cpu time    0.0001: real time    0.0001
    CHARGE:  cpu time    0.0810: real time    0.0816
    MIXING:  cpu time    0.0484: real time    0.0486
    --------------------------------------------
      LOOP:  cpu time    0.2341: real time    0.2358

 eigenvalue-minimisations  :    77
 total energy-change (2. order) :-0.1865100E-05  (-0.1800005E-06)
 number of electron       6.0000014 magnetization 
 augmentation part        0.4641927 magnetization 

 Broyden mixing:
  rms(total) = 0.53338E-04    rms(broyden)= 0.52390E-04
  rms(prec ) = 0.66381E-04
  weight for this iteration     100.00

 eigenvalues of (default mixing * dielectric matrix)
  average eigenvalue GAMMA=   1.6881
  2.5664  2.4879  0.9925  1.0833  1.3107

 Free energy of the ion-electron system (eV)
  ---------------------------------------------------
  alpha Z        PSCENC =         0.02241325
  Ewald energy   TEWEN  =       -50.71838898
  -Hartree energ DENC   =      -322.41097713
  -exchange      EXHF   =         0.00000000
  -V(xc)+E(xc)   XCENC  =        24.41576037
  PAW double counting   =       316.04489978     -315.28185138
  entropy T*S    EENTRO =        -0.07711341
  eigenvalues    EBANDS =       -83.93551370
  atomic energy  EATOM  =       431.98751057
  Solvation  Ediel_sol  =         0.00000000
  ---------------------------------------------------
  free energy    TOTEN  =         0.04673938 eV

  energy without entropy =        0.12385279  energy(sigma->0) =        0.08529609


--------------------------------------------------------------------------------------------------------




--------------------------------------- Iteration      1(  11)  ---------------------------------------


    POTLOK:  cpu time    0.0351: real time    0.0354
    SETDIJ:  cpu time    0.0017: real time    0.0017
     EDDAV:  cpu time    0.0578: real time    0.0581
       DOS:  cpu time    0.0001: real time    0.0001
    CHARGE:  cpu time    0.0853: real time    0.0861
    MIXING:  cpu time    0.0501: real time    0.0506
    --------------------------------------------
      LOOP:  cpu time    0.2300: real time    0.2320

 eigenvalue-minimisations  :    63
 total energy-change (2. order) :-0.1005411E-05  (-0.3854076E-08)
 number of electron       6.0000014 magnetization 
 augmentation part        0.4641903 magnetization 

 Broyden mixing:
  rms(total) = 0.13322E-04    rms(broyden)= 0.13183E-04
  rms(prec ) = 0.35160E-04
  weight for this iteration     100.00

 eigenvalues of (default mixing * dielectric matrix)
  average eigenvalue GAMMA=   1.8518
  2.9181  2.5382  2.3317  0.9959  0.9959  1.3311

 Free energy of the ion-electron system (eV)
  ---------------------------------------------------
  alpha Z        PSCENC =         0.02241325
  Ewald energy   TEWEN  =       -50.71838898
  -Hartree energ DENC   =      -322.41082753
  -exchange      EXHF   =         0.00000000
  -V(xc)+E(xc)   XCENC  =        24.41575181
  PAW double counting   =       316.05441902     -315.29138649
  entropy T*S    EENTRO =        -0.07711341
  eigenvalues    EBANDS =       -83.93563988
  atomic energy  EATOM  =       431.98751057
  Solvation  Ediel_sol  =         0.00000000
  ---------------------------------------------------
  free energy    TOTEN  =         0.04673838 eV

  energy without entropy =        0.12385178  energy(sigma->0) =        0.08529508


--------------------------------------------------------------------------------------------------------




--------------------------------------- Iteration      1(  12)  ---------------------------------------


    POTLOK:  cpu time    0.0357: real time    0.0360
    SETDIJ:  cpu time    0.0017: real time    0.0017
     EDDAV:  cpu time    0.0528: real time    0.0536
       DOS:  cpu time    0.0001: real time    0.0001
    CHARGE:  cpu time    0.0868: real time    0.0880
    MIXING:  cpu time    0.0526: real time    0.0533
    --------------------------------------------
      LOOP:  cpu time    0.2297: real time    0.2327

 eigenvalue-minimisations  :    56
 total energy-change (2. order) :-0.3439971E-05  (-0.8687808E-08)
 number of electron       6.0000014 magnetization 
 augmentation part        0.4641940 magnetization 

 Broyden mixing:
  rms(total) = 0.19934E-04    rms(broyden)= 0.19924E-04
  rms(prec ) = 0.25961E-04
  weight for this iteration     100.00

 eigenvalues of (default mixing * dielectric matrix)
  average eigenvalue GAMMA=   1.9497
  4.0502  2.5667  2.5021  0.9474  1.0332  1.3011  1.2473

 Free energy of the ion-electron system (eV)
  ---------------------------------------------------
  alpha Z        PSCENC =         0.02241325
  Ewald energy   TEWEN  =       -50.71838898
  -Hartree energ DENC   =      -322.40916923
  -exchange      EXHF   =         0.00000000
  -V(xc)+E(xc)   XCENC  =        24.41569112
  PAW double counting   =       316.05660884     -315.29359369
  entropy T*S    EENTRO =        -0.07711341
  eigenvalues    EBANDS =       -83.93722354
  atomic energy  EATOM  =       431.98751057
  Solvation  Ediel_sol  =         0.00000000
  ---------------------------------------------------
  free energy    TOTEN  =         0.04673494 eV

  energy without entropy =        0.12384834  energy(sigma->0) =        0.08529164


--------------------------------------------------------------------------------------------------------




--------------------------------------- Iteration      1(  13)  ---------------------------------------


    POTLOK:  cpu time    0.0359: real time    0.0360
    SETDIJ:  cpu time    0.0017: real time    0.0017
     EDDAV:  cpu time    0.0527: real time    0.0545
       DOS:  cpu time    0.0001: real time    0.0001
    CHARGE:  cpu time    0.0861: real time    0.0867
    MIXING:  cpu time    0.0550: real time    0.0556
    --------------------------------------------
      LOOP:  cpu time    0.2315: real time    0.2347

 eigenvalue-minimisations  :    56
 total energy-change (2. order) :-0.1303916E-05  (-0.1206351E-08)
 number of electron       6.0000014 magnetization 
 augmentation part        0.4641931 magnetization 

 Broyden mixing:
  rms(total) = 0.74500E-05    rms(broyden)= 0.74499E-05
  rms(prec ) = 0.10111E-04
  weight for this iteration     100.00

 eigenvalues of (default mixing * dielectric matrix)
  average eigenvalue GAMMA=   2.2643
  6.3576  2.6854  2.5086  2.2977  1.3499  0.9862  0.9862  0.9431

 Free energy of the ion-electron system (eV)
  ---------------------------------------------------
  alpha Z        PSCENC =         0.02241325
  Ewald energy   TEWEN  =       -50.71838898
  -Hartree energ DENC   =      -322.40925107
  -exchange      EXHF   =         0.00000000
  -V(xc)+E(xc)   XCENC  =        24.41572860
  PAW double counting   =       316.05504834     -315.29202947
  entropy T*S    EENTRO =        -0.07711341
  eigenvalues    EBANDS =       -83.93718420
  atomic energy  EATOM  =       431.98751057
  Solvation  Ediel_sol  =         0.00000000
  ---------------------------------------------------
  free energy    TOTEN  =         0.04673363 eV

  energy without entropy =        0.12384704  energy(sigma->0) =        0.08529034


--------------------------------------------------------------------------------------------------------




--------------------------------------- Iteration      1(  14)  ---------------------------------------


    POTLOK:  cpu time    0.0367: real time    0.0370
    SETDIJ:  cpu time    0.0017: real time    0.0017
     EDDAV:  cpu time    0.0581: real time    0.0583
       DOS:  cpu time    0.0001: real time    0.0001
    CHARGE:  cpu time    0.0865: real time    0.0873
    MIXING:  cpu time    0.0588: real time    0.0592
    --------------------------------------------
      LOOP:  cpu time    0.2419: real time    0.2435

 eigenvalue-minimisations  :    63
 total energy-change (2. order) :-0.8548525E-06  (-0.4394391E-09)
 number of electron       6.0000014 magnetization 
 augmentation part        0.4641927 magnetization 

 Broyden mixing:
  rms(total) = 0.37229E-05    rms(broyden)= 0.37225E-05
  rms(prec ) = 0.50591E-05
  weight for this iteration     100.00

 eigenvalues of (default mixing * dielectric matrix)
  average eigenvalue GAMMA=   2.4551
  8.1281  3.0397  2.5360  2.4930  1.6020  1.3571  1.0090  0.9652  0.9652

 Free energy of the ion-electron system (eV)
  ---------------------------------------------------
  alpha Z        PSCENC =         0.02241325
  Ewald energy   TEWEN  =       -50.71838898
  -Hartree energ DENC   =      -322.40927427
  -exchange      EXHF   =         0.00000000
  -V(xc)+E(xc)   XCENC  =        24.41574976
  PAW double counting   =       316.05576341     -315.29273729
  entropy T*S    EENTRO =        -0.07711341
  eigenvalues    EBANDS =       -83.93719027
  atomic energy  EATOM  =       431.98751057
  Solvation  Ediel_sol  =         0.00000000
  ---------------------------------------------------
  free energy    TOTEN  =         0.04673278 eV

  energy without entropy =        0.12384619  energy(sigma->0) =        0.08528948


--------------------------------------------------------------------------------------------------------




--------------------------------------- Iteration      1(  15)  ---------------------------------------


    POTLOK:  cpu time    0.0351: real time    0.0357
    SETDIJ:  cpu time    0.0017: real time    0.0017
     EDDAV:  cpu time    0.0628: real time    0.0631
       DOS:  cpu time    0.0001: real time    0.0001
    CHARGE:  cpu time    0.0861: real time    0.0869
    MIXING:  cpu time    0.0602: real time    0.0608
    --------------------------------------------
      LOOP:  cpu time    0.2460: real time    0.2484

 eigenvalue-minimisations  :    70
 total energy-change (2. order) :-0.1976213E-06  (-0.5725178E-10)
 number of electron       6.0000014 magnetization 
 augmentation part        0.4641933 magnetization 

 Broyden mixing:
  rms(total) = 0.12022E-05    rms(broyden)= 0.12014E-05
  rms(prec ) = 0.20058E-05
  weight for this iteration     100.00

 eigenvalues of (default mixing * dielectric matrix)
  average eigenvalue GAMMA=   2.6040
  8.7050  4.1390  2.8132  2.5183  2.4268  1.3528  0.9739  0.9739  1.0373  1.1002

 Free energy of the ion-electron system (eV)
  ---------------------------------------------------
  alpha Z        PSCENC =         0.02241325
  Ewald energy   TEWEN  =       -50.71838898
  -Hartree energ DENC   =      -322.40908353
  -exchange      EXHF   =         0.00000000
  -V(xc)+E(xc)   XCENC  =        24.41573979
  PAW double counting   =       316.05538664     -315.29236237
  entropy T*S    EENTRO =        -0.07711341
  eigenvalues    EBANDS =       -83.93736939
  atomic energy  EATOM  =       431.98751057
  Solvation  Ediel_sol  =         0.00000000
  ---------------------------------------------------
  free energy    TOTEN  =         0.04673258 eV

  energy without entropy =        0.12384599  energy(sigma->0) =        0.08528928


--------------------------------------------------------------------------------------------------------




--------------------------------------- Iteration      1(  16)  ---------------------------------------


    POTLOK:  cpu time    0.0360: real time    0.0363
    SETDIJ:  cpu time    0.0016: real time    0.0017
     EDDAV:  cpu time    0.0531: real time    0.0537
       DOS:  cpu time    0.0001: real time    0.0001
    --------------------------------------------
      LOOP:  cpu time    0.0909: real time    0.0917

 eigenvalue-minimisations  :    56
 total energy-change (2. order) :-0.8242620E-07  (-0.1627275E-10)
 number of electron       6.0000014 magnetization 
 augmentation part        0.4641933 magnetization 

 Free energy of the ion-electron system (eV)
  ---------------------------------------------------
  alpha Z        PSCENC =         0.02241325
  Ewald energy   TEWEN  =       -50.71838898
  -Hartree energ DENC   =      -322.40899473
  -exchange      EXHF   =         0.00000000
  -V(xc)+E(xc)   XCENC  =        24.41573433
  PAW double counting   =       316.05529386     -315.29227223
  entropy T*S    EENTRO =        -0.07711341
  eigenvalues    EBANDS =       -83.93745017
  atomic energy  EATOM  =       431.98751057
  Solvation  Ediel_sol  =         0.00000000
  ---------------------------------------------------
  free energy    TOTEN  =         0.04673250 eV

  energy without entropy =        0.12384591  energy(sigma->0) =        0.08528920


--------------------------------------------------------------------------------------------------------




 average (electrostatic) potential at core
  the test charge radii are     0.6768
  (the norm of the test charge is              1.0000)
       1-129.0945
 
 
 
 E-fermi :  -8.9681     XC(G=0):  -0.2142     alpha+bet : -0.0284

 Fermi energy:        -8.9680676662

 k-point     1 :       0.0000    0.0000    0.0000
  band No.  band energies     occupation 
      1     -24.0021      2.00000
      2      -8.9830      1.32717
      3      -8.9830      1.32717
      4      -8.9830      1.32717
      5      -0.2589      0.00000
      6       0.3008      0.00000
      7       0.5718      0.00000

 k-point     2 :       0.5000    0.0000    0.0000
  band No.  band energies     occupation 
      1     -24.0022      2.00000
      2      -8.9844      1.35538
      3      -8.9844      1.35538
      4      -8.9827      1.32147
      5      -0.1886      0.00000
      6       0.0967      0.00000
      7       0.5016      0.00000

 k-point     3 :       0.5000    0.5000    0.0000
  band No.  band energies     occupation 
      1     -24.0021      2.00000
      2      -8.9840      1.34761
      3      -8.9828      1.32271
      4      -8.9828      1.32271
      5      -0.1349      0.00000
      6       0.2490      0.00000
      7       0.2490      0.00000

 k-point     4 :       0.5000    0.5000    0.5000
  band No.  band energies     occupation 
      1     -24.0020      2.00000
      2      -8.9824      1.31424
      3      -8.9824      1.31424
      4      -8.9824      1.31424
      5      -0.0922      0.00000
      6       0.3853      0.00000
      7       0.3854      0.00000


--------------------------------------------------------------------------------------------------------


 soft charge-density along one line, spin component            1
         0         1         2         3         4         5         6         7         8         9
 total charge-density along one line
 
 pseudopotential strength for first ion, spin component:            1
 33.758  34.815  39.230   0.000   0.000  -0.000   0.000   0.000
 34.815  35.904  40.420   0.000   0.000  -0.000   0.000   0.000
 39.230  40.420  32.163   0.000   0.000  -0.000   0.000   0.000
  0.000   0.000   0.000  -7.061  -0.000   0.000  -7.949  -0.000
  0.000   0.000   0.000  -0.000  -7.061  -0.000  -0.000  -7.949
 -0.000  -0.000  -0.000   0.000  -0.000  -7.061   0.000  -0.000
  0.000   0.000   0.000  -7.949  -0.000   0.000  -8.932  -0.000
  0.000   0.000   0.000  -0.000  -7.949  -0.000  -0.000  -8.932
 -0.000  -0.000  -0.000   0.000  -0.000  -7.949   0.000  -0.000
 -0.000  -0.000  -0.000  -1.988   0.000  -0.000  -3.268   0.000
 -0.000  -0.000  -0.000   0.000  -1.988   0.000   0.000  -3.268
  0.000   0.000   0.000  -0.000   0.000  -1.988  -0.000   0.000
 -0.000  -0.000   0.000  -0.000   0.000   0.000  -0.000   0.000
  0.000   0.000  -0.000  -0.000   0.000   0.000  -0.000   0.000
  0.000   0.000  -0.000  -0.000   0.000  -0.000  -0.000   0.000
  0.000   0.000  -0.000   0.000  -0.000   0.000   0.000  -0.000
 -0.000  -0.000   0.000  -0.000   0.000  -0.000  -0.000   0.000
 -0.000  -0.000   0.000  -0.000  -0.000  -0.000   0.000  -0.000
  0.000   0.000  -0.000   0.000  -0.000  -0.000   0.000  -0.000
  0.000   0.000  -0.000   0.000  -0.000   0.000   0.000  -0.000
  0.000   0.000  -0.000  -0.000   0.000  -0.000  -0.000   0.000
 -0.000  -0.000   0.000   0.000  -0.000   0.000   0.000  -0.000
 total augmentation occupancy for first ion, spin component:            1
  1.423   0.265  -0.014   0.000   0.000   0.000   0.000   0.000   0.000   0.000   0.000   0.000   0.000   0.000   0.000   0.000
  0.265   0.049  -0.003   0.000   0.000   0.000   0.000   0.000   0.000   0.000   0.000   0.000   0.000   0.000  -0.000  -0.000
 -0.014  -0.003   0.000   0.000   0.000   0.000   0.000   0.000   0.000   0.000   0.000   0.000   0.000   0.000   0.000   0.000
  0.000   0.000   0.000   0.397   0.000   0.000   0.294   0.000   0.000   0.014   0.000   0.000   0.000   0.000   0.000   0.000
  0.000   0.000   0.000   0.000   0.397   0.000   0.000   0.294   0.000   0.000   0.014   0.000   0.000   0.000   0.000   0.000
  0.000   0.000   0.000   0.000   0.000   0.397   0.000   0.000   0.294   0.000   0.000   0.014   0.000   0.000   0.000   0.000
  0.000   0.000   0.000   0.294   0.000   0.000   0.218   0.000   0.000   0.011   0.000   0.000   0.000   0.000   0.000   0.000
  0.000   0.000   0.000   0.000   0.294   0.000   0.000   0.218   0.000   0.000   0.011   0.000   0.000   0.000   0.000   0.000
  0.000   0.000   0.000   0.000   0.000   0.294   0.000   0.000   0.218   0.000   0.000   0.011   0.000   0.000   0.000   0.000
  0.000   0.000   0.000   0.014   0.000   0.000   0.011   0.000   0.000   0.001   0.000   0.000   0.000   0.000   0.000   0.000
  0.000   0.000   0.000   0.000   0.014   0.000   0.000   0.011   0.000   0.000   0.001   0.000   0.000   0.000   0.000   0.000
  0.000   0.000   0.000   0.000   0.000   0.014   0.000   0.000   0.011   0.000   0.000   0.001   0.000   0.000   0.000   0.000
 -0.000   0.000  -0.000   0.000   0.000   0.000   0.000   0.000   0.000   0.000   0.000   0.000   0.000  -0.000   0.000   0.000
  0.000   0.000   0.000   0.000   0.000   0.000   0.000   0.000   0.000   0.000   0.000   0.000  -0.000   0.000   0.000  -0.000
  0.000  -0.000   0.000   0.000   0.000   0.000   0.000   0.000   0.000   0.000   0.000   0.000  -0.000   0.000   0.000   0.000
 -0.000  -0.000   0.000   0.000   0.000   0.000   0.000   0.000   0.000   0.000   0.000   0.000   0.000   0.000   0.000   0.000
 -0.000   0.000   0.000   0.000   0.000   0.000   0.000   0.000   0.000   0.000   0.000   0.000  -0.000   0.000   0.000   0.000
 -0.000  -0.000   0.000   0.000   0.000   0.000   0.000   0.000   0.000   0.000   0.000   0.000  -0.000  -0.000   0.000   0.000
  0.000   0.000   0.000   0.000   0.000   0.000   0.000   0.000   0.000   0.000   0.000   0.000   0.000  -0.000  -0.000   0.000
  0.000  -0.000  -0.000   0.000   0.000   0.000   0.000   0.000   0.000   0.000   0.000   0.000  -0.000   0.000   0.000   0.000
  0.000  -0.000  -0.000   0.000   0.000   0.000   0.000   0.000   0.000   0.000   0.000   0.000   0.000   0.000   0.000  -0.000
 -0.000   0.000   0.000   0.000   0.000   0.000   0.000   0.000   0.000   0.000   0.000   0.000   0.000   0.000   0.000  -0.000


------------------------ aborting loop because EDIFF is reached ----------------------------------------


    CHARGE:  cpu time    0.1181: real time    0.1199
    FORLOC:  cpu time    0.0080: real time    0.0080
    FORNL :  cpu time    0.0251: real time    0.0254
    STRESS:  cpu time    0.0878: real time    0.0889
    FORCOR:  cpu time    0.0330: real time    0.0331
    FORHAR:  cpu time    0.0077: real time    0.0079
    MIXING:  cpu time    0.0634: real time    0.0641
    OFIELD:  cpu time    0.0001: real time    0.0001

 ---------------------------------------------------------------------------------------------

         DFTD3 V3.0 Rev 1        
 IVDW         = 12
 DF pbe       
 parameters
 VDW_S6       =    1.0000
 VDW_S8       =    0.7875
 VDW_A1       =    0.4289
 VDW_A2       =    4.4407
 k1-k3        =   16.0000    1.3333   -4.0000
 VDW_RADIUS   =   50.2022 A
 VDW_CNRADIUS =   21.1671 A
 Edisp (eV)   -0.00000

 E6    (eV) :    -0.0000
 E8    (eV) :    -0.0000
 % E8        :  1.74
    FORVDW:  cpu time    0.0034: real time    0.0034

  FORCE on cell =-STRESS in cart. coord.  units (eV):
  Direction    XX          YY          ZZ          XY          YZ          ZX
  --------------------------------------------------------------------------------------
  Alpha Z     0.02241     0.02241     0.02241
  Ewald     -16.90613   -16.90613   -16.90613    -0.00000     0.00000     0.00000
  Hartree   107.46969   107.46969   107.46969    -0.00000    -0.00000    -0.00000
  E(xc)     -28.62960   -28.62960   -28.62960    -0.00000     0.00000     0.00000
  Local    -236.79187  -236.79187  -236.79187     0.00000     0.00000    -0.00000
  n-local    26.64023    26.61553    26.59750    -0.00000     0.00000     0.00000
  augment    14.81646    14.81646    14.81646    -0.00000     0.00000     0.00000
  Kinetic   130.02047   130.37848   130.64126     0.00000    -0.00000    -0.00000
  Fock        0.00000     0.00000     0.00000     0.00000     0.00000     0.00000
  vdW        -0.00001    -0.00001    -0.00001     0.00000     0.00000     0.00000
  -------------------------------------------------------------------------------------
  Total      -3.05457    -3.05457    -3.05457     0.00000    -0.00000     0.00000
  in kB      -1.60530    -1.60530    -1.60530     0.00000    -0.00000     0.00000
  external pressure =       -1.61 kB  Pullay stress =        0.00 kB


 VOLUME and BASIS-vectors are now :
 -----------------------------------------------------------------------------
  energy-cutoff  :      360.00
  volume of cell :     3048.63
      direct lattice vectors                 reciprocal lattice vectors
    14.500000000  0.000000000  0.000000000     0.068965517  0.000000000  0.000000000
     0.000000000 14.500000000  0.000000000     0.000000000  0.068965517  0.000000000
     0.000000000  0.000000000 14.500000000     0.000000000  0.000000000  0.068965517

  length of vectors
    14.500000000 14.500000000 14.500000000     0.068965517  0.068965517  0.068965517


 FORCES acting on ions
    electron-ion (+dipol)            ewald-force                    non-local-force                 convergence-correction
 -----------------------------------------------------------------------------------------------
   0.862E-16 -.147E-14 0.292E-14   -.768E-17 0.274E-16 -.673E-17   -.646E-26 0.000E+00 0.000E+00   -.126E-13 -.116E-13 -.129E-13
 -----------------------------------------------------------------------------------------------
   0.862E-16 -.147E-14 0.292E-14   -.768E-17 0.274E-16 -.673E-17   -.646E-26 0.000E+00 0.000E+00   -.126E-13 -.116E-13 -.129E-13
 
 
 POSITION                                       TOTAL-FORCE (eV/Angst)
 -----------------------------------------------------------------------------------
      0.00000      0.00000      0.00000         0.000000      0.000000      0.000000
 -----------------------------------------------------------------------------------
    total drift:                               -0.000000     -0.000000     -0.000000


--------------------------------------------------------------------------------------------------------



  FREE ENERGIE OF THE ION-ELECTRON SYSTEM (eV)
  ---------------------------------------------------
  free  energy   TOTEN  =         0.04672830 eV

  energy  without entropy=        0.12384171  energy(sigma->0) =        0.08528501
 


--------------------------------------------------------------------------------------------------------


    POTLOK:  cpu time    0.0547: real time    0.0553


--------------------------------------------------------------------------------------------------------


 stress matrix after NEB project (eV)
     -3.05457      0.00000      0.00000
      0.00000     -3.05457      0.00000
      0.00000     -0.00000     -3.05457
  FORCES: max atom, RMS     0.000000    0.000000
  FORCE total and by dimension    0.000000    0.000000
  Stress total and by dimension    5.290662    3.054565
     LOOP+:  cpu time    3.4105: real time    3.4983
    4ORBIT:  cpu time    0.0000: real time    0.0000

 total amount of memory used by VASP MPI-rank0   293634. kBytes
=======================================================================

   base      :      30000. kBytes
   nonlr-proj:        940. kBytes
   fftplans  :      94700. kBytes
   grid      :     146764. kBytes
   one-center:         23. kBytes
   wavefun   :      21207. kBytes
 
  
  
 General timing and accounting informations for this job:
 ========================================================
  
                  Total CPU time used (sec):        7.579
                            User time (sec):        5.740
                          System time (sec):        1.840
                         Elapsed time (sec):        8.752
  
                   Maximum memory used (kb):     1832836.
                   Average memory used (kb):          N/A
  
                          Minor page faults:       673835
                          Major page faults:            0
                 Voluntary context switches:         5587
