 254 254   0   0
  0.3019211E+02  0.1718057E-08  0.1718057E-08  0.3000000E-08  0.5000000E-15
   1.0000000000000000E-004
  CAR 
 NiAl                                    
      5.05799235    -17.95937947  301      1.64695769      1.00000000
    -17.959  0.0000E+00  0.0000E+00
    -17.883  0.0000E+00  0.0000E+00
    -17.806  0.0000E+00  0.0000E+00
    -17.729  0.0000E+00  0.0000E+00
    -17.652  0.0000E+00  0.0000E+00
    -17.576  0.0000E+00  0.0000E+00
    -17.499  0.0000E+00  0.0000E+00
    -17.422  0.0000E+00  0.0000E+00
    -17.346  0.0000E+00  0.0000E+00
    -17.269  0.0000E+00  0.0000E+00
    -17.192  0.3690E-13  0.2831E-14
    -17.115  0.1331E-06  0.1022E-07
    -17.039  0.4889E-02  0.3751E-03
    -16.962  0.2152E+01  0.1655E+00
    -16.885  0.1826E+02  0.1566E+01
    -16.809  0.5610E+01  0.1997E+01
    -16.732  0.4098E-01  0.2000E+01
    -16.655  0.3913E-05  0.2000E+01
    -16.578  0.3940E-11  0.2000E+01
    -16.502  0.0000E+00  0.2000E+01
    -16.425  0.0000E+00  0.2000E+01
    -16.348  0.0000E+00  0.2000E+01
    -16.271  0.0000E+00  0.2000E+01
    -16.195  0.0000E+00  0.2000E+01
    -16.118  0.0000E+00  0.2000E+01
    -16.041  0.0000E+00  0.2000E+01
    -15.965  0.0000E+00  0.2000E+01
    -15.888  0.0000E+00  0.2000E+01
    -15.811  0.0000E+00  0.2000E+01
    -15.734  0.0000E+00  0.2000E+01
    -15.658  0.0000E+00  0.2000E+01
    -15.581  0.0000E+00  0.2000E+01
    -15.504  0.0000E+00  0.2000E+01
    -15.427  0.0000E+00  0.2000E+01
    -15.351  0.0000E+00  0.2000E+01
    -15.274  0.0000E+00  0.2000E+01
    -15.197  0.0000E+00  0.2000E+01
    -15.121  0.0000E+00  0.2000E+01
    -15.044  0.0000E+00  0.2000E+01
    -14.967  0.0000E+00  0.2000E+01
    -14.890  0.0000E+00  0.2000E+01
    -14.814  0.0000E+00  0.2000E+01
    -14.737  0.0000E+00  0.2000E+01
    -14.660  0.0000E+00  0.2000E+01
    -14.583  0.0000E+00  0.2000E+01
    -14.507  0.0000E+00  0.2000E+01
    -14.430  0.0000E+00  0.2000E+01
    -14.353  0.0000E+00  0.2000E+01
    -14.277  0.0000E+00  0.2000E+01
    -14.200  0.0000E+00  0.2000E+01
    -14.123  0.0000E+00  0.2000E+01
    -14.046  0.0000E+00  0.2000E+01
    -13.970  0.0000E+00  0.2000E+01
    -13.893  0.0000E+00  0.2000E+01
    -13.816  0.0000E+00  0.2000E+01
    -13.740  0.0000E+00  0.2000E+01
    -13.663  0.0000E+00  0.2000E+01
    -13.586  0.0000E+00  0.2000E+01
    -13.509  0.0000E+00  0.2000E+01
    -13.433  0.0000E+00  0.2000E+01
    -13.356  0.0000E+00  0.2000E+01
    -13.279  0.0000E+00  0.2000E+01
    -13.202  0.0000E+00  0.2000E+01
    -13.126  0.1798E-08  0.2000E+01
    -13.049  0.2810E-03  0.2000E+01
    -12.972  0.4912E+00  0.2038E+01
    -12.896  0.1350E+02  0.3073E+01
    -12.819  0.1177E+02  0.3976E+01
    -12.742  0.3086E+00  0.4000E+01
    -12.665  0.1215E-03  0.4000E+01
    -12.589  0.5273E-09  0.4000E+01
    -12.512  0.0000E+00  0.4000E+01
    -12.435  0.0000E+00  0.4000E+01
    -12.358  0.0000E+00  0.4000E+01
    -12.282  0.0000E+00  0.4000E+01
    -12.205  0.0000E+00  0.4000E+01
    -12.128  0.0000E+00  0.4000E+01
    -12.052  0.0000E+00  0.4000E+01
    -11.975  0.0000E+00  0.4000E+01
    -11.898  0.0000E+00  0.4000E+01
    -11.821  0.0000E+00  0.4000E+01
    -11.745  0.0000E+00  0.4000E+01
    -11.668  0.0000E+00  0.4000E+01
    -11.591  0.0000E+00  0.4000E+01
    -11.515  0.0000E+00  0.4000E+01
    -11.438  0.0000E+00  0.4000E+01
    -11.361  0.0000E+00  0.4000E+01
    -11.284  0.0000E+00  0.4000E+01
    -11.208  0.0000E+00  0.4000E+01
    -11.131  0.0000E+00  0.4000E+01
    -11.054  0.0000E+00  0.4000E+01
    -10.977  0.0000E+00  0.4000E+01
    -10.901  0.0000E+00  0.4000E+01
    -10.824  0.0000E+00  0.4000E+01
    -10.747  0.0000E+00  0.4000E+01
    -10.671  0.0000E+00  0.4000E+01
    -10.594  0.0000E+00  0.4000E+01
    -10.517  0.0000E+00  0.4000E+01
    -10.440  0.0000E+00  0.4000E+01
    -10.364  0.0000E+00  0.4000E+01
    -10.287  0.0000E+00  0.4000E+01
    -10.210  0.0000E+00  0.4000E+01
    -10.133  0.0000E+00  0.4000E+01
    -10.057  0.0000E+00  0.4000E+01
     -9.980  0.0000E+00  0.4000E+01
     -9.903  0.0000E+00  0.4000E+01
     -9.827  0.0000E+00  0.4000E+01
     -9.750  0.0000E+00  0.4000E+01
     -9.673  0.0000E+00  0.4000E+01
     -9.596  0.0000E+00  0.4000E+01
     -9.520  0.3953E-11  0.4000E+01
     -9.443  0.2628E-05  0.4000E+01
     -9.366  0.1862E-01  0.4001E+01
     -9.290  0.1783E+01  0.4138E+01
     -9.213  0.4374E+01  0.4474E+01
     -9.136  0.6795E+01  0.4995E+01
     -9.059  0.2812E+02  0.7153E+01
     -8.983  0.4681E+01  0.7512E+01
     -8.906  0.3686E+01  0.7795E+01
     -8.829  0.4702E+01  0.8155E+01
     -8.752  0.4164E+02  0.1135E+02
     -8.676  0.3426E+02  0.1398E+02
     -8.599  0.2120E+02  0.1560E+02
     -8.522  0.1776E+02  0.1697E+02
     -8.446  0.7952E+01  0.1758E+02
     -8.369  0.2782E+02  0.1971E+02
     -8.292  0.9163E+01  0.2041E+02
     -8.215  0.3283E+02  0.2293E+02
     -8.139  0.2391E+02  0.2477E+02
     -8.062  0.8398E+02  0.3121E+02
     -7.985  0.1672E+02  0.3249E+02
     -7.908  0.8309E-01  0.3250E+02
     -7.832  0.3736E+01  0.3279E+02
     -7.755  0.8212E+02  0.3909E+02
     -7.678  0.6895E+02  0.4438E+02
     -7.602  0.1835E+02  0.4579E+02
     -7.525  0.2154E+02  0.4744E+02
     -7.448  0.1200E+02  0.4836E+02
     -7.371  0.3142E+02  0.5077E+02
     -7.295  0.2443E+02  0.5264E+02
     -7.218  0.5217E+02  0.5665E+02
     -7.141  0.3126E+02  0.5905E+02
     -7.064  0.1111E+03  0.6757E+02
     -6.988  0.2352E+02  0.6938E+02
     -6.911  0.5243E+02  0.7340E+02
     -6.834  0.2562E+02  0.7536E+02
     -6.758  0.9178E+02  0.8241E+02
     -6.681  0.6051E+02  0.8705E+02
     -6.604  0.2603E+02  0.8905E+02
     -6.527  0.1227E+02  0.8999E+02
     -6.451  0.5667E+00  0.9003E+02
     -6.374  0.4966E+01  0.9041E+02
     -6.297  0.4926E+02  0.9419E+02
     -6.221  0.1254E+03  0.1038E+03
     -6.144  0.6538E+02  0.1088E+03
     -6.067  0.1034E+03  0.1168E+03
     -5.990  0.1583E+02  0.1180E+03
     -5.914  0.4355E+02  0.1213E+03
     -5.837  0.4569E+02  0.1248E+03
     -5.760  0.1213E+03  0.1341E+03
     -5.683  0.5674E+02  0.1385E+03
     -5.607  0.2786E+02  0.1406E+03
     -5.530  0.1412E+02  0.1417E+03
     -5.453  0.6413E+02  0.1466E+03
     -5.377  0.5076E+02  0.1505E+03
     -5.300  0.4737E+02  0.1542E+03
     -5.223  0.9285E+02  0.1613E+03
     -5.146  0.7044E+02  0.1667E+03
     -5.070  0.6524E+02  0.1717E+03
     -4.993  0.6710E+01  0.1722E+03
     -4.916  0.4731E+02  0.1758E+03
     -4.839  0.7794E+02  0.1818E+03
     -4.763  0.1325E+03  0.1920E+03
     -4.686  0.3666E+02  0.1948E+03
     -4.609  0.6809E+02  0.2000E+03
     -4.533  0.2886E+02  0.2022E+03
     -4.456  0.5448E+02  0.2064E+03
     -4.379  0.6786E+02  0.2116E+03
     -4.302  0.1299E+03  0.2216E+03
     -4.226  0.1022E+03  0.2294E+03
     -4.149  0.8738E+02  0.2361E+03
     -4.072  0.2703E+02  0.2382E+03
     -3.996  0.5796E+02  0.2426E+03
     -3.919  0.8585E+02  0.2492E+03
     -3.842  0.7414E+02  0.2549E+03
     -3.765  0.8423E+02  0.2614E+03
     -3.689  0.4737E+02  0.2650E+03
     -3.612  0.6722E+02  0.2702E+03
     -3.535  0.1648E+02  0.2714E+03
     -3.458  0.6351E+01  0.2719E+03
     -3.382  0.6361E+02  0.2768E+03
     -3.305  0.9557E+02  0.2841E+03
     -3.228  0.8558E+02  0.2907E+03
     -3.152  0.1173E+03  0.2997E+03
     -3.075  0.7034E+02  0.3051E+03
     -2.998  0.1369E+03  0.3156E+03
     -2.921  0.1593E+03  0.3278E+03
     -2.845  0.1812E+03  0.3417E+03
     -2.768  0.2294E+02  0.3435E+03
     -2.691  0.2120E+00  0.3435E+03
     -2.614  0.1234E+02  0.3445E+03
     -2.538  0.5616E+02  0.3488E+03
     -2.461  0.9930E+02  0.3564E+03
     -2.384  0.1624E+03  0.3688E+03
     -2.308  0.5861E+02  0.3733E+03
     -2.231  0.1104E+03  0.3818E+03
     -2.154  0.4374E+02  0.3852E+03
     -2.077  0.5406E+02  0.3893E+03
     -2.001  0.1022E+03  0.3972E+03
     -1.924  0.1453E+03  0.4083E+03
     -1.847  0.1197E+03  0.4175E+03
     -1.770  0.2198E+02  0.4192E+03
     -1.694  0.6924E+02  0.4245E+03
     -1.617  0.8394E+02  0.4309E+03
     -1.540  0.4688E+02  0.4345E+03
     -1.464  0.1985E+03  0.4498E+03
     -1.387  0.1096E+03  0.4582E+03
     -1.310  0.1188E+03  0.4673E+03
     -1.233  0.7596E+02  0.4731E+03
     -1.157  0.7269E+02  0.4787E+03
     -1.080  0.6956E+02  0.4840E+03
     -1.003  0.1306E+03  0.4940E+03
     -0.927  0.1148E+03  0.5029E+03
     -0.850  0.7277E+02  0.5084E+03
     -0.773  0.7159E+02  0.5139E+03
     -0.696  0.6006E+02  0.5185E+03
     -0.620  0.1112E+03  0.5271E+03
     -0.543  0.2307E+03  0.5448E+03
     -0.466  0.9510E+02  0.5521E+03
     -0.389  0.1198E+03  0.5613E+03
     -0.313  0.1184E+03  0.5703E+03
     -0.236  0.4139E+02  0.5735E+03
     -0.159  0.2826E+02  0.5757E+03
     -0.083  0.8833E+02  0.5825E+03
     -0.006  0.1049E+03  0.5905E+03
      0.071  0.8216E+02  0.5968E+03
      0.148  0.9222E+02  0.6039E+03
      0.224  0.7540E+02  0.6097E+03
      0.301  0.8336E+02  0.6161E+03
      0.378  0.1612E+03  0.6284E+03
      0.455  0.7610E+02  0.6343E+03
      0.531  0.6797E+02  0.6395E+03
      0.608  0.3059E+02  0.6418E+03
      0.685  0.5480E+02  0.6460E+03
      0.761  0.7142E+02  0.6515E+03
      0.838  0.2406E+03  0.6700E+03
      0.915  0.2086E+03  0.6860E+03
      0.992  0.1134E+03  0.6947E+03
      1.068  0.7819E+02  0.7007E+03
      1.145  0.7432E+02  0.7064E+03
      1.222  0.6323E+02  0.7112E+03
      1.298  0.8856E+02  0.7180E+03
      1.375  0.1068E+03  0.7262E+03
      1.452  0.1551E+03  0.7381E+03
      1.529  0.1902E+03  0.7527E+03
      1.605  0.1368E+03  0.7632E+03
      1.682  0.9284E+02  0.7703E+03
      1.759  0.3407E+02  0.7730E+03
      1.836  0.1627E+03  0.7854E+03
      1.912  0.1547E+03  0.7973E+03
      1.989  0.6999E+02  0.8027E+03
      2.066  0.7205E+02  0.8082E+03
      2.142  0.7138E+02  0.8137E+03
      2.219  0.4798E+02  0.8174E+03
      2.296  0.1316E+03  0.8275E+03
      2.373  0.8575E+02  0.8340E+03
      2.449  0.1112E+03  0.8426E+03
      2.526  0.1433E+03  0.8536E+03
      2.603  0.5484E+02  0.8578E+03
      2.680  0.7878E+02  0.8638E+03
      2.756  0.1547E+03  0.8757E+03
      2.833  0.3326E+03  0.9012E+03
      2.910  0.1829E+03  0.9152E+03
      2.986  0.5149E+02  0.9192E+03
      3.063  0.5854E+02  0.9237E+03
      3.140  0.1040E+03  0.9317E+03
      3.217  0.1225E+03  0.9411E+03
      3.293  0.1660E+03  0.9538E+03
      3.370  0.1167E+03  0.9628E+03
      3.447  0.6969E+02  0.9681E+03
      3.524  0.9039E+02  0.9750E+03
      3.600  0.1086E+03  0.9834E+03
      3.677  0.7004E+02  0.9887E+03
      3.754  0.8419E+02  0.9952E+03
      3.830  0.1707E+03  0.1008E+04
      3.907  0.1472E+03  0.1020E+04
      3.984  0.4669E+02  0.1023E+04
      4.061  0.9790E+01  0.1024E+04
      4.137  0.9711E+00  0.1024E+04
      4.214  0.2012E-02  0.1024E+04
      4.291  0.5056E-07  0.1024E+04
      4.367  0.1375E-13  0.1024E+04
      4.444  0.0000E+00  0.1024E+04
      4.521  0.0000E+00  0.1024E+04
      4.598  0.0000E+00  0.1024E+04
      4.674  0.0000E+00  0.1024E+04
      4.751  0.0000E+00  0.1024E+04
      4.828  0.0000E+00  0.1024E+04
      4.905  0.0000E+00  0.1024E+04
      4.981  0.0000E+00  0.1024E+04
      5.058  0.0000E+00  0.1024E+04
