       N       E                     dE             d eps       ncg     rms          rms(c)
DAV:   1     0.236863294001E+04    0.23686E+04   -0.20430E+05  3080   0.854E+02
DAV:   2    -0.704006901952E+03   -0.30726E+04   -0.29035E+04  4192   0.201E+02
DAV:   3    -0.939487032991E+03   -0.23548E+03   -0.22430E+03  4288   0.434E+01
DAV:   4    -0.951191135098E+03   -0.11704E+02   -0.10613E+02  4344   0.956E+00
DAV:   5    -0.955044331735E+03   -0.38532E+01   -0.24018E+01  5088   0.267E+00    0.229E+01
DAV:   6    -0.966885191964E+03   -0.11841E+02   -0.18158E+02  4528   0.158E+01    0.256E+01
DAV:   7    -0.930395688515E+03    0.36490E+02   -0.12993E+02  4024   0.150E+01    0.126E+01
DAV:   8    -0.957045489755E+03   -0.26650E+02   -0.50556E+01  4664   0.125E+01    0.191E+01
DAV:   9    -0.928426761579E+03    0.28619E+02   -0.11475E+01  4056   0.978E+00    0.138E+01
DAV:  10    -0.928954385222E+03   -0.52762E+00   -0.64244E+00  3864   0.306E+00    0.979E+00
DAV:  11    -0.926664745390E+03    0.22896E+01   -0.36338E+00  4120   0.276E+00    0.881E+00
DAV:  12    -0.926826845693E+03   -0.16210E+00   -0.64530E+00  3896   0.113E+00    0.814E+00
DAV:  13    -0.926969211894E+03   -0.14237E+00   -0.39612E-01  4120   0.656E-01    0.130E+01
DAV:  14    -0.926558286914E+03    0.41092E+00   -0.13336E+00  3912   0.346E-01    0.771E+00
DAV:  15    -0.926514499958E+03    0.43787E-01   -0.42866E-02  3608   0.243E-01    0.722E+00
DAV:  16    -0.926513939448E+03    0.56051E-03   -0.88834E-01  3848   0.194E-01    0.884E+00
DAV:  17    -0.926444359004E+03    0.69580E-01   -0.15991E-02  3504   0.121E-01    0.606E+00
DAV:  18    -0.926458669770E+03   -0.14311E-01   -0.71501E-01  3960   0.790E-02    0.652E+00
DAV:  19    -0.926458033316E+03    0.63645E-03   -0.15728E-01  3408   0.872E-02    0.103E+00
DAV:  20    -0.926511059109E+03   -0.53026E-01   -0.57203E-02  3592   0.509E-02    0.324E+00
DAV:  21    -0.926486269743E+03    0.24789E-01   -0.73459E-02  3496   0.450E-02    0.200E+00
DAV:  22    -0.926504801968E+03   -0.18532E-01   -0.49205E-03  3392   0.334E-02    0.423E-01
DAV:  23    -0.926513269187E+03   -0.84672E-02   -0.46123E-04  3584   0.166E-02    0.482E-01
DAV:  24    -0.926514949143E+03   -0.16800E-02   -0.48483E-04  3184   0.127E-02    0.172E-01
DAV:  25    -0.926517273356E+03   -0.23242E-02   -0.22370E-04  3152   0.109E-02    0.387E-02
DAV:  26    -0.926518331830E+03   -0.10585E-02   -0.16517E-04  2976   0.825E-03    0.926E-02
DAV:  27    -0.926519314252E+03   -0.98242E-03   -0.72305E-05  2728   0.523E-03    0.909E-02
DAV:  28    -0.926520084311E+03   -0.77006E-03   -0.40280E-05  2624   0.360E-03    0.274E-02
DAV:  29    -0.926520557321E+03   -0.47301E-03   -0.23232E-05  2616   0.273E-03    0.190E-02
DAV:  30    -0.926520746904E+03   -0.18958E-03   -0.59766E-06  2328   0.187E-03    0.362E-02
DAV:  31    -0.926520819455E+03   -0.72551E-04   -0.19715E-06  2096   0.126E-03    0.520E-02
DAV:  32    -0.926520858091E+03   -0.38636E-04   -0.48527E-06  2096   0.105E-03    0.139E-02
DAV:  33    -0.926520871339E+03   -0.13248E-04   -0.76146E-07  1984   0.833E-04    0.123E-02
DAV:  34    -0.926520872738E+03   -0.13992E-05   -0.36914E-07  1824   0.533E-04
   1 F= -.99913372E+03 E0= -.99907284E+03  d E =-.121769E+00
