 254 254   0   0
  0.2268316E+02  0.1514622E-08  0.1514622E-08  0.2900000E-08  0.5000000E-15
   1.0000000000000000E-004
  CAR 
 NiAl                                    
      5.85403030    -22.98620842  301     -0.65571766      1.00000000
    -22.986  0.0000E+00  0.0000E+00
    -22.890  0.0000E+00  0.0000E+00
    -22.794  0.0000E+00  0.0000E+00
    -22.698  0.0000E+00  0.0000E+00
    -22.602  0.0000E+00  0.0000E+00
    -22.506  0.0000E+00  0.0000E+00
    -22.409  0.0000E+00  0.0000E+00
    -22.313  0.0000E+00  0.0000E+00
    -22.217  0.0000E+00  0.0000E+00
    -22.121  0.0000E+00  0.0000E+00
    -22.025  0.0000E+00  0.0000E+00
    -21.929  0.7634E-11  0.7339E-12
    -21.833  0.8771E-04  0.8432E-05
    -21.736  0.8609E+00  0.8277E-01
    -21.640  0.1656E+02  0.1675E+01
    -21.544  0.3379E+01  0.2000E+01
    -21.448  0.2214E-02  0.2000E+01
    -21.352  0.1396E-08  0.2000E+01
    -21.256  0.0000E+00  0.2000E+01
    -21.160  0.0000E+00  0.2000E+01
    -21.064  0.0000E+00  0.2000E+01
    -20.967  0.0000E+00  0.2000E+01
    -20.871  0.0000E+00  0.2000E+01
    -20.775  0.0000E+00  0.2000E+01
    -20.679  0.0000E+00  0.2000E+01
    -20.583  0.0000E+00  0.2000E+01
    -20.487  0.0000E+00  0.2000E+01
    -20.391  0.0000E+00  0.2000E+01
    -20.294  0.0000E+00  0.2000E+01
    -20.198  0.0000E+00  0.2000E+01
    -20.102  0.0000E+00  0.2000E+01
    -20.006  0.0000E+00  0.2000E+01
    -19.910  0.0000E+00  0.2000E+01
    -19.814  0.0000E+00  0.2000E+01
    -19.718  0.0000E+00  0.2000E+01
    -19.622  0.0000E+00  0.2000E+01
    -19.525  0.0000E+00  0.2000E+01
    -19.429  0.0000E+00  0.2000E+01
    -19.333  0.0000E+00  0.2000E+01
    -19.237  0.0000E+00  0.2000E+01
    -19.141  0.0000E+00  0.2000E+01
    -19.045  0.0000E+00  0.2000E+01
    -18.949  0.0000E+00  0.2000E+01
    -18.852  0.0000E+00  0.2000E+01
    -18.756  0.0000E+00  0.2000E+01
    -18.660  0.0000E+00  0.2000E+01
    -18.564  0.0000E+00  0.2000E+01
    -18.468  0.0000E+00  0.2000E+01
    -18.372  0.0000E+00  0.2000E+01
    -18.276  0.0000E+00  0.2000E+01
    -18.180  0.0000E+00  0.2000E+01
    -18.083  0.0000E+00  0.2000E+01
    -17.987  0.0000E+00  0.2000E+01
    -17.891  0.0000E+00  0.2000E+01
    -17.795  0.0000E+00  0.2000E+01
    -17.699  0.0000E+00  0.2000E+01
    -17.603  0.0000E+00  0.2000E+01
    -17.507  0.0000E+00  0.2000E+01
    -17.410  0.0000E+00  0.2000E+01
    -17.314  0.0000E+00  0.2000E+01
    -17.218  0.0000E+00  0.2000E+01
    -17.122  0.0000E+00  0.2000E+01
    -17.026  0.0000E+00  0.2000E+01
    -16.930  0.0000E+00  0.2000E+01
    -16.834  0.0000E+00  0.2000E+01
    -16.737  0.0000E+00  0.2000E+01
    -16.641  0.0000E+00  0.2000E+01
    -16.545  0.0000E+00  0.2000E+01
    -16.449  0.0000E+00  0.2000E+01
    -16.353  0.0000E+00  0.2000E+01
    -16.257  0.0000E+00  0.2000E+01
    -16.161  0.0000E+00  0.2000E+01
    -16.065  0.0000E+00  0.2000E+01
    -15.968  0.0000E+00  0.2000E+01
    -15.872  0.0000E+00  0.2000E+01
    -15.776  0.0000E+00  0.2000E+01
    -15.680  0.0000E+00  0.2000E+01
    -15.584  0.0000E+00  0.2000E+01
    -15.488  0.0000E+00  0.2000E+01
    -15.392  0.0000E+00  0.2000E+01
    -15.295  0.0000E+00  0.2000E+01
    -15.199  0.1122E-10  0.2000E+01
    -15.103  0.1121E-03  0.2000E+01
    -15.007  0.9630E+00  0.2093E+01
    -14.911  0.1672E+02  0.3700E+01
    -14.815  0.3115E+01  0.4000E+01
    -14.719  0.1794E-02  0.4000E+01
    -14.623  0.9840E-09  0.4000E+01
    -14.526  0.0000E+00  0.4000E+01
    -14.430  0.0000E+00  0.4000E+01
    -14.334  0.0000E+00  0.4000E+01
    -14.238  0.0000E+00  0.4000E+01
    -14.142  0.0000E+00  0.4000E+01
    -14.046  0.0000E+00  0.4000E+01
    -13.950  0.0000E+00  0.4000E+01
    -13.853  0.0000E+00  0.4000E+01
    -13.757  0.0000E+00  0.4000E+01
    -13.661  0.0000E+00  0.4000E+01
    -13.565  0.0000E+00  0.4000E+01
    -13.469  0.0000E+00  0.4000E+01
    -13.373  0.0000E+00  0.4000E+01
    -13.277  0.0000E+00  0.4000E+01
    -13.181  0.0000E+00  0.4000E+01
    -13.084  0.0000E+00  0.4000E+01
    -12.988  0.0000E+00  0.4000E+01
    -12.892  0.0000E+00  0.4000E+01
    -12.796  0.0000E+00  0.4000E+01
    -12.700  0.0000E+00  0.4000E+01
    -12.604  0.0000E+00  0.4000E+01
    -12.508  0.0000E+00  0.4000E+01
    -12.411  0.0000E+00  0.4000E+01
    -12.315  0.0000E+00  0.4000E+01
    -12.219  0.0000E+00  0.4000E+01
    -12.123  0.0000E+00  0.4000E+01
    -12.027  0.0000E+00  0.4000E+01
    -11.931  0.0000E+00  0.4000E+01
    -11.835  0.0000E+00  0.4000E+01
    -11.739  0.0000E+00  0.4000E+01
    -11.642  0.0000E+00  0.4000E+01
    -11.546  0.0000E+00  0.4000E+01
    -11.450  0.0000E+00  0.4000E+01
    -11.354  0.0000E+00  0.4000E+01
    -11.258  0.0000E+00  0.4000E+01
    -11.162  0.0000E+00  0.4000E+01
    -11.066  0.0000E+00  0.4000E+01
    -10.969  0.0000E+00  0.4000E+01
    -10.873  0.0000E+00  0.4000E+01
    -10.777  0.0000E+00  0.4000E+01
    -10.681  0.0000E+00  0.4000E+01
    -10.585  0.0000E+00  0.4000E+01
    -10.489  0.0000E+00  0.4000E+01
    -10.393  0.0000E+00  0.4000E+01
    -10.297  0.0000E+00  0.4000E+01
    -10.200  0.0000E+00  0.4000E+01
    -10.104  0.0000E+00  0.4000E+01
    -10.008  0.0000E+00  0.4000E+01
     -9.912  0.0000E+00  0.4000E+01
     -9.816  0.0000E+00  0.4000E+01
     -9.720  0.0000E+00  0.4000E+01
     -9.624  0.0000E+00  0.4000E+01
     -9.527  0.0000E+00  0.4000E+01
     -9.431  0.2448E-08  0.4000E+01
     -9.335  0.1753E-02  0.4000E+01
     -9.239  0.1288E+01  0.4124E+01
     -9.143  0.3803E+01  0.4490E+01
     -9.047  0.1227E+01  0.4608E+01
     -8.951  0.2449E+02  0.6962E+01
     -8.854  0.5588E+01  0.7500E+01
     -8.758  0.1051E+00  0.7510E+01
     -8.662  0.3766E+01  0.7872E+01
     -8.566  0.5895E+01  0.8438E+01
     -8.470  0.3673E+02  0.1197E+02
     -8.374  0.2179E+02  0.1406E+02
     -8.278  0.2424E+02  0.1639E+02
     -8.182  0.6300E+01  0.1700E+02
     -8.085  0.7545E+00  0.1707E+02
     -7.989  0.2331E+02  0.1931E+02
     -7.893  0.8057E+01  0.2009E+02
     -7.797  0.2106E+02  0.2211E+02
     -7.701  0.2406E+02  0.2443E+02
     -7.605  0.7522E+02  0.3166E+02
     -7.509  0.8767E+01  0.3250E+02
     -7.412  0.4863E-02  0.3250E+02
     -7.316  0.1848E+01  0.3268E+02
     -7.220  0.4730E+02  0.3722E+02
     -7.124  0.7217E+02  0.4416E+02
     -7.028  0.1388E+02  0.4550E+02
     -6.932  0.2051E+02  0.4747E+02
     -6.836  0.7977E+01  0.4823E+02
     -6.740  0.2824E+02  0.5095E+02
     -6.643  0.3121E+02  0.5395E+02
     -6.547  0.3747E+02  0.5755E+02
     -6.451  0.7416E+02  0.6468E+02
     -6.355  0.4435E+02  0.6895E+02
     -6.259  0.1602E+02  0.7049E+02
     -6.163  0.4980E+02  0.7527E+02
     -6.067  0.9026E+02  0.8395E+02
     -5.970  0.6656E+02  0.9035E+02
     -5.874  0.1688E+02  0.9197E+02
     -5.778  0.4601E+01  0.9241E+02
     -5.682  0.2410E+02  0.9473E+02
     -5.586  0.6165E+02  0.1007E+03
     -5.490  0.1572E+03  0.1158E+03
     -5.394  0.5018E+02  0.1206E+03
     -5.298  0.6519E+02  0.1269E+03
     -5.201  0.1160E+03  0.1380E+03
     -5.105  0.1005E+03  0.1477E+03
     -5.009  0.5969E+02  0.1534E+03
     -4.913  0.5469E+02  0.1587E+03
     -4.817  0.2587E+03  0.1835E+03
     -4.721  0.1608E+03  0.1990E+03
     -4.625  0.2228E+03  0.2204E+03
     -4.528  0.2260E+03  0.2421E+03
     -4.432  0.3082E+03  0.2718E+03
     -4.336  0.2610E+03  0.2969E+03
     -4.240  0.2897E+03  0.3247E+03
     -4.144  0.1811E+03  0.3421E+03
     -4.048  0.4362E+03  0.3841E+03
     -3.952  0.4393E+03  0.4263E+03
     -3.856  0.5120E+03  0.4755E+03
     -3.759  0.4139E+03  0.5153E+03
     -3.663  0.4653E+03  0.5600E+03
     -3.567  0.4030E+03  0.5988E+03
     -3.471  0.3561E+03  0.6330E+03
     -3.375  0.3353E+03  0.6652E+03
     -3.279  0.4491E+03  0.7084E+03
     -3.183  0.5210E+03  0.7585E+03
     -3.086  0.3741E+03  0.7945E+03
     -2.990  0.4549E+03  0.8382E+03
     -2.894  0.6127E+03  0.8971E+03
     -2.798  0.4840E+03  0.9436E+03
     -2.702  0.5591E+03  0.9974E+03
     -2.606  0.5416E+03  0.1049E+04
     -2.510  0.6955E+03  0.1116E+04
     -2.414  0.7335E+03  0.1187E+04
     -2.317  0.9187E+03  0.1275E+04
     -2.221  0.8043E+03  0.1352E+04
     -2.125  0.8702E+03  0.1436E+04
     -2.029  0.9189E+03  0.1524E+04
     -1.933  0.5893E+03  0.1581E+04
     -1.837  0.6088E+03  0.1640E+04
     -1.741  0.5462E+03  0.1692E+04
     -1.644  0.5287E+03  0.1743E+04
     -1.548  0.6199E+03  0.1803E+04
     -1.452  0.8379E+03  0.1883E+04
     -1.356  0.7085E+03  0.1951E+04
     -1.260  0.4702E+03  0.1996E+04
     -1.164  0.7647E+03  0.2070E+04
     -1.068  0.7533E+03  0.2142E+04
     -0.971  0.8804E+03  0.2227E+04
     -0.875  0.6279E+03  0.2287E+04
     -0.779  0.9064E+03  0.2374E+04
     -0.683  0.1261E+04  0.2496E+04
     -0.587  0.1108E+04  0.2602E+04
     -0.491  0.5001E+03  0.2650E+04
     -0.395  0.1851E+03  0.2668E+04
     -0.299  0.1207E+03  0.2680E+04
     -0.202  0.1571E+03  0.2695E+04
     -0.106  0.1696E+03  0.2711E+04
     -0.010  0.8670E+02  0.2719E+04
      0.086  0.4461E+02  0.2724E+04
      0.182  0.4869E+02  0.2728E+04
      0.278  0.3750E+02  0.2732E+04
      0.374  0.1445E+03  0.2746E+04
      0.471  0.8294E+02  0.2754E+04
      0.567  0.9660E+02  0.2763E+04
      0.663  0.6719E+02  0.2770E+04
      0.759  0.1131E+03  0.2781E+04
      0.855  0.1447E+03  0.2794E+04
      0.951  0.7779E+02  0.2802E+04
      1.047  0.1395E+02  0.2803E+04
      1.143  0.6510E+02  0.2810E+04
      1.240  0.1316E+03  0.2822E+04
      1.336  0.2012E+02  0.2824E+04
      1.432  0.5319E+02  0.2829E+04
      1.528  0.1140E+03  0.2840E+04
      1.624  0.8933E+02  0.2849E+04
      1.720  0.7270E+02  0.2856E+04
      1.816  0.1018E+03  0.2866E+04
      1.913  0.7767E+02  0.2873E+04
      2.009  0.3383E+02  0.2876E+04
      2.105  0.8392E+02  0.2884E+04
      2.201  0.1366E+03  0.2897E+04
      2.297  0.8063E+02  0.2905E+04
      2.393  0.2419E+02  0.2908E+04
      2.489  0.6607E+02  0.2914E+04
      2.585  0.3400E+02  0.2917E+04
      2.682  0.1075E+02  0.2918E+04
      2.778  0.4357E+02  0.2922E+04
      2.874  0.8440E+02  0.2930E+04
      2.970  0.2229E+03  0.2952E+04
      3.066  0.1257E+03  0.2964E+04
      3.162  0.2080E+02  0.2966E+04
      3.258  0.2547E+02  0.2968E+04
      3.355  0.8456E+02  0.2977E+04
      3.451  0.7156E+02  0.2983E+04
      3.547  0.2271E+02  0.2986E+04
      3.643  0.9413E+02  0.2995E+04
      3.739  0.8794E+01  0.2996E+04
      3.835  0.2124E+02  0.2998E+04
      3.931  0.1005E+02  0.2999E+04
      4.027  0.4871E+02  0.3003E+04
      4.124  0.6400E+02  0.3009E+04
      4.220  0.2949E+02  0.3012E+04
      4.316  0.7370E+02  0.3019E+04
      4.412  0.6046E+02  0.3025E+04
      4.508  0.7091E+02  0.3032E+04
      4.604  0.6224E+02  0.3038E+04
      4.700  0.8838E+00  0.3038E+04
      4.797  0.4950E-04  0.3038E+04
      4.893  0.3800E-11  0.3038E+04
      4.989  0.0000E+00  0.3038E+04
      5.085  0.0000E+00  0.3038E+04
      5.181  0.0000E+00  0.3038E+04
      5.277  0.0000E+00  0.3038E+04
      5.373  0.0000E+00  0.3038E+04
      5.469  0.0000E+00  0.3038E+04
      5.566  0.0000E+00  0.3038E+04
      5.662  0.0000E+00  0.3038E+04
      5.758  0.0000E+00  0.3038E+04
      5.854  0.0000E+00  0.3038E+04
