 257 257   0   0
  0.1133056E+02  0.1428000E-08  0.1428000E-08  0.1428000E-08  0.2000000E-15
   1.0000000000000000E-004
  CAR 
 NiAl                                    
     11.55844214    -19.11402546  301      4.04134772      1.00000000
    -19.114  0.0000E+00  0.0000E+00
    -19.012  0.0000E+00  0.0000E+00
    -18.910  0.0000E+00  0.0000E+00
    -18.807  0.0000E+00  0.0000E+00
    -18.705  0.0000E+00  0.0000E+00
    -18.603  0.0000E+00  0.0000E+00
    -18.501  0.0000E+00  0.0000E+00
    -18.398  0.0000E+00  0.0000E+00
    -18.296  0.0000E+00  0.0000E+00
    -18.194  0.0000E+00  0.0000E+00
    -18.092  0.0000E+00  0.0000E+00
    -17.989  0.5932E-14  0.6065E-15
    -17.887  0.5383E-06  0.5504E-07
    -17.785  0.1600E-01  0.1636E-02
    -17.683  0.4012E+00  0.4265E-01
    -17.580  0.7184E-01  0.5000E-01
    -17.478  0.1980E-04  0.5000E-01
    -17.376  0.2029E-11  0.5000E-01
    -17.274  0.0000E+00  0.5000E-01
    -17.171  0.0000E+00  0.5000E-01
    -17.069  0.0000E+00  0.5000E-01
    -16.967  0.0000E+00  0.5000E-01
    -16.865  0.0000E+00  0.5000E-01
    -16.762  0.0000E+00  0.5000E-01
    -16.660  0.0000E+00  0.5000E-01
    -16.558  0.0000E+00  0.5000E-01
    -16.456  0.0000E+00  0.5000E-01
    -16.354  0.0000E+00  0.5000E-01
    -16.251  0.0000E+00  0.5000E-01
    -16.149  0.0000E+00  0.5000E-01
    -16.047  0.0000E+00  0.5000E-01
    -15.945  0.0000E+00  0.5000E-01
    -15.842  0.0000E+00  0.5000E-01
    -15.740  0.0000E+00  0.5000E-01
    -15.638  0.0000E+00  0.5000E-01
    -15.536  0.0000E+00  0.5000E-01
    -15.433  0.0000E+00  0.5000E-01
    -15.331  0.0000E+00  0.5000E-01
    -15.229  0.0000E+00  0.5000E-01
    -15.127  0.0000E+00  0.5000E-01
    -15.024  0.0000E+00  0.5000E-01
    -14.922  0.0000E+00  0.5000E-01
    -14.820  0.0000E+00  0.5000E-01
    -14.718  0.0000E+00  0.5000E-01
    -14.615  0.0000E+00  0.5000E-01
    -14.513  0.0000E+00  0.5000E-01
    -14.411  0.0000E+00  0.5000E-01
    -14.309  0.0000E+00  0.5000E-01
    -14.206  0.0000E+00  0.5000E-01
    -14.104  0.0000E+00  0.5000E-01
    -14.002  0.0000E+00  0.5000E-01
    -13.900  0.0000E+00  0.5000E-01
    -13.797  0.0000E+00  0.5000E-01
    -13.695  0.0000E+00  0.5000E-01
    -13.593  0.0000E+00  0.5000E-01
    -13.491  0.0000E+00  0.5000E-01
    -13.388  0.0000E+00  0.5000E-01
    -13.286  0.0000E+00  0.5000E-01
    -13.184  0.0000E+00  0.5000E-01
    -13.082  0.0000E+00  0.5000E-01
    -12.980  0.0000E+00  0.5000E-01
    -12.877  0.0000E+00  0.5000E-01
    -12.775  0.0000E+00  0.5000E-01
    -12.673  0.0000E+00  0.5000E-01
    -12.571  0.0000E+00  0.5000E-01
    -12.468  0.0000E+00  0.5000E-01
    -12.366  0.0000E+00  0.5000E-01
    -12.264  0.0000E+00  0.5000E-01
    -12.162  0.0000E+00  0.5000E-01
    -12.059  0.0000E+00  0.5000E-01
    -11.957  0.0000E+00  0.5000E-01
    -11.855  0.0000E+00  0.5000E-01
    -11.753  0.0000E+00  0.5000E-01
    -11.650  0.0000E+00  0.5000E-01
    -11.548  0.0000E+00  0.5000E-01
    -11.446  0.0000E+00  0.5000E-01
    -11.344  0.0000E+00  0.5000E-01
    -11.241  0.0000E+00  0.5000E-01
    -11.139  0.0000E+00  0.5000E-01
    -11.037  0.0000E+00  0.5000E-01
    -10.935  0.0000E+00  0.5000E-01
    -10.832  0.0000E+00  0.5000E-01
    -10.730  0.0000E+00  0.5000E-01
    -10.628  0.0000E+00  0.5000E-01
    -10.526  0.0000E+00  0.5000E-01
    -10.423  0.0000E+00  0.5000E-01
    -10.321  0.0000E+00  0.5000E-01
    -10.219  0.0000E+00  0.5000E-01
    -10.117  0.0000E+00  0.5000E-01
    -10.015  0.0000E+00  0.5000E-01
     -9.912  0.0000E+00  0.5000E-01
     -9.810  0.0000E+00  0.5000E-01
     -9.708  0.0000E+00  0.5000E-01
     -9.606  0.0000E+00  0.5000E-01
     -9.503  0.0000E+00  0.5000E-01
     -9.401  0.0000E+00  0.5000E-01
     -9.299  0.0000E+00  0.5000E-01
     -9.197  0.0000E+00  0.5000E-01
     -9.094  0.0000E+00  0.5000E-01
     -8.992  0.0000E+00  0.5000E-01
     -8.890  0.0000E+00  0.5000E-01
     -8.788  0.0000E+00  0.5000E-01
     -8.685  0.0000E+00  0.5000E-01
     -8.583  0.0000E+00  0.5000E-01
     -8.481  0.0000E+00  0.5000E-01
     -8.379  0.0000E+00  0.5000E-01
     -8.276  0.0000E+00  0.5000E-01
     -8.174  0.0000E+00  0.5000E-01
     -8.072  0.0000E+00  0.5000E-01
     -7.970  0.0000E+00  0.5000E-01
     -7.867  0.0000E+00  0.5000E-01
     -7.765  0.0000E+00  0.5000E-01
     -7.663  0.0000E+00  0.5000E-01
     -7.561  0.0000E+00  0.5000E-01
     -7.458  0.0000E+00  0.5000E-01
     -7.356  0.0000E+00  0.5000E-01
     -7.254  0.0000E+00  0.5000E-01
     -7.152  0.0000E+00  0.5000E-01
     -7.050  0.0000E+00  0.5000E-01
     -6.947  0.0000E+00  0.5000E-01
     -6.845  0.0000E+00  0.5000E-01
     -6.743  0.0000E+00  0.5000E-01
     -6.641  0.0000E+00  0.5000E-01
     -6.538  0.0000E+00  0.5000E-01
     -6.436  0.0000E+00  0.5000E-01
     -6.334  0.0000E+00  0.5000E-01
     -6.232  0.0000E+00  0.5000E-01
     -6.129  0.0000E+00  0.5000E-01
     -6.027  0.0000E+00  0.5000E-01
     -5.925  0.0000E+00  0.5000E-01
     -5.823  0.0000E+00  0.5000E-01
     -5.720  0.0000E+00  0.5000E-01
     -5.618  0.0000E+00  0.5000E-01
     -5.516  0.0000E+00  0.5000E-01
     -5.414  0.0000E+00  0.5000E-01
     -5.311  0.0000E+00  0.5000E-01
     -5.209  0.0000E+00  0.5000E-01
     -5.107  0.0000E+00  0.5000E-01
     -5.005  0.0000E+00  0.5000E-01
     -4.902  0.0000E+00  0.5000E-01
     -4.800  0.1357E-15  0.5000E-01
     -4.698  0.2283E-07  0.5000E-01
     -4.596  0.1213E-02  0.5012E-01
     -4.493  0.5269E-01  0.5551E-01
     -4.391  0.4555E+00  0.1021E+00
     -4.289  0.1149E+01  0.2196E+00
     -4.187  0.2716E+00  0.2473E+00
     -4.085  0.4165E+00  0.2899E+00
     -3.982  0.3542E+00  0.3261E+00
     -3.880  0.2645E+00  0.3532E+00
     -3.778  0.1930E+00  0.3729E+00
     -3.676  0.2816E+00  0.4017E+00
     -3.573  0.4946E+00  0.4523E+00
     -3.471  0.8533E+00  0.5395E+00
     -3.369  0.8814E+00  0.6296E+00
     -3.267  0.5731E+00  0.6882E+00
     -3.164  0.1756E+00  0.7062E+00
     -3.062  0.7196E-01  0.7135E+00
     -2.960  0.4699E+00  0.7616E+00
     -2.858  0.6618E+00  0.8292E+00
     -2.755  0.1075E+01  0.9392E+00
     -2.653  0.9568E+00  0.1037E+01
     -2.551  0.8105E+00  0.1120E+01
     -2.449  0.1129E+01  0.1235E+01
     -2.346  0.3594E+00  0.1272E+01
     -2.244  0.3489E+00  0.1308E+01
     -2.142  0.7641E+00  0.1386E+01
     -2.040  0.1219E+01  0.1511E+01
     -1.937  0.1893E+01  0.1704E+01
     -1.835  0.5003E+00  0.1755E+01
     -1.733  0.1756E+00  0.1773E+01
     -1.631  0.4322E+00  0.1817E+01
     -1.528  0.1853E+01  0.2007E+01
     -1.426  0.1116E+01  0.2121E+01
     -1.324  0.1654E+01  0.2290E+01
     -1.222  0.1468E+01  0.2440E+01
     -1.120  0.6121E+00  0.2503E+01
     -1.017  0.1742E+01  0.2681E+01
     -0.915  0.3169E+01  0.3005E+01
     -0.813  0.7007E+00  0.3076E+01
     -0.711  0.5681E+00  0.3135E+01
     -0.608  0.1243E+01  0.3262E+01
     -0.506  0.1173E+01  0.3382E+01
     -0.404  0.3759E+01  0.3766E+01
     -0.302  0.4796E+01  0.4256E+01
     -0.199  0.2224E+01  0.4484E+01
     -0.097  0.2797E+01  0.4770E+01
      0.005  0.4715E+01  0.5252E+01
      0.107  0.5767E+01  0.5841E+01
      0.210  0.7217E+01  0.6579E+01
      0.312  0.5675E+01  0.7159E+01
      0.414  0.9351E+01  0.8115E+01
      0.516  0.7741E+01  0.8907E+01
      0.619  0.4669E+01  0.9384E+01
      0.721  0.1049E+02  0.1046E+02
      0.823  0.1234E+02  0.1172E+02
      0.925  0.1366E+02  0.1312E+02
      1.028  0.1093E+02  0.1423E+02
      1.130  0.1246E+02  0.1551E+02
      1.232  0.1252E+02  0.1679E+02
      1.334  0.1112E+02  0.1792E+02
      1.437  0.9664E+01  0.1891E+02
      1.539  0.1187E+02  0.2012E+02
      1.641  0.1156E+02  0.2131E+02
      1.743  0.1426E+02  0.2276E+02
      1.845  0.1498E+02  0.2430E+02
      1.948  0.1542E+02  0.2587E+02
      2.050  0.1380E+02  0.2728E+02
      2.152  0.2115E+02  0.2945E+02
      2.254  0.1986E+02  0.3148E+02
      2.357  0.1792E+02  0.3331E+02
      2.459  0.2061E+02  0.3542E+02
      2.561  0.2396E+02  0.3787E+02
      2.663  0.1515E+02  0.3941E+02
      2.766  0.1534E+02  0.4098E+02
      2.868  0.1442E+02  0.4246E+02
      2.970  0.1393E+02  0.4388E+02
      3.072  0.1242E+02  0.4515E+02
      3.175  0.1981E+02  0.4718E+02
      3.277  0.1993E+02  0.4921E+02
      3.379  0.1417E+02  0.5066E+02
      3.481  0.1908E+02  0.5261E+02
      3.584  0.1943E+02  0.5460E+02
      3.686  0.1199E+02  0.5583E+02
      3.788  0.1941E+02  0.5781E+02
      3.890  0.2107E+02  0.5996E+02
      3.993  0.2678E+02  0.6270E+02
      4.095  0.3055E+02  0.6583E+02
      4.197  0.1528E+02  0.6739E+02
      4.299  0.2726E+01  0.6767E+02
      4.402  0.1115E+01  0.6778E+02
      4.504  0.2657E+01  0.6805E+02
      4.606  0.1728E+01  0.6823E+02
      4.708  0.4364E+01  0.6867E+02
      4.810  0.4162E+01  0.6910E+02
      4.913  0.1460E+01  0.6925E+02
      5.015  0.1444E+01  0.6940E+02
      5.117  0.7212E+00  0.6947E+02
      5.219  0.2016E+01  0.6968E+02
      5.322  0.9958E+00  0.6978E+02
      5.424  0.1533E+01  0.6994E+02
      5.526  0.4370E+01  0.7038E+02
      5.628  0.5351E+01  0.7093E+02
      5.731  0.1006E+01  0.7103E+02
      5.833  0.1063E+01  0.7114E+02
      5.935  0.5657E+00  0.7120E+02
      6.037  0.1947E+01  0.7140E+02
      6.140  0.1110E+01  0.7151E+02
      6.242  0.8666E+00  0.7160E+02
      6.344  0.3062E+01  0.7191E+02
      6.446  0.1342E+01  0.7205E+02
      6.549  0.3620E+01  0.7242E+02
      6.651  0.1267E+01  0.7255E+02
      6.753  0.1267E+01  0.7268E+02
      6.855  0.7018E+00  0.7275E+02
      6.958  0.1761E+01  0.7293E+02
      7.060  0.3565E+01  0.7330E+02
      7.162  0.8837E+00  0.7339E+02
      7.264  0.2512E+01  0.7364E+02
      7.367  0.4810E+00  0.7369E+02
      7.469  0.1211E+01  0.7382E+02
      7.571  0.8044E+00  0.7390E+02
      7.673  0.1688E+01  0.7407E+02
      7.776  0.3639E+01  0.7444E+02
      7.878  0.1086E+01  0.7455E+02
      7.980  0.5016E+00  0.7460E+02
      8.082  0.1347E+01  0.7474E+02
      8.184  0.2479E+01  0.7500E+02
      8.287  0.6304E+00  0.7506E+02
      8.389  0.1895E+00  0.7508E+02
      8.491  0.1298E+01  0.7521E+02
      8.593  0.4504E+00  0.7526E+02
      8.696  0.5002E+00  0.7531E+02
      8.798  0.1153E+01  0.7543E+02
      8.900  0.2059E+01  0.7564E+02
      9.002  0.3496E+01  0.7600E+02
      9.105  0.1564E+01  0.7616E+02
      9.207  0.1870E+00  0.7617E+02
      9.309  0.1284E+00  0.7619E+02
      9.411  0.3881E-02  0.7619E+02
      9.514  0.2457E+00  0.7621E+02
      9.616  0.1076E+01  0.7632E+02
      9.718  0.2082E+00  0.7634E+02
      9.820  0.8344E+00  0.7643E+02
      9.923  0.2516E+01  0.7669E+02
     10.025  0.7499E+00  0.7676E+02
     10.127  0.9250E+00  0.7686E+02
     10.229  0.8830E+00  0.7695E+02
     10.332  0.1705E-01  0.7695E+02
     10.434  0.3690E-06  0.7695E+02
     10.536  0.3115E-14  0.7695E+02
     10.638  0.0000E+00  0.7695E+02
     10.741  0.0000E+00  0.7695E+02
     10.843  0.0000E+00  0.7695E+02
     10.945  0.0000E+00  0.7695E+02
     11.047  0.0000E+00  0.7695E+02
     11.149  0.0000E+00  0.7695E+02
     11.252  0.0000E+00  0.7695E+02
     11.354  0.0000E+00  0.7695E+02
     11.456  0.0000E+00  0.7695E+02
     11.558  0.0000E+00  0.7695E+02
