<?xml version="1.0" encoding="ISO-8859-1"?>
<modeling>
 <generator>
  <i name="program" type="string">vasp </i>
  <i name="version" type="string">6.2.1  </i>
  <i name="subversion" type="string">16May21 (build Jun 16 2021 03:23:30) complex                          parallel </i>
  <i name="platform" type="string">LinuxPGI </i>
  <i name="date" type="string">2022 04 23 </i>
  <i name="time" type="string">22:50:03 </i>
 </generator>
 <incar>
  <i type="string" name="SYSTEM">NiAl</i>
  <i type="int" name="ISTART">     0</i>
  <i type="int" name="NELMIN">     6</i>
  <i type="int" name="IBRION">     2</i>
  <i name="EDIFF">      0.00000010</i>
  <i type="int" name="NSW">    40</i>
  <i type="int" name="ISIF">     1</i>
  <i name="ENCUT">    360.00000000</i>
  <i name="POTIM">      0.20000000</i>
  <i type="string" name="LREAL">Auto</i>
  <i type="logical" name="LPLANE"> T  </i>
  <i type="int" name="ISMEAR">     0</i>
  <i name="SIGMA">      0.05000000</i>
  <i type="logical" name="LWAVE"> F  </i>
  <i type="logical" name="LCHARG"> F  </i>
  <i type="int" name="IVDW">    12</i>
 </incar>
 <primitive_cell>
  <structure name="primitive_cell" >
   <crystal>
    <varray name="basis" >
     <v>      14.28000000       0.00000000       0.00000000 </v>
     <v>       0.00000000      14.28000000       0.00000000 </v>
     <v>       0.00000000       0.00000000      14.28000000 </v>
    </varray>
    <i name="volume">   2911.95475200 </i>
    <varray name="rec_basis" >
     <v>       0.07002801       0.00000000       0.00000000 </v>
     <v>       0.00000000       0.07002801       0.00000000 </v>
     <v>       0.00000000       0.00000000       0.07002801 </v>
    </varray>
   </crystal>
   <varray name="positions" >
    <v>       0.00000000       0.00000000       0.00000000 </v>
    <v>       0.00000000       0.12500000       0.12500000 </v>
    <v>       0.12500000       0.00000000       0.12500000 </v>
    <v>       0.12500000       0.12500000       0.00000000 </v>
    <v>       0.00000000       0.00000000       0.25000000 </v>
    <v>       0.00000000       0.12500000       0.37500000 </v>
    <v>       0.12500000       0.00000000       0.37500000 </v>
    <v>       0.12500000       0.12500000       0.25000000 </v>
    <v>       0.00000000       0.00000000       0.50000000 </v>
    <v>       0.00000000       0.12500000       0.62500000 </v>
    <v>       0.12500000       0.00000000       0.62500000 </v>
    <v>       0.12500000       0.12500000       0.50000000 </v>
    <v>       0.00000000       0.00000000       0.75000000 </v>
    <v>       0.00000000       0.12500000       0.87500000 </v>
    <v>       0.12500000       0.00000000       0.87500000 </v>
    <v>       0.12500000       0.12500000       0.75000000 </v>
    <v>       0.00000000       0.25000000       0.00000000 </v>
    <v>       0.00000000       0.37500000       0.12500000 </v>
    <v>       0.12500000       0.25000000       0.12500000 </v>
    <v>       0.12500000       0.37500000       0.00000000 </v>
    <v>       0.00000000       0.25000000       0.25000000 </v>
    <v>       0.00000000       0.37500000       0.37500000 </v>
    <v>       0.12500000       0.25000000       0.37500000 </v>
    <v>       0.12500000       0.37500000       0.25000000 </v>
    <v>       0.00000000       0.25000000       0.50000000 </v>
    <v>       0.00000000       0.37500000       0.62500000 </v>
    <v>       0.12500000       0.25000000       0.62500000 </v>
    <v>       0.12500000       0.37500000       0.50000000 </v>
    <v>       0.00000000       0.25000000       0.75000000 </v>
    <v>       0.00000000       0.37500000       0.87500000 </v>
    <v>       0.12500000       0.25000000       0.87500000 </v>
    <v>       0.12500000       0.37500000       0.75000000 </v>
    <v>       0.00000000       0.50000000       0.00000000 </v>
    <v>       0.00000000       0.62500000       0.12500000 </v>
    <v>       0.12500000       0.50000000       0.12500000 </v>
    <v>       0.12500000       0.62500000       0.00000000 </v>
    <v>       0.00000000       0.50000000       0.25000000 </v>
    <v>       0.00000000       0.62500000       0.37500000 </v>
    <v>       0.12500000       0.50000000       0.37500000 </v>
    <v>       0.12500000       0.62500000       0.25000000 </v>
    <v>       0.00000000       0.50000000       0.50000000 </v>
    <v>       0.00000000       0.62500000       0.62500000 </v>
    <v>       0.12500000       0.50000000       0.62500000 </v>
    <v>       0.12500000       0.62500000       0.50000000 </v>
    <v>       0.00000000       0.50000000       0.75000000 </v>
    <v>       0.00000000       0.62500000       0.87500000 </v>
    <v>       0.12500000       0.50000000       0.87500000 </v>
    <v>       0.12500000       0.62500000       0.75000000 </v>
    <v>       0.00000000       0.75000000       0.00000000 </v>
    <v>       0.00000000       0.87500000       0.12500000 </v>
    <v>       0.12500000       0.75000000       0.12500000 </v>
    <v>       0.12500000       0.87500000       0.00000000 </v>
    <v>       0.00000000       0.75000000       0.25000000 </v>
    <v>       0.00000000       0.87500000       0.37500000 </v>
    <v>       0.12500000       0.75000000       0.37500000 </v>
    <v>       0.12500000       0.87500000       0.25000000 </v>
    <v>       0.00000000       0.75000000       0.50000000 </v>
    <v>       0.00000000       0.87500000       0.62500000 </v>
    <v>       0.12500000       0.75000000       0.62500000 </v>
    <v>       0.12500000       0.87500000       0.50000000 </v>
    <v>       0.00000000       0.75000000       0.75000000 </v>
    <v>       0.00000000       0.87500000       0.87500000 </v>
    <v>       0.12500000       0.75000000       0.87500000 </v>
    <v>       0.12500000       0.87500000       0.75000000 </v>
    <v>       0.25000000       0.00000000       0.00000000 </v>
    <v>       0.25000000       0.12500000       0.12500000 </v>
    <v>       0.37500000       0.00000000       0.12500000 </v>
    <v>       0.37500000       0.12500000       0.00000000 </v>
    <v>       0.25000000       0.00000000       0.25000000 </v>
    <v>       0.25000000       0.12500000       0.37500000 </v>
    <v>       0.37500000       0.00000000       0.37500000 </v>
    <v>       0.37500000       0.12500000       0.25000000 </v>
    <v>       0.25000000       0.00000000       0.50000000 </v>
    <v>       0.25000000       0.12500000       0.62500000 </v>
    <v>       0.37500000       0.00000000       0.62500000 </v>
    <v>       0.37500000       0.12500000       0.50000000 </v>
    <v>       0.25000000       0.00000000       0.75000000 </v>
    <v>       0.25000000       0.12500000       0.87500000 </v>
    <v>       0.37500000       0.00000000       0.87500000 </v>
    <v>       0.37500000       0.12500000       0.75000000 </v>
    <v>       0.25000000       0.25000000       0.00000000 </v>
    <v>       0.25000000       0.37500000       0.12500000 </v>
    <v>       0.37500000       0.25000000       0.12500000 </v>
    <v>       0.37500000       0.37500000       0.00000000 </v>
    <v>       0.25000000       0.25000000       0.25000000 </v>
    <v>       0.25000000       0.37500000       0.37500000 </v>
    <v>       0.37500000       0.25000000       0.37500000 </v>
    <v>       0.37500000       0.37500000       0.25000000 </v>
    <v>       0.25000000       0.25000000       0.50000000 </v>
    <v>       0.25000000       0.37500000       0.62500000 </v>
    <v>       0.37500000       0.25000000       0.62500000 </v>
    <v>       0.37500000       0.37500000       0.50000000 </v>
    <v>       0.25000000       0.25000000       0.75000000 </v>
    <v>       0.25000000       0.37500000       0.87500000 </v>
    <v>       0.37500000       0.25000000       0.87500000 </v>
    <v>       0.37500000       0.37500000       0.75000000 </v>
    <v>       0.25000000       0.50000000       0.00000000 </v>
    <v>       0.25000000       0.62500000       0.12500000 </v>
    <v>       0.37500000       0.50000000       0.12500000 </v>
    <v>       0.37500000       0.62500000       0.00000000 </v>
    <v>       0.25000000       0.50000000       0.25000000 </v>
    <v>       0.25000000       0.62500000       0.37500000 </v>
    <v>       0.37500000       0.50000000       0.37500000 </v>
    <v>       0.37500000       0.62500000       0.25000000 </v>
    <v>       0.25000000       0.50000000       0.50000000 </v>
    <v>       0.25000000       0.62500000       0.62500000 </v>
    <v>       0.37500000       0.50000000       0.62500000 </v>
    <v>       0.37500000       0.62500000       0.50000000 </v>
    <v>       0.25000000       0.50000000       0.75000000 </v>
    <v>       0.25000000       0.62500000       0.87500000 </v>
    <v>       0.37500000       0.50000000       0.87500000 </v>
    <v>       0.37500000       0.62500000       0.75000000 </v>
    <v>       0.25000000       0.75000000       0.00000000 </v>
    <v>       0.25000000       0.87500000       0.12500000 </v>
    <v>       0.37500000       0.75000000       0.12500000 </v>
    <v>       0.37500000       0.87500000       0.00000000 </v>
    <v>       0.25000000       0.75000000       0.25000000 </v>
    <v>       0.25000000       0.87500000       0.37500000 </v>
    <v>       0.37500000       0.75000000       0.37500000 </v>
    <v>       0.37500000       0.87500000       0.25000000 </v>
    <v>       0.25000000       0.75000000       0.50000000 </v>
    <v>       0.25000000       0.87500000       0.62500000 </v>
    <v>       0.37500000       0.75000000       0.62500000 </v>
    <v>       0.37500000       0.87500000       0.50000000 </v>
    <v>       0.25000000       0.75000000       0.75000000 </v>
    <v>       0.25000000       0.87500000       0.87500000 </v>
    <v>       0.37500000       0.75000000       0.87500000 </v>
    <v>       0.37500000       0.87500000       0.75000000 </v>
    <v>       0.50000000       0.00000000       0.00000000 </v>
    <v>       0.50000000       0.12500000       0.12500000 </v>
    <v>       0.62500000       0.00000000       0.12500000 </v>
    <v>       0.62500000       0.12500000       0.00000000 </v>
    <v>       0.50000000       0.00000000       0.25000000 </v>
    <v>       0.50000000       0.12500000       0.37500000 </v>
    <v>       0.62500000       0.00000000       0.37500000 </v>
    <v>       0.62500000       0.12500000       0.25000000 </v>
    <v>       0.50000000       0.00000000       0.50000000 </v>
    <v>       0.50000000       0.12500000       0.62500000 </v>
    <v>       0.62500000       0.00000000       0.62500000 </v>
    <v>       0.62500000       0.12500000       0.50000000 </v>
    <v>       0.50000000       0.00000000       0.75000000 </v>
    <v>       0.50000000       0.12500000       0.87500000 </v>
    <v>       0.62500000       0.00000000       0.87500000 </v>
    <v>       0.62500000       0.12500000       0.75000000 </v>
    <v>       0.50000000       0.25000000       0.00000000 </v>
    <v>       0.50000000       0.37500000       0.12500000 </v>
    <v>       0.62500000       0.25000000       0.12500000 </v>
    <v>       0.62500000       0.37500000       0.00000000 </v>
    <v>       0.50000000       0.25000000       0.25000000 </v>
    <v>       0.50000000       0.37500000       0.37500000 </v>
    <v>       0.62500000       0.25000000       0.37500000 </v>
    <v>       0.62500000       0.37500000       0.25000000 </v>
    <v>       0.50000000       0.25000000       0.50000000 </v>
    <v>       0.50000000       0.37500000       0.62500000 </v>
    <v>       0.62500000       0.25000000       0.62500000 </v>
    <v>       0.62500000       0.37500000       0.50000000 </v>
    <v>       0.50000000       0.25000000       0.75000000 </v>
    <v>       0.50000000       0.37500000       0.87500000 </v>
    <v>       0.62500000       0.25000000       0.87500000 </v>
    <v>       0.62500000       0.37500000       0.75000000 </v>
    <v>       0.50000000       0.50000000       0.00000000 </v>
    <v>       0.50000000       0.62500000       0.12500000 </v>
    <v>       0.62500000       0.50000000       0.12500000 </v>
    <v>       0.62500000       0.62500000       0.00000000 </v>
    <v>       0.50000000       0.50000000       0.25000000 </v>
    <v>       0.50000000       0.62500000       0.37500000 </v>
    <v>       0.62500000       0.50000000       0.37500000 </v>
    <v>       0.62500000       0.62500000       0.25000000 </v>
    <v>       0.50000000       0.50000000       0.50000000 </v>
    <v>       0.50000000       0.62500000       0.62500000 </v>
    <v>       0.62500000       0.50000000       0.62500000 </v>
    <v>       0.62500000       0.62500000       0.50000000 </v>
    <v>       0.50000000       0.50000000       0.75000000 </v>
    <v>       0.50000000       0.62500000       0.87500000 </v>
    <v>       0.62500000       0.50000000       0.87500000 </v>
    <v>       0.62500000       0.62500000       0.75000000 </v>
    <v>       0.50000000       0.75000000       0.00000000 </v>
    <v>       0.50000000       0.87500000       0.12500000 </v>
    <v>       0.62500000       0.75000000       0.12500000 </v>
    <v>       0.62500000       0.87500000       0.00000000 </v>
    <v>       0.50000000       0.75000000       0.25000000 </v>
    <v>       0.50000000       0.87500000       0.37500000 </v>
    <v>       0.62500000       0.75000000       0.37500000 </v>
    <v>       0.62500000       0.87500000       0.25000000 </v>
    <v>       0.50000000       0.75000000       0.50000000 </v>
    <v>       0.50000000       0.87500000       0.62500000 </v>
    <v>       0.62500000       0.75000000       0.62500000 </v>
    <v>       0.62500000       0.87500000       0.50000000 </v>
    <v>       0.50000000       0.75000000       0.75000000 </v>
    <v>       0.50000000       0.87500000       0.87500000 </v>
    <v>       0.62500000       0.75000000       0.87500000 </v>
    <v>       0.62500000       0.87500000       0.75000000 </v>
    <v>       0.75000000       0.00000000       0.00000000 </v>
    <v>       0.75000000       0.12500000       0.12500000 </v>
    <v>       0.87500000       0.00000000       0.12500000 </v>
    <v>       0.87500000       0.12500000       0.00000000 </v>
    <v>       0.75000000       0.00000000       0.25000000 </v>
    <v>       0.75000000       0.12500000       0.37500000 </v>
    <v>       0.87500000       0.00000000       0.37500000 </v>
    <v>       0.87500000       0.12500000       0.25000000 </v>
    <v>       0.75000000       0.00000000       0.50000000 </v>
    <v>       0.75000000       0.12500000       0.62500000 </v>
    <v>       0.87500000       0.00000000       0.62500000 </v>
    <v>       0.87500000       0.12500000       0.50000000 </v>
    <v>       0.75000000       0.00000000       0.75000000 </v>
    <v>       0.75000000       0.12500000       0.87500000 </v>
    <v>       0.87500000       0.00000000       0.87500000 </v>
    <v>       0.87500000       0.12500000       0.75000000 </v>
    <v>       0.75000000       0.25000000       0.00000000 </v>
    <v>       0.75000000       0.37500000       0.12500000 </v>
    <v>       0.87500000       0.25000000       0.12500000 </v>
    <v>       0.87500000       0.37500000       0.00000000 </v>
    <v>       0.75000000       0.25000000       0.25000000 </v>
    <v>       0.75000000       0.37500000       0.37500000 </v>
    <v>       0.87500000       0.25000000       0.37500000 </v>
    <v>       0.87500000       0.37500000       0.25000000 </v>
    <v>       0.75000000       0.25000000       0.50000000 </v>
    <v>       0.75000000       0.37500000       0.62500000 </v>
    <v>       0.87500000       0.25000000       0.62500000 </v>
    <v>       0.87500000       0.37500000       0.50000000 </v>
    <v>       0.75000000       0.25000000       0.75000000 </v>
    <v>       0.75000000       0.37500000       0.87500000 </v>
    <v>       0.87500000       0.25000000       0.87500000 </v>
    <v>       0.87500000       0.37500000       0.75000000 </v>
    <v>       0.75000000       0.50000000       0.00000000 </v>
    <v>       0.75000000       0.62500000       0.12500000 </v>
    <v>       0.87500000       0.50000000       0.12500000 </v>
    <v>       0.87500000       0.62500000       0.00000000 </v>
    <v>       0.75000000       0.50000000       0.25000000 </v>
    <v>       0.75000000       0.62500000       0.37500000 </v>
    <v>       0.87500000       0.50000000       0.37500000 </v>
    <v>       0.87500000       0.62500000       0.25000000 </v>
    <v>       0.75000000       0.50000000       0.50000000 </v>
    <v>       0.75000000       0.62500000       0.62500000 </v>
    <v>       0.87500000       0.50000000       0.62500000 </v>
    <v>       0.87500000       0.62500000       0.50000000 </v>
    <v>       0.75000000       0.50000000       0.75000000 </v>
    <v>       0.75000000       0.62500000       0.87500000 </v>
    <v>       0.87500000       0.50000000       0.87500000 </v>
    <v>       0.87500000       0.62500000       0.75000000 </v>
    <v>       0.75000000       0.75000000       0.00000000 </v>
    <v>       0.75000000       0.87500000       0.12500000 </v>
    <v>       0.87500000       0.75000000       0.12500000 </v>
    <v>       0.87500000       0.87500000       0.00000000 </v>
    <v>       0.75000000       0.75000000       0.25000000 </v>
    <v>       0.75000000       0.87500000       0.37500000 </v>
    <v>       0.87500000       0.75000000       0.37500000 </v>
    <v>       0.87500000       0.87500000       0.25000000 </v>
    <v>       0.75000000       0.75000000       0.50000000 </v>
    <v>       0.75000000       0.87500000       0.62500000 </v>
    <v>       0.87500000       0.75000000       0.62500000 </v>
    <v>       0.87500000       0.87500000       0.50000000 </v>
    <v>       0.75000000       0.75000000       0.75000000 </v>
    <v>       0.75000000       0.87500000       0.87500000 </v>
    <v>       0.87500000       0.75000000       0.87500000 </v>
    <v>       0.87500000       0.87500000       0.75000000 </v>
    <v>       0.12500000       0.00000000       0.00000000 </v>
   </varray>
  </structure>
  <varray name="primitive_index" >
   <v type="int" >        1 </v>
   <v type="int" >        2 </v>
   <v type="int" >        3 </v>
   <v type="int" >        4 </v>
   <v type="int" >        5 </v>
   <v type="int" >        6 </v>
   <v type="int" >        7 </v>
   <v type="int" >        8 </v>
   <v type="int" >        9 </v>
   <v type="int" >       10 </v>
   <v type="int" >       11 </v>
   <v type="int" >       12 </v>
   <v type="int" >       13 </v>
   <v type="int" >       14 </v>
   <v type="int" >       15 </v>
   <v type="int" >       16 </v>
   <v type="int" >       17 </v>
   <v type="int" >       18 </v>
   <v type="int" >       19 </v>
   <v type="int" >       20 </v>
   <v type="int" >       21 </v>
   <v type="int" >       22 </v>
   <v type="int" >       23 </v>
   <v type="int" >       24 </v>
   <v type="int" >       25 </v>
   <v type="int" >       26 </v>
   <v type="int" >       27 </v>
   <v type="int" >       28 </v>
   <v type="int" >       29 </v>
   <v type="int" >       30 </v>
   <v type="int" >       31 </v>
   <v type="int" >       32 </v>
   <v type="int" >       33 </v>
   <v type="int" >       34 </v>
   <v type="int" >       35 </v>
   <v type="int" >       36 </v>
   <v type="int" >       37 </v>
   <v type="int" >       38 </v>
   <v type="int" >       39 </v>
   <v type="int" >       40 </v>
   <v type="int" >       41 </v>
   <v type="int" >       42 </v>
   <v type="int" >       43 </v>
   <v type="int" >       44 </v>
   <v type="int" >       45 </v>
   <v type="int" >       46 </v>
   <v type="int" >       47 </v>
   <v type="int" >       48 </v>
   <v type="int" >       49 </v>
   <v type="int" >       50 </v>
   <v type="int" >       51 </v>
   <v type="int" >       52 </v>
   <v type="int" >       53 </v>
   <v type="int" >       54 </v>
   <v type="int" >       55 </v>
   <v type="int" >       56 </v>
   <v type="int" >       57 </v>
   <v type="int" >       58 </v>
   <v type="int" >       59 </v>
   <v type="int" >       60 </v>
   <v type="int" >       61 </v>
   <v type="int" >       62 </v>
   <v type="int" >       63 </v>
   <v type="int" >       64 </v>
   <v type="int" >       65 </v>
   <v type="int" >       66 </v>
   <v type="int" >       67 </v>
   <v type="int" >       68 </v>
   <v type="int" >       69 </v>
   <v type="int" >       70 </v>
   <v type="int" >       71 </v>
   <v type="int" >       72 </v>
   <v type="int" >       73 </v>
   <v type="int" >       74 </v>
   <v type="int" >       75 </v>
   <v type="int" >       76 </v>
   <v type="int" >       77 </v>
   <v type="int" >       78 </v>
   <v type="int" >       79 </v>
   <v type="int" >       80 </v>
   <v type="int" >       81 </v>
   <v type="int" >       82 </v>
   <v type="int" >       83 </v>
   <v type="int" >       84 </v>
   <v type="int" >       85 </v>
   <v type="int" >       86 </v>
   <v type="int" >       87 </v>
   <v type="int" >       88 </v>
   <v type="int" >       89 </v>
   <v type="int" >       90 </v>
   <v type="int" >       91 </v>
   <v type="int" >       92 </v>
   <v type="int" >       93 </v>
   <v type="int" >       94 </v>
   <v type="int" >       95 </v>
   <v type="int" >       96 </v>
   <v type="int" >       97 </v>
   <v type="int" >       98 </v>
   <v type="int" >       99 </v>
   <v type="int" >      100 </v>
   <v type="int" >      101 </v>
   <v type="int" >      102 </v>
   <v type="int" >      103 </v>
   <v type="int" >      104 </v>
   <v type="int" >      105 </v>
   <v type="int" >      106 </v>
   <v type="int" >      107 </v>
   <v type="int" >      108 </v>
   <v type="int" >      109 </v>
   <v type="int" >      110 </v>
   <v type="int" >      111 </v>
   <v type="int" >      112 </v>
   <v type="int" >      113 </v>
   <v type="int" >      114 </v>
   <v type="int" >      115 </v>
   <v type="int" >      116 </v>
   <v type="int" >      117 </v>
   <v type="int" >      118 </v>
   <v type="int" >      119 </v>
   <v type="int" >      120 </v>
   <v type="int" >      121 </v>
   <v type="int" >      122 </v>
   <v type="int" >      123 </v>
   <v type="int" >      124 </v>
   <v type="int" >      125 </v>
   <v type="int" >      126 </v>
   <v type="int" >      127 </v>
   <v type="int" >      128 </v>
   <v type="int" >      129 </v>
   <v type="int" >      130 </v>
   <v type="int" >      131 </v>
   <v type="int" >      132 </v>
   <v type="int" >      133 </v>
   <v type="int" >      134 </v>
   <v type="int" >      135 </v>
   <v type="int" >      136 </v>
   <v type="int" >      137 </v>
   <v type="int" >      138 </v>
   <v type="int" >      139 </v>
   <v type="int" >      140 </v>
   <v type="int" >      141 </v>
   <v type="int" >      142 </v>
   <v type="int" >      143 </v>
   <v type="int" >      144 </v>
   <v type="int" >      145 </v>
   <v type="int" >      146 </v>
   <v type="int" >      147 </v>
   <v type="int" >      148 </v>
   <v type="int" >      149 </v>
   <v type="int" >      150 </v>
   <v type="int" >      151 </v>
   <v type="int" >      152 </v>
   <v type="int" >      153 </v>
   <v type="int" >      154 </v>
   <v type="int" >      155 </v>
   <v type="int" >      156 </v>
   <v type="int" >      157 </v>
   <v type="int" >      158 </v>
   <v type="int" >      159 </v>
   <v type="int" >      160 </v>
   <v type="int" >      161 </v>
   <v type="int" >      162 </v>
   <v type="int" >      163 </v>
   <v type="int" >      164 </v>
   <v type="int" >      165 </v>
   <v type="int" >      166 </v>
   <v type="int" >      167 </v>
   <v type="int" >      168 </v>
   <v type="int" >      169 </v>
   <v type="int" >      170 </v>
   <v type="int" >      171 </v>
   <v type="int" >      172 </v>
   <v type="int" >      173 </v>
   <v type="int" >      174 </v>
   <v type="int" >      175 </v>
   <v type="int" >      176 </v>
   <v type="int" >      177 </v>
   <v type="int" >      178 </v>
   <v type="int" >      179 </v>
   <v type="int" >      180 </v>
   <v type="int" >      181 </v>
   <v type="int" >      182 </v>
   <v type="int" >      183 </v>
   <v type="int" >      184 </v>
   <v type="int" >      185 </v>
   <v type="int" >      186 </v>
   <v type="int" >      187 </v>
   <v type="int" >      188 </v>
   <v type="int" >      189 </v>
   <v type="int" >      190 </v>
   <v type="int" >      191 </v>
   <v type="int" >      192 </v>
   <v type="int" >      193 </v>
   <v type="int" >      194 </v>
   <v type="int" >      195 </v>
   <v type="int" >      196 </v>
   <v type="int" >      197 </v>
   <v type="int" >      198 </v>
   <v type="int" >      199 </v>
   <v type="int" >      200 </v>
   <v type="int" >      201 </v>
   <v type="int" >      202 </v>
   <v type="int" >      203 </v>
   <v type="int" >      204 </v>
   <v type="int" >      205 </v>
   <v type="int" >      206 </v>
   <v type="int" >      207 </v>
   <v type="int" >      208 </v>
   <v type="int" >      209 </v>
   <v type="int" >      210 </v>
   <v type="int" >      211 </v>
   <v type="int" >      212 </v>
   <v type="int" >      213 </v>
   <v type="int" >      214 </v>
   <v type="int" >      215 </v>
   <v type="int" >      216 </v>
   <v type="int" >      217 </v>
   <v type="int" >      218 </v>
   <v type="int" >      219 </v>
   <v type="int" >      220 </v>
   <v type="int" >      221 </v>
   <v type="int" >      222 </v>
   <v type="int" >      223 </v>
   <v type="int" >      224 </v>
   <v type="int" >      225 </v>
   <v type="int" >      226 </v>
   <v type="int" >      227 </v>
   <v type="int" >      228 </v>
   <v type="int" >      229 </v>
   <v type="int" >      230 </v>
   <v type="int" >      231 </v>
   <v type="int" >      232 </v>
   <v type="int" >      233 </v>
   <v type="int" >      234 </v>
   <v type="int" >      235 </v>
   <v type="int" >      236 </v>
   <v type="int" >      237 </v>
   <v type="int" >      238 </v>
   <v type="int" >      239 </v>
   <v type="int" >      240 </v>
   <v type="int" >      241 </v>
   <v type="int" >      242 </v>
   <v type="int" >      243 </v>
   <v type="int" >      244 </v>
   <v type="int" >      245 </v>
   <v type="int" >      246 </v>
   <v type="int" >      247 </v>
   <v type="int" >      248 </v>
   <v type="int" >      249 </v>
   <v type="int" >      250 </v>
   <v type="int" >      251 </v>
   <v type="int" >      252 </v>
   <v type="int" >      253 </v>
   <v type="int" >      254 </v>
   <v type="int" >      255 </v>
   <v type="int" >      256 </v>
   <v type="int" >      257 </v>
  </varray>
 </primitive_cell>
 <kpoints>
  <generation param="Gamma">
   <v type="int" name="divisions">       2        2        2 </v>
   <v name="usershift">      0.00000000       0.00000000       0.00000000 </v>
   <v name="genvec1">      0.50000000       0.00000000       0.00000000 </v>
   <v name="genvec2">      0.00000000       0.50000000       0.00000000 </v>
   <v name="genvec3">      0.00000000       0.00000000       0.50000000 </v>
   <v name="shift">      0.00000000       0.00000000       0.00000000 </v>
  </generation>
  <varray name="kpointlist" >
   <v>       0.00000000       0.00000000       0.00000000 </v>
   <v>       0.50000000       0.00000000       0.00000000 </v>
   <v>       0.50000000       0.50000000       0.00000000 </v>
   <v>       0.50000000       0.50000000       0.50000000 </v>
  </varray>
  <varray name="weights" >
   <v>       0.12500000 </v>
   <v>       0.37500000 </v>
   <v>       0.37500000 </v>
   <v>       0.12500000 </v>
  </varray>
 </kpoints>
 <parameters>
  <separator name="general" >
   <i type="string" name="SYSTEM">NiAl</i>
   <i type="logical" name="LCOMPAT"> F  </i>
  </separator>
  <separator name="electronic" >
   <i type="string" name="PREC">normal</i>
   <i name="ENMAX">    360.00000000</i>
   <i name="ENAUG">   1139.60900000</i>
   <i name="EDIFF">      0.00000010</i>
   <i type="int" name="IALGO">    38</i>
   <i type="int" name="IWAVPR">    11</i>
   <i type="int" name="NBANDS">  1539</i>
   <i type="int" name="NBANDSLOW">    -1</i>
   <i type="int" name="NBANDSHIGH">    -1</i>
   <i name="NELECT">   2566.00000000</i>
   <i type="int" name="TURBO">     0</i>
   <i type="int" name="IRESTART">     0</i>
   <i type="int" name="NREBOOT">     0</i>
   <i type="int" name="NMIN">     0</i>
   <i name="EREF">      0.00000000</i>
   <separator name="electronic smearing" >
    <i type="int" name="ISMEAR">     0</i>
    <i name="SIGMA">      0.05000000</i>
    <i name="KSPACING">      0.50000000</i>
    <i type="logical" name="KGAMMA"> T  </i>
    <i type="logical" name="KBLOWUP"> T  </i>
   </separator>
   <separator name="electronic projectors" >
    <i type="logical" name="LREAL"> T  </i>
    <v name="ROPT">     -0.00050000     -0.00050000</v>
    <i type="int" name="LMAXPAW">  -100</i>
    <i type="int" name="LMAXMIX">     2</i>
    <i type="logical" name="NLSPLINE"> F  </i>
   </separator>
   <separator name="electronic startup" >
    <i type="int" name="ISTART">     0</i>
    <i type="int" name="ICHARG">     2</i>
    <i type="int" name="INIWAV">     1</i>
   </separator>
   <separator name="electronic spin" >
    <i type="int" name="ISPIN">     1</i>
    <i type="logical" name="LNONCOLLINEAR"> F  </i>
    <v name="MAGMOM">      1.00000000      1.00000000      1.00000000      1.00000000      1.00000000      1.00000000      1.00000000      1.00000000      1.00000000      1.00000000      1.00000000      1.00000000      1.00000000      1.00000000      1.00000000      1.00000000      1.00000000      1.00000000      1.00000000      1.00000000
      1.00000000      1.00000000      1.00000000      1.00000000      1.00000000      1.00000000      1.00000000      1.00000000      1.00000000      1.00000000      1.00000000      1.00000000      1.00000000      1.00000000      1.00000000      1.00000000      1.00000000      1.00000000      1.00000000      1.00000000
      1.00000000      1.00000000      1.00000000      1.00000000      1.00000000      1.00000000      1.00000000      1.00000000      1.00000000      1.00000000      1.00000000      1.00000000      1.00000000      1.00000000      1.00000000      1.00000000      1.00000000      1.00000000      1.00000000      1.00000000
      1.00000000      1.00000000      1.00000000      1.00000000      1.00000000      1.00000000      1.00000000      1.00000000      1.00000000      1.00000000      1.00000000      1.00000000      1.00000000      1.00000000      1.00000000      1.00000000      1.00000000      1.00000000      1.00000000      1.00000000
      1.00000000      1.00000000      1.00000000      1.00000000      1.00000000      1.00000000      1.00000000      1.00000000      1.00000000      1.00000000      1.00000000      1.00000000      1.00000000      1.00000000      1.00000000      1.00000000      1.00000000      1.00000000      1.00000000      1.00000000
      1.00000000      1.00000000      1.00000000      1.00000000      1.00000000      1.00000000      1.00000000      1.00000000      1.00000000      1.00000000      1.00000000      1.00000000      1.00000000      1.00000000      1.00000000      1.00000000      1.00000000      1.00000000      1.00000000      1.00000000
      1.00000000      1.00000000      1.00000000      1.00000000      1.00000000      1.00000000      1.00000000      1.00000000      1.00000000      1.00000000      1.00000000      1.00000000      1.00000000      1.00000000      1.00000000      1.00000000      1.00000000      1.00000000      1.00000000      1.00000000
      1.00000000      1.00000000      1.00000000      1.00000000      1.00000000      1.00000000      1.00000000      1.00000000      1.00000000      1.00000000      1.00000000      1.00000000      1.00000000      1.00000000      1.00000000      1.00000000      1.00000000      1.00000000      1.00000000      1.00000000
      1.00000000      1.00000000      1.00000000      1.00000000      1.00000000      1.00000000      1.00000000      1.00000000      1.00000000      1.00000000      1.00000000      1.00000000      1.00000000      1.00000000      1.00000000      1.00000000      1.00000000      1.00000000      1.00000000      1.00000000
      1.00000000      1.00000000      1.00000000      1.00000000      1.00000000      1.00000000      1.00000000      1.00000000      1.00000000      1.00000000      1.00000000      1.00000000      1.00000000      1.00000000      1.00000000      1.00000000      1.00000000      1.00000000      1.00000000      1.00000000
      1.00000000      1.00000000      1.00000000      1.00000000      1.00000000      1.00000000      1.00000000      1.00000000      1.00000000      1.00000000      1.00000000      1.00000000      1.00000000      1.00000000      1.00000000      1.00000000      1.00000000      1.00000000      1.00000000      1.00000000
      1.00000000      1.00000000      1.00000000      1.00000000      1.00000000      1.00000000      1.00000000      1.00000000      1.00000000      1.00000000      1.00000000      1.00000000      1.00000000      1.00000000      1.00000000      1.00000000      1.00000000      1.00000000      1.00000000      1.00000000
      1.00000000      1.00000000      1.00000000      1.00000000      1.00000000      1.00000000      1.00000000      1.00000000      1.00000000      1.00000000      1.00000000      1.00000000      1.00000000      1.00000000      1.00000000      1.00000000      1.00000000</v>
    <i name="NUPDOWN">     -1.00000000</i>
    <i type="logical" name="LSORBIT"> F  </i>
    <v name="SAXIS">      0.00000000      0.00000000      1.00000000</v>
    <i type="logical" name="LSPIRAL"> F  </i>
    <v name="QSPIRAL">      0.00000000      0.00000000      0.00000000</v>
    <i type="logical" name="LZEROZ"> F  </i>
   </separator>
   <separator name="electronic exchange-correlation" >
    <i type="logical" name="LASPH"> F  </i>
    <i type="logical" name="LMETAGGA"> F  </i>
   </separator>
   <separator name="electronic convergence" >
    <i type="int" name="NELM">    60</i>
    <i type="int" name="NELMDL">    -5</i>
    <i type="int" name="NELMIN">     6</i>
    <i name="ENINI">    360.00000000</i>
    <separator name="electronic convergence detail" >
     <i type="logical" name="LDIAG"> T  </i>
     <i type="logical" name="LSUBROT"> F  </i>
     <i name="WEIMIN">      0.00100000</i>
     <i name="EBREAK">      0.00000000</i>
     <i name="DEPER">      0.30000000</i>
     <i type="int" name="NRMM">     4</i>
     <i name="TIME">      0.40000000</i>
    </separator>
   </separator>
   <separator name="electronic mixer" >
    <i name="AMIX">      0.40000000</i>
    <i name="BMIX">      1.00000000</i>
    <i name="AMIN">      0.10000000</i>
    <i name="AMIX_MAG">      1.60000000</i>
    <i name="BMIX_MAG">      1.00000000</i>
    <separator name="electronic mixer details" >
     <i type="int" name="IMIX">     4</i>
     <i type="logical" name="MIXFIRST"> F  </i>
     <i type="int" name="MAXMIX">   -45</i>
     <i name="WC">    100.00000000</i>
     <i type="int" name="INIMIX">     1</i>
     <i type="int" name="MIXPRE">     1</i>
     <i type="int" name="MREMOVE">     5</i>
    </separator>
   </separator>
   <separator name="electronic dipolcorrection" >
    <i type="logical" name="LDIPOL"> F  </i>
    <i type="logical" name="LMONO"> F  </i>
    <i type="int" name="IDIPOL">     0</i>
    <i name="EPSILON">      1.00000000</i>
    <v name="DIPOL">   -100.00000000   -100.00000000   -100.00000000</v>
    <i name="EFIELD">      0.00000000</i>
   </separator>
  </separator>
  <separator name="grids" >
   <i type="int" name="NGX">    70</i>
   <i type="int" name="NGY">    70</i>
   <i type="int" name="NGZ">    70</i>
   <i type="int" name="NGXF">   140</i>
   <i type="int" name="NGYF">   140</i>
   <i type="int" name="NGZF">   140</i>
   <i type="logical" name="ADDGRID"> F  </i>
  </separator>
  <separator name="ionic" >
   <i type="int" name="NSW">    40</i>
   <i type="int" name="IBRION">     2</i>
   <i type="int" name="MDALGO">     0</i>
   <i type="int" name="ISIF">     1</i>
   <i name="PSTRESS">      0.00000000</i>
   <i name="EDIFFG">      0.00000100</i>
   <i type="int" name="NFREE">     1</i>
   <i name="POTIM">      0.20000000</i>
   <i name="SMASS">     -3.00000000</i>
   <i name="SCALEE">      1.00000000</i>
  </separator>
  <separator name="ionic md" >
   <i name="TEBEG">      0.00010000</i>
   <i name="TEEND">      0.00010000</i>
   <i type="int" name="NBLOCK">     1</i>
   <i type="int" name="KBLOCK">    40</i>
   <i type="int" name="NPACO">   256</i>
   <i name="APACO">     16.00000000</i>
  </separator>
  <separator name="symmetry" >
   <i type="int" name="ISYM">     2</i>
   <i name="SYMPREC">      0.00001000</i>
  </separator>
  <separator name="dos" >
   <i type="int" name="LORBIT">     0</i>
   <v name="RWIGS">     -1.00000000     -1.00000000</v>
   <i type="int" name="NEDOS">   301</i>
   <i name="EMIN">     10.00000000</i>
   <i name="EMAX">    -10.00000000</i>
   <i name="EFERMI">      0.00000000</i>
  </separator>
  <separator name="writing" >
   <i type="int" name="NWRITE">     2</i>
   <i type="logical" name="LWAVE"> F  </i>
   <i type="logical" name="LDOWNSAMPLE"> F  </i>
   <i type="logical" name="LCHARG"> F  </i>
   <i type="logical" name="LPARD"> F  </i>
   <i type="logical" name="LVTOT"> F  </i>
   <i type="logical" name="LVHAR"> F  </i>
   <i type="logical" name="LELF"> F  </i>
   <i type="logical" name="LOPTICS"> F  </i>
   <v name="STM">      0.00000000      0.00000000      0.00000000      0.00000000      0.00000000      0.00000000      0.00000000</v>
  </separator>
  <separator name="performance" >
   <i type="int" name="NPAR">     1</i>
   <i type="int" name="NSIM">     4</i>
   <i type="int" name="NBLK">    -1</i>
   <i type="logical" name="LPLANE"> T  </i>
   <i type="logical" name="LSCALAPACK"> T  </i>
   <i type="logical" name="LSCAAWARE"> F  </i>
   <i type="logical" name="LSCALU"> F  </i>
   <i type="logical" name="LASYNC"> F  </i>
   <i type="logical" name="LORBITALREAL"> F  </i>
  </separator>
  <separator name="miscellaneous" >
   <i type="int" name="IDIOT">     3</i>
   <i type="int" name="PHON_NSTRUCT">    -1</i>
   <i type="logical" name="LMUSIC"> F  </i>
   <v name="POMASS">     58.69000000     16.00000000</v>
   <v name="DARWINR">      0.00000000      0.00000000</v>
   <v name="DARWINV">      1.00000000      1.00000000</v>
   <i type="logical" name="LCORR"> T  </i>
  </separator>
  <i type="logical" name="GGA_COMPAT"> T  </i>
  <i type="logical" name="LBERRY"> F  </i>
  <i type="int" name="ICORELEVEL">     0</i>
  <i type="logical" name="LDAU"> F  </i>
  <i type="int" name="I_CONSTRAINED_M">     0</i>
  <separator name="electronic exchange-correlation" >
   <i type="string" name="GGA">--</i>
   <i type="int" name="VOSKOWN">     0</i>
   <i type="logical" name="LHFCALC"> F  </i>
   <i type="string" name="PRECFOCK"></i>
   <i type="logical" name="LSYMGRAD"> F  </i>
   <i type="logical" name="LHFONE"> F  </i>
   <i type="logical" name="LRHFCALC"> F  </i>
   <i type="logical" name="LTHOMAS"> F  </i>
   <i type="logical" name="LMODELHF"> F  </i>
   <i type="logical" name="LFOCKACE"> F  </i>
   <i name="ENCUT4O">     -1.00000000</i>
   <i type="int" name="EXXOEP">     0</i>
   <i type="int" name="FOURORBIT">     0</i>
   <i name="AEXX">      0.00000000</i>
   <i name="HFALPHA">      0.00000000</i>
   <i name="MCALPHA">      0.00000000</i>
   <i name="ALDAX">      1.00000000</i>
   <i name="AGGAX">      1.00000000</i>
   <i name="ALDAC">      1.00000000</i>
   <i name="AGGAC">      1.00000000</i>
   <i type="int" name="NKREDX">     1</i>
   <i type="int" name="NKREDY">     1</i>
   <i type="int" name="NKREDZ">     1</i>
   <i type="logical" name="SHIFTRED"> F  </i>
   <i type="logical" name="ODDONLY"> F  </i>
   <i type="logical" name="EVENONLY"> F  </i>
   <i type="int" name="LMAXFOCK">     0</i>
   <i type="int" name="NMAXFOCKAE">     0</i>
   <i type="logical" name="LFOCKAEDFT"> F  </i>
   <i name="HFSCREEN">      0.00000000</i>
   <i name="HFSCREENC">      0.00000000</i>
   <i type="int" name="NBANDSGWLOW">     0</i>
  </separator>
  <separator name="vdW DFT" >
   <i type="logical" name="LUSE_VDW"> F  </i>
   <i name="Zab_VDW">     -0.84910000</i>
   <i name="PARAM1">      0.12340000</i>
   <i name="PARAM2">      1.00000000</i>
   <i name="PARAM3">      0.00000000</i>
  </separator>
  <separator name="model GW" >
   <i type="int" name="MODEL_GW">     0</i>
   <i name="MODEL_EPS0">      6.79833794</i>
   <i name="MODEL_ALPHA">      1.00000000</i>
  </separator>
  <separator name="linear response parameters" >
   <i type="logical" name="LEPSILON"> F  </i>
   <i type="logical" name="LRPA"> F  </i>
   <i type="logical" name="LNABLA"> F  </i>
   <i type="logical" name="LVEL"> F  </i>
   <i type="int" name="KINTER">     0</i>
   <i name="CSHIFT">      0.10000000</i>
   <i name="OMEGAMAX">     -1.00000000</i>
   <i name="DEG_THRESHOLD">      0.00200000</i>
   <i name="RTIME">     -0.10000000</i>
   <i name="WPLASMAI">      0.00000000</i>
   <v name="DFIELD">      0.00000000      0.00000000      0.00000000</v>
   <v name="WPLASMA">      0.00000000      0.00000000      0.00000000      0.00000000      0.00000000      0.00000000      0.00000000      0.00000000      0.00000000</v>
  </separator>
  <separator name="orbital magnetization" >
   <i type="logical" name="NUCIND"> F  </i>
   <v name="MAGPOS">      0.00000000      0.00000000      0.00000000</v>
   <i type="logical" name="LNICSALL"> T  </i>
   <i type="logical" name="ORBITALMAG"> F  </i>
   <i type="logical" name="LMAGBLOCH"> F  </i>
   <i type="logical" name="LCHIMAG"> F  </i>
   <i type="logical" name="LGAUGE"> T  </i>
   <i type="int" name="MAGATOM">     0</i>
   <v name="MAGDIPOL">      0.00000000      0.00000000      0.00000000</v>
   <v name="AVECCONST">      0.00000000      0.00000000      0.00000000</v>
  </separator>
  <separator name="response functions" >
   <i type="logical" name="LFINITE_TEMPERATURE"> F  </i>
   <i type="logical" name="LADDER"> F  </i>
   <i type="logical" name="LRPAFORCE"> F  </i>
   <i type="logical" name="LFXC"> F  </i>
   <i type="logical" name="LHARTREE"> T  </i>
   <i type="int" name="IBSE">     0</i>
   <v type="int" name="KPOINT">    -1     0     0     0</v>
   <i type="logical" name="LTCTC"> F  </i>
   <i type="logical" name="LTCTE"> F  </i>
   <i type="logical" name="LTETE"> F  </i>
   <i type="logical" name="LTRIPLET"> F  </i>
   <i type="logical" name="LFXCEPS"> F  </i>
   <i type="logical" name="LFXHEG"> F  </i>
   <i type="int" name="NATURALO">     2</i>
   <i type="logical" name="LHOLEGF"> F  </i>
   <i type="logical" name="L2ORDER"> F  </i>
   <i type="logical" name="LDMP1"> F  </i>
   <i type="logical" name="LMP2LT"> F  </i>
   <i type="logical" name="LSMP2LT"> F  </i>
   <i type="logical" name="LGWLF"> F  </i>
   <i name="ENCUTGW">     -2.00000000</i>
   <i name="ENCUTGWSOFT">     -2.00000000</i>
   <i name="ENCUTLF">     -1.00000000</i>
   <i type="logical" name="LESF_SPLINES"> F  </i>
   <i type="int" name="LMAXMP2">    -1</i>
   <i name="SCISSOR">      0.00000000</i>
   <i type="int" name="NOMEGA">     0</i>
   <i type="int" name="NOMEGAR">     0</i>
   <i type="int" name="NBANDSGW">    -1</i>
   <i type="int" name="NBANDSO">    -1</i>
   <i type="int" name="NBANDSV">    -1</i>
   <i type="int" name="NELM">     1</i>
   <i type="int" name="NELMHF">     1</i>
   <i type="int" name="DIM">     3</i>
   <i type="int" name="IESPILON">     4</i>
   <i type="int" name="ANTIRES">     0</i>
   <i name="OMEGAMAX">    -30.00000000</i>
   <i name="OMEGAMIN">    -30.00000000</i>
   <i name="OMEGATL">   -200.00000000</i>
   <i type="int" name="OMEGAGRID">     0</i>
   <i name="CSHIFT">     -0.10000000</i>
   <i type="logical" name="LSELFENERGY"> F  </i>
   <i type="logical" name="LSPECTRAL"> F  </i>
   <i type="logical" name="LSPECTRALGW"> F  </i>
   <i type="logical" name="LSINGLES"> F  </i>
   <i type="logical" name="LFERMIGW"> F  </i>
   <i type="logical" name="ODDONLYGW"> F  </i>
   <i type="logical" name="EVENONLYGW"> F  </i>
   <i type="int" name="NKREDLFX">     1</i>
   <i type="int" name="NKREDLFY">     1</i>
   <i type="int" name="NKREDLFZ">     1</i>
   <i type="int" name="MAXMEM">  2800</i>
   <i type="int" name="TELESCOPE">     0</i>
   <i type="int" name="NTAUPAR">    -1</i>
   <i type="int" name="NOMEGAPAR">    -1</i>
   <i name="DAMP_NEWTON">      0.80000001</i>
   <i name="LAMBDA">      1.00000000</i>
  </separator>
  <separator name="External order field" >
   <i name="OFIELD_KAPPA">      0.00000000</i>
   <v name="OFIELD_K">      0.00000000      0.00000000      0.00000000</v>
   <i name="OFIELD_Q6_NEAR">      0.00000000</i>
   <i name="OFIELD_Q6_FAR">      0.00000000</i>
   <i name="OFIELD_A">      0.00000000</i>
  </separator>
  <separator name="solvation model" >
   <i type="logical" name="LSOL"> F  </i>
  </separator>
 </parameters>
 <atominfo>
  <atoms>     257 </atoms>
  <types>       2 </types>
  <array name="atoms" >
   <dimension dim="1">ion</dimension>
   <field type="string">element</field>
   <field type="int">atomtype</field>
   <set>
    <rc><c>Ni</c><c>   1</c></rc>
    <rc><c>Ni</c><c>   1</c></rc>
    <rc><c>Ni</c><c>   1</c></rc>
    <rc><c>Ni</c><c>   1</c></rc>
    <rc><c>Ni</c><c>   1</c></rc>
    <rc><c>Ni</c><c>   1</c></rc>
    <rc><c>Ni</c><c>   1</c></rc>
    <rc><c>Ni</c><c>   1</c></rc>
    <rc><c>Ni</c><c>   1</c></rc>
    <rc><c>Ni</c><c>   1</c></rc>
    <rc><c>Ni</c><c>   1</c></rc>
    <rc><c>Ni</c><c>   1</c></rc>
    <rc><c>Ni</c><c>   1</c></rc>
    <rc><c>Ni</c><c>   1</c></rc>
    <rc><c>Ni</c><c>   1</c></rc>
    <rc><c>Ni</c><c>   1</c></rc>
    <rc><c>Ni</c><c>   1</c></rc>
    <rc><c>Ni</c><c>   1</c></rc>
    <rc><c>Ni</c><c>   1</c></rc>
    <rc><c>Ni</c><c>   1</c></rc>
    <rc><c>Ni</c><c>   1</c></rc>
    <rc><c>Ni</c><c>   1</c></rc>
    <rc><c>Ni</c><c>   1</c></rc>
    <rc><c>Ni</c><c>   1</c></rc>
    <rc><c>Ni</c><c>   1</c></rc>
    <rc><c>Ni</c><c>   1</c></rc>
    <rc><c>Ni</c><c>   1</c></rc>
    <rc><c>Ni</c><c>   1</c></rc>
    <rc><c>Ni</c><c>   1</c></rc>
    <rc><c>Ni</c><c>   1</c></rc>
    <rc><c>Ni</c><c>   1</c></rc>
    <rc><c>Ni</c><c>   1</c></rc>
    <rc><c>Ni</c><c>   1</c></rc>
    <rc><c>Ni</c><c>   1</c></rc>
    <rc><c>Ni</c><c>   1</c></rc>
    <rc><c>Ni</c><c>   1</c></rc>
    <rc><c>Ni</c><c>   1</c></rc>
    <rc><c>Ni</c><c>   1</c></rc>
    <rc><c>Ni</c><c>   1</c></rc>
    <rc><c>Ni</c><c>   1</c></rc>
    <rc><c>Ni</c><c>   1</c></rc>
    <rc><c>Ni</c><c>   1</c></rc>
    <rc><c>Ni</c><c>   1</c></rc>
    <rc><c>Ni</c><c>   1</c></rc>
    <rc><c>Ni</c><c>   1</c></rc>
    <rc><c>Ni</c><c>   1</c></rc>
    <rc><c>Ni</c><c>   1</c></rc>
    <rc><c>Ni</c><c>   1</c></rc>
    <rc><c>Ni</c><c>   1</c></rc>
    <rc><c>Ni</c><c>   1</c></rc>
    <rc><c>Ni</c><c>   1</c></rc>
    <rc><c>Ni</c><c>   1</c></rc>
    <rc><c>Ni</c><c>   1</c></rc>
    <rc><c>Ni</c><c>   1</c></rc>
    <rc><c>Ni</c><c>   1</c></rc>
    <rc><c>Ni</c><c>   1</c></rc>
    <rc><c>Ni</c><c>   1</c></rc>
    <rc><c>Ni</c><c>   1</c></rc>
    <rc><c>Ni</c><c>   1</c></rc>
    <rc><c>Ni</c><c>   1</c></rc>
    <rc><c>Ni</c><c>   1</c></rc>
    <rc><c>Ni</c><c>   1</c></rc>
    <rc><c>Ni</c><c>   1</c></rc>
    <rc><c>Ni</c><c>   1</c></rc>
    <rc><c>Ni</c><c>   1</c></rc>
    <rc><c>Ni</c><c>   1</c></rc>
    <rc><c>Ni</c><c>   1</c></rc>
    <rc><c>Ni</c><c>   1</c></rc>
    <rc><c>Ni</c><c>   1</c></rc>
    <rc><c>Ni</c><c>   1</c></rc>
    <rc><c>Ni</c><c>   1</c></rc>
    <rc><c>Ni</c><c>   1</c></rc>
    <rc><c>Ni</c><c>   1</c></rc>
    <rc><c>Ni</c><c>   1</c></rc>
    <rc><c>Ni</c><c>   1</c></rc>
    <rc><c>Ni</c><c>   1</c></rc>
    <rc><c>Ni</c><c>   1</c></rc>
    <rc><c>Ni</c><c>   1</c></rc>
    <rc><c>Ni</c><c>   1</c></rc>
    <rc><c>Ni</c><c>   1</c></rc>
    <rc><c>Ni</c><c>   1</c></rc>
    <rc><c>Ni</c><c>   1</c></rc>
    <rc><c>Ni</c><c>   1</c></rc>
    <rc><c>Ni</c><c>   1</c></rc>
    <rc><c>Ni</c><c>   1</c></rc>
    <rc><c>Ni</c><c>   1</c></rc>
    <rc><c>Ni</c><c>   1</c></rc>
    <rc><c>Ni</c><c>   1</c></rc>
    <rc><c>Ni</c><c>   1</c></rc>
    <rc><c>Ni</c><c>   1</c></rc>
    <rc><c>Ni</c><c>   1</c></rc>
    <rc><c>Ni</c><c>   1</c></rc>
    <rc><c>Ni</c><c>   1</c></rc>
    <rc><c>Ni</c><c>   1</c></rc>
    <rc><c>Ni</c><c>   1</c></rc>
    <rc><c>Ni</c><c>   1</c></rc>
    <rc><c>Ni</c><c>   1</c></rc>
    <rc><c>Ni</c><c>   1</c></rc>
    <rc><c>Ni</c><c>   1</c></rc>
    <rc><c>Ni</c><c>   1</c></rc>
    <rc><c>Ni</c><c>   1</c></rc>
    <rc><c>Ni</c><c>   1</c></rc>
    <rc><c>Ni</c><c>   1</c></rc>
    <rc><c>Ni</c><c>   1</c></rc>
    <rc><c>Ni</c><c>   1</c></rc>
    <rc><c>Ni</c><c>   1</c></rc>
    <rc><c>Ni</c><c>   1</c></rc>
    <rc><c>Ni</c><c>   1</c></rc>
    <rc><c>Ni</c><c>   1</c></rc>
    <rc><c>Ni</c><c>   1</c></rc>
    <rc><c>Ni</c><c>   1</c></rc>
    <rc><c>Ni</c><c>   1</c></rc>
    <rc><c>Ni</c><c>   1</c></rc>
    <rc><c>Ni</c><c>   1</c></rc>
    <rc><c>Ni</c><c>   1</c></rc>
    <rc><c>Ni</c><c>   1</c></rc>
    <rc><c>Ni</c><c>   1</c></rc>
    <rc><c>Ni</c><c>   1</c></rc>
    <rc><c>Ni</c><c>   1</c></rc>
    <rc><c>Ni</c><c>   1</c></rc>
    <rc><c>Ni</c><c>   1</c></rc>
    <rc><c>Ni</c><c>   1</c></rc>
    <rc><c>Ni</c><c>   1</c></rc>
    <rc><c>Ni</c><c>   1</c></rc>
    <rc><c>Ni</c><c>   1</c></rc>
    <rc><c>Ni</c><c>   1</c></rc>
    <rc><c>Ni</c><c>   1</c></rc>
    <rc><c>Ni</c><c>   1</c></rc>
    <rc><c>Ni</c><c>   1</c></rc>
    <rc><c>Ni</c><c>   1</c></rc>
    <rc><c>Ni</c><c>   1</c></rc>
    <rc><c>Ni</c><c>   1</c></rc>
    <rc><c>Ni</c><c>   1</c></rc>
    <rc><c>Ni</c><c>   1</c></rc>
    <rc><c>Ni</c><c>   1</c></rc>
    <rc><c>Ni</c><c>   1</c></rc>
    <rc><c>Ni</c><c>   1</c></rc>
    <rc><c>Ni</c><c>   1</c></rc>
    <rc><c>Ni</c><c>   1</c></rc>
    <rc><c>Ni</c><c>   1</c></rc>
    <rc><c>Ni</c><c>   1</c></rc>
    <rc><c>Ni</c><c>   1</c></rc>
    <rc><c>Ni</c><c>   1</c></rc>
    <rc><c>Ni</c><c>   1</c></rc>
    <rc><c>Ni</c><c>   1</c></rc>
    <rc><c>Ni</c><c>   1</c></rc>
    <rc><c>Ni</c><c>   1</c></rc>
    <rc><c>Ni</c><c>   1</c></rc>
    <rc><c>Ni</c><c>   1</c></rc>
    <rc><c>Ni</c><c>   1</c></rc>
    <rc><c>Ni</c><c>   1</c></rc>
    <rc><c>Ni</c><c>   1</c></rc>
    <rc><c>Ni</c><c>   1</c></rc>
    <rc><c>Ni</c><c>   1</c></rc>
    <rc><c>Ni</c><c>   1</c></rc>
    <rc><c>Ni</c><c>   1</c></rc>
    <rc><c>Ni</c><c>   1</c></rc>
    <rc><c>Ni</c><c>   1</c></rc>
    <rc><c>Ni</c><c>   1</c></rc>
    <rc><c>Ni</c><c>   1</c></rc>
    <rc><c>Ni</c><c>   1</c></rc>
    <rc><c>Ni</c><c>   1</c></rc>
    <rc><c>Ni</c><c>   1</c></rc>
    <rc><c>Ni</c><c>   1</c></rc>
    <rc><c>Ni</c><c>   1</c></rc>
    <rc><c>Ni</c><c>   1</c></rc>
    <rc><c>Ni</c><c>   1</c></rc>
    <rc><c>Ni</c><c>   1</c></rc>
    <rc><c>Ni</c><c>   1</c></rc>
    <rc><c>Ni</c><c>   1</c></rc>
    <rc><c>Ni</c><c>   1</c></rc>
    <rc><c>Ni</c><c>   1</c></rc>
    <rc><c>Ni</c><c>   1</c></rc>
    <rc><c>Ni</c><c>   1</c></rc>
    <rc><c>Ni</c><c>   1</c></rc>
    <rc><c>Ni</c><c>   1</c></rc>
    <rc><c>Ni</c><c>   1</c></rc>
    <rc><c>Ni</c><c>   1</c></rc>
    <rc><c>Ni</c><c>   1</c></rc>
    <rc><c>Ni</c><c>   1</c></rc>
    <rc><c>Ni</c><c>   1</c></rc>
    <rc><c>Ni</c><c>   1</c></rc>
    <rc><c>Ni</c><c>   1</c></rc>
    <rc><c>Ni</c><c>   1</c></rc>
    <rc><c>Ni</c><c>   1</c></rc>
    <rc><c>Ni</c><c>   1</c></rc>
    <rc><c>Ni</c><c>   1</c></rc>
    <rc><c>Ni</c><c>   1</c></rc>
    <rc><c>Ni</c><c>   1</c></rc>
    <rc><c>Ni</c><c>   1</c></rc>
    <rc><c>Ni</c><c>   1</c></rc>
    <rc><c>Ni</c><c>   1</c></rc>
    <rc><c>Ni</c><c>   1</c></rc>
    <rc><c>Ni</c><c>   1</c></rc>
    <rc><c>Ni</c><c>   1</c></rc>
    <rc><c>Ni</c><c>   1</c></rc>
    <rc><c>Ni</c><c>   1</c></rc>
    <rc><c>Ni</c><c>   1</c></rc>
    <rc><c>Ni</c><c>   1</c></rc>
    <rc><c>Ni</c><c>   1</c></rc>
    <rc><c>Ni</c><c>   1</c></rc>
    <rc><c>Ni</c><c>   1</c></rc>
    <rc><c>Ni</c><c>   1</c></rc>
    <rc><c>Ni</c><c>   1</c></rc>
    <rc><c>Ni</c><c>   1</c></rc>
    <rc><c>Ni</c><c>   1</c></rc>
    <rc><c>Ni</c><c>   1</c></rc>
    <rc><c>Ni</c><c>   1</c></rc>
    <rc><c>Ni</c><c>   1</c></rc>
    <rc><c>Ni</c><c>   1</c></rc>
    <rc><c>Ni</c><c>   1</c></rc>
    <rc><c>Ni</c><c>   1</c></rc>
    <rc><c>Ni</c><c>   1</c></rc>
    <rc><c>Ni</c><c>   1</c></rc>
    <rc><c>Ni</c><c>   1</c></rc>
    <rc><c>Ni</c><c>   1</c></rc>
    <rc><c>Ni</c><c>   1</c></rc>
    <rc><c>Ni</c><c>   1</c></rc>
    <rc><c>Ni</c><c>   1</c></rc>
    <rc><c>Ni</c><c>   1</c></rc>
    <rc><c>Ni</c><c>   1</c></rc>
    <rc><c>Ni</c><c>   1</c></rc>
    <rc><c>Ni</c><c>   1</c></rc>
    <rc><c>Ni</c><c>   1</c></rc>
    <rc><c>Ni</c><c>   1</c></rc>
    <rc><c>Ni</c><c>   1</c></rc>
    <rc><c>Ni</c><c>   1</c></rc>
    <rc><c>Ni</c><c>   1</c></rc>
    <rc><c>Ni</c><c>   1</c></rc>
    <rc><c>Ni</c><c>   1</c></rc>
    <rc><c>Ni</c><c>   1</c></rc>
    <rc><c>Ni</c><c>   1</c></rc>
    <rc><c>Ni</c><c>   1</c></rc>
    <rc><c>Ni</c><c>   1</c></rc>
    <rc><c>Ni</c><c>   1</c></rc>
    <rc><c>Ni</c><c>   1</c></rc>
    <rc><c>Ni</c><c>   1</c></rc>
    <rc><c>Ni</c><c>   1</c></rc>
    <rc><c>Ni</c><c>   1</c></rc>
    <rc><c>Ni</c><c>   1</c></rc>
    <rc><c>Ni</c><c>   1</c></rc>
    <rc><c>Ni</c><c>   1</c></rc>
    <rc><c>Ni</c><c>   1</c></rc>
    <rc><c>Ni</c><c>   1</c></rc>
    <rc><c>Ni</c><c>   1</c></rc>
    <rc><c>Ni</c><c>   1</c></rc>
    <rc><c>Ni</c><c>   1</c></rc>
    <rc><c>Ni</c><c>   1</c></rc>
    <rc><c>Ni</c><c>   1</c></rc>
    <rc><c>Ni</c><c>   1</c></rc>
    <rc><c>Ni</c><c>   1</c></rc>
    <rc><c>Ni</c><c>   1</c></rc>
    <rc><c>Ni</c><c>   1</c></rc>
    <rc><c>Ni</c><c>   1</c></rc>
    <rc><c>Ni</c><c>   1</c></rc>
    <rc><c>Ni</c><c>   1</c></rc>
    <rc><c>O </c><c>   2</c></rc>
   </set>
  </array>
  <array name="atomtypes" >
   <dimension dim="1">type</dimension>
   <field type="int">atomspertype</field>
   <field type="string">element</field>
   <field>mass</field>
   <field>valence</field>
   <field type="string">pseudopotential</field>
   <set>
    <rc><c> 256</c><c>Ni</c><c>     58.69000000</c><c>     10.00000000</c><c>  PAW Ni_GW 31Mar2010                   </c></rc>
    <rc><c>   1</c><c>O </c><c>     16.00000000</c><c>      6.00000000</c><c>  PAW O_GW 19Mar2012                    </c></rc>
   </set>
  </array>
 </atominfo>
 <structure name="initialpos" >
  <crystal>
   <varray name="basis" >
    <v>      14.28000000       0.00000000       0.00000000 </v>
    <v>       0.00000000      14.28000000       0.00000000 </v>
    <v>       0.00000000       0.00000000      14.28000000 </v>
   </varray>
   <i name="volume">   2911.95475200 </i>
   <varray name="rec_basis" >
    <v>       0.07002801       0.00000000       0.00000000 </v>
    <v>       0.00000000       0.07002801       0.00000000 </v>
    <v>       0.00000000       0.00000000       0.07002801 </v>
   </varray>
  </crystal>
  <varray name="positions" >
   <v>       0.00000000       0.00000000       0.00000000 </v>
   <v>       0.00000000       0.12500000       0.12500000 </v>
   <v>       0.12500000       0.00000000       0.12500000 </v>
   <v>       0.12500000       0.12500000       0.00000000 </v>
   <v>       0.00000000       0.00000000       0.25000000 </v>
   <v>       0.00000000       0.12500000       0.37500000 </v>
   <v>       0.12500000       0.00000000       0.37500000 </v>
   <v>       0.12500000       0.12500000       0.25000000 </v>
   <v>       0.00000000       0.00000000       0.50000000 </v>
   <v>       0.00000000       0.12500000       0.62500000 </v>
   <v>       0.12500000       0.00000000       0.62500000 </v>
   <v>       0.12500000       0.12500000       0.50000000 </v>
   <v>       0.00000000       0.00000000       0.75000000 </v>
   <v>       0.00000000       0.12500000       0.87500000 </v>
   <v>       0.12500000       0.00000000       0.87500000 </v>
   <v>       0.12500000       0.12500000       0.75000000 </v>
   <v>       0.00000000       0.25000000       0.00000000 </v>
   <v>       0.00000000       0.37500000       0.12500000 </v>
   <v>       0.12500000       0.25000000       0.12500000 </v>
   <v>       0.12500000       0.37500000       0.00000000 </v>
   <v>       0.00000000       0.25000000       0.25000000 </v>
   <v>       0.00000000       0.37500000       0.37500000 </v>
   <v>       0.12500000       0.25000000       0.37500000 </v>
   <v>       0.12500000       0.37500000       0.25000000 </v>
   <v>       0.00000000       0.25000000       0.50000000 </v>
   <v>       0.00000000       0.37500000       0.62500000 </v>
   <v>       0.12500000       0.25000000       0.62500000 </v>
   <v>       0.12500000       0.37500000       0.50000000 </v>
   <v>       0.00000000       0.25000000       0.75000000 </v>
   <v>       0.00000000       0.37500000       0.87500000 </v>
   <v>       0.12500000       0.25000000       0.87500000 </v>
   <v>       0.12500000       0.37500000       0.75000000 </v>
   <v>       0.00000000       0.50000000       0.00000000 </v>
   <v>       0.00000000       0.62500000       0.12500000 </v>
   <v>       0.12500000       0.50000000       0.12500000 </v>
   <v>       0.12500000       0.62500000       0.00000000 </v>
   <v>       0.00000000       0.50000000       0.25000000 </v>
   <v>       0.00000000       0.62500000       0.37500000 </v>
   <v>       0.12500000       0.50000000       0.37500000 </v>
   <v>       0.12500000       0.62500000       0.25000000 </v>
   <v>       0.00000000       0.50000000       0.50000000 </v>
   <v>       0.00000000       0.62500000       0.62500000 </v>
   <v>       0.12500000       0.50000000       0.62500000 </v>
   <v>       0.12500000       0.62500000       0.50000000 </v>
   <v>       0.00000000       0.50000000       0.75000000 </v>
   <v>       0.00000000       0.62500000       0.87500000 </v>
   <v>       0.12500000       0.50000000       0.87500000 </v>
   <v>       0.12500000       0.62500000       0.75000000 </v>
   <v>       0.00000000       0.75000000       0.00000000 </v>
   <v>       0.00000000       0.87500000       0.12500000 </v>
   <v>       0.12500000       0.75000000       0.12500000 </v>
   <v>       0.12500000       0.87500000       0.00000000 </v>
   <v>       0.00000000       0.75000000       0.25000000 </v>
   <v>       0.00000000       0.87500000       0.37500000 </v>
   <v>       0.12500000       0.75000000       0.37500000 </v>
   <v>       0.12500000       0.87500000       0.25000000 </v>
   <v>       0.00000000       0.75000000       0.50000000 </v>
   <v>       0.00000000       0.87500000       0.62500000 </v>
   <v>       0.12500000       0.75000000       0.62500000 </v>
   <v>       0.12500000       0.87500000       0.50000000 </v>
   <v>       0.00000000       0.75000000       0.75000000 </v>
   <v>       0.00000000       0.87500000       0.87500000 </v>
   <v>       0.12500000       0.75000000       0.87500000 </v>
   <v>       0.12500000       0.87500000       0.75000000 </v>
   <v>       0.25000000       0.00000000       0.00000000 </v>
   <v>       0.25000000       0.12500000       0.12500000 </v>
   <v>       0.37500000       0.00000000       0.12500000 </v>
   <v>       0.37500000       0.12500000       0.00000000 </v>
   <v>       0.25000000       0.00000000       0.25000000 </v>
   <v>       0.25000000       0.12500000       0.37500000 </v>
   <v>       0.37500000       0.00000000       0.37500000 </v>
   <v>       0.37500000       0.12500000       0.25000000 </v>
   <v>       0.25000000       0.00000000       0.50000000 </v>
   <v>       0.25000000       0.12500000       0.62500000 </v>
   <v>       0.37500000       0.00000000       0.62500000 </v>
   <v>       0.37500000       0.12500000       0.50000000 </v>
   <v>       0.25000000       0.00000000       0.75000000 </v>
   <v>       0.25000000       0.12500000       0.87500000 </v>
   <v>       0.37500000       0.00000000       0.87500000 </v>
   <v>       0.37500000       0.12500000       0.75000000 </v>
   <v>       0.25000000       0.25000000       0.00000000 </v>
   <v>       0.25000000       0.37500000       0.12500000 </v>
   <v>       0.37500000       0.25000000       0.12500000 </v>
   <v>       0.37500000       0.37500000       0.00000000 </v>
   <v>       0.25000000       0.25000000       0.25000000 </v>
   <v>       0.25000000       0.37500000       0.37500000 </v>
   <v>       0.37500000       0.25000000       0.37500000 </v>
   <v>       0.37500000       0.37500000       0.25000000 </v>
   <v>       0.25000000       0.25000000       0.50000000 </v>
   <v>       0.25000000       0.37500000       0.62500000 </v>
   <v>       0.37500000       0.25000000       0.62500000 </v>
   <v>       0.37500000       0.37500000       0.50000000 </v>
   <v>       0.25000000       0.25000000       0.75000000 </v>
   <v>       0.25000000       0.37500000       0.87500000 </v>
   <v>       0.37500000       0.25000000       0.87500000 </v>
   <v>       0.37500000       0.37500000       0.75000000 </v>
   <v>       0.25000000       0.50000000       0.00000000 </v>
   <v>       0.25000000       0.62500000       0.12500000 </v>
   <v>       0.37500000       0.50000000       0.12500000 </v>
   <v>       0.37500000       0.62500000       0.00000000 </v>
   <v>       0.25000000       0.50000000       0.25000000 </v>
   <v>       0.25000000       0.62500000       0.37500000 </v>
   <v>       0.37500000       0.50000000       0.37500000 </v>
   <v>       0.37500000       0.62500000       0.25000000 </v>
   <v>       0.25000000       0.50000000       0.50000000 </v>
   <v>       0.25000000       0.62500000       0.62500000 </v>
   <v>       0.37500000       0.50000000       0.62500000 </v>
   <v>       0.37500000       0.62500000       0.50000000 </v>
   <v>       0.25000000       0.50000000       0.75000000 </v>
   <v>       0.25000000       0.62500000       0.87500000 </v>
   <v>       0.37500000       0.50000000       0.87500000 </v>
   <v>       0.37500000       0.62500000       0.75000000 </v>
   <v>       0.25000000       0.75000000       0.00000000 </v>
   <v>       0.25000000       0.87500000       0.12500000 </v>
   <v>       0.37500000       0.75000000       0.12500000 </v>
   <v>       0.37500000       0.87500000       0.00000000 </v>
   <v>       0.25000000       0.75000000       0.25000000 </v>
   <v>       0.25000000       0.87500000       0.37500000 </v>
   <v>       0.37500000       0.75000000       0.37500000 </v>
   <v>       0.37500000       0.87500000       0.25000000 </v>
   <v>       0.25000000       0.75000000       0.50000000 </v>
   <v>       0.25000000       0.87500000       0.62500000 </v>
   <v>       0.37500000       0.75000000       0.62500000 </v>
   <v>       0.37500000       0.87500000       0.50000000 </v>
   <v>       0.25000000       0.75000000       0.75000000 </v>
   <v>       0.25000000       0.87500000       0.87500000 </v>
   <v>       0.37500000       0.75000000       0.87500000 </v>
   <v>       0.37500000       0.87500000       0.75000000 </v>
   <v>       0.50000000       0.00000000       0.00000000 </v>
   <v>       0.50000000       0.12500000       0.12500000 </v>
   <v>       0.62500000       0.00000000       0.12500000 </v>
   <v>       0.62500000       0.12500000       0.00000000 </v>
   <v>       0.50000000       0.00000000       0.25000000 </v>
   <v>       0.50000000       0.12500000       0.37500000 </v>
   <v>       0.62500000       0.00000000       0.37500000 </v>
   <v>       0.62500000       0.12500000       0.25000000 </v>
   <v>       0.50000000       0.00000000       0.50000000 </v>
   <v>       0.50000000       0.12500000       0.62500000 </v>
   <v>       0.62500000       0.00000000       0.62500000 </v>
   <v>       0.62500000       0.12500000       0.50000000 </v>
   <v>       0.50000000       0.00000000       0.75000000 </v>
   <v>       0.50000000       0.12500000       0.87500000 </v>
   <v>       0.62500000       0.00000000       0.87500000 </v>
   <v>       0.62500000       0.12500000       0.75000000 </v>
   <v>       0.50000000       0.25000000       0.00000000 </v>
   <v>       0.50000000       0.37500000       0.12500000 </v>
   <v>       0.62500000       0.25000000       0.12500000 </v>
   <v>       0.62500000       0.37500000       0.00000000 </v>
   <v>       0.50000000       0.25000000       0.25000000 </v>
   <v>       0.50000000       0.37500000       0.37500000 </v>
   <v>       0.62500000       0.25000000       0.37500000 </v>
   <v>       0.62500000       0.37500000       0.25000000 </v>
   <v>       0.50000000       0.25000000       0.50000000 </v>
   <v>       0.50000000       0.37500000       0.62500000 </v>
   <v>       0.62500000       0.25000000       0.62500000 </v>
   <v>       0.62500000       0.37500000       0.50000000 </v>
   <v>       0.50000000       0.25000000       0.75000000 </v>
   <v>       0.50000000       0.37500000       0.87500000 </v>
   <v>       0.62500000       0.25000000       0.87500000 </v>
   <v>       0.62500000       0.37500000       0.75000000 </v>
   <v>       0.50000000       0.50000000       0.00000000 </v>
   <v>       0.50000000       0.62500000       0.12500000 </v>
   <v>       0.62500000       0.50000000       0.12500000 </v>
   <v>       0.62500000       0.62500000       0.00000000 </v>
   <v>       0.50000000       0.50000000       0.25000000 </v>
   <v>       0.50000000       0.62500000       0.37500000 </v>
   <v>       0.62500000       0.50000000       0.37500000 </v>
   <v>       0.62500000       0.62500000       0.25000000 </v>
   <v>       0.50000000       0.50000000       0.50000000 </v>
   <v>       0.50000000       0.62500000       0.62500000 </v>
   <v>       0.62500000       0.50000000       0.62500000 </v>
   <v>       0.62500000       0.62500000       0.50000000 </v>
   <v>       0.50000000       0.50000000       0.75000000 </v>
   <v>       0.50000000       0.62500000       0.87500000 </v>
   <v>       0.62500000       0.50000000       0.87500000 </v>
   <v>       0.62500000       0.62500000       0.75000000 </v>
   <v>       0.50000000       0.75000000       0.00000000 </v>
   <v>       0.50000000       0.87500000       0.12500000 </v>
   <v>       0.62500000       0.75000000       0.12500000 </v>
   <v>       0.62500000       0.87500000       0.00000000 </v>
   <v>       0.50000000       0.75000000       0.25000000 </v>
   <v>       0.50000000       0.87500000       0.37500000 </v>
   <v>       0.62500000       0.75000000       0.37500000 </v>
   <v>       0.62500000       0.87500000       0.25000000 </v>
   <v>       0.50000000       0.75000000       0.50000000 </v>
   <v>       0.50000000       0.87500000       0.62500000 </v>
   <v>       0.62500000       0.75000000       0.62500000 </v>
   <v>       0.62500000       0.87500000       0.50000000 </v>
   <v>       0.50000000       0.75000000       0.75000000 </v>
   <v>       0.50000000       0.87500000       0.87500000 </v>
   <v>       0.62500000       0.75000000       0.87500000 </v>
   <v>       0.62500000       0.87500000       0.75000000 </v>
   <v>       0.75000000       0.00000000       0.00000000 </v>
   <v>       0.75000000       0.12500000       0.12500000 </v>
   <v>       0.87500000       0.00000000       0.12500000 </v>
   <v>       0.87500000       0.12500000       0.00000000 </v>
   <v>       0.75000000       0.00000000       0.25000000 </v>
   <v>       0.75000000       0.12500000       0.37500000 </v>
   <v>       0.87500000       0.00000000       0.37500000 </v>
   <v>       0.87500000       0.12500000       0.25000000 </v>
   <v>       0.75000000       0.00000000       0.50000000 </v>
   <v>       0.75000000       0.12500000       0.62500000 </v>
   <v>       0.87500000       0.00000000       0.62500000 </v>
   <v>       0.87500000       0.12500000       0.50000000 </v>
   <v>       0.75000000       0.00000000       0.75000000 </v>
   <v>       0.75000000       0.12500000       0.87500000 </v>
   <v>       0.87500000       0.00000000       0.87500000 </v>
   <v>       0.87500000       0.12500000       0.75000000 </v>
   <v>       0.75000000       0.25000000       0.00000000 </v>
   <v>       0.75000000       0.37500000       0.12500000 </v>
   <v>       0.87500000       0.25000000       0.12500000 </v>
   <v>       0.87500000       0.37500000       0.00000000 </v>
   <v>       0.75000000       0.25000000       0.25000000 </v>
   <v>       0.75000000       0.37500000       0.37500000 </v>
   <v>       0.87500000       0.25000000       0.37500000 </v>
   <v>       0.87500000       0.37500000       0.25000000 </v>
   <v>       0.75000000       0.25000000       0.50000000 </v>
   <v>       0.75000000       0.37500000       0.62500000 </v>
   <v>       0.87500000       0.25000000       0.62500000 </v>
   <v>       0.87500000       0.37500000       0.50000000 </v>
   <v>       0.75000000       0.25000000       0.75000000 </v>
   <v>       0.75000000       0.37500000       0.87500000 </v>
   <v>       0.87500000       0.25000000       0.87500000 </v>
   <v>       0.87500000       0.37500000       0.75000000 </v>
   <v>       0.75000000       0.50000000       0.00000000 </v>
   <v>       0.75000000       0.62500000       0.12500000 </v>
   <v>       0.87500000       0.50000000       0.12500000 </v>
   <v>       0.87500000       0.62500000       0.00000000 </v>
   <v>       0.75000000       0.50000000       0.25000000 </v>
   <v>       0.75000000       0.62500000       0.37500000 </v>
   <v>       0.87500000       0.50000000       0.37500000 </v>
   <v>       0.87500000       0.62500000       0.25000000 </v>
   <v>       0.75000000       0.50000000       0.50000000 </v>
   <v>       0.75000000       0.62500000       0.62500000 </v>
   <v>       0.87500000       0.50000000       0.62500000 </v>
   <v>       0.87500000       0.62500000       0.50000000 </v>
   <v>       0.75000000       0.50000000       0.75000000 </v>
   <v>       0.75000000       0.62500000       0.87500000 </v>
   <v>       0.87500000       0.50000000       0.87500000 </v>
   <v>       0.87500000       0.62500000       0.75000000 </v>
   <v>       0.75000000       0.75000000       0.00000000 </v>
   <v>       0.75000000       0.87500000       0.12500000 </v>
   <v>       0.87500000       0.75000000       0.12500000 </v>
   <v>       0.87500000       0.87500000       0.00000000 </v>
   <v>       0.75000000       0.75000000       0.25000000 </v>
   <v>       0.75000000       0.87500000       0.37500000 </v>
   <v>       0.87500000       0.75000000       0.37500000 </v>
   <v>       0.87500000       0.87500000       0.25000000 </v>
   <v>       0.75000000       0.75000000       0.50000000 </v>
   <v>       0.75000000       0.87500000       0.62500000 </v>
   <v>       0.87500000       0.75000000       0.62500000 </v>
   <v>       0.87500000       0.87500000       0.50000000 </v>
   <v>       0.75000000       0.75000000       0.75000000 </v>
   <v>       0.75000000       0.87500000       0.87500000 </v>
   <v>       0.87500000       0.75000000       0.87500000 </v>
   <v>       0.87500000       0.87500000       0.75000000 </v>
   <v>       0.12500000       0.00000000       0.00000000 </v>
  </varray>
 </structure>
 <calculation>
  <scstep>
   <time name="dav">   21.47   21.48</time>
   <time name="total">   22.03   22.09</time>
   <energy>
    <i name="alphaZ">  24412.04579882 </i>
    <i name="ewald">-237029.42501592 </i>
    <i name="hartreedc"> -57829.84271382 </i>
    <i name="XCdc">   2993.21862976 </i>
    <i name="pawpsdc"> 244105.08701996 </i>
    <i name="pawaedc">-263975.98553231 </i>
    <i name="eentropy">     -0.09033108 </i>
    <i name="bandstr">  35055.43021492 </i>
    <i name="atom"> 276302.30071629 </i>
    <i name="e_fr_energy">  24032.73878663 </i>
    <i name="e_wo_entrp">  24032.82911771 </i>
    <i name="e_0_energy">  24032.78395217 </i>
   </energy>
  </scstep>
  <scstep>
   <time name="dav">   21.23   21.23</time>
   <time name="total">   21.24   21.24</time>
   <energy>
    <i name="e_fr_energy">    342.09256169 </i>
    <i name="e_wo_entrp">    342.32508471 </i>
    <i name="e_0_energy">    342.20882320 </i>
   </energy>
  </scstep>
  <scstep>
   <time name="dav">   22.12   22.12</time>
   <time name="total">   22.13   22.13</time>
   <energy>
    <i name="e_fr_energy">  -1432.78536058 </i>
    <i name="e_wo_entrp">  -1431.92336243 </i>
    <i name="e_0_energy">  -1432.35436151 </i>
   </energy>
  </scstep>
  <scstep>
   <time name="dav">   33.91   33.92</time>
   <time name="total">   33.92   33.93</time>
   <energy>
    <i name="e_fr_energy">  -1637.46224471 </i>
    <i name="e_wo_entrp">  -1636.14989049 </i>
    <i name="e_0_energy">  -1636.80606760 </i>
   </energy>
  </scstep>
  <scstep>
   <time name="dav">   27.14   27.14</time>
   <time name="total">   28.23   28.25</time>
   <energy>
    <i name="e_fr_energy">  -1644.70508129 </i>
    <i name="e_wo_entrp">  -1643.37983544 </i>
    <i name="e_0_energy">  -1644.04245837 </i>
   </energy>
  </scstep>
  <scstep>
   <time name="dav">   22.38   22.38</time>
   <time name="total">   24.02   24.02</time>
   <energy>
    <i name="e_fr_energy">  -1503.29455638 </i>
    <i name="e_wo_entrp">  -1501.77555262 </i>
    <i name="e_0_energy">  -1502.53505450 </i>
   </energy>
  </scstep>
  <scstep>
   <time name="dav">   21.81   21.81</time>
   <time name="total">   23.45   23.45</time>
   <energy>
    <i name="e_fr_energy">  -1448.08225602 </i>
    <i name="e_wo_entrp">  -1447.20418398 </i>
    <i name="e_0_energy">  -1447.64322000 </i>
   </energy>
  </scstep>
  <scstep>
   <time name="dav">   22.76   22.77</time>
   <time name="total">   24.41   24.41</time>
   <energy>
    <i name="e_fr_energy">  -1546.35240045 </i>
    <i name="e_wo_entrp">  -1545.83202636 </i>
    <i name="e_0_energy">  -1546.09221340 </i>
   </energy>
  </scstep>
  <scstep>
   <time name="dav">   24.67   24.67</time>
   <time name="total">   26.31   26.31</time>
   <energy>
    <i name="e_fr_energy">  -1716.39698901 </i>
    <i name="e_wo_entrp">  -1716.03539741 </i>
    <i name="e_0_energy">  -1716.21619321 </i>
   </energy>
  </scstep>
  <scstep>
   <time name="dav">   23.51   23.52</time>
   <time name="total">   25.16   25.16</time>
   <energy>
    <i name="e_fr_energy">  -1704.75941919 </i>
    <i name="e_wo_entrp">  -1704.19703083 </i>
    <i name="e_0_energy">  -1704.47822501 </i>
   </energy>
  </scstep>
  <scstep>
   <time name="dav">   22.18   22.18</time>
   <time name="total">   23.84   23.84</time>
   <energy>
    <i name="e_fr_energy">  -1529.23509746 </i>
    <i name="e_wo_entrp">  -1528.36762727 </i>
    <i name="e_0_energy">  -1528.80136237 </i>
   </energy>
  </scstep>
  <scstep>
   <time name="dav">   22.65   22.65</time>
   <time name="total">   24.30   24.30</time>
   <energy>
    <i name="e_fr_energy">  -1469.69912266 </i>
    <i name="e_wo_entrp">  -1468.92992696 </i>
    <i name="e_0_energy">  -1469.31452481 </i>
   </energy>
  </scstep>
  <scstep>
   <time name="dav">   23.59   23.59</time>
   <time name="total">   25.24   25.25</time>
   <energy>
    <i name="e_fr_energy">  -1450.23870860 </i>
    <i name="e_wo_entrp">  -1449.38459016 </i>
    <i name="e_0_energy">  -1449.81164938 </i>
   </energy>
  </scstep>
  <scstep>
   <time name="dav">   23.21   23.21</time>
   <time name="total">   24.88   24.88</time>
   <energy>
    <i name="e_fr_energy">  -1406.99297865 </i>
    <i name="e_wo_entrp">  -1405.89950419 </i>
    <i name="e_0_energy">  -1406.44624142 </i>
   </energy>
  </scstep>
  <scstep>
   <time name="dav">   22.72   22.73</time>
   <time name="total">   24.40   24.40</time>
   <energy>
    <i name="e_fr_energy">  -1397.37800260 </i>
    <i name="e_wo_entrp">  -1396.06175347 </i>
    <i name="e_0_energy">  -1396.71987804 </i>
   </energy>
  </scstep>
  <scstep>
   <time name="dav">   22.50   22.50</time>
   <time name="total">   24.17   24.17</time>
   <energy>
    <i name="e_fr_energy">  -1395.62325175 </i>
    <i name="e_wo_entrp">  -1394.26252640 </i>
    <i name="e_0_energy">  -1394.94288908 </i>
   </energy>
  </scstep>
  <scstep>
   <time name="dav">   22.57   22.57</time>
   <time name="total">   24.24   24.25</time>
   <energy>
    <i name="e_fr_energy">  -1395.14753218 </i>
    <i name="e_wo_entrp">  -1393.91906079 </i>
    <i name="e_0_energy">  -1394.53329648 </i>
   </energy>
  </scstep>
  <scstep>
   <time name="dav">   29.21   29.21</time>
   <time name="total">   30.89   30.90</time>
   <energy>
    <i name="e_fr_energy">  -1392.77310460 </i>
    <i name="e_wo_entrp">  -1391.36332248 </i>
    <i name="e_0_energy">  -1392.06821354 </i>
   </energy>
  </scstep>
  <scstep>
   <time name="dav">   27.91   27.92</time>
   <time name="total">   29.60   29.61</time>
   <energy>
    <i name="e_fr_energy">  -1392.33969741 </i>
    <i name="e_wo_entrp">  -1390.96725285 </i>
    <i name="e_0_energy">  -1391.65347513 </i>
   </energy>
  </scstep>
  <scstep>
   <time name="dav">   24.86   24.86</time>
   <time name="total">   26.55   26.56</time>
   <energy>
    <i name="e_fr_energy">  -1392.80009082 </i>
    <i name="e_wo_entrp">  -1391.38558203 </i>
    <i name="e_0_energy">  -1392.09283642 </i>
   </energy>
  </scstep>
  <scstep>
   <time name="dav">   25.18   25.18</time>
   <time name="total">   26.87   26.88</time>
   <energy>
    <i name="e_fr_energy">  -1394.25798619 </i>
    <i name="e_wo_entrp">  -1392.92200458 </i>
    <i name="e_0_energy">  -1393.58999538 </i>
   </energy>
  </scstep>
  <scstep>
   <time name="dav">   25.06   25.07</time>
   <time name="total">   26.77   26.77</time>
   <energy>
    <i name="e_fr_energy">  -1393.40286671 </i>
    <i name="e_wo_entrp">  -1392.10144293 </i>
    <i name="e_0_energy">  -1392.75215482 </i>
   </energy>
  </scstep>
  <scstep>
   <time name="dav">   25.53   25.53</time>
   <time name="total">   27.24   27.25</time>
   <energy>
    <i name="e_fr_energy">  -1392.67925728 </i>
    <i name="e_wo_entrp">  -1391.32920466 </i>
    <i name="e_0_energy">  -1392.00423097 </i>
   </energy>
  </scstep>
  <scstep>
   <time name="dav">   27.94   27.94</time>
   <time name="total">   29.66   29.66</time>
   <energy>
    <i name="e_fr_energy">  -1390.33088551 </i>
    <i name="e_wo_entrp">  -1388.89252429 </i>
    <i name="e_0_energy">  -1389.61170490 </i>
   </energy>
  </scstep>
  <scstep>
   <time name="dav">   31.57   31.58</time>
   <time name="total">   33.31   33.31</time>
   <energy>
    <i name="e_fr_energy">  -1389.12501254 </i>
    <i name="e_wo_entrp">  -1387.61541005 </i>
    <i name="e_0_energy">  -1388.37021129 </i>
   </energy>
  </scstep>
  <scstep>
   <time name="dav">   29.29   29.29</time>
   <time name="total">   31.04   31.04</time>
   <energy>
    <i name="e_fr_energy">  -1388.72487925 </i>
    <i name="e_wo_entrp">  -1387.21367888 </i>
    <i name="e_0_energy">  -1387.96927907 </i>
   </energy>
  </scstep>
  <scstep>
   <time name="dav">   23.46   23.47</time>
   <time name="total">   25.19   25.20</time>
   <energy>
    <i name="e_fr_energy">  -1388.86491259 </i>
    <i name="e_wo_entrp">  -1387.36363289 </i>
    <i name="e_0_energy">  -1388.11427274 </i>
   </energy>
  </scstep>
  <scstep>
   <time name="dav">   22.38   22.39</time>
   <time name="total">   24.14   24.14</time>
   <energy>
    <i name="e_fr_energy">  -1388.81256057 </i>
    <i name="e_wo_entrp">  -1387.30562773 </i>
    <i name="e_0_energy">  -1388.05909415 </i>
   </energy>
  </scstep>
  <scstep>
   <time name="dav">   25.39   25.40</time>
   <time name="total">   27.16   27.16</time>
   <energy>
    <i name="e_fr_energy">  -1388.70478483 </i>
    <i name="e_wo_entrp">  -1387.19362179 </i>
    <i name="e_0_energy">  -1387.94920331 </i>
   </energy>
  </scstep>
  <scstep>
   <time name="dav">   32.99   32.99</time>
[...]
       <r>     5.2195    80.6553  2787.0630 </r>
       <r>     5.3217    39.8329  2791.1355 </r>
       <r>     5.4239    61.3113  2797.4041 </r>
       <r>     5.5262   174.7854  2815.2744 </r>
       <r>     5.6284   214.0201  2837.1562 </r>
       <r>     5.7307    40.2260  2841.2690 </r>
       <r>     5.8329    42.5218  2845.6164 </r>
       <r>     5.9352    22.6262  2847.9298 </r>
       <r>     6.0374    77.8694  2855.8913 </r>
       <r>     6.1396    44.3885  2860.4296 </r>
       <r>     6.2419    34.6643  2863.9738 </r>
       <r>     6.3441   122.4667  2876.4949 </r>
       <r>     6.4464    53.6962  2881.9849 </r>
       <r>     6.5486   144.8080  2896.7903 </r>
       <r>     6.6508    50.6984  2901.9738 </r>
       <r>     6.7531    50.6821  2907.1556 </r>
       <r>     6.8553    28.0721  2910.0258 </r>
       <r>     6.9576    70.4242  2917.2261 </r>
       <r>     7.0598   142.6200  2931.8077 </r>
       <r>     7.1621    35.3468  2935.4217 </r>
       <r>     7.2643   100.4617  2945.6930 </r>
       <r>     7.3665    19.2400  2947.6601 </r>
       <r>     7.4688    48.4470  2952.6134 </r>
       <r>     7.5710    32.1741  2955.9030 </r>
       <r>     7.6733    67.5354  2962.8079 </r>
       <r>     7.7755   145.5681  2977.6910 </r>
       <r>     7.8777    43.4349  2982.1319 </r>
       <r>     7.9800    20.0642  2984.1833 </r>
       <r>     8.0822    53.8681  2989.6908 </r>
       <r>     8.1845    99.1456  2999.8276 </r>
       <r>     8.2867    25.2161  3002.4057 </r>
       <r>     8.3890     7.5806  3003.1808 </r>
       <r>     8.4912    51.9203  3008.4892 </r>
       <r>     8.5934    18.0149  3010.3311 </r>
       <r>     8.6957    20.0066  3012.3766 </r>
       <r>     8.7979    46.1332  3017.0933 </r>
       <r>     8.9002    82.3486  3025.5128 </r>
       <r>     9.0024   139.8325  3039.8095 </r>
       <r>     9.1046    62.5574  3046.2054 </r>
       <r>     9.2069     7.4781  3046.9700 </r>
       <r>     9.3091     5.1375  3047.4953 </r>
       <r>     9.4114     0.1553  3047.5111 </r>
       <r>     9.5136     9.8262  3048.5158 </r>
       <r>     9.6159    43.0368  3052.9159 </r>
       <r>     9.7181     8.3282  3053.7674 </r>
       <r>     9.8203    33.3779  3057.1800 </r>
       <r>     9.9226   100.6404  3067.4697 </r>
       <r>    10.0248    29.9957  3070.5365 </r>
       <r>    10.1271    36.9984  3074.3192 </r>
       <r>    10.2293    35.3184  3077.9303 </r>
       <r>    10.3315     0.6821  3078.0000 </r>
       <r>    10.4338     0.0000  3078.0000 </r>
       <r>    10.5360     0.0000  3078.0000 </r>
       <r>    10.6383     0.0000  3078.0000 </r>
       <r>    10.7405     0.0000  3078.0000 </r>
       <r>    10.8428     0.0000  3078.0000 </r>
       <r>    10.9450     0.0000  3078.0000 </r>
       <r>    11.0472     0.0000  3078.0000 </r>
       <r>    11.1495     0.0000  3078.0000 </r>
       <r>    11.2517     0.0000  3078.0000 </r>
       <r>    11.3540     0.0000  3078.0000 </r>
       <r>    11.4562     0.0000  3078.0000 </r>
       <r>    11.5584     0.0000  3078.0000 </r>
      </set>
     </set>
    </array>
   </total>
  </dos>
 </calculation>
 <structure name="finalpos" >
  <crystal>
   <varray name="basis" >
    <v>      14.28000000       0.00000000       0.00000000 </v>
    <v>       0.00000000      14.28000000       0.00000000 </v>
    <v>       0.00000000       0.00000000      14.28000000 </v>
   </varray>
   <i name="volume">   2911.95475200 </i>
   <varray name="rec_basis" >
    <v>       0.07002801       0.00000000       0.00000000 </v>
    <v>       0.00000000       0.07002801       0.00000000 </v>
    <v>       0.00000000       0.00000000       0.07002801 </v>
   </varray>
  </crystal>
  <varray name="positions" >
   <v>      -0.00894823       0.00000000      -0.00000000 </v>
   <v>      -0.00246362       0.12746362       0.12746362 </v>
   <v>       0.12500000       0.00000000       0.13394823 </v>
   <v>       0.12500000       0.13394823      -0.00000000 </v>
   <v>      -0.00157048       0.00000000       0.25174741 </v>
   <v>      -0.00039537       0.12539537       0.37546719 </v>
   <v>       0.12500000       0.00000000       0.37517932 </v>
   <v>       0.12500000       0.12657048       0.25174741 </v>
   <v>      -0.00016595       0.00000000       0.50000000 </v>
   <v>      -0.00039537       0.12539537       0.62453281 </v>
   <v>       0.12500000       0.00000000       0.62482068 </v>
   <v>       0.12500000       0.12516595       0.50000000 </v>
   <v>      -0.00157048       0.00000000       0.74825259 </v>
   <v>      -0.00246362       0.12746362       0.87253638 </v>
   <v>       0.12500000       0.00000000       0.86605177 </v>
   <v>       0.12500000       0.12657048       0.74825259 </v>
   <v>      -0.00157048       0.25174741      -0.00000000 </v>
   <v>      -0.00039537       0.37546719       0.12539537 </v>
   <v>       0.12500000       0.25174741       0.12657048 </v>
   <v>       0.12500000       0.37517932      -0.00000000 </v>
   <v>      -0.00047919       0.25094788       0.25094788 </v>
   <v>      -0.00026742       0.37535159       0.37535159 </v>
   <v>       0.12500000       0.25072267       0.37565176 </v>
   <v>       0.12500000       0.37565176       0.25072267 </v>
   <v>      -0.00021851       0.25031824       0.50000000 </v>
   <v>      -0.00026742       0.37535159       0.62464841 </v>
   <v>       0.12500000       0.25072267       0.62434824 </v>
   <v>       0.12500000       0.37539583       0.50000000 </v>
   <v>      -0.00047919       0.25094788       0.74905212 </v>
   <v>      -0.00039537       0.37546719       0.87460463 </v>
   <v>       0.12500000       0.25174741       0.87342952 </v>
   <v>       0.12500000       0.37565176       0.74927733 </v>
   <v>      -0.00016595       0.50000000      -0.00000000 </v>
   <v>      -0.00039537       0.62453281       0.12539537 </v>
   <v>       0.12500000       0.50000000       0.12516595 </v>
   <v>       0.12500000       0.62482068      -0.00000000 </v>
   <v>      -0.00021851       0.50000000       0.25031824 </v>
   <v>      -0.00026742       0.62464841       0.37535159 </v>
   <v>       0.12500000       0.50000000       0.37539583 </v>
   <v>       0.12500000       0.62434824       0.25072267 </v>
   <v>      -0.00024584       0.50000000       0.50000000 </v>
   <v>      -0.00026742       0.62464841       0.62464841 </v>
   <v>       0.12500000       0.50000000       0.62460417 </v>
   <v>       0.12500000       0.62460417       0.50000000 </v>
   <v>      -0.00021851       0.50000000       0.74968176 </v>
   <v>      -0.00039537       0.62453281       0.87460463 </v>
   <v>       0.12500000       0.50000000       0.87483405 </v>
   <v>       0.12500000       0.62434824       0.74927733 </v>
   <v>      -0.00157048       0.74825259      -0.00000000 </v>
   <v>      -0.00246362       0.87253638       0.12746362 </v>
   <v>       0.12500000       0.74825259       0.12657048 </v>
   <v>       0.12500000       0.86605177      -0.00000000 </v>
   <v>      -0.00047919       0.74905212       0.25094788 </v>
   <v>      -0.00039537       0.87460463       0.37546719 </v>
   <v>       0.12500000       0.74927733       0.37565176 </v>
   <v>       0.12500000       0.87342952       0.25174741 </v>
   <v>      -0.00021851       0.74968176       0.50000000 </v>
   <v>      -0.00039537       0.87460463       0.62453281 </v>
   <v>       0.12500000       0.74927733       0.62434824 </v>
   <v>       0.12500000       0.87483405       0.50000000 </v>
   <v>      -0.00047919       0.74905212       0.74905212 </v>
   <v>      -0.00246362       0.87253638       0.87253638 </v>
   <v>       0.12500000       0.74825259       0.87342952 </v>
   <v>       0.12500000       0.87342952       0.74825259 </v>
   <v>       0.25894823       0.00000000      -0.00000000 </v>
   <v>       0.25246362       0.12746362       0.12746362 </v>
   <v>       0.37674741       0.00000000       0.12657048 </v>
   <v>       0.37674741       0.12657048      -0.00000000 </v>
   <v>       0.25157048       0.00000000       0.25174741 </v>
   <v>       0.25039537       0.12539537       0.37546719 </v>
   <v>       0.37572267       0.00000000       0.37565176 </v>
   <v>       0.37594788       0.12547919       0.25094788 </v>
   <v>       0.25016595       0.00000000       0.50000000 </v>
   <v>       0.25039537       0.12539537       0.62453281 </v>
   <v>       0.37572267       0.00000000       0.62434824 </v>
   <v>       0.37531824       0.12521851       0.50000000 </v>
   <v>       0.25157048       0.00000000       0.74825259 </v>
   <v>       0.25246362       0.12746362       0.87253638 </v>
   <v>       0.37674741       0.00000000       0.87342952 </v>
   <v>       0.37594788       0.12547919       0.74905212 </v>
   <v>       0.25157048       0.25174741      -0.00000000 </v>
   <v>       0.25039537       0.37546719       0.12539537 </v>
   <v>       0.37594788       0.25094788       0.12547919 </v>
   <v>       0.37572267       0.37565176      -0.00000000 </v>
   <v>       0.25047919       0.25094788       0.25094788 </v>
   <v>       0.25026742       0.37535159       0.37535159 </v>
   <v>       0.37543221       0.25043221       0.37539469 </v>
   <v>       0.37543221       0.37539469       0.25043221 </v>
   <v>       0.25021851       0.25031824       0.50000000 </v>
   <v>       0.25026742       0.37535159       0.62464841 </v>
   <v>       0.37543221       0.25043221       0.62460531 </v>
   <v>       0.37527281       0.37521688       0.50000000 </v>
   <v>       0.25047919       0.25094788       0.74905212 </v>
   <v>       0.25039537       0.37546719       0.87460463 </v>
   <v>       0.37594788       0.25094788       0.87452081 </v>
   <v>       0.37543221       0.37539469       0.74956779 </v>
   <v>       0.25016595       0.50000000      -0.00000000 </v>
   <v>       0.25039537       0.62453281       0.12539537 </v>
   <v>       0.37531824       0.50000000       0.12521851 </v>
   <v>       0.37572267       0.62434824      -0.00000000 </v>
   <v>       0.25021851       0.50000000       0.25031824 </v>
   <v>       0.25026742       0.62464841       0.37535159 </v>
   <v>       0.37527281       0.50000000       0.37521688 </v>
   <v>       0.37543221       0.62460531       0.25043221 </v>
   <v>       0.25024584       0.50000000       0.50000000 </v>
   <v>       0.25026742       0.62464841       0.62464841 </v>
   <v>       0.37527281       0.50000000       0.62478312 </v>
   <v>       0.37527281       0.62478312       0.50000000 </v>
   <v>       0.25021851       0.50000000       0.74968176 </v>
   <v>       0.25039537       0.62453281       0.87460463 </v>
   <v>       0.37531824       0.50000000       0.87478149 </v>
   <v>       0.37543221       0.62460531       0.74956779 </v>
   <v>       0.25157048       0.74825259      -0.00000000 </v>
   <v>       0.25246362       0.87253638       0.12746362 </v>
   <v>       0.37594788       0.74905212       0.12547919 </v>
   <v>       0.37674741       0.87342952      -0.00000000 </v>
   <v>       0.25047919       0.74905212       0.25094788 </v>
   <v>       0.25039537       0.87460463       0.37546719 </v>
   <v>       0.37543221       0.74956779       0.37539469 </v>
   <v>       0.37594788       0.87452081       0.25094788 </v>
   <v>       0.25021851       0.74968176       0.50000000 </v>
   <v>       0.25039537       0.87460463       0.62453281 </v>
   <v>       0.37543221       0.74956779       0.62460531 </v>
   <v>       0.37531824       0.87478149       0.50000000 </v>
   <v>       0.25047919       0.74905212       0.74905212 </v>
   <v>       0.25246362       0.87253638       0.87253638 </v>
   <v>       0.37594788       0.74905212       0.87452081 </v>
   <v>       0.37594788       0.87452081       0.74905212 </v>
   <v>       0.50017932       0.00000000      -0.00000000 </v>
   <v>       0.50046719       0.12539537       0.12539537 </v>
   <v>       0.62500000       0.00000000       0.12516595 </v>
   <v>       0.62500000       0.12516595      -0.00000000 </v>
   <v>       0.50065176       0.00000000       0.25072267 </v>
   <v>       0.50035159       0.12526742       0.37535159 </v>
   <v>       0.62500000       0.00000000       0.37539583 </v>
   <v>       0.62500000       0.12521851       0.25031824 </v>
   <v>       0.50039583       0.00000000       0.50000000 </v>
   <v>       0.50035159       0.12526742       0.62464841 </v>
   <v>       0.62500000       0.00000000       0.62460417 </v>
   <v>       0.62500000       0.12524584       0.50000000 </v>
   <v>       0.50065176       0.00000000       0.74927733 </v>
   <v>       0.50046719       0.12539537       0.87460463 </v>
   <v>       0.62500000       0.00000000       0.87483405 </v>
   <v>       0.62500000       0.12521851       0.74968176 </v>
   <v>       0.50065176       0.25072267      -0.00000000 </v>
   <v>       0.50035159       0.37535159       0.12526742 </v>
   <v>       0.62500000       0.25031824       0.12521851 </v>
   <v>       0.62500000       0.37539583      -0.00000000 </v>
   <v>       0.50039469       0.25043221       0.25043221 </v>
   <v>       0.50024950       0.37524950       0.37524950 </v>
   <v>       0.62500000       0.25027281       0.37521688 </v>
   <v>       0.62500000       0.37521688       0.25027281 </v>
   <v>       0.50021688       0.25027281       0.50000000 </v>
   <v>       0.50024950       0.37524950       0.62475050 </v>
   <v>       0.62500000       0.25027281       0.62478312 </v>
   <v>       0.62500000       0.37515490       0.50000000 </v>
   <v>       0.50039469       0.25043221       0.74956779 </v>
   <v>       0.50035159       0.37535159       0.87473258 </v>
   <v>       0.62500000       0.25031824       0.87478149 </v>
   <v>       0.62500000       0.37521688       0.74972719 </v>
   <v>       0.50039583       0.50000000      -0.00000000 </v>
   <v>       0.50035159       0.62464841       0.12526742 </v>
   <v>       0.62500000       0.50000000       0.12524584 </v>
   <v>       0.62500000       0.62460417      -0.00000000 </v>
   <v>       0.50021688       0.50000000       0.25027281 </v>
   <v>       0.50024950       0.62475050       0.37524950 </v>
   <v>       0.62500000       0.50000000       0.37515490 </v>
   <v>       0.62500000       0.62478312       0.25027281 </v>
   <v>       0.50015490       0.50000000       0.50000000 </v>
   <v>       0.50024950       0.62475050       0.62475050 </v>
   <v>       0.62500000       0.50000000       0.62484510 </v>
   <v>       0.62500000       0.62484510       0.50000000 </v>
   <v>       0.50021688       0.50000000       0.74972719 </v>
   <v>       0.50035159       0.62464841       0.87473258 </v>
   <v>       0.62500000       0.50000000       0.87475416 </v>
   <v>       0.62500000       0.62478312       0.74972719 </v>
   <v>       0.50065176       0.74927733      -0.00000000 </v>
   <v>       0.50046719       0.87460463       0.12539537 </v>
   <v>       0.62500000       0.74968176       0.12521851 </v>
   <v>       0.62500000       0.87483405      -0.00000000 </v>
   <v>       0.50039469       0.74956779       0.25043221 </v>
   <v>       0.50035159       0.87473258       0.37535159 </v>
   <v>       0.62500000       0.74972719       0.37521688 </v>
   <v>       0.62500000       0.87478149       0.25031824 </v>
   <v>       0.50021688       0.74972719       0.50000000 </v>
   <v>       0.50035159       0.87473258       0.62464841 </v>
   <v>       0.62500000       0.74972719       0.62478312 </v>
   <v>       0.62500000       0.87475416       0.50000000 </v>
   <v>       0.50039469       0.74956779       0.74956779 </v>
   <v>       0.50046719       0.87460463       0.87460463 </v>
   <v>       0.62500000       0.74968176       0.87478149 </v>
   <v>       0.62500000       0.87478149       0.74968176 </v>
   <v>       0.74982068       0.00000000      -0.00000000 </v>
   <v>       0.74953281       0.12539537       0.12539537 </v>
   <v>       0.87325259       0.00000000       0.12657048 </v>
   <v>       0.87325259       0.12657048      -0.00000000 </v>
   <v>       0.74934824       0.00000000       0.25072267 </v>
   <v>       0.74964841       0.12526742       0.37535159 </v>
   <v>       0.87427733       0.00000000       0.37565176 </v>
   <v>       0.87405212       0.12547919       0.25094788 </v>
   <v>       0.74960417       0.00000000       0.50000000 </v>
   <v>       0.74964841       0.12526742       0.62464841 </v>
   <v>       0.87427733       0.00000000       0.62434824 </v>
   <v>       0.87468176       0.12521851       0.50000000 </v>
   <v>       0.74934824       0.00000000       0.74927733 </v>
   <v>       0.74953281       0.12539537       0.87460463 </v>
   <v>       0.87325259       0.00000000       0.87342952 </v>
   <v>       0.87405212       0.12547919       0.74905212 </v>
   <v>       0.74934824       0.25072267      -0.00000000 </v>
   <v>       0.74964841       0.37535159       0.12526742 </v>
   <v>       0.87405212       0.25094788       0.12547919 </v>
   <v>       0.87427733       0.37565176      -0.00000000 </v>
   <v>       0.74960531       0.25043221       0.25043221 </v>
   <v>       0.74975050       0.37524950       0.37524950 </v>
   <v>       0.87456779       0.25043221       0.37539469 </v>
   <v>       0.87456779       0.37539469       0.25043221 </v>
   <v>       0.74978312       0.25027281       0.50000000 </v>
   <v>       0.74975050       0.37524950       0.62475050 </v>
   <v>       0.87456779       0.25043221       0.62460531 </v>
   <v>       0.87472719       0.37521688       0.50000000 </v>
   <v>       0.74960531       0.25043221       0.74956779 </v>
   <v>       0.74964841       0.37535159       0.87473258 </v>
   <v>       0.87405212       0.25094788       0.87452081 </v>
   <v>       0.87456779       0.37539469       0.74956779 </v>
   <v>       0.74960417       0.50000000      -0.00000000 </v>
   <v>       0.74964841       0.62464841       0.12526742 </v>
   <v>       0.87468176       0.50000000       0.12521851 </v>
   <v>       0.87427733       0.62434824      -0.00000000 </v>
   <v>       0.74978312       0.50000000       0.25027281 </v>
   <v>       0.74975050       0.62475050       0.37524950 </v>
   <v>       0.87472719       0.50000000       0.37521688 </v>
   <v>       0.87456779       0.62460531       0.25043221 </v>
   <v>       0.74984510       0.50000000       0.50000000 </v>
   <v>       0.74975050       0.62475050       0.62475050 </v>
   <v>       0.87472719       0.50000000       0.62478312 </v>
   <v>       0.87472719       0.62478312       0.50000000 </v>
   <v>       0.74978312       0.50000000       0.74972719 </v>
   <v>       0.74964841       0.62464841       0.87473258 </v>
   <v>       0.87468176       0.50000000       0.87478149 </v>
   <v>       0.87456779       0.62460531       0.74956779 </v>
   <v>       0.74934824       0.74927733      -0.00000000 </v>
   <v>       0.74953281       0.87460463       0.12539537 </v>
   <v>       0.87405212       0.74905212       0.12547919 </v>
   <v>       0.87325259       0.87342952      -0.00000000 </v>
   <v>       0.74960531       0.74956779       0.25043221 </v>
   <v>       0.74964841       0.87473258       0.37535159 </v>
   <v>       0.87456779       0.74956779       0.37539469 </v>
   <v>       0.87405212       0.87452081       0.25094788 </v>
   <v>       0.74978312       0.74972719       0.50000000 </v>
   <v>       0.74964841       0.87473258       0.62464841 </v>
   <v>       0.87456779       0.74956779       0.62460531 </v>
   <v>       0.87468176       0.87478149       0.50000000 </v>
   <v>       0.74960531       0.74956779       0.74956779 </v>
   <v>       0.74953281       0.87460463       0.87460463 </v>
   <v>       0.87405212       0.74905212       0.87452081 </v>
   <v>       0.87405212       0.87452081       0.74905212 </v>
   <v>       0.12500000       0.00000000      -0.00000000 </v>
  </varray>
 </structure>
</modeling>
