ITEM: TIMESTEP
0
ITEM: NUMBER OF ATOMS
108
ITEM: BOX BOUNDS xy xz yz pp pp pp
-7.2075420000000001e+00 1.4415084000000000e+01 -7.2075420000000001e+00
0.0000000000000000e+00 1.2483828000000001e+01 0.0000000000000000e+00
0.0000000000000000e+00 1.3116254000000000e+01 0.0000000000000000e+00
ITEM: ATOMS id type xs ys zs
1 1 0 0 0.147847
2 1 0.111111 0.222222 0.0188197
3 1 0.111111 0.222222 0.314514
4 1 0.222222 0.111111 0.185486
5 1 0.222222 0.111111 0.48118
6 1 0 0 0.352153
7 1 0 0 0.647847
8 1 0.111111 0.222222 0.51882
9 1 0.111111 0.222222 0.814514
10 1 0.222222 0.111111 0.685486
11 1 0.222222 0.111111 0.98118
12 1 0 0 0.852153
13 1 8.32667e-17 0.333333 0.147847
14 1 0.111111 0.555556 0.0188197
15 1 0.111111 0.555556 0.314514
16 1 0.222222 0.444444 0.185486
17 1 0.222222 0.444444 0.48118
18 1 8.32667e-17 0.333333 0.352153
19 1 8.32667e-17 0.333333 0.647847
20 1 0.111111 0.555556 0.51882
21 1 0.111111 0.555556 0.814514
22 1 0.222222 0.444444 0.685486
23 1 0.222222 0.444444 0.98118
24 1 8.32667e-17 0.333333 0.852153
25 1 2.22045e-16 0.666667 0.147847
26 1 0.111111 0.888889 0.0188197
27 1 0.111111 0.888889 0.314514
28 1 0.222222 0.777778 0.185486
29 1 0.222222 0.777778 0.48118
30 1 2.22045e-16 0.666667 0.352153
31 1 2.22045e-16 0.666667 0.647847
32 1 0.111111 0.888889 0.51882
33 1 0.111111 0.888889 0.814514
34 1 0.222222 0.777778 0.685486
35 1 0.222222 0.777778 0.98118
36 1 2.22045e-16 0.666667 0.852153
37 1 0.333333 0 0.147847
38 1 0.444444 0.222222 0.0188197
39 1 0.444444 0.222222 0.314514
40 1 0.555556 0.111111 0.185486
41 1 0.555556 0.111111 0.48118
42 1 0.333333 0 0.352153
43 1 0.333333 0 0.647847
44 1 0.444444 0.222222 0.51882
45 1 0.444444 0.222222 0.814514
46 1 0.555556 0.111111 0.685486
47 1 0.555556 0.111111 0.98118
48 1 0.333333 0 0.852153
49 1 0.333333 0.333333 0.147847
50 1 0.444444 0.555556 0.0188197
51 1 0.444444 0.555556 0.314514
52 1 0.555556 0.444444 0.185486
53 1 0.555556 0.444444 0.48118
54 1 0.333333 0.333333 0.352153
55 1 0.333333 0.333333 0.647847
56 1 0.444444 0.555556 0.51882
57 1 0.444444 0.555556 0.814514
58 1 0.555556 0.444444 0.685486
59 1 0.555556 0.444444 0.98118
60 1 0.333333 0.333333 0.852153
61 1 0.333333 0.666667 0.147847
62 1 0.444444 0.888889 0.0188197
63 1 0.444444 0.888889 0.314514
64 1 0.555556 0.777778 0.185486
65 1 0.555556 0.777778 0.48118
66 1 0.333333 0.666667 0.352153
67 1 0.333333 0.666667 0.647847
68 1 0.444444 0.888889 0.51882
69 1 0.444444 0.888889 0.814514
70 1 0.555556 0.777778 0.685486
71 1 0.555556 0.777778 0.98118
72 1 0.333333 0.666667 0.852153
73 1 0.666667 0 0.147847
74 1 0.777778 0.222222 0.0188197
75 1 0.777778 0.222222 0.314514
76 1 0.888889 0.111111 0.185486
77 1 0.888889 0.111111 0.48118
78 1 0.666667 0 0.352153
79 1 0.666667 0 0.647847
80 1 0.777778 0.222222 0.51882
81 1 0.777778 0.222222 0.814514
82 1 0.888889 0.111111 0.685486
83 1 0.888889 0.111111 0.98118
84 1 0.666667 0 0.852153
85 1 0.666667 0.333333 0.147847
86 1 0.777778 0.555556 0.0188197
87 1 0.777778 0.555556 0.314514
88 1 0.888889 0.444444 0.185486
89 1 0.888889 0.444444 0.48118
90 1 0.666667 0.333333 0.352153
91 1 0.666667 0.333333 0.647847
92 1 0.777778 0.555556 0.51882
93 1 0.777778 0.555556 0.814514
94 1 0.888889 0.444444 0.685486
95 1 0.888889 0.444444 0.98118
96 1 0.666667 0.333333 0.852153
97 1 0.666667 0.666667 0.147847
98 1 0.777778 0.888889 0.0188197
99 1 0.777778 0.888889 0.314514
100 1 0.888889 0.777778 0.185486
101 1 0.888889 0.777778 0.48118
102 1 0.666667 0.666667 0.352153
103 1 0.666667 0.666667 0.647847
104 1 0.777778 0.888889 0.51882
105 1 0.777778 0.888889 0.814514
106 1 0.888889 0.777778 0.685486
107 1 0.888889 0.777778 0.98118
108 1 0.666667 0.666667 0.852153
ITEM: TIMESTEP
10
ITEM: NUMBER OF ATOMS
108
ITEM: BOX BOUNDS xy xz yz pp pp pp
-7.2075420000000001e+00 1.4415084000000000e+01 -7.2075420000000001e+00
0.0000000000000000e+00 1.2483828000000001e+01 0.0000000000000000e+00
0.0000000000000000e+00 1.3116254000000000e+01 0.0000000000000000e+00
ITEM: ATOMS id type xs ys zs
1 1 0.971314 0.983363 0.0988598
2 1 0.110813 0.19429 0.0418843
3 1 0.110938 0.231372 0.297034
4 1 0.206014 0.109296 0.2242
5 1 0.21859 0.0985131 0.424167
6 1 0.985834 0.00662482 0.373052
7 1 0.989679 0.966817 0.601537
8 1 0.094532 0.185471 0.562205
9 1 0.120804 0.237318 0.763816
10 1 0.226201 0.113693 0.711024
11 1 0.257806 0.13519 0.910101
12 1 0.0137017 0.0201673 0.888403
13 1 0.0181 0.313095 0.12043
14 1 0.0934934 0.553638 0.10192
15 1 0.102202 0.544237 0.299214
16 1 0.229763 0.448329 0.264117
17 1 0.209496 0.423237 0.455542
18 1 0.988853 0.344763 0.392329
19 1 0.996465 0.315988 0.591903
20 1 0.125736 0.566519 0.555633
21 1 0.126382 0.567347 0.794964
22 1 0.235408 0.451818 0.732986
23 1 0.19857 0.446742 0.983126
24 1 0.989846 0.336271 0.901993
25 1 0.984883 0.675805 0.0961496
26 1 0.129119 0.918912 0.0349858
27 1 0.114063 0.89373 0.295716
28 1 0.207451 0.770358 0.259613
29 1 0.238471 0.785343 0.46823
30 1 0.0272411 0.695917 0.411147
31 1 0.985303 0.635447 0.59846
32 1 0.115033 0.86736 0.5765
33 1 0.0989757 0.901607 0.774868
34 1 0.202476 0.780466 0.729208
35 1 0.224078 0.76152 0.928055
36 1 0.00711871 0.697182 0.857843
37 1 0.325504 0.977658 0.150897
38 1 0.457152 0.213612 0.0831029
39 1 0.42312 0.200812 0.282544
40 1 0.569507 0.134787 0.198653
41 1 0.549515 0.102155 0.395896
42 1 0.3314 0.988727 0.391117
43 1 0.331376 0.999128 0.593919
44 1 0.448432 0.223968 0.578648
45 1 0.433504 0.230142 0.78924
46 1 0.54933 0.118206 0.71262
47 1 0.568596 0.10708 0.935454
48 1 0.343692 0.989134 0.860497
49 1 0.329447 0.318434 0.0755098
50 1 0.433293 0.556611 0.0511047
51 1 0.445105 0.564877 0.246046
52 1 0.551262 0.438365 0.247864
53 1 0.552794 0.429267 0.44299
54 1 0.330116 0.324985 0.389133
55 1 0.334336 0.343758 0.593782
56 1 0.42934 0.563923 0.536386
57 1 0.463578 0.548162 0.735324
58 1 0.562704 0.430352 0.706084
59 1 0.542101 0.431678 0.917514
60 1 0.310375 0.35782 0.887151
61 1 0.328165 0.666382 0.128729
62 1 0.45244 0.895027 0.0483954
63 1 0.460611 0.910453 0.253231
64 1 0.553476 0.790536 0.215049
65 1 0.558386 0.782879 0.450987
66 1 0.342646 0.676018 0.41507
67 1 0.339267 0.689751 0.619296
68 1 0.46763 0.901838 0.572095
69 1 0.432957 0.870865 0.764094
70 1 0.565459 0.784253 0.734991
71 1 0.562392 0.770781 0.935178
72 1 0.347989 0.654711 0.920678
73 1 0.673053 0.0249924 0.116256
74 1 0.802456 0.251716 0.0700518
75 1 0.763931 0.212886 0.284108
76 1 0.884475 0.104453 0.26336
77 1 0.894567 0.128443 0.456588
78 1 0.684595 0.988069 0.3957
79 1 0.682415 0.014461 0.598705
80 1 0.767202 0.237051 0.561493
81 1 0.770318 0.188138 0.756157
82 1 0.898569 0.0937859 0.732626
83 1 0.875415 0.122477 0.951096
84 1 0.671323 0.989231 0.867137
85 1 0.673655 0.356671 0.0937023
86 1 0.767457 0.570196 0.0719767
87 1 0.785752 0.545008 0.273593
88 1 0.893511 0.43557 0.208973
89 1 0.890856 0.4644 0.411566
90 1 0.658796 0.32674 0.392717
91 1 0.669412 0.349671 0.585598
92 1 0.770141 0.570504 0.56233
93 1 0.777536 0.529432 0.763456
94 1 0.901491 0.425417 0.718246
95 1 0.887884 0.479402 0.907802
96 1 0.667468 0.325188 0.876109
97 1 0.658629 0.666062 0.141491
98 1 0.750599 0.880028 0.0531978
99 1 0.777243 0.873059 0.251449
100 1 0.893954 0.772173 0.264558
101 1 0.897001 0.799258 0.452647
102 1 0.661163 0.662512 0.420823
103 1 0.648517 0.655793 0.616228
104 1 0.77861 0.900389 0.558847
105 1 0.78324 0.87011 0.745998
106 1 0.877136 0.750846 0.72321
107 1 0.89429 0.798409 0.967621
108 1 0.685588 0.672575 0.904097
ITEM: TIMESTEP
20
ITEM: NUMBER OF ATOMS
108
ITEM: BOX BOUNDS xy xz yz pp pp pp
-7.2075420000000001e+00 1.4415084000000000e+01 -7.2075420000000001e+00
0.0000000000000000e+00 1.2483828000000001e+01 0.0000000000000000e+00
0.0000000000000000e+00 1.3116254000000000e+01 0.0000000000000000e+00
ITEM: ATOMS id type xs ys zs
1 1 0.954936 0.95674 0.122067
2 1 0.131015 0.214574 0.0150687
3 1 0.0988595 0.241597 0.330801
4 1 0.168042 0.103598 0.174172
5 1 0.213457 0.0513903 0.446616
6 1 0.981895 0.998978 0.372806
7 1 0.0117063 0.961231 0.655659
8 1 0.0963511 0.18325 0.513196
9 1 0.106879 0.264741 0.82002
10 1 0.225123 0.151604 0.63847
11 1 0.243554 0.138865 0.901071
12 1 0.995831 0.0336614 0.885855
13 1 0.0247611 0.283389 0.154632
14 1 0.10406 0.602276 0.112788
15 1 0.085844 0.573131 0.398499
16 1 0.211675 0.454969 0.243588
17 1 0.207614 0.399679 0.496513
18 1 0.985358 0.325628 0.362138
19 1 0.0218087 0.277745 0.630737
20 1 0.111665 0.518015 0.601037
21 1 0.116752 0.579605 0.812652
22 1 0.237485 0.494318 0.704451
23 1 0.189 0.454793 0.0404075
24 1 0.975536 0.366418 0.909035
25 1 0.00197563 0.71003 0.0454747
26 1 0.140509 0.936852 0.0167029
27 1 0.1151 0.933206 0.281472
28 1 0.252308 0.761705 0.29641
29 1 0.262383 0.759224 0.518456
30 1 0.0130292 0.709443 0.349023
31 1 0.982494 0.597399 0.66506
32 1 0.101035 0.84266 0.524362
33 1 0.119534 0.929665 0.797933
34 1 0.181107 0.785668 0.720587
35 1 0.216218 0.756112 0.96143
36 1 0.0300687 0.700464 0.841659
37 1 0.306827 0.996479 0.141023
38 1 0.430065 0.169765 0.00898879
39 1 0.444125 0.226054 0.396625
40 1 0.59734 0.168942 0.140509
41 1 0.576854 0.107947 0.378521
42 1 0.328599 0.963917 0.402253
43 1 0.310669 0.984675 0.623709
44 1 0.440907 0.232086 0.599459
45 1 0.441739 0.222296 0.827286
46 1 0.526978 0.10306 0.720677
47 1 0.571781 0.0811475 0.931372
48 1 0.311588 0.98386 0.842656
49 1 0.361212 0.315948 0.0721794
50 1 0.451241 0.527566 0.01171
51 1 0.458957 0.588295 0.302525
52 1 0.550743 0.423758 0.251202
53 1 0.52208 0.424138 0.471381
54 1 0.33582 0.364571 0.353575
55 1 0.343043 0.366258 0.616656
56 1 0.426225 0.542611 0.500043
57 1 0.467059 0.575898 0.755451
58 1 0.569867 0.45174 0.694806
59 1 0.542193 0.437829 0.900767
60 1 0.319046 0.386243 0.86588
61 1 0.33073 0.677804 0.166505
62 1 0.460159 0.862292 0.0135421
63 1 0.469675 0.946191 0.234582
64 1 0.575218 0.837402 0.17967
65 1 0.541465 0.756457 0.465342
66 1 0.301667 0.612764 0.382751
67 1 0.34411 0.701288 0.676531
68 1 0.487433 0.927973 0.485389
69 1 0.423063 0.854369 0.820067
70 1 0.552984 0.83261 0.673822
71 1 0.531349 0.738585 0.954081
72 1 0.326477 0.626578 0.872657
73 1 0.67975 0.0320293 0.100451
74 1 0.805986 0.266435 0.0616871
75 1 0.765383 0.203934 0.295017
76 1 0.883834 0.116166 0.24671
77 1 0.863984 0.105635 0.517242
78 1 0.676326 0.968551 0.352379
79 1 0.701685 0.020817 0.643374
80 1 0.82242 0.293098 0.485547
81 1 0.762217 0.184495 0.813479
82 1 0.90435 0.068784 0.726128
83 1 0.860991 0.126048 0.96625
84 1 0.657938 0.933952 0.855145
85 1 0.693627 0.383734 0.0766776
86 1 0.7702 0.60639 0.0744706
87 1 0.782382 0.514828 0.249967
88 1 0.928987 0.434161 0.213023
89 1 0.88006 0.504641 0.468445
90 1 0.649932 0.310192 0.315165
91 1 0.695707 0.3484 0.583229
92 1 0.732128 0.556417 0.55669
93 1 0.792979 0.491009 0.76264
94 1 0.91547 0.377891 0.699027
95 1 0.886784 0.494316 0.977242
96 1 0.660378 0.290902 0.842251
97 1 0.642971 0.684596 0.154202
98 1 0.759929 0.905507 0.0255989
99 1 0.788847 0.86671 0.269462
100 1 0.8825 0.735157 0.216707
101 1 0.890104 0.777289 0.50345
102 1 0.684012 0.657289 0.372064
103 1 0.665781 0.710422 0.635231
104 1 0.772737 0.8854 0.474985
105 1 0.799412 0.859085 0.805317
106 1 0.854952 0.707111 0.715432
107 1 0.920753 0.832029 0.930552
108 1 0.670246 0.674555 0.919725
ITEM: TIMESTEP
30
ITEM: NUMBER OF ATOMS
108
ITEM: BOX BOUNDS xy xz yz pp pp pp
-7.2075420000000001e+00 1.4415084000000000e+01 -7.2075420000000001e+00
0.0000000000000000e+00 1.2483828000000001e+01 0.0000000000000000e+00
0.0000000000000000e+00 1.3116254000000000e+01 0.0000000000000000e+00
ITEM: ATOMS id type xs ys zs
1 1 0.988036 0.965007 0.134386
2 1 0.161438 0.2799 0.041384
3 1 0.137692 0.214781 0.292642
4 1 0.201087 0.134042 0.119722
5 1 0.232449 0.0806786 0.463454
6 1 0.994026 0.00117464 0.376612
7 1 0.957539 0.936157 0.668667
8 1 0.0909507 0.135679 0.556197
9 1 0.0733593 0.258026 0.834067
10 1 0.23776 0.13055 0.687628
11 1 0.203986 0.169336 0.883253
12 1 0.999708 0.0185801 0.897007
13 1 0.98264 0.302855 0.139983
14 1 0.125205 0.635103 0.158243
15 1 0.0697756 0.577748 0.402033
16 1 0.193453 0.468603 0.246553
17 1 0.202794 0.390304 0.48552
18 1 0.019398 0.34791 0.384668
19 1 0.00705231 0.295453 0.609927
20 1 0.107646 0.503524 0.584789
21 1 0.100418 0.557106 0.798856
22 1 0.231252 0.448802 0.70347
23 1 0.209409 0.48578 0.0614163
24 1 0.986916 0.392853 0.946614
25 1 0.0162187 0.743899 0.101222
26 1 0.137418 0.969466 0.988152
27 1 0.112491 0.90565 0.252713
28 1 0.231471 0.774034 0.298865
29 1 0.248822 0.731979 0.517756
30 1 0.0107438 0.706345 0.333045
31 1 0.0134441 0.646363 0.653537
32 1 0.112814 0.798356 0.513762
33 1 0.139949 0.930764 0.782104
34 1 0.215262 0.806086 0.733282
35 1 0.21888 0.804384 0.952584
36 1 0.991009 0.681662 0.850383
37 1 0.30962 0.00588229 0.165836
38 1 0.455589 0.180771 0.993921
39 1 0.426574 0.230156 0.375579
40 1 0.559966 0.137935 0.140844
41 1 0.562059 0.11498 0.368129
42 1 0.342964 0.946853 0.405265
43 1 0.317468 0.00915175 0.644634
44 1 0.458198 0.23363 0.585037
45 1 0.40604 0.237507 0.830355
46 1 0.505839 0.0890525 0.705149
47 1 0.570037 0.0672282 0.936904
48 1 0.341115 0.997356 0.877447
49 1 0.391066 0.297145 0.0519008
50 1 0.435037 0.505172 0.025859
51 1 0.510055 0.625829 0.256158
52 1 0.525671 0.448825 0.193664
53 1 0.526434 0.443406 0.443194
54 1 0.349016 0.412992 0.320622
55 1 0.374711 0.348296 0.658311
56 1 0.423723 0.565494 0.560172
57 1 0.506317 0.638362 0.764744
58 1 0.572005 0.426791 0.728742
59 1 0.585778 0.435837 0.923762
60 1 0.341601 0.388423 0.877283
61 1 0.36589 0.676556 0.183892
62 1 0.435792 0.872272 0.0372685
63 1 0.452173 0.932183 0.246061
64 1 0.582626 0.816154 0.145188
65 1 0.546274 0.754396 0.42527
66 1 0.314742 0.621499 0.39703
67 1 0.296334 0.649879 0.704038
68 1 0.538993 0.938473 0.477597
69 1 0.42227 0.857004 0.815659
70 1 0.531243 0.822931 0.666081
71 1 0.502213 0.728573 0.971521
72 1 0.315989 0.578108 0.887092
73 1 0.695731 0.0387463 0.0669816
74 1 0.784633 0.280983 0.0331678
75 1 0.791509 0.207103 0.239616
76 1 0.881235 0.0631868 0.225842
77 1 0.865012 0.0943089 0.45309
78 1 0.658278 0.972669 0.304564
79 1 0.680755 0.0841615 0.662077
80 1 0.831151 0.272048 0.494389
81 1 0.779131 0.162911 0.858785
82 1 0.876009 0.0775908 0.723054
83 1 0.933104 0.158725 0.00987738
84 1 0.641781 0.933764 0.868943
85 1 0.624623 0.349981 0.079979
86 1 0.790542 0.58977 0.00706908
87 1 0.824242 0.532277 0.307825
88 1 0.947612 0.44311 0.234679
89 1 0.858784 0.502207 0.514508
90 1 0.641419 0.334926 0.268467
91 1 0.662858 0.2892 0.626424
92 1 0.713901 0.574162 0.572697
93 1 0.788257 0.5015 0.793915
94 1 0.86188 0.365233 0.699112
95 1 0.925352 0.514603 0.0609898
96 1 0.634603 0.267287 0.864939
97 1 0.651268 0.64948 0.10861
98 1 0.789158 0.900229 0.0209914
99 1 0.75755 0.8411 0.234052
100 1 0.852387 0.724652 0.203153
101 1 0.896232 0.758634 0.515535
102 1 0.70528 0.630361 0.334523
103 1 0.653086 0.717647 0.600763
104 1 0.76118 0.862303 0.437186
105 1 0.780468 0.860876 0.775486
106 1 0.831222 0.706714 0.726907
107 1 0.894225 0.809901 0.93185
108 1 0.67161 0.663606 0.895248
ITEM: TIMESTEP
40
ITEM: NUMBER OF ATOMS
108
ITEM: BOX BOUNDS xy xz yz pp pp pp
-7.2075420000000001e+00 1.4415084000000000e+01 -7.2075420000000001e+00
0.0000000000000000e+00 1.2483828000000001e+01 0.0000000000000000e+00
0.0000000000000000e+00 1.3116254000000000e+01 0.0000000000000000e+00
ITEM: ATOMS id type xs ys zs
1 1 0.952901 0.934884 0.106367
2 1 0.233112 0.350188 0.106819
3 1 0.132881 0.239964 0.286783
4 1 0.243599 0.132535 0.1286
5 1 0.199311 0.0763407 0.458398
6 1 0.0118246 0.998295 0.371137
7 1 0.955091 0.929253 0.658159
8 1 0.0280955 0.105578 0.561568
9 1 0.0434572 0.222304 0.802277
10 1 0.209231 0.129814 0.675155
11 1 0.171768 0.175903 0.944087
12 1 0.952521 0.994462 0.855658
13 1 0.0315514 0.313694 0.152611
14 1 0.134136 0.641872 0.175295
15 1 0.123119 0.611618 0.394772
16 1 0.165771 0.456279 0.308645
17 1 0.22336 0.308212 0.510281
18 1 0.981658 0.293431 0.385624
19 1 0.991692 0.279098 0.598729
20 1 0.0670689 0.490453 0.591411
21 1 0.0863081 0.571774 0.801157
22 1 0.200368 0.400611 0.702247
23 1 0.193186 0.521517 0.0403159
24 1 0.993004 0.37681 0.939446
25 1 0.0498035 0.763305 0.102381
26 1 0.158203 0.965839 0.999694
27 1 0.161776 0.964835 0.253739
28 1 0.229771 0.811083 0.315704
29 1 0.272504 0.748233 0.519378
30 1 0.00737035 0.720978 0.311678
31 1 0.970905 0.64218 0.647016
32 1 0.153857 0.859907 0.478659
33 1 0.0771341 0.889707 0.802712
34 1 0.179501 0.769308 0.731719
35 1 0.212805 0.782905 0.955355
36 1 0.00158825 0.689156 0.878731
37 1 0.352571 0.00199119 0.185484
38 1 0.447873 0.141083 0.0176035
39 1 0.358093 0.24334 0.25313
40 1 0.574466 0.0622154 0.140455
41 1 0.607324 0.125044 0.369678
42 1 0.388183 0.0129557 0.423554
43 1 0.277759 0.962469 0.638884
44 1 0.429721 0.200999 0.546888
45 1 0.411724 0.233399 0.808344
46 1 0.511053 0.12359 0.744371
47 1 0.581081 0.072696 0.927538
48 1 0.297843 0.980115 0.848362
49 1 0.380749 0.323921 0.0190213
50 1 0.395537 0.550718 0.0839629
51 1 0.532862 0.645058 0.230804
52 1 0.529314 0.438406 0.198233
53 1 0.494971 0.42371 0.467826
54 1 0.343789 0.426401 0.295573
55 1 0.396858 0.395454 0.630832
56 1 0.414162 0.57027 0.559584
57 1 0.492753 0.595919 0.748853
58 1 0.556153 0.38943 0.695159
59 1 0.575225 0.458151 0.946454
60 1 0.383777 0.408153 0.836438
61 1 0.340192 0.693628 0.188912
62 1 0.408771 0.901299 0.0497265
63 1 0.458073 0.899951 0.29616
64 1 0.563474 0.855914 0.138402
65 1 0.567038 0.785769 0.382102
66 1 0.344211 0.611797 0.393583
67 1 0.314734 0.664161 0.706796
68 1 0.53184 0.94231 0.483317
69 1 0.393942 0.825152 0.860448
70 1 0.552691 0.859957 0.686017
71 1 0.545666 0.736622 0.937836
72 1 0.312599 0.570403 0.876268
73 1 0.746485 0.0831386 0.0646147
74 1 0.767528 0.272955 0.0580265
75 1 0.807719 0.225242 0.268401
76 1 0.924297 0.107532 0.219817
77 1 0.879769 0.090574 0.420383
78 1 0.697242 0.985796 0.290775
79 1 0.690977 0.074858 0.641073
80 1 0.775926 0.24753 0.474436
81 1 0.820542 0.210414 0.879141
82 1 0.855239 0.0605708 0.70466
83 1 0.958863 0.123188 0.999438
84 1 0.633499 0.946641 0.874958
85 1 0.627409 0.346911 0.0953086
86 1 0.798109 0.560624 0.981231
87 1 0.80759 0.522593 0.346083
88 1 0.949841 0.435297 0.278465
89 1 0.846102 0.452658 0.544783
90 1 0.581313 0.332905 0.352863
91 1 0.685533 0.30111 0.647109
92 1 0.706027 0.556843 0.575509
93 1 0.798367 0.519176 0.774862
94 1 0.899521 0.38689 0.743969
95 1 0.941214 0.513606 0.0882739
96 1 0.659894 0.326087 0.880452
97 1 0.679526 0.656848 0.0576778
98 1 0.744977 0.867493 0.98623
99 1 0.745164 0.802665 0.20546
100 1 0.849783 0.657478 0.163048
101 1 0.920139 0.758612 0.501934
102 1 0.676593 0.647234 0.393715
103 1 0.647627 0.742551 0.561791
104 1 0.809982 0.866623 0.436403
105 1 0.749075 0.855552 0.767876
106 1 0.866337 0.726664 0.740782
107 1 0.898222 0.784339 0.965425
108 1 0.686262 0.656024 0.846116
ITEM: TIMESTEP
50
ITEM: NUMBER OF ATOMS
108
ITEM: BOX BOUNDS xy xz yz pp pp pp
-7.2075420000000001e+00 1.4415084000000000e+01 -7.2075420000000001e+00
0.0000000000000000e+00 1.2483828000000001e+01 0.0000000000000000e+00
0.0000000000000000e+00 1.3116254000000000e+01 0.0000000000000000e+00
ITEM: ATOMS id type xs ys zs
1 1 0.971699 0.961483 0.113124
2 1 0.217542 0.328396 0.124979
3 1 0.160071 0.235807 0.30883
4 1 0.216182 0.132996 0.144155
5 1 0.235418 0.103715 0.431373
6 1 0.0149072 0.00974889 0.321552
7 1 0.925732 0.915092 0.615822
8 1 0.0226448 0.102881 0.519537
9 1 0.0103235 0.206297 0.807593
10 1 0.189522 0.115776 0.679098
11 1 0.189626 0.206602 0.91003
12 1 0.954066 0.973754 0.86624
13 1 0.999959 0.312796 0.151407
14 1 0.123646 0.642005 0.208013
15 1 0.136585 0.640002 0.43087
16 1 0.168226 0.474728 0.257725
17 1 0.204866 0.307078 0.515015
18 1 0.0190336 0.273012 0.395439
19 1 0.972822 0.266785 0.611623
20 1 0.0753518 0.524097 0.620579
21 1 0.132097 0.541251 0.846046
22 1 0.220073 0.466173 0.647893
23 1 0.158107 0.532096 0.0675204
24 1 0.976762 0.346616 0.930339
25 1 0.048702 0.765186 0.118829
26 1 0.11326 0.941053 0.982328
27 1 0.137278 0.93753 0.246351
28 1 0.260284 0.82712 0.287989
29 1 0.315485 0.840954 0.505821
30 1 0.999347 0.718089 0.316804
31 1 0.996653 0.65276 0.635974
32 1 0.148 0.886506 0.462702
33 1 0.0999205 0.92385 0.768511
34 1 0.196674 0.778994 0.732758
35 1 0.189953 0.721464 0.988931
36 1 0.980268 0.628833 0.86023
37 1 0.440831 0.107673 0.238166
38 1 0.370201 0.0853011 0.0314984
39 1 0.362646 0.283152 0.293084
40 1 0.62249 0.083898 0.13929
41 1 0.621387 0.138463 0.351276
42 1 0.378092 0.0391211 0.44469
43 1 0.292015 0.00128132 0.633468
44 1 0.418556 0.224175 0.583692
45 1 0.360181 0.18404 0.828555
46 1 0.493278 0.124502 0.713583
47 1 0.604536 0.133725 0.964075
48 1 0.309027 0.94776 0.874989
49 1 0.416617 0.306765 0.0474321
50 1 0.403147 0.597093 0.0592363
51 1 0.5263 0.66622 0.227812
52 1 0.562173 0.480626 0.214049
53 1 0.449971 0.405262 0.458848
54 1 0.357999 0.481231 0.335071
55 1 0.335727 0.32572 0.665736
56 1 0.426791 0.578759 0.515108
57 1 0.49926 0.610063 0.722415
58 1 0.554716 0.375316 0.718024
59 1 0.570364 0.439128 0.920679
60 1 0.365863 0.400608 0.86212
61 1 0.350769 0.719728 0.170769
62 1 0.393024 0.899727 0.0826993
63 1 0.486719 0.898202 0.299248
64 1 0.601162 0.837409 0.0979132
65 1 0.595669 0.800439 0.39557
66 1 0.350213 0.676893 0.3773
67 1 0.288348 0.669213 0.655119
68 1 0.552655 0.93964 0.513803
69 1 0.441004 0.834319 0.887258
70 1 0.500018 0.796097 0.705239
71 1 0.551832 0.71921 0.908656
72 1 0.327975 0.574042 0.860597
73 1 0.755954 0.0323015 0.0643516
74 1 0.795821 0.281699 0.0462727
75 1 0.828203 0.213649 0.256432
76 1 0.942088 0.125484 0.224152
77 1 0.809912 0.0619799 0.465152
78 1 0.714645 0.982183 0.269952
79 1 0.659955 0.0851145 0.654492
80 1 0.814784 0.244314 0.477425
81 1 0.801935 0.167327 0.853411
82 1 0.84826 0.0506588 0.683787
83 1 0.973986 0.137671 0.006201
84 1 0.666314 0.954475 0.838502
85 1 0.594959 0.330256 0.111994
86 1 0.787072 0.534056 0.967308
87 1 0.778963 0.555995 0.382889
88 1 0.961773 0.442001 0.290767
89 1 0.859739 0.449182 0.52931
90 1 0.524446 0.258086 0.352212
91 1 0.711028 0.287618 0.639045
92 1 0.749073 0.598586 0.593807
93 1 0.784119 0.490145 0.751721
94 1 0.900776 0.387915 0.766261
95 1 0.955102 0.519129 0.0593359
96 1 0.676876 0.321556 0.857554
97 1 0.621036 0.639475 0.0528373
98 1 0.769679 0.856405 0.99173
99 1 0.757267 0.822989 0.230893
100 1 0.80112 0.615088 0.170712
101 1 0.926086 0.744159 0.504582
102 1 0.64067 0.632727 0.404249
103 1 0.627194 0.748482 0.556904
104 1 0.813506 0.859168 0.431578
105 1 0.716273 0.824499 0.753199
106 1 0.876543 0.735933 0.731517
107 1 0.901228 0.75557 0.962915
108 1 0.690974 0.627795 0.837446
ITEM: TIMESTEP
60
ITEM: NUMBER OF ATOMS
108
ITEM: BOX BOUNDS xy xz yz pp pp pp
-7.2075420000000001e+00 1.4415084000000000e+01 -7.2075420000000001e+00
0.0000000000000000e+00 1.2483828000000001e+01 0.0000000000000000e+00
0.0000000000000000e+00 1.3116254000000000e+01 0.0000000000000000e+00
ITEM: ATOMS id type xs ys zs
1 1 0.974124 0.942662 0.10089
2 1 0.206234 0.333895 0.0824779
3 1 0.138533 0.239172 0.293888
4 1 0.183184 0.113494 0.178136
5 1 0.215923 0.0985671 0.404998
6 1 0.0108595 0.957027 0.310645
7 1 0.955371 0.945365 0.63961
8 1 0.021003 0.120635 0.474112
9 1 0.0287794 0.213252 0.778668
10 1 0.15101 0.137655 0.641656
11 1 0.176731 0.200673 0.901491
12 1 0.979897 0.000965103 0.853316
13 1 0.014264 0.342772 0.173999
14 1 0.112547 0.641367 0.221661
15 1 0.107022 0.644493 0.456298
16 1 0.17465 0.503109 0.301863
17 1 0.213963 0.356747 0.475452
18 1 0.989042 0.287528 0.375672
19 1 0.0460251 0.321153 0.600341
20 1 0.093592 0.527284 0.616879
21 1 0.153682 0.524547 0.818637
22 1 0.250855 0.475686 0.686553
23 1 0.214768 0.508667 0.00134089
24 1 0.012556 0.34765 0.924798
25 1 0.0219898 0.745559 0.0815471
26 1 0.1363 0.983696 0.941957
27 1 0.1373 0.901685 0.215752
28 1 0.303672 0.889935 0.299465
29 1 0.32598 0.8843 0.532087
30 1 0.987722 0.695432 0.315237
31 1 0.0177606 0.67935 0.641455
32 1 0.144451 0.876289 0.431234
33 1 0.0921124 0.910535 0.761798
34 1 0.178271 0.749068 0.7659
35 1 0.191599 0.722356 0.985713
36 1 8.43164e-05 0.59765 0.850189
37 1 0.457511 0.127908 0.210975
38 1 0.324732 0.0914987 0.0494381
39 1 0.373283 0.293082 0.264717
40 1 0.647045 0.102278 0.16175
41 1 0.626848 0.117334 0.40081
42 1 0.422767 0.0628424 0.408174
43 1 0.292064 0.996841 0.668292
44 1 0.379623 0.174126 0.567596
45 1 0.340025 0.148035 0.836803
46 1 0.512129 0.130972 0.745259
47 1 0.54705 0.0671194 0.935978
48 1 0.352031 0.959026 0.879273
49 1 0.361809 0.280863 0.0536981
50 1 0.428235 0.600955 0.0281713
51 1 0.45893 0.632136 0.235607
52 1 0.578328 0.478476 0.251845
53 1 0.437395 0.416042 0.518579
54 1 0.35331 0.456164 0.325466
55 1 0.303833 0.316118 0.717989
56 1 0.406706 0.609296 0.503629
57 1 0.491518 0.508994 0.707516
58 1 0.536371 0.346054 0.71407
59 1 0.534931 0.361029 0.952837
60 1 0.377272 0.424401 0.922206
61 1 0.317365 0.705902 0.143773
62 1 0.41668 0.944361 0.0982863
63 1 0.489392 0.902277 0.263884
64 1 0.549423 0.806078 0.0930289
65 1 0.598936 0.806983 0.380957
66 1 0.362748 0.737094 0.38886
67 1 0.297657 0.68371 0.602446
68 1 0.52369 0.916386 0.519892
69 1 0.415721 0.796449 0.955324
70 1 0.511002 0.789885 0.69757
71 1 0.578032 0.728747 0.885134
72 1 0.366711 0.637227 0.819634
73 1 0.755472 0.0499169 0.0107083
74 1 0.779091 0.261669 0.0423943
75 1 0.812376 0.224536 0.265929
76 1 0.94418 0.112578 0.232131
77 1 0.793016 0.0565283 0.497086
78 1 0.732766 0.991629 0.253733
79 1 0.662401 0.0897516 0.664402
80 1 0.82315 0.271037 0.512187
81 1 0.806935 0.190646 0.845892
82 1 0.841056 0.0424189 0.725956
83 1 2.51874e-05 0.167735 0.0239112
84 1 0.6231 0.95812 0.833669
85 1 0.61793 0.281904 0.0862297
86 1 0.775303 0.479152 0.982335
87 1 0.759311 0.542778 0.390899
88 1 0.961101 0.463241 0.348865
89 1 0.903092 0.509498 0.524708
90 1 0.597607 0.34522 0.433827
91 1 0.684857 0.30839 0.623611
92 1 0.652299 0.569091 0.608723
93 1 0.790394 0.506023 0.732581
94 1 0.906365 0.381831 0.741677
95 1 0.988703 0.503058 0.0357888
96 1 0.697037 0.299696 0.863527
97 1 0.629416 0.620261 0.0679595
98 1 0.781921 0.861132 0.967974
99 1 0.770383 0.805837 0.190056
100 1 0.810091 0.637937 0.178043
101 1 0.914013 0.773254 0.500025
102 1 0.569841 0.604132 0.419729
103 1 0.646731 0.747551 0.580727
104 1 0.814104 0.879834 0.42945
105 1 0.780049 0.832171 0.77499
106 1 0.896075 0.73203 0.756935
107 1 0.877069 0.726813 0.954401
108 1 0.669781 0.595689 0.853759
ITEM: TIMESTEP
70
ITEM: NUMBER OF ATOMS
108
ITEM: BOX BOUNDS xy xz yz pp pp pp
-7.2075420000000001e+00 1.4415084000000000e+01 -7.2075420000000001e+00
0.0000000000000000e+00 1.2483828000000001e+01 0.0000000000000000e+00
0.0000000000000000e+00 1.3116254000000000e+01 0.0000000000000000e+00
ITEM: ATOMS id type xs ys zs
1 1 0.955522 0.907765 0.0781862
2 1 0.188038 0.330469 0.0778172
3 1 0.190259 0.325233 0.285535
4 1 0.131077 0.105776 0.156873
5 1 0.186817 0.0800675 0.393677
6 1 0.986837 0.912066 0.304193
7 1 0.90948 0.938266 0.610324
8 1 0.0305163 0.116522 0.422439
9 1 0.0427242 0.190662 0.761651
10 1 0.15341 0.103738 0.589142
11 1 0.152844 0.18395 0.925558
12 1 0.954697 0.00964851 0.872273
13 1 0.0465873 0.347655 0.171542
14 1 0.130226 0.681209 0.199174
15 1 0.143964 0.679278 0.414107
16 1 0.199432 0.527576 0.387062
17 1 0.220661 0.359764 0.485128
18 1 0.0110225 0.308653 0.379885
19 1 0.0346775 0.310183 0.605769
20 1 0.0722844 0.548253 0.58923
21 1 0.112884 0.547173 0.819335
22 1 0.275601 0.472552 0.655112
23 1 0.230327 0.537303 0.00241367
24 1 0.06103 0.353836 0.911585
25 1 0.00996763 0.735054 0.0317694
26 1 0.150055 0.986242 0.966184
27 1 0.165678 0.927117 0.187625
28 1 0.30258 0.871629 0.29028
29 1 0.282058 0.87718 0.512042
30 1 0.972502 0.7109 0.30952
31 1 0.078848 0.751064 0.594221
32 1 0.0992704 0.872253 0.434315
33 1 0.0612 0.897954 0.755066
34 1 0.240536 0.778009 0.757941
35 1 0.180601 0.697305 0.967822
36 1 0.957163 0.609115 0.863559
37 1 0.45743 0.0994082 0.235863
38 1 0.350551 0.0680638 0.0590997
39 1 0.361086 0.220166 0.276227
40 1 0.613682 0.0741132 0.175571
41 1 0.661173 0.125372 0.396131
42 1 0.423858 0.0997925 0.456136
43 1 0.317783 0.990468 0.680633
44 1 0.364905 0.205614 0.57966
45 1 0.354511 0.157614 0.867714
46 1 0.508565 0.126393 0.738942
47 1 0.584236 0.078993 0.927864
48 1 0.296601 0.910131 0.911246
49 1 0.342494 0.241888 0.0578522
50 1 0.456434 0.651078 0.0283589
51 1 0.440205 0.631389 0.270366
52 1 0.57686 0.481524 0.23748
53 1 0.429357 0.421293 0.576999
54 1 0.39819 0.425344 0.3501
55 1 0.293555 0.297587 0.737326
56 1 0.400674 0.597359 0.490507
57 1 0.489608 0.523168 0.771588
58 1 0.516191 0.342339 0.715063
59 1 0.520868 0.349998 0.921866
60 1 0.31591 0.421504 0.949711
61 1 0.34272 0.719413 0.150674
62 1 0.383397 0.90493 0.108405
63 1 0.499951 0.910616 0.286082
64 1 0.615107 0.839074 0.133113
65 1 0.583915 0.787812 0.372767
66 1 0.341276 0.723669 0.376061
67 1 0.324094 0.712471 0.611385
68 1 0.519167 0.914001 0.478055
69 1 0.43337 0.82031 0.930596
70 1 0.514644 0.77968 0.710489
71 1 0.609238 0.71143 0.87001
72 1 0.360877 0.610866 0.812564
73 1 0.753011 0.0669929 0.048637
74 1 0.874352 0.288886 0.0377782
75 1 0.827553 0.25122 0.261989
76 1 0.937852 0.0804898 0.221261
77 1 0.816522 0.0755822 0.505171
78 1 0.741271 0.0339226 0.290989
79 1 0.664334 0.10271 0.613899
80 1 0.861849 0.310201 0.507369
81 1 0.816959 0.194064 0.835962
82 1 0.809534 0.0308317 0.697299
83 1 0.963558 0.14697 0.025499
84 1 0.650506 0.942378 0.855928
85 1 0.586229 0.246922 0.043859
86 1 0.804794 0.461432 0.0163508
87 1 0.766642 0.612319 0.388017
88 1 0.967901 0.491246 0.348661
89 1 0.857578 0.517651 0.5565
90 1 0.554049 0.349742 0.463092
91 1 0.696374 0.296189 0.629013
92 1 0.676582 0.520075 0.607079
93 1 0.773189 0.457815 0.773074
94 1 0.909943 0.393174 0.717725
95 1 0.0432006 0.531385 0.0439817
96 1 0.672538 0.266257 0.838942
97 1 0.632494 0.625045 0.0673097
98 1 0.779162 0.884503 0.983404
99 1 0.798455 0.837388 0.22637
100 1 0.796084 0.597932 0.164403
101 1 0.890266 0.772059 0.511027
102 1 0.572179 0.589474 0.422914
103 1 0.65922 0.775128 0.562439
104 1 0.814811 0.916478 0.415586
105 1 0.783051 0.842907 0.768251
106 1 0.84028 0.676662 0.707507
107 1 0.819879 0.693853 0.981426