<?xml version="1.0" encoding="ISO-8859-1"?>
<modeling>
 <generator>
  <i name="program" type="string">vasp </i>
  <i name="version" type="string">6.2.1  </i>
  <i name="subversion" type="string">16May21 (build Jun 16 2021 03:23:30) complex                          parallel </i>
  <i name="platform" type="string">LinuxPGI </i>
  <i name="date" type="string">2022 04 25 </i>
  <i name="time" type="string">11:32:55 </i>
 </generator>
 <incar>
  <i type="string" name="SYSTEM">NiAl</i>
  <i type="int" name="ISTART">     0</i>
  <i type="int" name="NELMIN">     6</i>
  <i type="int" name="IBRION">     2</i>
  <i name="EDIFF">      0.00000500</i>
  <i type="int" name="NSW">    40</i>
  <i type="int" name="ISIF">     1</i>
  <i name="ENCUT">    360.00000000</i>
  <i name="POTIM">      0.20000000</i>
  <i type="string" name="LREAL">Auto</i>
  <i type="logical" name="LPLANE"> T  </i>
  <i type="int" name="ISMEAR">     0</i>
  <i name="SIGMA">      0.05000000</i>
  <i type="logical" name="LWAVE"> F  </i>
  <i type="logical" name="LCHARG"> F  </i>
  <i type="int" name="IVDW">    12</i>
 </incar>
 <primitive_cell>
  <structure name="primitive_cell" >
   <crystal>
    <varray name="basis" >
     <v>       0.00000000     -15.14622176       0.00000000 </v>
     <v>       0.00000000      -7.57311088     -13.11701281 </v>
     <v>      29.00000000       0.00000000       0.00000000 </v>
    </varray>
    <i name="volume">   5761.52236213 </i>
    <varray name="rec_basis" >
     <v>       0.00000000      -0.06602307       0.03811843 </v>
     <v>       0.00000000       0.00000000      -0.07623687 </v>
     <v>       0.03448276       0.00000000       0.00000000 </v>
    </varray>
   </crystal>
   <varray name="positions" >
    <v>       0.44611949       0.61278586       0.52320000 </v>
    <v>       0.61600733       0.44199621       0.51834138 </v>
    <v>       0.77899413       0.27671087       0.51854621 </v>
    <v>       0.94448875       0.11115564       0.51853138 </v>
    <v>       0.94482600       0.27758683       0.51870379 </v>
    <v>       0.94448866       0.44435574       0.51853138 </v>
    <v>       0.77828647       0.61130382       0.51848276 </v>
    <v>       0.61126115       0.77792788       0.51857310 </v>
    <v>       0.44463746       0.94495295       0.51848272 </v>
    <v>       0.61123128       0.94438423       0.51861517 </v>
    <v>       0.77771841       0.94438423       0.51861517 </v>
    <v>       0.94414420       0.77792781       0.51857310 </v>
    <v>       0.94374291       0.61130382       0.51848276 </v>
    <v>       0.83315088       0.66703144       0.44996379 </v>
    <v>       0.66664503       0.83331244       0.45007172 </v>
    <v>       0.72222210       0.88888912       0.38087241 </v>
    <v>       0.88901587       0.72225133       0.38084621 </v>
    <v>       0.94447693       0.77776161       0.31161828 </v>
    <v>       0.77777813       0.94444438       0.31165759 </v>
    <v>       0.94441857       0.94444133       0.31164069 </v>
    <v>       0.88901579       0.88873276       0.38084621 </v>
    <v>       0.83337582       0.83331237       0.45007172 </v>
    <v>       0.77771794       0.77789731       0.51861517 </v>
    <v>       0.77899471       0.44429476       0.51854621 </v>
    <v>       0.66696440       0.49998731       0.45010069 </v>
    <v>       0.83361047       0.33319476       0.45009897 </v>
    <v>       0.88883033       0.38894831       0.38086552 </v>
    <v>       0.72212232       0.55558610       0.38081138 </v>
    <v>       0.77777487       0.61113991       0.31164069 </v>
    <v>       0.61109468       0.77776169       0.31161828 </v>
    <v>       0.66667335       0.83333913       0.24266452 </v>
    <v>       0.83331173       0.66670972       0.24265279 </v>
    <v>       0.88898916       0.72215832       0.17349797 </v>
    <v>       0.72222210       0.88888912       0.17346107 </v>
    <v>       0.77779242       0.94445818       0.10453624 </v>
    <v>       0.94450322       0.77774865       0.10455107 </v>
    <v>       0.94445915       0.94448707       0.10454590 </v>
    <v>       0.88898860       0.88885329       0.17349797 </v>
    <v>       0.83332151       0.83333913       0.24266452 </v>
    <v>       0.77777775       0.77777770       0.31165759 </v>
    <v>       0.72206599       0.72225133       0.38084621 </v>
    <v>       0.66642546       0.66667084       0.44999445 </v>
    <v>       0.55544721       0.72211335       0.38088031 </v>
    <v>       0.50000397       0.83309212       0.44999445 </v>
    <v>       0.33332069       0.83363111       0.45010062 </v>
    <v>       0.27532967       0.78267370       0.51834131 </v>
    <v>       0.11004403       0.94566127       0.51854610 </v>
    <v>       0.27762774       0.94566127       0.51854614 </v>
    <v>       0.44443995       0.77893657       0.51861445 </v>
    <v>       0.49945027       0.66611668       0.45103997 </v>
    <v>       0.61226995       0.61110720       0.51861448 </v>
    <v>       0.61111138       0.94444445       0.31165759 </v>
    <v>       0.44447332       0.94444140       0.31164066 </v>
    <v>       0.38891953       0.88878925       0.38081134 </v>
    <v>       0.38893497       0.72210427       0.38127548 </v>
    <v>       0.22229407       0.72210427       0.38127545 </v>
    <v>       0.05562453       0.88878925       0.38081131 </v>
    <v>       0.00023705       0.83309220       0.44999441 </v>
    <v>       0.16776634       0.66611660       0.45103993 </v>
    <v>       0.27442779       0.61278594       0.52319993 </v>
    <v>       0.10995662       0.61110720       0.51861441 </v>
    <v>       0.27533025       0.44199629       0.51834131 </v>
    <v>       0.44444030       0.27662327       0.51861445 </v>
    <v>       0.61126102       0.11081113       0.51857307 </v>
    <v>       0.66642554       0.16690393       0.44999448 </v>
    <v>       0.83315103       0.99981787       0.44996383 </v>
    <v>       0.88883357       0.05550052       0.38080934 </v>
    <v>       0.72212283       0.22229154       0.38081138 </v>
    <v>       0.77776228       0.27779496       0.31165483 </v>
    <v>       0.61097293       0.44451356       0.31184859 </v>
    <v>       0.66660597       0.49997817       0.24273686 </v>
    <v>       0.49988321       0.66655039       0.24285407 </v>
    <v>       0.55546530       0.72213157       0.17355441 </v>
    <v>       0.38883213       0.88883492       0.17349334 </v>
    <v>       0.33331154       0.83327204       0.24273679 </v>
    <v>       0.27784676       0.77763978       0.31184848 </v>
    <v>       0.11112830       0.94442921       0.31165466 </v>
    <v>       0.27777642       0.94442928       0.31165469 </v>
    <v>       0.22223952       0.88885413       0.38089814 </v>
    <v>       0.16638123       0.83363127       0.45010052 </v>
    <v>       0.10995639       0.77893672       0.51861431 </v>
    <v>       0.94441841       0.61113991       0.31164072 </v>
    <v>       0.94442430       0.44448459       0.31166586 </v>
    <v>       0.94442201       0.27778886       0.31166517 </v>
    <v>       0.94442482       0.11109084       0.31166586 </v>
    <v>       0.83328658       0.16665380       0.24266966 </v>
    <v>       0.66660124       0.16676129       0.24270445 </v>
    <v>       0.49988367       0.33356596       0.24285410 </v>
    <v>       0.55552059       0.38894900       0.17356272 </v>
    <v>       0.38888896       0.55555553       0.17360786 </v>
    <v>       0.44444307       0.61110934       0.10461686 </v>
    <v>       0.61108465       0.44445783       0.10453548 </v>
    <v>       0.77779956       0.27776134       0.10449483 </v>
    <v>       0.72216907       0.22233256       0.17349345 </v>
    <v>       0.72218661       0.05565513       0.17349793 </v>
    <v>       0.88893115       0.05559719       0.17349000 </v>
    <v>       0.83331232       0.99997858       0.24265276 </v>
    <v>       0.77777512       0.11108467       0.31164069 </v>
    <v>       0.61109497       0.11114337       0.31161824 </v>
    <v>       0.55558477       0.05568265       0.38084617 </v>
    <v>       0.50036504       0.99981779       0.44996376 </v>
    <v>       0.33361232       0.16636029       0.44998514 </v>
    <v>       0.16652801       0.33319476       0.45009890 </v>
    <v>       0.99969368       0.50027930       0.44998510 </v>
    <v>       0.05562482       0.55558610       0.38081131 </v>
    <v>       0.22223957       0.38890638       0.38089821 </v>
    <v>       0.27784689       0.44451356       0.31184855 </v>
    <v>       0.11130246       0.61103546       0.31173717 </v>
    <v>       0.16689984       0.66655039       0.24285407 </v>
    <v>       0.00009437       0.83326823       0.24270441 </v>
    <v>       0.05566643       0.88883499       0.17349338 </v>
    <v>       0.22228234       0.72218729       0.17356269 </v>
    <v>       0.27779128       0.77775101       0.10453548 </v>
    <v>       0.11109495       0.94446580       0.10449476 </v>
    <v>       0.27777276       0.94446580       0.10449479 </v>
    <v>       0.44438720       0.94448715       0.10454586 </v>
    <v>       0.61108214       0.77774873       0.10455103 </v>
    <v>       0.77782065       0.61105376       0.10454586 </v>
    <v>       0.72216893       0.55549843       0.17349345 </v>
    <v>       0.83328663       0.50005974       0.24266966 </v>
    <v>       0.88888621       0.38885530       0.17348138 </v>
    <v>       0.83328062       0.33335944       0.24268207 </v>
    <v>       0.72219697       0.38890181       0.17347241 </v>
    <v>       0.66660581       0.33341669       0.24273690 </v>
    <v>       0.61099608       0.27796885       0.31173724 </v>
    <v>       0.55544693       0.22243944       0.38088034 </v>
    <v>       0.44436904       0.27796885       0.31173721 </v>
    <v>       0.38893517       0.38896059       0.38127548 </v>
    <v>       0.49945009       0.33443300       0.45103997 </v>
    <v>       0.33324705       0.49991428       0.45091510 </v>
    <v>       0.38888875       0.55555568       0.38187890 </v>
    <v>       0.44431699       0.61098370       0.31211821 </v>
    <v>       0.27803328       0.61098370       0.31211821 </v>
    <v>       0.33337430       0.50004152       0.24289407 </v>
    <v>       0.16674986       0.49997824       0.24273679 </v>
    <v>       0.99998763       0.50005981       0.24266955 </v>
    <v>       0.16669322       0.33335951       0.24268197 </v>
    <v>       0.22223466       0.38890181       0.17347234 </v>
    <v>       0.38883237       0.22233263       0.17349338 </v>
    <v>       0.55549154       0.05565520       0.17349790 </v>
    <v>       0.50004293       0.99997873       0.24265269 </v>
    <v>       0.33339290       0.16665387       0.24266959 </v>
    <v>       0.27777606       0.27779511       0.31165476 </v>
    <v>       0.11112296       0.27778901       0.31166507 </v>
    <v>       0.05555549       0.22222232       0.38087783 </v>
    <v>       0.99999574       0.16666249       0.45007748 </v>
    <v>       0.16652765       0.00027773       0.45009886 </v>
    <v>       0.22228221       0.05549678       0.38086545 </v>
    <v>       0.27781755       0.11109092       0.31166579 </v>
    <v>       0.38899981       0.05550052       0.38080924 </v>
    <v>       0.38891953       0.22229154       0.38081131 </v>
    <v>       0.50000371       0.16690393       0.44999441 </v>
    <v>       0.44463736       0.11040944       0.51848269 </v>
    <v>       0.27768861       0.11115587       0.51853131 </v>
    <v>       0.11092017       0.27758706       0.51870369 </v>
    <v>       0.27762803       0.27671102       0.51854610 </v>
    <v>       0.11004360       0.44429498       0.51854607 </v>
    <v>       0.16638212       0.49998747       0.45010055 </v>
    <v>       0.33332055       0.33304847       0.45010059 </v>
    <v>       0.49991746       0.50004144       0.24289407 </v>
    <v>       0.44431680       0.44469957       0.31211821 </v>
    <v>       0.72206593       0.05568257       0.38084621 </v>
    <v>       0.66664528       0.00004262       0.45007172 </v>
    <v>       0.83336093       0.50027930       0.44998517 </v>
    <v>       0.88883308       0.55566691       0.38080931 </v>
    <v>       0.44444281       0.77777465       0.10455652 </v>
    <v>       0.38886388       0.72218729       0.17356272 </v>
    <v>       0.33337444       0.66658470       0.24289410 </v>
    <v>       0.16674987       0.83327204       0.24273686 </v>
    <v>       0.11130222       0.77766258       0.31173721 </v>
    <v>       0.05577293       0.72211327       0.38088031 </v>
    <v>       0.00023707       0.66667084       0.44999441 </v>
    <v>       0.61110776       0.61110941       0.10455652 </v>
    <v>       0.55552061       0.55553045       0.17356272 </v>
    <v>       0.22223474       0.88886396       0.17347238 </v>
    <v>       0.77779877       0.44443961       0.10449479 </v>
    <v>       0.94445912       0.44441521       0.10452790 </v>
    <v>       0.94445898       0.61105376       0.10454583 </v>
    <v>       0.88893086       0.55547175       0.17348997 </v>
    <v>       0.72218650       0.72215832       0.17349790 </v>
    <v>       0.66660148       0.66663730       0.24270445 </v>
    <v>       0.61099616       0.61103539       0.31173721 </v>
    <v>       0.55543832       0.55560127       0.38127548 </v>
    <v>       0.50017210       0.49991405       0.45091514 </v>
    <v>       0.55543829       0.38896043       0.38127548 </v>
    <v>       0.72218742       0.38890638       0.38089824 </v>
    <v>       0.66696437       0.33304831       0.45010066 </v>
    <v>       0.61227048       0.27662312       0.51861445 </v>
    <v>       0.77828652       0.11040928       0.51848272 </v>
    <v>       0.83336081       0.16636021       0.44998514 </v>
    <v>       0.88883063       0.22222125       0.38086552 </v>
    <v>       0.94447405       0.27776294       0.10450828 </v>
    <v>       0.94445957       0.11112591       0.10452793 </v>
    <v>       0.88888648       0.22225876       0.17348138 </v>
    <v>       0.49997085       0.83326823       0.24270445 </v>
    <v>       0.44436875       0.77766250       0.31173721 </v>
    <v>       0.77779192       0.77774949       0.10453617 </v>
    <v>       0.61108345       0.94445818       0.10453621 </v>
    <v>       0.55549150       0.88885329       0.17349793 </v>
    <v>       0.77782063       0.11112583       0.10454586 </v>
    <v>       0.61108208       0.11116929       0.10455103 </v>
    <v>       0.44444305       0.27778268       0.10455655 </v>
    <v>       0.27779097       0.44445783       0.10453552 </v>
    <v>       0.11111637       0.61110934       0.10455655 </v>
    <v>       0.05566605       0.55549835       0.17349345 </v>
    <v>       0.05573724       0.72213157       0.17355448 </v>
    <v>       0.00009468       0.66663715       0.24270448 </v>
    <v>       0.61110771       0.27778268       0.10455655 </v>
    <v>       0.55546493       0.22240346       0.17355448 </v>
    <v>       0.49997088       0.16676122       0.24270448 </v>
    <v>       0.44447352       0.11108467       0.31164069 </v>
    <v>       0.38886385       0.38894900       0.17356276 </v>
    <v>       0.33331161       0.33341654       0.24273690 </v>
    <v>       0.44444314       0.44444715       0.10461690 </v>
    <v>       0.27778104       0.61110934       0.10461690 </v>
    <v>       0.22228242       0.55553037       0.17356276 </v>
    <v>       0.11111609       0.77777457       0.10455655 </v>
    <v>       0.66667286       0.99998773       0.24266448 </v>
    <v>       0.77776280       0.44444273       0.31165486 </v>
    <v>       0.11112833       0.44444281       0.31165469 </v>
    <v>       0.05555426       0.38894847       0.38086534 </v>
    <v>       0.99999525       0.33334213       0.45007738 </v>
    <v>       0.16667461       0.16666234       0.45007741 </v>
    <v>       0.11091963       0.11149284       0.51870359 </v>
    <v>       0.55558467       0.88873284       0.38084617 </v>
    <v>       0.22229354       0.55560150       0.38127541 </v>
    <v>       0.22228205       0.22222133       0.38086541 </v>
    <v>       0.33324716       0.66683872       0.45091510 </v>
    <v>       0.33361254       0.00002752       0.44998507 </v>
    <v>       0.44611953       0.44109426       0.52319997 </v>
    <v>       0.11109518       0.44443953       0.10449483 </v>
    <v>       0.11109645       0.27776294       0.10450828 </v>
    <v>       0.05555567       0.22222209       0.17351690 </v>
    <v>       0.99997275       0.16664008       0.24268279 </v>
    <v>       0.16669302       0.99994740       0.24268210 </v>
    <v>       0.22218885       0.05555304       0.17348138 </v>
    <v>       0.27774789       0.11112591       0.10452793 </v>
    <v>       0.38880500       0.05559726       0.17348997 </v>
    <v>       0.33339337       0.99995273       0.24266966 </v>
    <v>       0.16672063       0.16664015       0.24268276 </v>
    <v>       0.11112246       0.11108863       0.31166521 </v>
    <v>       0.05555509       0.05549678       0.38086559 </v>
    <v>       0.99969332       0.00002760       0.44998524 </v>
    <v>       0.27777314       0.27776134       0.10449483 </v>
    <v>       0.22218894       0.22225861       0.17348138 </v>
    <v>       0.05559193       0.38885530       0.17348138 </v>
    <v>       0.99997334       0.33338688       0.24268276 </v>
    <v>       0.44438691       0.11112583       0.10454586 </v>
    <v>       0.11109641       0.11114047       0.10450828 </v>
    <v>       0.05559145       0.05555320       0.17348141 </v>
    <v>       0.99998731       0.99995289       0.24266969 </v>
    <v>       0.94374282       0.94495288       0.51848279 </v>
    <v>       0.38888879       0.55555561       0.55356862 </v>
    <v>       0.32095219       0.56666012       0.57232841 </v>
   </varray>
  </structure>
  <varray name="primitive_index" >
   <v type="int" >        1 </v>
   <v type="int" >        2 </v>
   <v type="int" >        3 </v>
   <v type="int" >        4 </v>
   <v type="int" >        5 </v>
   <v type="int" >        6 </v>
   <v type="int" >        7 </v>
   <v type="int" >        8 </v>
   <v type="int" >        9 </v>
   <v type="int" >       10 </v>
   <v type="int" >       11 </v>
   <v type="int" >       12 </v>
   <v type="int" >       13 </v>
   <v type="int" >       14 </v>
   <v type="int" >       15 </v>
   <v type="int" >       16 </v>
   <v type="int" >       17 </v>
   <v type="int" >       18 </v>
   <v type="int" >       19 </v>
   <v type="int" >       20 </v>
   <v type="int" >       21 </v>
   <v type="int" >       22 </v>
   <v type="int" >       23 </v>
   <v type="int" >       24 </v>
   <v type="int" >       25 </v>
   <v type="int" >       26 </v>
   <v type="int" >       27 </v>
   <v type="int" >       28 </v>
   <v type="int" >       29 </v>
   <v type="int" >       30 </v>
   <v type="int" >       31 </v>
   <v type="int" >       32 </v>
   <v type="int" >       33 </v>
   <v type="int" >       34 </v>
   <v type="int" >       35 </v>
   <v type="int" >       36 </v>
   <v type="int" >       37 </v>
   <v type="int" >       38 </v>
   <v type="int" >       39 </v>
   <v type="int" >       40 </v>
   <v type="int" >       41 </v>
   <v type="int" >       42 </v>
   <v type="int" >       43 </v>
   <v type="int" >       44 </v>
   <v type="int" >       45 </v>
   <v type="int" >       46 </v>
   <v type="int" >       47 </v>
   <v type="int" >       48 </v>
   <v type="int" >       49 </v>
   <v type="int" >       50 </v>
   <v type="int" >       51 </v>
   <v type="int" >       52 </v>
   <v type="int" >       53 </v>
   <v type="int" >       54 </v>
   <v type="int" >       55 </v>
   <v type="int" >       56 </v>
   <v type="int" >       57 </v>
   <v type="int" >       58 </v>
   <v type="int" >       59 </v>
   <v type="int" >       60 </v>
   <v type="int" >       61 </v>
   <v type="int" >       62 </v>
   <v type="int" >       63 </v>
   <v type="int" >       64 </v>
   <v type="int" >       65 </v>
   <v type="int" >       66 </v>
   <v type="int" >       67 </v>
   <v type="int" >       68 </v>
   <v type="int" >       69 </v>
   <v type="int" >       70 </v>
   <v type="int" >       71 </v>
   <v type="int" >       72 </v>
   <v type="int" >       73 </v>
   <v type="int" >       74 </v>
   <v type="int" >       75 </v>
   <v type="int" >       76 </v>
   <v type="int" >       77 </v>
   <v type="int" >       78 </v>
   <v type="int" >       79 </v>
   <v type="int" >       80 </v>
   <v type="int" >       81 </v>
   <v type="int" >       82 </v>
   <v type="int" >       83 </v>
   <v type="int" >       84 </v>
   <v type="int" >       85 </v>
   <v type="int" >       86 </v>
   <v type="int" >       87 </v>
   <v type="int" >       88 </v>
   <v type="int" >       89 </v>
   <v type="int" >       90 </v>
   <v type="int" >       91 </v>
   <v type="int" >       92 </v>
   <v type="int" >       93 </v>
   <v type="int" >       94 </v>
   <v type="int" >       95 </v>
   <v type="int" >       96 </v>
   <v type="int" >       97 </v>
   <v type="int" >       98 </v>
   <v type="int" >       99 </v>
   <v type="int" >      100 </v>
   <v type="int" >      101 </v>
   <v type="int" >      102 </v>
   <v type="int" >      103 </v>
   <v type="int" >      104 </v>
   <v type="int" >      105 </v>
   <v type="int" >      106 </v>
   <v type="int" >      107 </v>
   <v type="int" >      108 </v>
   <v type="int" >      109 </v>
   <v type="int" >      110 </v>
   <v type="int" >      111 </v>
   <v type="int" >      112 </v>
   <v type="int" >      113 </v>
   <v type="int" >      114 </v>
   <v type="int" >      115 </v>
   <v type="int" >      116 </v>
   <v type="int" >      117 </v>
   <v type="int" >      118 </v>
   <v type="int" >      119 </v>
   <v type="int" >      120 </v>
   <v type="int" >      121 </v>
   <v type="int" >      122 </v>
   <v type="int" >      123 </v>
   <v type="int" >      124 </v>
   <v type="int" >      125 </v>
   <v type="int" >      126 </v>
   <v type="int" >      127 </v>
   <v type="int" >      128 </v>
   <v type="int" >      129 </v>
   <v type="int" >      130 </v>
   <v type="int" >      131 </v>
   <v type="int" >      132 </v>
   <v type="int" >      133 </v>
   <v type="int" >      134 </v>
   <v type="int" >      135 </v>
   <v type="int" >      136 </v>
   <v type="int" >      137 </v>
   <v type="int" >      138 </v>
   <v type="int" >      139 </v>
   <v type="int" >      140 </v>
   <v type="int" >      141 </v>
   <v type="int" >      142 </v>
   <v type="int" >      143 </v>
   <v type="int" >      144 </v>
   <v type="int" >      145 </v>
   <v type="int" >      146 </v>
   <v type="int" >      147 </v>
   <v type="int" >      148 </v>
   <v type="int" >      149 </v>
   <v type="int" >      150 </v>
   <v type="int" >      151 </v>
   <v type="int" >      152 </v>
   <v type="int" >      153 </v>
   <v type="int" >      154 </v>
   <v type="int" >      155 </v>
   <v type="int" >      156 </v>
   <v type="int" >      157 </v>
   <v type="int" >      158 </v>
   <v type="int" >      159 </v>
   <v type="int" >      160 </v>
   <v type="int" >      161 </v>
   <v type="int" >      162 </v>
   <v type="int" >      163 </v>
   <v type="int" >      164 </v>
   <v type="int" >      165 </v>
   <v type="int" >      166 </v>
   <v type="int" >      167 </v>
   <v type="int" >      168 </v>
   <v type="int" >      169 </v>
   <v type="int" >      170 </v>
   <v type="int" >      171 </v>
   <v type="int" >      172 </v>
   <v type="int" >      173 </v>
   <v type="int" >      174 </v>
   <v type="int" >      175 </v>
   <v type="int" >      176 </v>
   <v type="int" >      177 </v>
   <v type="int" >      178 </v>
   <v type="int" >      179 </v>
   <v type="int" >      180 </v>
   <v type="int" >      181 </v>
   <v type="int" >      182 </v>
   <v type="int" >      183 </v>
   <v type="int" >      184 </v>
   <v type="int" >      185 </v>
   <v type="int" >      186 </v>
   <v type="int" >      187 </v>
   <v type="int" >      188 </v>
   <v type="int" >      189 </v>
   <v type="int" >      190 </v>
   <v type="int" >      191 </v>
   <v type="int" >      192 </v>
   <v type="int" >      193 </v>
   <v type="int" >      194 </v>
   <v type="int" >      195 </v>
   <v type="int" >      196 </v>
   <v type="int" >      197 </v>
   <v type="int" >      198 </v>
   <v type="int" >      199 </v>
   <v type="int" >      200 </v>
   <v type="int" >      201 </v>
   <v type="int" >      202 </v>
   <v type="int" >      203 </v>
   <v type="int" >      204 </v>
   <v type="int" >      205 </v>
   <v type="int" >      206 </v>
   <v type="int" >      207 </v>
   <v type="int" >      208 </v>
   <v type="int" >      209 </v>
   <v type="int" >      210 </v>
   <v type="int" >      211 </v>
   <v type="int" >      212 </v>
   <v type="int" >      213 </v>
   <v type="int" >      214 </v>
   <v type="int" >      215 </v>
   <v type="int" >      216 </v>
   <v type="int" >      217 </v>
   <v type="int" >      218 </v>
   <v type="int" >      219 </v>
   <v type="int" >      220 </v>
   <v type="int" >      221 </v>
   <v type="int" >      222 </v>
   <v type="int" >      223 </v>
   <v type="int" >      224 </v>
   <v type="int" >      225 </v>
   <v type="int" >      226 </v>
   <v type="int" >      227 </v>
   <v type="int" >      228 </v>
   <v type="int" >      229 </v>
   <v type="int" >      230 </v>
   <v type="int" >      231 </v>
   <v type="int" >      232 </v>
   <v type="int" >      233 </v>
   <v type="int" >      234 </v>
   <v type="int" >      235 </v>
   <v type="int" >      236 </v>
   <v type="int" >      237 </v>
   <v type="int" >      238 </v>
   <v type="int" >      239 </v>
   <v type="int" >      240 </v>
   <v type="int" >      241 </v>
   <v type="int" >      242 </v>
   <v type="int" >      243 </v>
   <v type="int" >      244 </v>
   <v type="int" >      245 </v>
   <v type="int" >      246 </v>
   <v type="int" >      247 </v>
   <v type="int" >      248 </v>
   <v type="int" >      249 </v>
   <v type="int" >      250 </v>
   <v type="int" >      251 </v>
   <v type="int" >      252 </v>
   <v type="int" >      253 </v>
   <v type="int" >      254 </v>
  </varray>
 </primitive_cell>
 <kpoints>
  <generation param="Gamma">
   <v type="int" name="divisions">       2        2        1 </v>
   <v name="usershift">      0.00000000       0.00000000       0.00000000 </v>
   <v name="genvec1">      0.50000000      -0.00000000       0.00000000 </v>
   <v name="genvec2">      0.00000000       0.50000000       0.00000000 </v>
   <v name="genvec3">      0.00000000       0.00000000       1.00000000 </v>
   <v name="shift">      0.00000000       0.00000000       0.00000000 </v>
  </generation>
  <varray name="kpointlist" >
   <v>       0.00000000       0.00000000       0.00000000 </v>
   <v>       0.50000000       0.00000000       0.00000000 </v>
   <v>       0.50000000       0.50000000       0.00000000 </v>
   <v>       0.00000000       0.50000000       0.00000000 </v>
  </varray>
  <varray name="weights" >
   <v>       0.25000000 </v>
   <v>       0.25000000 </v>
   <v>       0.25000000 </v>
   <v>       0.25000000 </v>
  </varray>
 </kpoints>
 <parameters>
  <separator name="general" >
   <i type="string" name="SYSTEM">NiAl</i>
   <i type="logical" name="LCOMPAT"> F  </i>
  </separator>
  <separator name="electronic" >
   <i type="string" name="PREC">normal</i>
   <i name="ENMAX">    360.00000000</i>
   <i name="ENAUG">   1139.60900000</i>
   <i name="EDIFF">      0.00000500</i>
   <i type="int" name="IALGO">    38</i>
   <i type="int" name="IWAVPR">    11</i>
   <i type="int" name="NBANDS">  1519</i>
   <i type="int" name="NBANDSLOW">    -1</i>
   <i type="int" name="NBANDSHIGH">    -1</i>
   <i name="NELECT">   2532.00000000</i>
   <i type="int" name="TURBO">     0</i>
   <i type="int" name="IRESTART">     0</i>
   <i type="int" name="NREBOOT">     0</i>
   <i type="int" name="NMIN">     0</i>
   <i name="EREF">      0.00000000</i>
   <separator name="electronic smearing" >
    <i type="int" name="ISMEAR">     0</i>
    <i name="SIGMA">      0.05000000</i>
    <i name="KSPACING">      0.50000000</i>
    <i type="logical" name="KGAMMA"> T  </i>
    <i type="logical" name="KBLOWUP"> T  </i>
   </separator>
   <separator name="electronic projectors" >
    <i type="logical" name="LREAL"> T  </i>
    <v name="ROPT">     -0.00050000     -0.00050000</v>
    <i type="int" name="LMAXPAW">  -100</i>
    <i type="int" name="LMAXMIX">     2</i>
    <i type="logical" name="NLSPLINE"> F  </i>
   </separator>
   <separator name="electronic startup" >
    <i type="int" name="ISTART">     0</i>
    <i type="int" name="ICHARG">     2</i>
    <i type="int" name="INIWAV">     1</i>
   </separator>
   <separator name="electronic spin" >
    <i type="int" name="ISPIN">     1</i>
    <i type="logical" name="LNONCOLLINEAR"> F  </i>
    <v name="MAGMOM">      1.00000000      1.00000000      1.00000000      1.00000000      1.00000000      1.00000000      1.00000000      1.00000000      1.00000000      1.00000000      1.00000000      1.00000000      1.00000000      1.00000000      1.00000000      1.00000000      1.00000000      1.00000000      1.00000000      1.00000000
      1.00000000      1.00000000      1.00000000      1.00000000      1.00000000      1.00000000      1.00000000      1.00000000      1.00000000      1.00000000      1.00000000      1.00000000      1.00000000      1.00000000      1.00000000      1.00000000      1.00000000      1.00000000      1.00000000      1.00000000
      1.00000000      1.00000000      1.00000000      1.00000000      1.00000000      1.00000000      1.00000000      1.00000000      1.00000000      1.00000000      1.00000000      1.00000000      1.00000000      1.00000000      1.00000000      1.00000000      1.00000000      1.00000000      1.00000000      1.00000000
      1.00000000      1.00000000      1.00000000      1.00000000      1.00000000      1.00000000      1.00000000      1.00000000      1.00000000      1.00000000      1.00000000      1.00000000      1.00000000      1.00000000      1.00000000      1.00000000      1.00000000      1.00000000      1.00000000      1.00000000
      1.00000000      1.00000000      1.00000000      1.00000000      1.00000000      1.00000000      1.00000000      1.00000000      1.00000000      1.00000000      1.00000000      1.00000000      1.00000000      1.00000000      1.00000000      1.00000000      1.00000000      1.00000000      1.00000000      1.00000000
      1.00000000      1.00000000      1.00000000      1.00000000      1.00000000      1.00000000      1.00000000      1.00000000      1.00000000      1.00000000      1.00000000      1.00000000      1.00000000      1.00000000      1.00000000      1.00000000      1.00000000      1.00000000      1.00000000      1.00000000
      1.00000000      1.00000000      1.00000000      1.00000000      1.00000000      1.00000000      1.00000000      1.00000000      1.00000000      1.00000000      1.00000000      1.00000000      1.00000000      1.00000000      1.00000000      1.00000000      1.00000000      1.00000000      1.00000000      1.00000000
      1.00000000      1.00000000      1.00000000      1.00000000      1.00000000      1.00000000      1.00000000      1.00000000      1.00000000      1.00000000      1.00000000      1.00000000      1.00000000      1.00000000      1.00000000      1.00000000      1.00000000      1.00000000      1.00000000      1.00000000
      1.00000000      1.00000000      1.00000000      1.00000000      1.00000000      1.00000000      1.00000000      1.00000000      1.00000000      1.00000000      1.00000000      1.00000000      1.00000000      1.00000000      1.00000000      1.00000000      1.00000000      1.00000000      1.00000000      1.00000000
      1.00000000      1.00000000      1.00000000      1.00000000      1.00000000      1.00000000      1.00000000      1.00000000      1.00000000      1.00000000      1.00000000      1.00000000      1.00000000      1.00000000      1.00000000      1.00000000      1.00000000      1.00000000      1.00000000      1.00000000
      1.00000000      1.00000000      1.00000000      1.00000000      1.00000000      1.00000000      1.00000000      1.00000000      1.00000000      1.00000000      1.00000000      1.00000000      1.00000000      1.00000000      1.00000000      1.00000000      1.00000000      1.00000000      1.00000000      1.00000000
      1.00000000      1.00000000      1.00000000      1.00000000      1.00000000      1.00000000      1.00000000      1.00000000      1.00000000      1.00000000      1.00000000      1.00000000      1.00000000      1.00000000      1.00000000      1.00000000      1.00000000      1.00000000      1.00000000      1.00000000
      1.00000000      1.00000000      1.00000000      1.00000000      1.00000000      1.00000000      1.00000000      1.00000000      1.00000000      1.00000000      1.00000000      1.00000000      1.00000000      1.00000000</v>
    <i name="NUPDOWN">     -1.00000000</i>
    <i type="logical" name="LSORBIT"> F  </i>
    <v name="SAXIS">      0.00000000      0.00000000      1.00000000</v>
    <i type="logical" name="LSPIRAL"> F  </i>
    <v name="QSPIRAL">      0.00000000      0.00000000      0.00000000</v>
    <i type="logical" name="LZEROZ"> F  </i>
   </separator>
   <separator name="electronic exchange-correlation" >
    <i type="logical" name="LASPH"> F  </i>
    <i type="logical" name="LMETAGGA"> F  </i>
   </separator>
   <separator name="electronic convergence" >
    <i type="int" name="NELM">    60</i>
    <i type="int" name="NELMDL">    -5</i>
    <i type="int" name="NELMIN">     6</i>
    <i name="ENINI">    360.00000000</i>
    <separator name="electronic convergence detail" >
     <i type="logical" name="LDIAG"> T  </i>
     <i type="logical" name="LSUBROT"> F  </i>
     <i name="WEIMIN">      0.00100000</i>
     <i name="EBREAK">      0.00000000</i>
     <i name="DEPER">      0.30000000</i>
     <i type="int" name="NRMM">     4</i>
     <i name="TIME">      0.40000000</i>
    </separator>
   </separator>
   <separator name="electronic mixer" >
    <i name="AMIX">      0.40000000</i>
    <i name="BMIX">      1.00000000</i>
    <i name="AMIN">      0.10000000</i>
    <i name="AMIX_MAG">      1.60000000</i>
    <i name="BMIX_MAG">      1.00000000</i>
    <separator name="electronic mixer details" >
     <i type="int" name="IMIX">     4</i>
     <i type="logical" name="MIXFIRST"> F  </i>
     <i type="int" name="MAXMIX">   -45</i>
     <i name="WC">    100.00000000</i>
     <i type="int" name="INIMIX">     1</i>
     <i type="int" name="MIXPRE">     1</i>
     <i type="int" name="MREMOVE">     5</i>
    </separator>
   </separator>
   <separator name="electronic dipolcorrection" >
    <i type="logical" name="LDIPOL"> F  </i>
    <i type="logical" name="LMONO"> F  </i>
    <i type="int" name="IDIPOL">     0</i>
    <i name="EPSILON">      1.00000000</i>
    <v name="DIPOL">   -100.00000000   -100.00000000   -100.00000000</v>
    <i name="EFIELD">      0.00000000</i>
   </separator>
  </separator>
  <separator name="grids" >
   <i type="int" name="NGX">    70</i>
   <i type="int" name="NGY">    70</i>
   <i type="int" name="NGZ">   140</i>
   <i type="int" name="NGXF">   140</i>
   <i type="int" name="NGYF">   140</i>
   <i type="int" name="NGZF">   280</i>
   <i type="logical" name="ADDGRID"> F  </i>
  </separator>
  <separator name="ionic" >
   <i type="int" name="NSW">    40</i>
   <i type="int" name="IBRION">     2</i>
   <i type="int" name="MDALGO">     0</i>
   <i type="int" name="ISIF">     1</i>
   <i name="PSTRESS">      0.00000000</i>
   <i name="EDIFFG">      0.00005000</i>
   <i type="int" name="NFREE">     1</i>
   <i name="POTIM">      0.20000000</i>
   <i name="SMASS">     -3.00000000</i>
   <i name="SCALEE">      1.00000000</i>
  </separator>
  <separator name="ionic md" >
   <i name="TEBEG">      0.00010000</i>
   <i name="TEEND">      0.00010000</i>
   <i type="int" name="NBLOCK">     1</i>
   <i type="int" name="KBLOCK">    40</i>
   <i type="int" name="NPACO">   256</i>
   <i name="APACO">     16.00000000</i>
  </separator>
  <separator name="symmetry" >
   <i type="int" name="ISYM">     2</i>
   <i name="SYMPREC">      0.00001000</i>
  </separator>
  <separator name="dos" >
   <i type="int" name="LORBIT">     0</i>
   <v name="RWIGS">     -1.00000000     -1.00000000</v>
   <i type="int" name="NEDOS">   301</i>
   <i name="EMIN">     10.00000000</i>
   <i name="EMAX">    -10.00000000</i>
   <i name="EFERMI">      0.00000000</i>
  </separator>
  <separator name="writing" >
   <i type="int" name="NWRITE">     2</i>
   <i type="logical" name="LWAVE"> F  </i>
   <i type="logical" name="LDOWNSAMPLE"> F  </i>
   <i type="logical" name="LCHARG"> F  </i>
   <i type="logical" name="LPARD"> F  </i>
   <i type="logical" name="LVTOT"> F  </i>
   <i type="logical" name="LVHAR"> F  </i>
   <i type="logical" name="LELF"> F  </i>
   <i type="logical" name="LOPTICS"> F  </i>
   <v name="STM">      0.00000000      0.00000000      0.00000000      0.00000000      0.00000000      0.00000000      0.00000000</v>
  </separator>
  <separator name="performance" >
   <i type="int" name="NPAR">     1</i>
   <i type="int" name="NSIM">     4</i>
   <i type="int" name="NBLK">    -1</i>
   <i type="logical" name="LPLANE"> T  </i>
   <i type="logical" name="LSCALAPACK"> T  </i>
   <i type="logical" name="LSCAAWARE"> F  </i>
   <i type="logical" name="LSCALU"> F  </i>
   <i type="logical" name="LASYNC"> F  </i>
   <i type="logical" name="LORBITALREAL"> F  </i>
  </separator>
  <separator name="miscellaneous" >
   <i type="int" name="IDIOT">     3</i>
   <i type="int" name="PHON_NSTRUCT">    -1</i>
   <i type="logical" name="LMUSIC"> F  </i>
   <v name="POMASS">     58.69000000     16.00000000</v>
   <v name="DARWINR">      0.00000000      0.00000000</v>
   <v name="DARWINV">      1.00000000      1.00000000</v>
   <i type="logical" name="LCORR"> T  </i>
  </separator>
  <i type="logical" name="GGA_COMPAT"> T  </i>
  <i type="logical" name="LBERRY"> F  </i>
  <i type="int" name="ICORELEVEL">     0</i>
  <i type="logical" name="LDAU"> F  </i>
  <i type="int" name="I_CONSTRAINED_M">     0</i>
  <separator name="electronic exchange-correlation" >
   <i type="string" name="GGA">--</i>
   <i type="int" name="VOSKOWN">     0</i>
   <i type="logical" name="LHFCALC"> F  </i>
   <i type="string" name="PRECFOCK"></i>
   <i type="logical" name="LSYMGRAD"> F  </i>
   <i type="logical" name="LHFONE"> F  </i>
   <i type="logical" name="LRHFCALC"> F  </i>
   <i type="logical" name="LTHOMAS"> F  </i>
   <i type="logical" name="LMODELHF"> F  </i>
   <i type="logical" name="LFOCKACE"> F  </i>
   <i name="ENCUT4O">     -1.00000000</i>
   <i type="int" name="EXXOEP">     0</i>
   <i type="int" name="FOURORBIT">     0</i>
   <i name="AEXX">      0.00000000</i>
   <i name="HFALPHA">      0.00000000</i>
   <i name="MCALPHA">      0.00000000</i>
   <i name="ALDAX">      1.00000000</i>
   <i name="AGGAX">      1.00000000</i>
   <i name="ALDAC">      1.00000000</i>
   <i name="AGGAC">      1.00000000</i>
   <i type="int" name="NKREDX">     1</i>
   <i type="int" name="NKREDY">     1</i>
   <i type="int" name="NKREDZ">     1</i>
   <i type="logical" name="SHIFTRED"> F  </i>
   <i type="logical" name="ODDONLY"> F  </i>
   <i type="logical" name="EVENONLY"> F  </i>
   <i type="int" name="LMAXFOCK">     0</i>
   <i type="int" name="NMAXFOCKAE">     0</i>
   <i type="logical" name="LFOCKAEDFT"> F  </i>
   <i name="HFSCREEN">      0.00000000</i>
   <i name="HFSCREENC">      0.00000000</i>
   <i type="int" name="NBANDSGWLOW">     0</i>
  </separator>
  <separator name="vdW DFT" >
   <i type="logical" name="LUSE_VDW"> F  </i>
   <i name="Zab_VDW">     -0.84910000</i>
   <i name="PARAM1">      0.12340000</i>
   <i name="PARAM2">      1.00000000</i>
   <i name="PARAM3">      0.00000000</i>
  </separator>
  <separator name="model GW" >
   <i type="int" name="MODEL_GW">     0</i>
   <i name="MODEL_EPS0">     13.60989534</i>
   <i name="MODEL_ALPHA">      1.00000000</i>
  </separator>
  <separator name="linear response parameters" >
   <i type="logical" name="LEPSILON"> F  </i>
   <i type="logical" name="LRPA"> F  </i>
   <i type="logical" name="LNABLA"> F  </i>
   <i type="logical" name="LVEL"> F  </i>
   <i type="int" name="KINTER">     0</i>
   <i name="CSHIFT">      0.10000000</i>
   <i name="OMEGAMAX">     -1.00000000</i>
   <i name="DEG_THRESHOLD">      0.00200000</i>
   <i name="RTIME">     -0.10000000</i>
   <i name="WPLASMAI">      0.00000000</i>
   <v name="DFIELD">      0.00000000      0.00000000      0.00000000</v>
   <v name="WPLASMA">      0.00000000      0.00000000      0.00000000      0.00000000      0.00000000      0.00000000      0.00000000      0.00000000      0.00000000</v>
  </separator>
  <separator name="orbital magnetization" >
   <i type="logical" name="NUCIND"> F  </i>
   <v name="MAGPOS">      0.00000000      0.00000000      0.00000000</v>
   <i type="logical" name="LNICSALL"> T  </i>
   <i type="logical" name="ORBITALMAG"> F  </i>
   <i type="logical" name="LMAGBLOCH"> F  </i>
   <i type="logical" name="LCHIMAG"> F  </i>
   <i type="logical" name="LGAUGE"> T  </i>
   <i type="int" name="MAGATOM">     0</i>
   <v name="MAGDIPOL">      0.00000000      0.00000000      0.00000000</v>
   <v name="AVECCONST">      0.00000000      0.00000000      0.00000000</v>
  </separator>
  <separator name="response functions" >
   <i type="logical" name="LFINITE_TEMPERATURE"> F  </i>
   <i type="logical" name="LADDER"> F  </i>
   <i type="logical" name="LRPAFORCE"> F  </i>
   <i type="logical" name="LFXC"> F  </i>
   <i type="logical" name="LHARTREE"> T  </i>
   <i type="int" name="IBSE">     0</i>
   <v type="int" name="KPOINT">    -1     0     0     0</v>
   <i type="logical" name="LTCTC"> F  </i>
   <i type="logical" name="LTCTE"> F  </i>
   <i type="logical" name="LTETE"> F  </i>
   <i type="logical" name="LTRIPLET"> F  </i>
   <i type="logical" name="LFXCEPS"> F  </i>
   <i type="logical" name="LFXHEG"> F  </i>
   <i type="int" name="NATURALO">     2</i>
   <i type="logical" name="LHOLEGF"> F  </i>
   <i type="logical" name="L2ORDER"> F  </i>
   <i type="logical" name="LDMP1"> F  </i>
   <i type="logical" name="LMP2LT"> F  </i>
   <i type="logical" name="LSMP2LT"> F  </i>
   <i type="logical" name="LGWLF"> F  </i>
   <i name="ENCUTGW">     -2.00000000</i>
   <i name="ENCUTGWSOFT">     -2.00000000</i>
   <i name="ENCUTLF">     -1.00000000</i>
   <i type="logical" name="LESF_SPLINES"> F  </i>
   <i type="int" name="LMAXMP2">    -1</i>
   <i name="SCISSOR">      0.00000000</i>
   <i type="int" name="NOMEGA">     0</i>
   <i type="int" name="NOMEGAR">     0</i>
   <i type="int" name="NBANDSGW">    -1</i>
   <i type="int" name="NBANDSO">    -1</i>
   <i type="int" name="NBANDSV">    -1</i>
   <i type="int" name="NELM">     1</i>
   <i type="int" name="NELMHF">     1</i>
   <i type="int" name="DIM">     3</i>
   <i type="int" name="IESPILON">     4</i>
   <i type="int" name="ANTIRES">     0</i>
   <i name="OMEGAMAX">    -30.00000000</i>
   <i name="OMEGAMIN">    -30.00000000</i>
   <i name="OMEGATL">   -200.00000000</i>
   <i type="int" name="OMEGAGRID">     0</i>
   <i name="CSHIFT">     -0.10000000</i>
   <i type="logical" name="LSELFENERGY"> F  </i>
   <i type="logical" name="LSPECTRAL"> F  </i>
   <i type="logical" name="LSPECTRALGW"> F  </i>
   <i type="logical" name="LSINGLES"> F  </i>
   <i type="logical" name="LFERMIGW"> F  </i>
   <i type="logical" name="ODDONLYGW"> F  </i>
   <i type="logical" name="EVENONLYGW"> F  </i>
   <i type="int" name="NKREDLFX">     1</i>
   <i type="int" name="NKREDLFY">     1</i>
   <i type="int" name="NKREDLFZ">     1</i>
   <i type="int" name="MAXMEM">  2800</i>
   <i type="int" name="TELESCOPE">     0</i>
   <i type="int" name="NTAUPAR">    -1</i>
   <i type="int" name="NOMEGAPAR">    -1</i>
   <i name="DAMP_NEWTON">      0.80000001</i>
   <i name="LAMBDA">      1.00000000</i>
  </separator>
  <separator name="External order field" >
   <i name="OFIELD_KAPPA">      0.00000000</i>
   <v name="OFIELD_K">      0.00000000      0.00000000      0.00000000</v>
   <i name="OFIELD_Q6_NEAR">      0.00000000</i>
   <i name="OFIELD_Q6_FAR">      0.00000000</i>
   <i name="OFIELD_A">      0.00000000</i>
  </separator>
  <separator name="solvation model" >
   <i type="logical" name="LSOL"> F  </i>
  </separator>
 </parameters>
 <atominfo>
  <atoms>     254 </atoms>
  <types>       2 </types>
  <array name="atoms" >
   <dimension dim="1">ion</dimension>
   <field type="string">element</field>
   <field type="int">atomtype</field>
   <set>
    <rc><c>Ni</c><c>   1</c></rc>
    <rc><c>Ni</c><c>   1</c></rc>
    <rc><c>Ni</c><c>   1</c></rc>
    <rc><c>Ni</c><c>   1</c></rc>
    <rc><c>Ni</c><c>   1</c></rc>
    <rc><c>Ni</c><c>   1</c></rc>
    <rc><c>Ni</c><c>   1</c></rc>
    <rc><c>Ni</c><c>   1</c></rc>
    <rc><c>Ni</c><c>   1</c></rc>
    <rc><c>Ni</c><c>   1</c></rc>
    <rc><c>Ni</c><c>   1</c></rc>
    <rc><c>Ni</c><c>   1</c></rc>
    <rc><c>Ni</c><c>   1</c></rc>
    <rc><c>Ni</c><c>   1</c></rc>
    <rc><c>Ni</c><c>   1</c></rc>
    <rc><c>Ni</c><c>   1</c></rc>
    <rc><c>Ni</c><c>   1</c></rc>
    <rc><c>Ni</c><c>   1</c></rc>
    <rc><c>Ni</c><c>   1</c></rc>
    <rc><c>Ni</c><c>   1</c></rc>
    <rc><c>Ni</c><c>   1</c></rc>
    <rc><c>Ni</c><c>   1</c></rc>
    <rc><c>Ni</c><c>   1</c></rc>
    <rc><c>Ni</c><c>   1</c></rc>
    <rc><c>Ni</c><c>   1</c></rc>
    <rc><c>Ni</c><c>   1</c></rc>
    <rc><c>Ni</c><c>   1</c></rc>
    <rc><c>Ni</c><c>   1</c></rc>
    <rc><c>Ni</c><c>   1</c></rc>
    <rc><c>Ni</c><c>   1</c></rc>
    <rc><c>Ni</c><c>   1</c></rc>
    <rc><c>Ni</c><c>   1</c></rc>
    <rc><c>Ni</c><c>   1</c></rc>
    <rc><c>Ni</c><c>   1</c></rc>
    <rc><c>Ni</c><c>   1</c></rc>
    <rc><c>Ni</c><c>   1</c></rc>
    <rc><c>Ni</c><c>   1</c></rc>
    <rc><c>Ni</c><c>   1</c></rc>
    <rc><c>Ni</c><c>   1</c></rc>
    <rc><c>Ni</c><c>   1</c></rc>
    <rc><c>Ni</c><c>   1</c></rc>
    <rc><c>Ni</c><c>   1</c></rc>
    <rc><c>Ni</c><c>   1</c></rc>
    <rc><c>Ni</c><c>   1</c></rc>
    <rc><c>Ni</c><c>   1</c></rc>
    <rc><c>Ni</c><c>   1</c></rc>
    <rc><c>Ni</c><c>   1</c></rc>
    <rc><c>Ni</c><c>   1</c></rc>
    <rc><c>Ni</c><c>   1</c></rc>
    <rc><c>Ni</c><c>   1</c></rc>
    <rc><c>Ni</c><c>   1</c></rc>
    <rc><c>Ni</c><c>   1</c></rc>
    <rc><c>Ni</c><c>   1</c></rc>
    <rc><c>Ni</c><c>   1</c></rc>
    <rc><c>Ni</c><c>   1</c></rc>
    <rc><c>Ni</c><c>   1</c></rc>
    <rc><c>Ni</c><c>   1</c></rc>
    <rc><c>Ni</c><c>   1</c></rc>
    <rc><c>Ni</c><c>   1</c></rc>
    <rc><c>Ni</c><c>   1</c></rc>
    <rc><c>Ni</c><c>   1</c></rc>
    <rc><c>Ni</c><c>   1</c></rc>
    <rc><c>Ni</c><c>   1</c></rc>
    <rc><c>Ni</c><c>   1</c></rc>
    <rc><c>Ni</c><c>   1</c></rc>
    <rc><c>Ni</c><c>   1</c></rc>
    <rc><c>Ni</c><c>   1</c></rc>
    <rc><c>Ni</c><c>   1</c></rc>
    <rc><c>Ni</c><c>   1</c></rc>
    <rc><c>Ni</c><c>   1</c></rc>
    <rc><c>Ni</c><c>   1</c></rc>
    <rc><c>Ni</c><c>   1</c></rc>
    <rc><c>Ni</c><c>   1</c></rc>
    <rc><c>Ni</c><c>   1</c></rc>
    <rc><c>Ni</c><c>   1</c></rc>
    <rc><c>Ni</c><c>   1</c></rc>
    <rc><c>Ni</c><c>   1</c></rc>
    <rc><c>Ni</c><c>   1</c></rc>
    <rc><c>Ni</c><c>   1</c></rc>
    <rc><c>Ni</c><c>   1</c></rc>
    <rc><c>Ni</c><c>   1</c></rc>
    <rc><c>Ni</c><c>   1</c></rc>
    <rc><c>Ni</c><c>   1</c></rc>
    <rc><c>Ni</c><c>   1</c></rc>
    <rc><c>Ni</c><c>   1</c></rc>
    <rc><c>Ni</c><c>   1</c></rc>
    <rc><c>Ni</c><c>   1</c></rc>
    <rc><c>Ni</c><c>   1</c></rc>
    <rc><c>Ni</c><c>   1</c></rc>
    <rc><c>Ni</c><c>   1</c></rc>
    <rc><c>Ni</c><c>   1</c></rc>
    <rc><c>Ni</c><c>   1</c></rc>
    <rc><c>Ni</c><c>   1</c></rc>
    <rc><c>Ni</c><c>   1</c></rc>
    <rc><c>Ni</c><c>   1</c></rc>
    <rc><c>Ni</c><c>   1</c></rc>
    <rc><c>Ni</c><c>   1</c></rc>
    <rc><c>Ni</c><c>   1</c></rc>
    <rc><c>Ni</c><c>   1</c></rc>
    <rc><c>Ni</c><c>   1</c></rc>
    <rc><c>Ni</c><c>   1</c></rc>
    <rc><c>Ni</c><c>   1</c></rc>
    <rc><c>Ni</c><c>   1</c></rc>
    <rc><c>Ni</c><c>   1</c></rc>
    <rc><c>Ni</c><c>   1</c></rc>
    <rc><c>Ni</c><c>   1</c></rc>
    <rc><c>Ni</c><c>   1</c></rc>
    <rc><c>Ni</c><c>   1</c></rc>
    <rc><c>Ni</c><c>   1</c></rc>
    <rc><c>Ni</c><c>   1</c></rc>
    <rc><c>Ni</c><c>   1</c></rc>
    <rc><c>Ni</c><c>   1</c></rc>
    <rc><c>Ni</c><c>   1</c></rc>
    <rc><c>Ni</c><c>   1</c></rc>
    <rc><c>Ni</c><c>   1</c></rc>
    <rc><c>Ni</c><c>   1</c></rc>
    <rc><c>Ni</c><c>   1</c></rc>
    <rc><c>Ni</c><c>   1</c></rc>
    <rc><c>Ni</c><c>   1</c></rc>
    <rc><c>Ni</c><c>   1</c></rc>
    <rc><c>Ni</c><c>   1</c></rc>
    <rc><c>Ni</c><c>   1</c></rc>
    <rc><c>Ni</c><c>   1</c></rc>
    <rc><c>Ni</c><c>   1</c></rc>
    <rc><c>Ni</c><c>   1</c></rc>
    <rc><c>Ni</c><c>   1</c></rc>
    <rc><c>Ni</c><c>   1</c></rc>
    <rc><c>Ni</c><c>   1</c></rc>
    <rc><c>Ni</c><c>   1</c></rc>
    <rc><c>Ni</c><c>   1</c></rc>
    <rc><c>Ni</c><c>   1</c></rc>
    <rc><c>Ni</c><c>   1</c></rc>
    <rc><c>Ni</c><c>   1</c></rc>
    <rc><c>Ni</c><c>   1</c></rc>
    <rc><c>Ni</c><c>   1</c></rc>
    <rc><c>Ni</c><c>   1</c></rc>
    <rc><c>Ni</c><c>   1</c></rc>
    <rc><c>Ni</c><c>   1</c></rc>
    <rc><c>Ni</c><c>   1</c></rc>
    <rc><c>Ni</c><c>   1</c></rc>
    <rc><c>Ni</c><c>   1</c></rc>
    <rc><c>Ni</c><c>   1</c></rc>
    <rc><c>Ni</c><c>   1</c></rc>
    <rc><c>Ni</c><c>   1</c></rc>
    <rc><c>Ni</c><c>   1</c></rc>
    <rc><c>Ni</c><c>   1</c></rc>
    <rc><c>Ni</c><c>   1</c></rc>
    <rc><c>Ni</c><c>   1</c></rc>
    <rc><c>Ni</c><c>   1</c></rc>
    <rc><c>Ni</c><c>   1</c></rc>
    <rc><c>Ni</c><c>   1</c></rc>
    <rc><c>Ni</c><c>   1</c></rc>
    <rc><c>Ni</c><c>   1</c></rc>
    <rc><c>Ni</c><c>   1</c></rc>
    <rc><c>Ni</c><c>   1</c></rc>
    <rc><c>Ni</c><c>   1</c></rc>
    <rc><c>Ni</c><c>   1</c></rc>
    <rc><c>Ni</c><c>   1</c></rc>
    <rc><c>Ni</c><c>   1</c></rc>
    <rc><c>Ni</c><c>   1</c></rc>
    <rc><c>Ni</c><c>   1</c></rc>
    <rc><c>Ni</c><c>   1</c></rc>
    <rc><c>Ni</c><c>   1</c></rc>
    <rc><c>Ni</c><c>   1</c></rc>
    <rc><c>Ni</c><c>   1</c></rc>
    <rc><c>Ni</c><c>   1</c></rc>
    <rc><c>Ni</c><c>   1</c></rc>
    <rc><c>Ni</c><c>   1</c></rc>
    <rc><c>Ni</c><c>   1</c></rc>
    <rc><c>Ni</c><c>   1</c></rc>
    <rc><c>Ni</c><c>   1</c></rc>
    <rc><c>Ni</c><c>   1</c></rc>
    <rc><c>Ni</c><c>   1</c></rc>
    <rc><c>Ni</c><c>   1</c></rc>
    <rc><c>Ni</c><c>   1</c></rc>
    <rc><c>Ni</c><c>   1</c></rc>
    <rc><c>Ni</c><c>   1</c></rc>
    <rc><c>Ni</c><c>   1</c></rc>
    <rc><c>Ni</c><c>   1</c></rc>
    <rc><c>Ni</c><c>   1</c></rc>
    <rc><c>Ni</c><c>   1</c></rc>
    <rc><c>Ni</c><c>   1</c></rc>
    <rc><c>Ni</c><c>   1</c></rc>
    <rc><c>Ni</c><c>   1</c></rc>
    <rc><c>Ni</c><c>   1</c></rc>
    <rc><c>Ni</c><c>   1</c></rc>
    <rc><c>Ni</c><c>   1</c></rc>
    <rc><c>Ni</c><c>   1</c></rc>
    <rc><c>Ni</c><c>   1</c></rc>
    <rc><c>Ni</c><c>   1</c></rc>
    <rc><c>Ni</c><c>   1</c></rc>
    <rc><c>Ni</c><c>   1</c></rc>
    <rc><c>Ni</c><c>   1</c></rc>
    <rc><c>Ni</c><c>   1</c></rc>
    <rc><c>Ni</c><c>   1</c></rc>
    <rc><c>Ni</c><c>   1</c></rc>
    <rc><c>Ni</c><c>   1</c></rc>
    <rc><c>Ni</c><c>   1</c></rc>
    <rc><c>Ni</c><c>   1</c></rc>
    <rc><c>Ni</c><c>   1</c></rc>
    <rc><c>Ni</c><c>   1</c></rc>
    <rc><c>Ni</c><c>   1</c></rc>
    <rc><c>Ni</c><c>   1</c></rc>
    <rc><c>Ni</c><c>   1</c></rc>
    <rc><c>Ni</c><c>   1</c></rc>
    <rc><c>Ni</c><c>   1</c></rc>
    <rc><c>Ni</c><c>   1</c></rc>
    <rc><c>Ni</c><c>   1</c></rc>
    <rc><c>Ni</c><c>   1</c></rc>
    <rc><c>Ni</c><c>   1</c></rc>
    <rc><c>Ni</c><c>   1</c></rc>
    <rc><c>Ni</c><c>   1</c></rc>
    <rc><c>Ni</c><c>   1</c></rc>
    <rc><c>Ni</c><c>   1</c></rc>
    <rc><c>Ni</c><c>   1</c></rc>
    <rc><c>Ni</c><c>   1</c></rc>
    <rc><c>Ni</c><c>   1</c></rc>
    <rc><c>Ni</c><c>   1</c></rc>
    <rc><c>Ni</c><c>   1</c></rc>
    <rc><c>Ni</c><c>   1</c></rc>
    <rc><c>Ni</c><c>   1</c></rc>
    <rc><c>Ni</c><c>   1</c></rc>
    <rc><c>Ni</c><c>   1</c></rc>
    <rc><c>Ni</c><c>   1</c></rc>
    <rc><c>Ni</c><c>   1</c></rc>
    <rc><c>Ni</c><c>   1</c></rc>
    <rc><c>Ni</c><c>   1</c></rc>
    <rc><c>Ni</c><c>   1</c></rc>
    <rc><c>Ni</c><c>   1</c></rc>
    <rc><c>Ni</c><c>   1</c></rc>
    <rc><c>Ni</c><c>   1</c></rc>
    <rc><c>Ni</c><c>   1</c></rc>
    <rc><c>Ni</c><c>   1</c></rc>
    <rc><c>Ni</c><c>   1</c></rc>
    <rc><c>Ni</c><c>   1</c></rc>
    <rc><c>Ni</c><c>   1</c></rc>
    <rc><c>Ni</c><c>   1</c></rc>
    <rc><c>Ni</c><c>   1</c></rc>
    <rc><c>Ni</c><c>   1</c></rc>
    <rc><c>Ni</c><c>   1</c></rc>
    <rc><c>Ni</c><c>   1</c></rc>
    <rc><c>Ni</c><c>   1</c></rc>
    <rc><c>Ni</c><c>   1</c></rc>
    <rc><c>Ni</c><c>   1</c></rc>
    <rc><c>Ni</c><c>   1</c></rc>
    <rc><c>Ni</c><c>   1</c></rc>
    <rc><c>Ni</c><c>   1</c></rc>
    <rc><c>Ni</c><c>   1</c></rc>
    <rc><c>Ni</c><c>   1</c></rc>
    <rc><c>Ni</c><c>   1</c></rc>
    <rc><c>Ni</c><c>   1</c></rc>
    <rc><c>Ni</c><c>   1</c></rc>
    <rc><c>O </c><c>   2</c></rc>
    <rc><c>O </c><c>   2</c></rc>
   </set>
  </array>
  <array name="atomtypes" >
   <dimension dim="1">type</dimension>
   <field type="int">atomspertype</field>
   <field type="string">element</field>
   <field>mass</field>
   <field>valence</field>
   <field type="string">pseudopotential</field>
   <set>
    <rc><c> 252</c><c>Ni</c><c>     58.69000000</c><c>     10.00000000</c><c>  PAW Ni_GW 31Mar2010                   </c></rc>
    <rc><c>   2</c><c>O </c><c>     16.00000000</c><c>      6.00000000</c><c>  PAW O_GW 19Mar2012                    </c></rc>
   </set>
  </array>
 </atominfo>
 <structure name="initialpos" >
  <crystal>
   <varray name="basis" >
    <v>       0.00000000     -15.14622176       0.00000000 </v>
    <v>       0.00000000      -7.57311088     -13.11701281 </v>
    <v>      29.00000000       0.00000000       0.00000000 </v>
   </varray>
   <i name="volume">   5761.52236213 </i>
   <varray name="rec_basis" >
    <v>       0.00000000      -0.06602307       0.03811843 </v>
    <v>       0.00000000       0.00000000      -0.07623687 </v>
    <v>       0.03448276       0.00000000       0.00000000 </v>
   </varray>
  </crystal>
  <varray name="positions" >
   <v>       0.44611949       0.61278586       0.52320000 </v>
   <v>       0.61600733       0.44199621       0.51834138 </v>
   <v>       0.77899413       0.27671087       0.51854621 </v>
   <v>       0.94448875       0.11115564       0.51853138 </v>
   <v>       0.94482600       0.27758683       0.51870379 </v>
   <v>       0.94448866       0.44435574       0.51853138 </v>
   <v>       0.77828647       0.61130382       0.51848276 </v>
   <v>       0.61126115       0.77792788       0.51857310 </v>
   <v>       0.44463746       0.94495295       0.51848272 </v>
   <v>       0.61123128       0.94438423       0.51861517 </v>
   <v>       0.77771841       0.94438423       0.51861517 </v>
   <v>       0.94414420       0.77792781       0.51857310 </v>
   <v>       0.94374291       0.61130382       0.51848276 </v>
   <v>       0.83315088       0.66703144       0.44996379 </v>
   <v>       0.66664503       0.83331244       0.45007172 </v>
   <v>       0.72222210       0.88888912       0.38087241 </v>
   <v>       0.88901587       0.72225133       0.38084621 </v>
   <v>       0.94447693       0.77776161       0.31161828 </v>
   <v>       0.77777813       0.94444438       0.31165759 </v>
   <v>       0.94441857       0.94444133       0.31164069 </v>
   <v>       0.88901579       0.88873276       0.38084621 </v>
   <v>       0.83337582       0.83331237       0.45007172 </v>
   <v>       0.77771794       0.77789731       0.51861517 </v>
   <v>       0.77899471       0.44429476       0.51854621 </v>
   <v>       0.66696440       0.49998731       0.45010069 </v>
   <v>       0.83361047       0.33319476       0.45009897 </v>
   <v>       0.88883033       0.38894831       0.38086552 </v>
   <v>       0.72212232       0.55558610       0.38081138 </v>
   <v>       0.77777487       0.61113991       0.31164069 </v>
   <v>       0.61109468       0.77776169       0.31161828 </v>
   <v>       0.66667335       0.83333913       0.24266452 </v>
   <v>       0.83331173       0.66670972       0.24265279 </v>
   <v>       0.88898916       0.72215832       0.17349797 </v>
   <v>       0.72222210       0.88888912       0.17346107 </v>
   <v>       0.77779242       0.94445818       0.10453624 </v>
   <v>       0.94450322       0.77774865       0.10455107 </v>
   <v>       0.94445915       0.94448707       0.10454590 </v>
   <v>       0.88898860       0.88885329       0.17349797 </v>
   <v>       0.83332151       0.83333913       0.24266452 </v>
   <v>       0.77777775       0.77777770       0.31165759 </v>
   <v>       0.72206599       0.72225133       0.38084621 </v>
   <v>       0.66642546       0.66667084       0.44999445 </v>
   <v>       0.55544721       0.72211335       0.38088031 </v>
   <v>       0.50000397       0.83309212       0.44999445 </v>
   <v>       0.33332069       0.83363111       0.45010062 </v>
   <v>       0.27532967       0.78267370       0.51834131 </v>
   <v>       0.11004403       0.94566127       0.51854610 </v>
   <v>       0.27762774       0.94566127       0.51854614 </v>
   <v>       0.44443995       0.77893657       0.51861445 </v>
   <v>       0.49945027       0.66611668       0.45103997 </v>
   <v>       0.61226995       0.61110720       0.51861448 </v>
   <v>       0.61111138       0.94444445       0.31165759 </v>
   <v>       0.44447332       0.94444140       0.31164066 </v>
   <v>       0.38891953       0.88878925       0.38081134 </v>
   <v>       0.38893497       0.72210427       0.38127548 </v>
   <v>       0.22229407       0.72210427       0.38127545 </v>
   <v>       0.05562453       0.88878925       0.38081131 </v>
   <v>       0.00023705       0.83309220       0.44999441 </v>
   <v>       0.16776634       0.66611660       0.45103993 </v>
   <v>       0.27442779       0.61278594       0.52319993 </v>
   <v>       0.10995662       0.61110720       0.51861441 </v>
   <v>       0.27533025       0.44199629       0.51834131 </v>
   <v>       0.44444030       0.27662327       0.51861445 </v>
   <v>       0.61126102       0.11081113       0.51857307 </v>
   <v>       0.66642554       0.16690393       0.44999448 </v>
   <v>       0.83315103       0.99981787       0.44996383 </v>
   <v>       0.88883357       0.05550052       0.38080934 </v>
   <v>       0.72212283       0.22229154       0.38081138 </v>
   <v>       0.77776228       0.27779496       0.31165483 </v>
   <v>       0.61097293       0.44451356       0.31184859 </v>
   <v>       0.66660597       0.49997817       0.24273686 </v>
   <v>       0.49988321       0.66655039       0.24285407 </v>
   <v>       0.55546530       0.72213157       0.17355441 </v>
   <v>       0.38883213       0.88883492       0.17349334 </v>
   <v>       0.33331154       0.83327204       0.24273679 </v>
   <v>       0.27784676       0.77763978       0.31184848 </v>
   <v>       0.11112830       0.94442921       0.31165466 </v>
   <v>       0.27777642       0.94442928       0.31165469 </v>
   <v>       0.22223952       0.88885413       0.38089814 </v>
   <v>       0.16638123       0.83363127       0.45010052 </v>
   <v>       0.10995639       0.77893672       0.51861431 </v>
   <v>       0.94441841       0.61113991       0.31164072 </v>
   <v>       0.94442430       0.44448459       0.31166586 </v>
   <v>       0.94442201       0.27778886       0.31166517 </v>
   <v>       0.94442482       0.11109084       0.31166586 </v>
   <v>       0.83328658       0.16665380       0.24266966 </v>
   <v>       0.66660124       0.16676129       0.24270445 </v>
   <v>       0.49988367       0.33356596       0.24285410 </v>
   <v>       0.55552059       0.38894900       0.17356272 </v>
   <v>       0.38888896       0.55555553       0.17360786 </v>
   <v>       0.44444307       0.61110934       0.10461686 </v>
   <v>       0.61108465       0.44445783       0.10453548 </v>
   <v>       0.77779956       0.27776134       0.10449483 </v>
   <v>       0.72216907       0.22233256       0.17349345 </v>
   <v>       0.72218661       0.05565513       0.17349793 </v>
   <v>       0.88893115       0.05559719       0.17349000 </v>
   <v>       0.83331232       0.99997858       0.24265276 </v>
   <v>       0.77777512       0.11108467       0.31164069 </v>
   <v>       0.61109497       0.11114337       0.31161824 </v>
   <v>       0.55558477       0.05568265       0.38084617 </v>
   <v>       0.50036504       0.99981779       0.44996376 </v>
   <v>       0.33361232       0.16636029       0.44998514 </v>
   <v>       0.16652801       0.33319476       0.45009890 </v>
   <v>       0.99969368       0.50027930       0.44998510 </v>
   <v>       0.05562482       0.55558610       0.38081131 </v>
   <v>       0.22223957       0.38890638       0.38089821 </v>
   <v>       0.27784689       0.44451356       0.31184855 </v>
   <v>       0.11130246       0.61103546       0.31173717 </v>
   <v>       0.16689984       0.66655039       0.24285407 </v>
   <v>       0.00009437       0.83326823       0.24270441 </v>
   <v>       0.05566643       0.88883499       0.17349338 </v>
   <v>       0.22228234       0.72218729       0.17356269 </v>
   <v>       0.27779128       0.77775101       0.10453548 </v>
   <v>       0.11109495       0.94446580       0.10449476 </v>
   <v>       0.27777276       0.94446580       0.10449479 </v>
   <v>       0.44438720       0.94448715       0.10454586 </v>
   <v>       0.61108214       0.77774873       0.10455103 </v>
   <v>       0.77782065       0.61105376       0.10454586 </v>
   <v>       0.72216893       0.55549843       0.17349345 </v>
   <v>       0.83328663       0.50005974       0.24266966 </v>
   <v>       0.88888621       0.38885530       0.17348138 </v>
   <v>       0.83328062       0.33335944       0.24268207 </v>
   <v>       0.72219697       0.38890181       0.17347241 </v>
   <v>       0.66660581       0.33341669       0.24273690 </v>
   <v>       0.61099608       0.27796885       0.31173724 </v>
   <v>       0.55544693       0.22243944       0.38088034 </v>
   <v>       0.44436904       0.27796885       0.31173721 </v>
   <v>       0.38893517       0.38896059       0.38127548 </v>
   <v>       0.49945009       0.33443300       0.45103997 </v>
   <v>       0.33324705       0.49991428       0.45091510 </v>
   <v>       0.38888875       0.55555568       0.38187890 </v>
   <v>       0.44431699       0.61098370       0.31211821 </v>
   <v>       0.27803328       0.61098370       0.31211821 </v>
   <v>       0.33337430       0.50004152       0.24289407 </v>
   <v>       0.16674986       0.49997824       0.24273679 </v>
   <v>       0.99998763       0.50005981       0.24266955 </v>
   <v>       0.16669322       0.33335951       0.24268197 </v>
   <v>       0.22223466       0.38890181       0.17347234 </v>
   <v>       0.38883237       0.22233263       0.17349338 </v>
   <v>       0.55549154       0.05565520       0.17349790 </v>
   <v>       0.50004293       0.99997873       0.24265269 </v>
   <v>       0.33339290       0.16665387       0.24266959 </v>
   <v>       0.27777606       0.27779511       0.31165476 </v>
   <v>       0.11112296       0.27778901       0.31166507 </v>
   <v>       0.05555549       0.22222232       0.38087783 </v>
   <v>       0.99999574       0.16666249       0.45007748 </v>
   <v>       0.16652765       0.00027773       0.45009886 </v>
   <v>       0.22228221       0.05549678       0.38086545 </v>
   <v>       0.27781755       0.11109092       0.31166579 </v>
   <v>       0.38899981       0.05550052       0.38080924 </v>
   <v>       0.38891953       0.22229154       0.38081131 </v>
   <v>       0.50000371       0.16690393       0.44999441 </v>
   <v>       0.44463736       0.11040944       0.51848269 </v>
   <v>       0.27768861       0.11115587       0.51853131 </v>
   <v>       0.11092017       0.27758706       0.51870369 </v>
   <v>       0.27762803       0.27671102       0.51854610 </v>
   <v>       0.11004360       0.44429498       0.51854607 </v>
   <v>       0.16638212       0.49998747       0.45010055 </v>
   <v>       0.33332055       0.33304847       0.45010059 </v>
   <v>       0.49991746       0.50004144       0.24289407 </v>
   <v>       0.44431680       0.44469957       0.31211821 </v>
   <v>       0.72206593       0.05568257       0.38084621 </v>
   <v>       0.66664528       0.00004262       0.45007172 </v>
   <v>       0.83336093       0.50027930       0.44998517 </v>
   <v>       0.88883308       0.55566691       0.38080931 </v>
   <v>       0.44444281       0.77777465       0.10455652 </v>
   <v>       0.38886388       0.72218729       0.17356272 </v>
   <v>       0.33337444       0.66658470       0.24289410 </v>
   <v>       0.16674987       0.83327204       0.24273686 </v>
   <v>       0.11130222       0.77766258       0.31173721 </v>
   <v>       0.05577293       0.72211327       0.38088031 </v>
   <v>       0.00023707       0.66667084       0.44999441 </v>
   <v>       0.61110776       0.61110941       0.10455652 </v>
   <v>       0.55552061       0.55553045       0.17356272 </v>
   <v>       0.22223474       0.88886396       0.17347238 </v>
   <v>       0.77779877       0.44443961       0.10449479 </v>
   <v>       0.94445912       0.44441521       0.10452790 </v>
   <v>       0.94445898       0.61105376       0.10454583 </v>
   <v>       0.88893086       0.55547175       0.17348997 </v>
   <v>       0.72218650       0.72215832       0.17349790 </v>
   <v>       0.66660148       0.66663730       0.24270445 </v>
   <v>       0.61099616       0.61103539       0.31173721 </v>
   <v>       0.55543832       0.55560127       0.38127548 </v>
   <v>       0.50017210       0.49991405       0.45091514 </v>
   <v>       0.55543829       0.38896043       0.38127548 </v>
   <v>       0.72218742       0.38890638       0.38089824 </v>
   <v>       0.66696437       0.33304831       0.45010066 </v>
   <v>       0.61227048       0.27662312       0.51861445 </v>
   <v>       0.77828652       0.11040928       0.51848272 </v>
   <v>       0.83336081       0.16636021       0.44998514 </v>
   <v>       0.88883063       0.22222125       0.38086552 </v>
   <v>       0.94447405       0.27776294       0.10450828 </v>
   <v>       0.94445957       0.11112591       0.10452793 </v>
   <v>       0.88888648       0.22225876       0.17348138 </v>
   <v>       0.49997085       0.83326823       0.24270445 </v>
   <v>       0.44436875       0.77766250       0.31173721 </v>
   <v>       0.77779192       0.77774949       0.10453617 </v>
   <v>       0.61108345       0.94445818       0.10453621 </v>
   <v>       0.55549150       0.88885329       0.17349793 </v>
   <v>       0.77782063       0.11112583       0.10454586 </v>
   <v>       0.61108208       0.11116929       0.10455103 </v>
   <v>       0.44444305       0.27778268       0.10455655 </v>
   <v>       0.27779097       0.44445783       0.10453552 </v>
   <v>       0.11111637       0.61110934       0.10455655 </v>
   <v>       0.05566605       0.55549835       0.17349345 </v>
   <v>       0.05573724       0.72213157       0.17355448 </v>
   <v>       0.00009468       0.66663715       0.24270448 </v>
   <v>       0.61110771       0.27778268       0.10455655 </v>
   <v>       0.55546493       0.22240346       0.17355448 </v>
   <v>       0.49997088       0.16676122       0.24270448 </v>
   <v>       0.44447352       0.11108467       0.31164069 </v>
   <v>       0.38886385       0.38894900       0.17356276 </v>
   <v>       0.33331161       0.33341654       0.24273690 </v>
   <v>       0.44444314       0.44444715       0.10461690 </v>
   <v>       0.27778104       0.61110934       0.10461690 </v>
   <v>       0.22228242       0.55553037       0.17356276 </v>
   <v>       0.11111609       0.77777457       0.10455655 </v>
   <v>       0.66667286       0.99998773       0.24266448 </v>
   <v>       0.77776280       0.44444273       0.31165486 </v>
   <v>       0.11112833       0.44444281       0.31165469 </v>
   <v>       0.05555426       0.38894847       0.38086534 </v>
   <v>       0.99999525       0.33334213       0.45007738 </v>
   <v>       0.16667461       0.16666234       0.45007741 </v>
   <v>       0.11091963       0.11149284       0.51870359 </v>
   <v>       0.55558467       0.88873284       0.38084617 </v>
   <v>       0.22229354       0.55560150       0.38127541 </v>
   <v>       0.22228205       0.22222133       0.38086541 </v>
   <v>       0.33324716       0.66683872       0.45091510 </v>
   <v>       0.33361254       0.00002752       0.44998507 </v>
   <v>       0.44611953       0.44109426       0.52319997 </v>
   <v>       0.11109518       0.44443953       0.10449483 </v>
   <v>       0.11109645       0.27776294       0.10450828 </v>
   <v>       0.05555567       0.22222209       0.17351690 </v>
   <v>       0.99997275       0.16664008       0.24268279 </v>
   <v>       0.16669302       0.99994740       0.24268210 </v>
   <v>       0.22218885       0.05555304       0.17348138 </v>
   <v>       0.27774789       0.11112591       0.10452793 </v>
   <v>       0.38880500       0.05559726       0.17348997 </v>
   <v>       0.33339337       0.99995273       0.24266966 </v>
   <v>       0.16672063       0.16664015       0.24268276 </v>
   <v>       0.11112246       0.11108863       0.31166521 </v>
   <v>       0.05555509       0.05549678       0.38086559 </v>
   <v>       0.99969332       0.00002760       0.44998524 </v>
   <v>       0.27777314       0.27776134       0.10449483 </v>
   <v>       0.22218894       0.22225861       0.17348138 </v>
   <v>       0.05559193       0.38885530       0.17348138 </v>
   <v>       0.99997334       0.33338688       0.24268276 </v>
   <v>       0.44438691       0.11112583       0.10454586 </v>
   <v>       0.11109641       0.11114047       0.10450828 </v>
   <v>       0.05559145       0.05555320       0.17348141 </v>
   <v>       0.99998731       0.99995289       0.24266969 </v>
   <v>       0.94374282       0.94495288       0.51848279 </v>
   <v>       0.38888879       0.55555561       0.55356862 </v>
   <v>       0.32095219       0.56666012       0.57232841 </v>
  </varray>
 </structure>
 <calculation>
  <scstep>
   <time name="dav">   32.61   32.61</time>
   <time name="total">   33.20   33.21</time>
   <energy>
    <i name="alphaZ">  11989.56231627 </i>
    <i name="ewald">1663096.33956517 </i>
    <i name="hartreedc">**************** </i>
    <i name="XCdc">   2953.32829947 </i>
    <i name="pawpsdc"> 240645.55203634 </i>
    <i name="pawaedc">-260205.15184403 </i>
    <i name="eentropy">     -0.18047313 </i>
    <i name="bandstr">  18949.92200426 </i>
    <i name="atom"> 272423.81458302 </i>
    <i name="e_fr_energy">  22407.63955570 </i>
    <i name="e_wo_entrp">  22407.82002883 </i>
    <i name="e_0_energy">  22407.72979227 </i>
   </energy>
  </scstep>
  <scstep>
   <time name="dav">   32.47   32.47</time>
   <time name="total">   32.48   32.48</time>
   <energy>
    <i name="e_fr_energy">    116.42816964 </i>
    <i name="e_wo_entrp">    116.64620030 </i>
    <i name="e_0_energy">    116.53718497 </i>
   </energy>
  </scstep>
  <scstep>
   <time name="dav">   36.10   36.10</time>
   <time name="total">   36.11   36.11</time>
   <energy>
    <i name="e_fr_energy">  -1332.41274926 </i>
    <i name="e_wo_entrp">  -1331.60132315 </i>
    <i name="e_0_energy">  -1332.00703621 </i>
   </energy>
  </scstep>
  <scstep>
   <time name="dav">   54.22   54.22</time>
   <time name="total">   54.22   54.23</time>
   <energy>
    <i name="e_fr_energy">  -1555.08960630 </i>
    <i name="e_wo_entrp">  -1553.93822125 </i>
    <i name="e_0_energy">  -1554.51391378 </i>
   </energy>
  </scstep>
  <scstep>
   <time name="dav">   48.88   48.89</time>
   <time name="total">   50.62   50.62</time>
   <energy>
    <i name="e_fr_energy">  -1566.26321989 </i>
    <i name="e_wo_entrp">  -1565.09553899 </i>
    <i name="e_0_energy">  -1565.67937944 </i>
   </energy>
  </scstep>
  <scstep>
   <time name="dav">   41.49   41.50</time>
   <time name="total">   43.78   43.78</time>
   <energy>
    <i name="e_fr_energy">  -1983.73391045 </i>
    <i name="e_wo_entrp">  -1983.40711577 </i>
    <i name="e_0_energy">  -1983.57051311 </i>
   </energy>
  </scstep>
  <scstep>
   <time name="dav">   34.41   34.41</time>
   <time name="total">   36.70   36.70</time>
   <energy>
    <i name="e_fr_energy">  -1691.21892352 </i>
    <i name="e_wo_entrp">  -1690.58779629 </i>
    <i name="e_0_energy">  -1690.90335990 </i>
   </energy>
  </scstep>
  <scstep>
   <time name="dav">   40.88   40.88</time>
   <time name="total">   43.17   43.18</time>
   <energy>
    <i name="e_fr_energy">  -1609.78074060 </i>
    <i name="e_wo_entrp">  -1609.39294732 </i>
    <i name="e_0_energy">  -1609.58684396 </i>
   </energy>
  </scstep>
  <scstep>
   <time name="dav">   35.04   35.05</time>
   <time name="total">   37.33   37.33</time>
   <energy>
    <i name="e_fr_energy">  -2327.37406966 </i>
    <i name="e_wo_entrp">  -2327.12901499 </i>
    <i name="e_0_energy">  -2327.25154233 </i>
   </energy>
  </scstep>
  <scstep>
   <time name="dav">   42.34   42.34</time>
   <time name="total">   44.65   44.66</time>
   <energy>
    <i name="e_fr_energy">  -1576.77840101 </i>
    <i name="e_wo_entrp">  -1576.21443268 </i>
    <i name="e_0_energy">  -1576.49641685 </i>
   </energy>
  </scstep>
  <scstep>
   <time name="dav">   39.23   39.23</time>
   <time name="total">   41.53   41.54</time>
   <energy>
    <i name="e_fr_energy">  -1612.62468137 </i>
    <i name="e_wo_entrp">  -1612.05180983 </i>
    <i name="e_0_energy">  -1612.33824560 </i>
   </energy>
  </scstep>
  <scstep>
   <time name="dav">   33.90   33.90</time>
   <time name="total">   36.23   36.23</time>
   <energy>
    <i name="e_fr_energy">  -1581.13990664 </i>
    <i name="e_wo_entrp">  -1580.67177646 </i>
    <i name="e_0_energy">  -1580.90584155 </i>
   </energy>
  </scstep>
  <scstep>
   <time name="dav">   33.57   33.58</time>
   <time name="total">   35.89   35.90</time>
   <energy>
    <i name="e_fr_energy">  -1553.61184240 </i>
    <i name="e_wo_entrp">  -1553.20516183 </i>
    <i name="e_0_energy">  -1553.40850211 </i>
   </energy>
  </scstep>
  <scstep>
   <time name="dav">   34.71   34.72</time>
   <time name="total">   37.04   37.04</time>
   <energy>
    <i name="e_fr_energy">  -1497.94813862 </i>
    <i name="e_wo_entrp">  -1497.45421488 </i>
    <i name="e_0_energy">  -1497.70117675 </i>
   </energy>
  </scstep>
  <scstep>
   <time name="dav">   33.69   33.70</time>
   <time name="total">   36.03   36.04</time>
   <energy>
    <i name="e_fr_energy">  -1502.06964717 </i>
    <i name="e_wo_entrp">  -1501.56265994 </i>
    <i name="e_0_energy">  -1501.81615356 </i>
   </energy>
  </scstep>
  <scstep>
   <time name="dav">   33.66   33.66</time>
   <time name="total">   36.01   36.01</time>
   <energy>
    <i name="e_fr_energy">  -1428.08110736 </i>
    <i name="e_wo_entrp">  -1427.51246471 </i>
    <i name="e_0_energy">  -1427.79678603 </i>
   </energy>
  </scstep>
  <scstep>
   <time name="dav">   33.97   33.97</time>
   <time name="total">   36.34   36.34</time>
   <energy>
    <i name="e_fr_energy">  -1387.76499828 </i>
    <i name="e_wo_entrp">  -1387.14768716 </i>
    <i name="e_0_energy">  -1387.45634272 </i>
   </energy>
  </scstep>
  <scstep>
   <time name="dav">   34.20   34.20</time>
   <time name="total">   36.58   36.58</time>
   <energy>
    <i name="e_fr_energy">  -1372.98136326 </i>
    <i name="e_wo_entrp">  -1372.26799354 </i>
    <i name="e_0_energy">  -1372.62467840 </i>
   </energy>
  </scstep>
  <scstep>
   <time name="dav">   34.17   34.18</time>
   <time name="total">   36.56   36.56</time>
   <energy>
    <i name="e_fr_energy">  -1367.97767377 </i>
    <i name="e_wo_entrp">  -1367.30063366 </i>
    <i name="e_0_energy">  -1367.63915372 </i>
   </energy>
  </scstep>
  <scstep>
   <time name="dav">   34.20   34.20</time>
   <time name="total">   36.61   36.62</time>
   <energy>
    <i name="e_fr_energy">  -1358.60775359 </i>
    <i name="e_wo_entrp">  -1357.88050700 </i>
    <i name="e_0_energy">  -1358.24413030 </i>
   </energy>
  </scstep>
  <scstep>
   <time name="dav">   34.14   34.15</time>
   <time name="total">   36.55   36.56</time>
   <energy>
    <i name="e_fr_energy">  -1340.76342095 </i>
    <i name="e_wo_entrp">  -1339.88121391 </i>
    <i name="e_0_energy">  -1340.32231743 </i>
   </energy>
  </scstep>
  <scstep>
   <time name="dav">   34.35   34.35</time>
   <time name="total">   36.78   36.78</time>
   <energy>
    <i name="e_fr_energy">  -1333.29068778 </i>
    <i name="e_wo_entrp">  -1332.23289709 </i>
    <i name="e_0_energy">  -1332.76179244 </i>
   </energy>
  </scstep>
  <scstep>
   <time name="dav">   34.45   34.46</time>
   <time name="total">   36.90   36.90</time>
   <energy>
    <i name="e_fr_energy">  -1331.10308719 </i>
    <i name="e_wo_entrp">  -1329.99168704 </i>
    <i name="e_0_energy">  -1330.54738711 </i>
   </energy>
  </scstep>
  <scstep>
   <time name="dav">   34.55   34.56</time>
   <time name="total">   37.01   37.01</time>
   <energy>
    <i name="e_fr_energy">  -1328.58688019 </i>
    <i name="e_wo_entrp">  -1327.39804363 </i>
    <i name="e_0_energy">  -1327.99246191 </i>
   </energy>
  </scstep>
  <scstep>
   <time name="dav">   34.44   34.44</time>
   <time name="total">   36.92   36.92</time>
   <energy>
    <i name="e_fr_energy">  -1328.61930724 </i>
    <i name="e_wo_entrp">  -1327.39666916 </i>
    <i name="e_0_energy">  -1328.00798820 </i>
   </energy>
  </scstep>
  <scstep>
   <time name="dav">   34.58   34.58</time>
   <time name="total">   37.06   37.07</time>
   <energy>
    <i name="e_fr_energy">  -1328.45559198 </i>
    <i name="e_wo_entrp">  -1327.26051651 </i>
    <i name="e_0_energy">  -1327.85805424 </i>
   </energy>
  </scstep>
  <scstep>
   <time name="dav">   34.64   34.65</time>
   <time name="total">   37.14   37.14</time>
   <energy>
    <i name="e_fr_energy">  -1327.80848550 </i>
    <i name="e_wo_entrp">  -1326.57255491 </i>
    <i name="e_0_energy">  -1327.19052021 </i>
   </energy>
  </scstep>
  <scstep>
   <time name="dav">   34.69   34.70</time>
   <time name="total">   37.20   37.21</time>
   <energy>
    <i name="e_fr_energy">  -1327.48198904 </i>
    <i name="e_wo_entrp">  -1326.23679703 </i>
    <i name="e_0_energy">  -1326.85939304 </i>
   </energy>
  </scstep>
  <scstep>
   <time name="dav">   34.80   34.80</time>
   <time name="total">   37.33   37.33</time>
   <energy>
    <i name="e_fr_energy">  -1327.66662171 </i>
    <i name="e_wo_entrp">  -1326.44275234 </i>
    <i name="e_0_energy">  -1327.05468703 </i>
   </energy>
  </scstep>
  <scstep>
   <time name="dav">   34.98   34.98</time>
   <time name="total">   37.53   37.53</time>
   <energy>
    <i name="e_fr_energy">  -1329.93683364 </i>
    <i name="e_wo_entrp">  -1328.84218648 </i>
    <i name="e_0_energy">  -1329.38951006 </i>
   </energy>
  </scstep>
  <scstep>
   <time name="dav">   35.09   35.09</time>
   <time name="total">   37.66   37.66</time>
   <energy>
    <i name="e_fr_energy">  -1330.30177312 </i>
    <i name="e_wo_entrp">  -1329.18881947 </i>
    <i name="e_0_energy">  -1329.74529630 </i>
   </energy>
  </scstep>
  <scstep>
   <time name="dav">   35.06   35.07</time>
   <time name="total">   37.65   37.65</time>
   <energy>
[...]
    <v>       0.61114927       0.11117878       0.10743600 </v>
    <v>       0.44429975       0.27786281       0.10747916 </v>
    <v>       0.27784936       0.44431252       0.10748129 </v>
    <v>       0.11119697       0.61112117       0.10746928 </v>
    <v>       0.05566829       0.55552063       0.17570978 </v>
    <v>       0.05568876       0.72214589       0.17573854 </v>
    <v>       0.00010545       0.66661080       0.24360403 </v>
    <v>       0.61114023       0.27773397       0.10751289 </v>
    <v>       0.55554076       0.22230709       0.17575009 </v>
    <v>       0.49994897       0.16679724       0.24363197 </v>
    <v>       0.44435708       0.11126326       0.31156751 </v>
    <v>       0.38879288       0.38892384       0.17583312 </v>
    <v>       0.33331586       0.33344285       0.24378999 </v>
    <v>       0.44442840       0.44445616       0.10760437 </v>
    <v>       0.27771190       0.61113924       0.10754056 </v>
    <v>       0.22227441       0.55555001       0.17583039 </v>
    <v>       0.11120354       0.77765339       0.10747272 </v>
    <v>       0.66665965      -0.00003366       0.24356159 </v>
    <v>       0.77787807       0.44425472       0.31163446 </v>
    <v>       0.11122194       0.44430807       0.31161496 </v>
    <v>       0.05552196       0.38886329       0.37965761 </v>
    <v>       0.00000220       0.33330138       0.44775104 </v>
    <v>       0.16680784       0.16654193       0.44772082 </v>
    <v>       0.11074315       0.11199216       0.51617098 </v>
    <v>       0.55572732       0.88882333       0.37942388 </v>
    <v>       0.22203036       0.55566532       0.37996291 </v>
    <v>       0.22222639       0.22217022       0.37963450 </v>
    <v>       0.33240044       0.66726783       0.44858479 </v>
    <v>       0.33382725       0.00002404       0.44764309 </v>
    <v>       0.45086393       0.43820259       0.51907750 </v>
    <v>       0.11114589       0.44441355       0.10749202 </v>
    <v>       0.11116223       0.27768979       0.10742237 </v>
    <v>       0.05560928       0.22219836       0.17573046 </v>
    <v>      -0.00000634       0.16671703       0.24364286 </v>
    <v>       0.16667712       0.00004393       0.24365554 </v>
    <v>       0.22216947       0.05558237       0.17573735 </v>
    <v>       0.27764480       0.11117205       0.10745369 </v>
    <v>       0.38868474       0.05567023       0.17568072 </v>
    <v>       0.33335265       0.99994806       0.24362211 </v>
    <v>       0.16674009       0.16663249       0.24357989 </v>
    <v>       0.11115383       0.11122129       0.31159574 </v>
    <v>       0.05554955       0.05553440       0.37967406 </v>
    <v>       0.99957562       0.00012676       0.44754956 </v>
    <v>       0.27785569       0.27786333       0.10745672 </v>
    <v>       0.22216305       0.22225291       0.17573991 </v>
    <v>       0.05563248       0.38877623       0.17570414 </v>
    <v>       0.00000132       0.33330885       0.24364132 </v>
    <v>       0.44441376       0.11120004       0.10751564 </v>
    <v>       0.11112987       0.11116271       0.10742558 </v>
    <v>       0.05562374       0.05557257       0.17570557 </v>
    <v>       0.99996564       0.00000939       0.24360130 </v>
    <v>       0.94286521       0.94590033       0.51586008 </v>
    <v>       0.41936871       0.53145215       0.56700670 </v>
    <v>       0.31200176       0.57439533       0.57583781 </v>
   </varray>
  </structure>
  <varray name="forces" >
   <v>      -0.13249652      -0.09161914      -0.08484669 </v>
   <v>      -0.02639793      -0.01423215       0.05990124 </v>
   <v>      -0.04436379       0.00947549      -0.00238978 </v>
   <v>      -0.03668068      -0.00043672      -0.01016857 </v>
   <v>      -0.03382966       0.01109271      -0.01525847 </v>
   <v>      -0.03697120       0.01041612      -0.00497897 </v>
   <v>      -0.05079073       0.06828479      -0.01534285 </v>
   <v>      -0.02002196       0.05724475       0.03468479 </v>
   <v>      -0.05066131       0.03855086       0.06519451 </v>
   <v>      -0.05129912       0.02010539      -0.00106601 </v>
   <v>      -0.04902627       0.00373108      -0.01534151 </v>
   <v>      -0.05111586      -0.01710496       0.00667324 </v>
   <v>      -0.05241747      -0.01016533      -0.00799284 </v>
   <v>      -0.02264158       0.02727206       0.00241176 </v>
   <v>      -0.02143194       0.04381370       0.01898228 </v>
   <v>      -0.01406529       0.01098423       0.00319712 </v>
   <v>      -0.00888824      -0.00211770       0.00418240 </v>
   <v>       0.00124489      -0.00582083       0.00443855 </v>
   <v>      -0.00047091      -0.00251248      -0.00040566 </v>
   <v>       0.00143811      -0.00154012      -0.00133839 </v>
   <v>      -0.01516434      -0.00584483       0.00167872 </v>
   <v>      -0.02131435       0.00339900       0.00381339 </v>
   <v>      -0.05262404       0.02456017       0.00868997 </v>
   <v>      -0.04656484       0.00695636      -0.00760312 </v>
   <v>      -0.01578770       0.02984779       0.02468697 </v>
   <v>      -0.01063147      -0.00501070      -0.00574273 </v>
   <v>      -0.00969636       0.01324891       0.00065014 </v>
   <v>      -0.00749951      -0.01416779      -0.00833041 </v>
   <v>       0.00318097      -0.00599877      -0.00203106 </v>
   <v>       0.04776609       0.02953463       0.01832281 </v>
   <v>      -0.00064096       0.00701211       0.00137934 </v>
   <v>       0.00363534      -0.00031027       0.00526808 </v>
   <v>       0.00533744       0.00193354      -0.00818060 </v>
   <v>      -0.00416839      -0.00743087       0.00085064 </v>
   <v>       0.03298763       0.00342859      -0.00239931 </v>
   <v>       0.03149116      -0.00686699       0.00464845 </v>
   <v>       0.02904086       0.00239955       0.00025067 </v>
   <v>       0.00061968       0.00905412       0.00065561 </v>
   <v>       0.01099715       0.00104221      -0.00178090 </v>
   <v>       0.00288931       0.00703948       0.00336078 </v>
   <v>      -0.00027382       0.03770932       0.01269448 </v>
   <v>      -0.00398473       0.03192670       0.02244607 </v>
   <v>       0.00692010      -0.01219079      -0.00793809 </v>
   <v>       0.00011195       0.06306687       0.02804079 </v>
   <v>      -0.00844935       0.03237906      -0.00445591 </v>
   <v>      -0.02103212       0.01967959       0.03116688 </v>
   <v>      -0.04945484      -0.00600689       0.01828428 </v>
   <v>      -0.03171378       0.01399345       0.03286588 </v>
   <v>       0.02811490       0.03727377      -0.00779976 </v>
   <v>      -0.13972796      -0.00562825       0.04029779 </v>
   <v>       0.02976552      -0.05617575       0.04350624 </v>
   <v>      -0.00382751       0.00815672       0.00077426 </v>
   <v>       0.01006346       0.00056549      -0.00266483 </v>
   <v>      -0.00021702      -0.01557960      -0.00850618 </v>
   <v>      -0.01565688       0.04317823      -0.02108208 </v>
   <v>       0.00792878      -0.00881524       0.00440726 </v>
   <v>      -0.00980343       0.00052618       0.00133262 </v>
   <v>      -0.01917655      -0.02277048       0.00966145 </v>
   <v>      -0.03692288      -0.02273015       0.00263819 </v>
   <v>       0.01422038       0.07936922       0.01746129 </v>
   <v>      -0.02044549      -0.06009979       0.00313580 </v>
   <v>      -0.04344085       0.02375768      -0.02668796 </v>
   <v>       0.01770763       0.05775350       0.03814968 </v>
   <v>      -0.03192778      -0.00882346      -0.03932445 </v>
   <v>      -0.00986187       0.00276845      -0.04643786 </v>
   <v>      -0.03096352       0.01142085      -0.02305826 </v>
   <v>      -0.01340552       0.00271003      -0.00189692 </v>
   <v>      -0.01353524       0.00520330       0.00520811 </v>
   <v>       0.01789322       0.00534043      -0.00239300 </v>
   <v>       0.03486789       0.01292672      -0.02131288 </v>
   <v>       0.01511604       0.00327403       0.00278882 </v>
   <v>       0.02135739       0.00521062       0.00302383 </v>
   <v>       0.00154668       0.00240569      -0.00235733 </v>
   <v>       0.00424098       0.00518849       0.00184420 </v>
   <v>       0.02564644      -0.00167524      -0.00213740 </v>
   <v>       0.02845226      -0.00200822       0.01421723 </v>
   <v>       0.00982029      -0.00267070       0.00433485 </v>
   <v>       0.01425277      -0.00098901       0.00112362 </v>
   <v>      -0.01405598      -0.00231029       0.00853827 </v>
   <v>      -0.02979348      -0.00911092      -0.00849270 </v>
   <v>      -0.01486375      -0.01862299       0.03657666 </v>
   <v>       0.00354745      -0.00269299       0.00404214 </v>
   <v>       0.00635358      -0.00179875      -0.00049131 </v>
   <v>       0.01544475      -0.00345334      -0.00084742 </v>
   <v>       0.00544476      -0.00244317       0.00259436 </v>
   <v>       0.01161503      -0.00238069      -0.00008578 </v>
   <v>       0.02572773      -0.00255202      -0.00005468 </v>
   <v>       0.00872150      -0.00015935       0.00098754 </v>
   <v>       0.00553574       0.00163247       0.00249653 </v>
   <v>       0.00694060       0.00550549      -0.00399534 </v>
   <v>       0.02748417      -0.00210340      -0.00408069 </v>
   <v>       0.03115747      -0.00178208       0.00098198 </v>
   <v>       0.03414724       0.00432217       0.00305386 </v>
   <v>       0.00252543      -0.00267190       0.00452781 </v>
   <v>      -0.00197922      -0.00037970      -0.00177990 </v>
   <v>       0.01224633       0.00155464      -0.00155907 </v>
   <v>      -0.00075214      -0.00463778      -0.00169546 </v>
   <v>       0.00589044      -0.00134680      -0.00438046 </v>
   <v>       0.01621836       0.00065665      -0.01776304 </v>
   <v>      -0.00560456       0.00038211      -0.02923611 </v>
   <v>       0.00233287       0.00701282       0.00025949 </v>
   <v>      -0.03393060      -0.00405187       0.00086087 </v>
   <v>      -0.02159683      -0.01094875       0.00169212 </v>
   <v>      -0.01792861       0.00496158      -0.01001728 </v>
   <v>      -0.01588906       0.01132218      -0.01184022 </v>
   <v>      -0.02144423      -0.01054347       0.00264842 </v>
   <v>       0.02869119      -0.00507869      -0.00967134 </v>
   <v>       0.00952188       0.00280893       0.00385511 </v>
   <v>       0.01280337       0.00630893      -0.00243571 </v>
   <v>       0.00121653      -0.00056975      -0.00128679 </v>
   <v>       0.01213042       0.00141841      -0.00210087 </v>
   <v>       0.00225751       0.00081180      -0.00012096 </v>
   <v>       0.02905249       0.00456828       0.00333018 </v>
   <v>       0.03371961      -0.00199510      -0.00199922 </v>
   <v>       0.03111683       0.00114053      -0.00735855 </v>
   <v>       0.02969256       0.00037008      -0.00131479 </v>
   <v>       0.03443296       0.00134124      -0.00125329 </v>
   <v>       0.03822973       0.00117785       0.00371285 </v>
   <v>       0.00509165      -0.00020231       0.00521830 </v>
   <v>       0.01446932      -0.00104810       0.00099790 </v>
   <v>       0.00722658       0.00403550       0.00134618 </v>
   <v>       0.01728686      -0.00405397       0.00071559 </v>
   <v>       0.00505447      -0.00972859       0.00608135 </v>
   <v>       0.01498491      -0.00128087      -0.00352466 </v>
   <v>       0.03146733       0.00529115      -0.00519936 </v>
   <v>       0.04310636      -0.00572485      -0.03058553 </v>
   <v>       0.02719342      -0.01306517       0.00293176 </v>
   <v>      -0.01067480       0.00599427      -0.00745965 </v>
   <v>      -0.14446303      -0.00328904       0.03286269 </v>
   <v>       0.01798474      -0.00157469      -0.02021652 </v>
   <v>       0.02270717      -0.01363753      -0.01473224 </v>
   <v>       0.03198093      -0.00900884       0.00535778 </v>
   <v>       0.01230511       0.00161500      -0.00014069 </v>
   <v>       0.01151231       0.00127695       0.00355897 </v>
   <v>       0.01452442      -0.00064281       0.00311280 </v>
   <v>       0.00510107      -0.00016931       0.00069856 </v>
   <v>       0.01183802       0.00160458       0.00042872 </v>
   <v>       0.00620442      -0.00267202       0.00339948 </v>
   <v>       0.00736228      -0.00129318      -0.00622462 </v>
   <v>       0.01315587       0.00099431       0.00241939 </v>
   <v>      -0.00140107       0.00505618      -0.00462691 </v>
   <v>       0.01419369      -0.00060698       0.00082871 </v>
   <v>       0.01471656       0.00452206      -0.00391902 </v>
   <v>       0.01129068       0.00233776      -0.00025244 </v>
   <v>      -0.01109566      -0.00214914       0.00338401 </v>
   <v>      -0.03146221       0.00039770      -0.00907263 </v>
   <v>      -0.02701955      -0.00156596      -0.01012672 </v>
   <v>      -0.01343244      -0.00101239       0.00257769 </v>
   <v>       0.01024366      -0.00115891       0.00093763 </v>
   <v>      -0.01920786      -0.00519417      -0.00257955 </v>
   <v>      -0.00592534      -0.00586146       0.00931214 </v>
   <v>      -0.01040254      -0.01205146      -0.05409795 </v>
   <v>      -0.04946066      -0.02313229      -0.02999247 </v>
   <v>      -0.04605107      -0.00830432       0.01553175 </v>
   <v>      -0.04012784      -0.02133286      -0.00827356 </v>
   <v>      -0.03636121      -0.02666610      -0.01066785 </v>
   <v>      -0.03378285       0.00230029      -0.01161667 </v>
   <v>      -0.05214271       0.00365427      -0.00017304 </v>
   <v>      -0.02423240       0.01066343      -0.01447284 </v>
   <v>       0.02221652      -0.00204095       0.00042803 </v>
   <v>       0.02431206      -0.00761172       0.00240723 </v>
   <v>      -0.00184500       0.00643573      -0.03272123 </v>
   <v>      -0.02768692       0.00579081      -0.02801397 </v>
   <v>      -0.04190392      -0.00574271      -0.00421987 </v>
   <v>      -0.01333683      -0.00702598      -0.00314953 </v>
   <v>       0.03273049      -0.00489635       0.00386110 </v>
   <v>       0.00505460       0.00033190      -0.00622692 </v>
   <v>       0.01620917      -0.00037850       0.00043167 </v>
   <v>       0.01350027      -0.00387724      -0.00063908 </v>
   <v>       0.01385114      -0.00489847      -0.00114445 </v>
   <v>       0.01663837      -0.01461252       0.01000008 </v>
   <v>      -0.00208125      -0.02228699       0.00841347 </v>
   <v>       0.03986119       0.00180829       0.00131262 </v>
   <v>       0.00445057      -0.00054375      -0.00212153 </v>
   <v>       0.00243484      -0.00436903       0.00014986 </v>
   <v>       0.03308709      -0.00107605      -0.00547978 </v>
   <v>       0.03511992       0.00413814      -0.00540633 </v>
   <v>       0.02916266       0.00265670      -0.00163697 </v>
   <v>       0.01343754       0.00042143       0.00068832 </v>
   <v>       0.00220268       0.00043728       0.00296440 </v>
   <v>       0.03007417       0.00020861       0.00053090 </v>
   <v>       0.03367976       0.00112556      -0.01820653 </v>
   <v>       0.00059436       0.03300374       0.05086522 </v>
   <v>       0.01080010       0.02848892       0.02252329 </v>
   <v>      -0.00901436      -0.01252688      -0.01812620 </v>
   <v>      -0.02159060      -0.00005825      -0.01333851 </v>
   <v>      -0.05809159      -0.02880249       0.00679284 </v>
   <v>       0.01356801      -0.06189278       0.05365476 </v>
   <v>      -0.04436252       0.04012073      -0.05773601 </v>
   <v>      -0.03165945       0.00312065      -0.00233816 </v>
   <v>      -0.00645982       0.00741750      -0.01168163 </v>
   <v>       0.03330214      -0.00593927       0.00400203 </v>
   <v>       0.03573837       0.00270040      -0.00097310 </v>
   <v>       0.00809221       0.00224428      -0.00550169 </v>
   <v>       0.01705218       0.00125537       0.00019351 </v>
   <v>       0.02819925      -0.02242361       0.00968438 </v>
   <v>       0.03053664       0.00401787      -0.00059182 </v>
   <v>       0.02954895      -0.00336447      -0.00363656 </v>
   <v>       0.01172425       0.00143588      -0.00113623 </v>
   <v>       0.03994226      -0.00203350      -0.00395536 </v>
   <v>       0.03385090       0.00169610      -0.00125645 </v>
   <v>       0.03157237      -0.00359663       0.00117856 </v>
   <v>       0.03087047      -0.00004482      -0.00480573 </v>
   <v>       0.03994601       0.00031996      -0.00171345 </v>
   <v>       0.01463526      -0.00070770       0.00183036 </v>
   <v>       0.00292034      -0.00508784       0.00257590 </v>
   <v>       0.00455052      -0.00025618       0.00176199 </v>
   <v>       0.03729403      -0.00160395      -0.00033240 </v>
   <v>       0.00606202       0.00196266       0.00038799 </v>
   <v>       0.01814026       0.00243121      -0.00481413 </v>
   <v>       0.00413358       0.00107709       0.00121861 </v>
   <v>       0.00501646       0.00477133       0.00409688 </v>
   <v>       0.01617304       0.00474116       0.00365888 </v>
   <v>       0.02897599       0.00197193       0.00384485 </v>
   <v>       0.03742370       0.00017318      -0.00051328 </v>
   <v>       0.00361962       0.00021014      -0.00026862 </v>
   <v>       0.03797740       0.00158373       0.00030134 </v>
   <v>      -0.00817405      -0.00078620      -0.00644992 </v>
   <v>       0.01683825       0.00432856      -0.00440533 </v>
   <v>       0.00863397       0.00120727       0.00036681 </v>
   <v>      -0.01031948      -0.00573342       0.00292629 </v>
   <v>      -0.03066891       0.00369646       0.00503206 </v>
   <v>      -0.01774411       0.00120541      -0.00605577 </v>
   <v>      -0.03834985      -0.01088930       0.01455009 </v>
   <v>       0.00639147       0.03728327       0.02612511 </v>
   <v>       0.00390953      -0.02008790      -0.00384238 </v>
   <v>      -0.00645159       0.00137352      -0.00235568 </v>
   <v>       0.01038363       0.03548148       0.01906015 </v>
   <v>      -0.03074541      -0.00146478      -0.01615639 </v>
   <v>      -0.12668852      -0.01898583       0.03135699 </v>
   <v>       0.03566842      -0.00230786       0.00107769 </v>
   <v>       0.03361855       0.00065623       0.00188716 </v>
   <v>       0.00375042       0.00292761      -0.00077240 </v>
   <v>       0.01336898       0.00015391       0.00133079 </v>
   <v>       0.01154632       0.00106042      -0.00150750 </v>
   <v>       0.00353012       0.00025809       0.00228151 </v>
   <v>       0.03788315       0.00270161      -0.00218082 </v>
   <v>       0.01701413      -0.00398107       0.00141791 </v>
   <v>       0.01189719      -0.00172508      -0.00286046 </v>
   <v>       0.03459474      -0.00229807       0.00062281 </v>
   <v>       0.01183313       0.00006747      -0.00099740 </v>
   <v>      -0.01230019      -0.00360282       0.00466629 </v>
   <v>      -0.01967777       0.00465550       0.00080616 </v>
   <v>       0.03100968       0.00650404       0.00363359 </v>
   <v>       0.00573484      -0.00180561      -0.00114000 </v>
   <v>       0.01521651      -0.00106627      -0.00303246 </v>
   <v>       0.01370256      -0.00088996      -0.00000650 </v>
   <v>       0.03320015       0.00113313       0.00007964 </v>
   <v>       0.03430017      -0.00109998       0.00019395 </v>
   <v>       0.01153400       0.00161633       0.00030143 </v>
   <v>       0.00426978      -0.00001754      -0.00117842 </v>
   <v>      -0.05530769      -0.00792906       0.01900576 </v>
   <v>       0.14390058      -0.20267953      -0.00162811 </v>
   <v>      -0.10684457      -0.12720694      -0.05034419 </v>
  </varray>
  <varray name="stress" >
   <v>     -25.60204918       0.19535845      -0.06873698 </v>
   <v>       0.19535845     -82.95887291      -1.11845274 </v>
   <v>      -0.06873698      -1.11845274     -85.07759891 </v>
  </varray>
  <energy>
   <i name="e_fr_energy">  -1426.10592307 </i>
   <i name="e_wo_entrp">  -1424.71416789 </i>
   <i name="e_0_energy">  -1425.41004548 </i>
  </energy>
  <time name="totalsc"> 1374.57 1374.75</time>
 </calculation>
