 running on    1 total cores
 distrk:  each k-point on    1 cores,    1 groups
 distr:  one band on    1 cores,    1 groups
 OpenACC runtime initialized ...    1 GPUs detected
 vasp.6.2.1 16May21 (build Jun 16 2021 03:23:30) complex                         
 POSCAR found type information on POSCAR NiO 
 POSCAR found :  2 types and     254 ions
 scaLAPACK will be used selectively (only on CPU)
 LDA part: xc-table for Pade appr. of Perdew
 POSCAR found type information on POSCAR NiO 
 POSCAR found :  2 types and     254 ions
 POSCAR, INCAR and KPOINTS ok, starting setup
 FFT: planning ...
 WAVECAR not read
 entering main loop
       N       E                     dE             d eps       ncg     rms          rms(c)
DAV:   1     0.224076395557E+05    0.22408E+05   -0.98606E+05 12200   0.134E+03
DAV:   2     0.116428169640E+03   -0.22291E+05   -0.21296E+05 12152   0.469E+02
DAV:   3    -0.133241274926E+04   -0.14488E+04   -0.12218E+04 13856   0.131E+02
DAV:   4    -0.155508960630E+04   -0.22268E+03   -0.18999E+03 22312   0.489E+01
DAV:   5    -0.156626321989E+04   -0.11174E+02   -0.10527E+02 19856   0.117E+01    0.151E+02
DAV:   6    -0.198373391045E+04   -0.41747E+03   -0.26905E+03 16384   0.179E+02    0.309E+02
DAV:   7    -0.169121892352E+04    0.29251E+03   -0.10022E+03 13048   0.136E+02    0.230E+02
DAV:   8    -0.160978074060E+04    0.81438E+02   -0.75611E+02 16064   0.124E+02    0.214E+02
DAV:   9    -0.232737406966E+04   -0.71759E+03   -0.27496E+02 13352   0.178E+02    0.322E+02
DAV:  10    -0.157677840101E+04    0.75060E+03   -0.38322E+02 16736   0.866E+01    0.153E+02
DAV:  11    -0.161262468137E+04   -0.35846E+02   -0.48162E+02 15296   0.132E+02    0.215E+02
DAV:  12    -0.158113990664E+04    0.31485E+02   -0.22938E+02 12816   0.772E+01    0.183E+02
DAV:  13    -0.155361184240E+04    0.27528E+02   -0.18846E+02 12672   0.820E+01    0.191E+02
DAV:  14    -0.149794813862E+04    0.55664E+02   -0.10345E+02 13192   0.680E+01    0.179E+02
DAV:  15    -0.150206964717E+04   -0.41215E+01   -0.10113E+02 12720   0.589E+01    0.173E+02
DAV:  16    -0.142808110736E+04    0.73989E+02   -0.77196E+01 12704   0.553E+01    0.148E+02
DAV:  17    -0.138776499828E+04    0.40316E+02   -0.52584E+01 12848   0.452E+01    0.130E+02
DAV:  18    -0.137298136326E+04    0.14784E+02   -0.44177E+01 12960   0.422E+01    0.107E+02
DAV:  19    -0.136797767377E+04    0.50037E+01   -0.38685E+01 12944   0.353E+01    0.102E+02
DAV:  20    -0.135860775359E+04    0.93699E+01   -0.27482E+01 12952   0.325E+01    0.936E+01
DAV:  21    -0.134076342095E+04    0.17844E+02   -0.19315E+01 12928   0.269E+01    0.693E+01
DAV:  22    -0.133329068778E+04    0.74727E+01   -0.10518E+01 13024   0.187E+01    0.542E+01
DAV:  23    -0.133110308719E+04    0.21876E+01   -0.80404E+00 13072   0.179E+01    0.519E+01
DAV:  24    -0.132858688019E+04    0.25162E+01   -0.58836E+00 13120   0.152E+01    0.452E+01
DAV:  25    -0.132861930724E+04   -0.32427E-01   -0.46217E+00 13072   0.134E+01    0.446E+01
DAV:  26    -0.132845559198E+04    0.16372E+00   -0.33155E+00 13136   0.116E+01    0.473E+01
DAV:  27    -0.132780848550E+04    0.64711E+00   -0.32960E+00 13168   0.117E+01    0.441E+01
DAV:  28    -0.132748198904E+04    0.32650E+00   -0.30127E+00 13184   0.110E+01    0.424E+01
DAV:  29    -0.132766662171E+04   -0.18463E+00   -0.32683E+00 13232   0.116E+01    0.403E+01
DAV:  30    -0.132993683364E+04   -0.22702E+01   -0.34764E+00 13320   0.127E+01    0.519E+01
DAV:  31    -0.133030177312E+04   -0.36494E+00   -0.34201E+00 13376   0.121E+01    0.525E+01
DAV:  32    -0.132892645948E+04    0.13753E+01   -0.30965E+00 13360   0.116E+01    0.449E+01
DAV:  33    -0.132765653244E+04    0.12699E+01   -0.26429E+00 13432   0.106E+01    0.436E+01
DAV:  34    -0.132606317293E+04    0.15934E+01   -0.17561E+00 13328   0.796E+00    0.371E+01
DAV:  35    -0.132693329506E+04   -0.87012E+00   -0.17498E+00 13328   0.847E+00    0.406E+01
DAV:  36    -0.132587234488E+04    0.10610E+01   -0.16620E+00 13344   0.819E+00    0.336E+01
DAV:  37    -0.132548808763E+04    0.38426E+00   -0.16284E+00 13352   0.807E+00    0.328E+01
DAV:  38    -0.132538620297E+04    0.10188E+00   -0.13655E+00 13416   0.747E+00    0.333E+01
DAV:  39    -0.132463300396E+04    0.75320E+00   -0.13461E+00 13440   0.715E+00    0.294E+01
DAV:  40    -0.132382040995E+04    0.81259E+00   -0.89208E-01 13416   0.560E+00    0.237E+01
DAV:  41    -0.132358176830E+04    0.23864E+00   -0.65699E-01 13352   0.456E+00    0.231E+01
DAV:  42    -0.132300380673E+04    0.57796E+00   -0.44794E-01 13384   0.372E+00    0.168E+01
DAV:  43    -0.132261830644E+04    0.38550E+00   -0.28538E-01 13384   0.268E+00    0.108E+01
DAV:  44    -0.132250147836E+04    0.11683E+00   -0.14807E-01 13360   0.204E+00    0.802E+00
DAV:  45    -0.132257322863E+04   -0.71750E-01   -0.15965E-01 13376   0.226E+00    0.979E+00
DAV:  46    -0.132256440970E+04    0.88189E-02   -0.19314E-01 13456   0.229E+00    0.899E+00
DAV:  47    -0.132249857568E+04    0.65834E-01   -0.11085E-01 13328   0.176E+00    0.721E+00
DAV:  48    -0.132250035746E+04   -0.17818E-02   -0.68659E-02 13408   0.144E+00    0.783E+00
DAV:  49    -0.132246894200E+04    0.31415E-01   -0.56381E-02 13472   0.114E+00    0.754E+00
DAV:  50    -0.132248641938E+04   -0.17477E-01   -0.63137E-02 13440   0.120E+00    0.882E+00
DAV:  51    -0.132289009843E+04   -0.40368E+00   -0.48228E-01 21016   0.356E+00    0.146E+01
DAV:  52    -0.132259774777E+04    0.29235E+00   -0.34822E-01 16048   0.322E+00    0.949E+00
DAV:  53    -0.132259501709E+04    0.27307E-02   -0.25369E-01 16168   0.272E+00    0.106E+01
DAV:  54    -0.132251014405E+04    0.84873E-01   -0.16715E-01 14768   0.209E+00    0.936E+00
DAV:  55    -0.132249830127E+04    0.11843E-01   -0.12846E-01 14664   0.197E+00    0.853E+00
DAV:  56    -0.132254377848E+04   -0.45477E-01   -0.14315E-01 14696   0.220E+00    0.925E+00
DAV:  57    -0.132241291873E+04    0.13086E+00   -0.11796E-01 14432   0.211E+00    0.518E+00
DAV:  58    -0.132236182876E+04    0.51090E-01   -0.56413E-02 14160   0.141E+00    0.349E+00
DAV:  59    -0.132235191898E+04    0.99098E-02   -0.32982E-02 13968   0.985E-01    0.290E+00
DAV:  60    -0.132234366581E+04    0.82532E-02   -0.21742E-02 13816   0.805E-01
 -----------------------------------------------------------------------------
|                                                                             |
|           W    W    AA    RRRRR   N    N  II  N    N   GGGG   !!!           |
|           W    W   A  A   R    R  NN   N  II  NN   N  G    G  !!!           |
|           W    W  A    A  R    R  N N  N  II  N N  N  G       !!!           |
|           W WW W  AAAAAA  RRRRR   N  N N  II  N  N N  G  GGG   !            |
|           WW  WW  A    A  R   R   N   NN  II  N   NN  G    G                |
|           W    W  A    A  R    R  N    N  II  N    N   GGGG   !!!           |
|                                                                             |
|     The electronic self-consistency was not achieved in the given           |
|     number of steps (NELM). The forces and other quantities evaluated       |
|     might not be reliable so examine the results carefully. If you find     |
|     spurious results, we suggest increasing NELM, if you were close to      |
|     convergence or switching to a different ALGO or adjusting the           |
|     density mixing parameters otherwise.                                    |
|                                                                             |
 -----------------------------------------------------------------------------

   1 F= -.14198269E+04 E0= -.14190989E+04  d E =-.141983E+04
 curvature:   0.00 expect dE= 0.000E+00 dE for cont linesearch  0.000E+00
 trial: gam= 0.00000 g(F)=  0.269E+02 g(S)=  0.000E+00 ort = 0.000E+00 (trialstep = 0.100E+01)
 search vector abs. value=  0.269E+02
 bond charge predicted
       N       E                     dE             d eps       ncg     rms          rms(c)
DAV:   1    -0.131498031653E+04    0.73716E+01   -0.32753E+03 12368   0.392E+01    0.458E+01
DAV:   2    -0.138233491368E+04   -0.67355E+02   -0.12658E+02 19890   0.334E+01    0.121E+02
DAV:   3    -0.141965221969E+04   -0.37317E+02   -0.31467E+01 13056   0.552E+01    0.131E+02
DAV:   4    -0.139696814720E+04    0.22684E+02   -0.23286E+01 13232   0.522E+01    0.125E+02
DAV:   5    -0.139094693541E+04    0.60212E+01   -0.28401E+01 13544   0.416E+01    0.112E+02
DAV:   6    -0.139180008710E+04   -0.85315E+00   -0.23330E+01 13272   0.448E+01    0.130E+02
DAV:   7    -0.136751027248E+04    0.24290E+02   -0.22288E+01 13152   0.400E+01    0.916E+01
DAV:   8    -0.136634778175E+04    0.11625E+01   -0.24746E+01 13200   0.408E+01    0.901E+01
DAV:   9    -0.139700368685E+04   -0.30656E+02   -0.31713E+01 13264   0.455E+01    0.121E+02
DAV:  10    -0.138792550005E+04    0.90782E+01   -0.29578E+01 13584   0.428E+01    0.109E+02
DAV:  11    -0.136641996691E+04    0.21506E+02   -0.25517E+01 13120   0.372E+01    0.933E+01
DAV:  12    -0.135996873095E+04    0.64512E+01   -0.18734E+01 13104   0.320E+01    0.891E+01
DAV:  13    -0.134777220701E+04    0.12197E+02   -0.15517E+01 13240   0.293E+01    0.747E+01
DAV:  14    -0.134536826088E+04    0.24039E+01   -0.12609E+01 13296   0.248E+01    0.758E+01
DAV:  15    -0.134002474367E+04    0.53435E+01   -0.10331E+01 13232   0.208E+01    0.660E+01
DAV:  16    -0.133445192316E+04    0.55728E+01   -0.73012E+00 13176   0.177E+01    0.508E+01
DAV:  17    -0.133157756040E+04    0.28744E+01   -0.45485E+00 13152   0.138E+01    0.439E+01
DAV:  18    -0.132952489329E+04    0.20527E+01   -0.29145E+00 13216   0.104E+01    0.359E+01
DAV:  19    -0.132828365688E+04    0.12412E+01   -0.20413E+00 13264   0.832E+00    0.294E+01
DAV:  20    -0.132808923331E+04    0.19442E+00   -0.16077E+00 13224   0.754E+00    0.276E+01
DAV:  21    -0.132786988719E+04    0.21935E+00   -0.13601E+00 13136   0.749E+00    0.266E+01
DAV:  22    -0.132699847545E+04    0.87141E+00   -0.96521E-01 13168   0.632E+00    0.216E+01
DAV:  23    -0.132678150901E+04    0.21697E+00   -0.80335E-01 13160   0.530E+00    0.193E+01
DAV:  24    -0.132714999907E+04   -0.36849E+00   -0.85898E-01 13168   0.533E+00    0.227E+01
DAV:  25    -0.132703399003E+04    0.11601E+00   -0.91387E-01 13184   0.564E+00    0.207E+01
DAV:  26    -0.132678375633E+04    0.25023E+00   -0.77973E-01 13152   0.562E+00    0.189E+01
DAV:  27    -0.132659256579E+04    0.19119E+00   -0.60816E-01 13248   0.439E+00    0.171E+01
DAV:  28    -0.132665400624E+04   -0.61440E-01   -0.59688E-01 13328   0.459E+00    0.177E+01
DAV:  29    -0.132686529233E+04   -0.21129E+00   -0.64000E-01 13248   0.487E+00    0.206E+01
DAV:  30    -0.132640778460E+04    0.45751E+00   -0.48748E-01 13168   0.409E+00    0.162E+01
DAV:  31    -0.132616938772E+04    0.23840E+00   -0.35414E-01 13240   0.325E+00    0.128E+01
DAV:  32    -0.132610711227E+04    0.62275E-01   -0.24506E-01 13312   0.263E+00    0.111E+01
DAV:  33    -0.132620532681E+04   -0.98215E-01   -0.30446E-01 13184   0.317E+00    0.125E+01
DAV:  34    -0.132603934482E+04    0.16598E+00   -0.27067E-01 13184   0.297E+00    0.921E+00
DAV:  35    -0.132597335766E+04    0.65987E-01   -0.15917E-01 13336   0.229E+00    0.793E+00
DAV:  36    -0.132598649595E+04   -0.13138E-01   -0.14571E-01 13352   0.210E+00    0.871E+00
DAV:  37    -0.132592586496E+04    0.60631E-01   -0.14920E-01 13352   0.199E+00    0.677E+00
DAV:  38    -0.132585558773E+04    0.70277E-01   -0.68061E-02 13440   0.137E+00    0.388E+00
DAV:  39    -0.132584779442E+04    0.77933E-02   -0.37344E-02 13288   0.106E+00    0.393E+00
DAV:  40    -0.132582903722E+04    0.18757E-01   -0.28792E-02 13344   0.100E+00    0.304E+00
DAV:  41    -0.132581894508E+04    0.10092E-01   -0.12301E-02 13816   0.629E-01    0.253E+00
DAV:  42    -0.132584128172E+04   -0.22337E-01   -0.19436E-02 13624   0.772E-01    0.397E+00
DAV:  43    -0.132583167894E+04    0.96028E-02   -0.22601E-02 13496   0.759E-01    0.327E+00
DAV:  44    -0.132581790774E+04    0.13771E-01   -0.14452E-02 13592   0.652E-01    0.259E+00
DAV:  45    -0.132581614727E+04    0.17605E-02   -0.69324E-03 13664   0.466E-01    0.239E+00
DAV:  46    -0.132581303946E+04    0.31078E-02   -0.61687E-03 13528   0.450E-01    0.173E+00
DAV:  47    -0.132581854361E+04   -0.55042E-02   -0.84421E-03 13544   0.557E-01    0.240E+00
DAV:  48    -0.132581462740E+04    0.39162E-02   -0.57707E-03 13544   0.448E-01    0.180E+00
DAV:  49    -0.132580843443E+04    0.61930E-02   -0.41687E-03 13576   0.391E-01    0.984E-01
DAV:  50    -0.132580789231E+04    0.54211E-03   -0.19547E-03 13632   0.256E-01    0.849E-01
DAV:  51    -0.132580949131E+04   -0.15990E-02   -0.24387E-03 13544   0.282E-01    0.103E+00
DAV:  52    -0.132581004062E+04   -0.54931E-03   -0.31652E-03 13544   0.338E-01    0.120E+00
DAV:  53    -0.132580721965E+04    0.28210E-02   -0.17718E-03 13520   0.241E-01    0.438E-01
DAV:  54    -0.132580731988E+04   -0.10023E-03   -0.62309E-04 13504   0.143E-01    0.450E-01
DAV:  55    -0.132580782028E+04   -0.50040E-03   -0.66553E-04 13576   0.146E-01    0.519E-01
DAV:  56    -0.132580737473E+04    0.44555E-03   -0.50385E-04 13608   0.126E-01    0.247E-01
DAV:  57    -0.132580992774E+04   -0.25530E-02   -0.15809E-03 17888   0.207E-01    0.102E+00
DAV:  58    -0.132580770185E+04    0.22259E-02   -0.13322E-03 14968   0.201E-01    0.348E-01
DAV:  59    -0.132580758668E+04    0.11517E-03   -0.26725E-04 14352   0.813E-02    0.243E-01
DAV:  60    -0.132580767394E+04   -0.87262E-04   -0.17051E-04 14160   0.620E-02
 -----------------------------------------------------------------------------
|                                                                             |
|           W    W    AA    RRRRR   N    N  II  N    N   GGGG   !!!           |
|           W    W   A  A   R    R  NN   N  II  NN   N  G    G  !!!           |
|           W    W  A    A  R    R  N N  N  II  N N  N  G       !!!           |
|           W WW W  AAAAAA  RRRRR   N  N N  II  N  N N  G  GGG   !            |
|           WW  WW  A    A  R   R   N   NN  II  N   NN  G    G                |
|           W    W  A    A  R    R  N    N  II  N    N   GGGG   !!!           |
|                                                                             |
|     The electronic self-consistency was not achieved in the given           |
|     number of steps (NELM). The forces and other quantities evaluated       |
|     might not be reliable so examine the results carefully. If you find     |
|     spurious results, we suggest increasing NELM, if you were close to      |
|     convergence or switching to a different ALGO or adjusting the           |
|     density mixing parameters otherwise.                                    |
|                                                                             |
 -----------------------------------------------------------------------------

   2 F= -.14233618E+04 E0= -.14226307E+04  d E =-.353490E+01
 trial-energy change:   -3.534899  1 .order  -12.031545  -26.901524    2.838433
 step:   0.4769(harm=  0.9046)  dis= 0.17599  next Energy= -1425.320210 (dE=-0.549E+01)
 bond charge predicted
       N       E                     dE             d eps       ncg     rms          rms(c)
DAV:   1    -0.132293855895E+04    0.28690E+01   -0.98495E+02 12160   0.298E+01    0.331E+01
DAV:   2    -0.134244318974E+04   -0.19505E+02   -0.52480E+01 18432   0.182E+01    0.692E+01
DAV:   3    -0.143846331324E+04   -0.96020E+02   -0.21564E+01 14288   0.495E+01    0.129E+02
DAV:   4    -0.139348066384E+04    0.44983E+02   -0.21157E+01 15184   0.454E+01    0.111E+02
DAV:   5    -0.138044236187E+04    0.13038E+02   -0.18710E+01 14008   0.455E+01    0.113E+02
DAV:   6    -0.138592951769E+04   -0.54872E+01   -0.27621E+01 14272   0.419E+01    0.105E+02
DAV:   7    -0.134936705031E+04    0.36562E+02   -0.18343E+01 13376   0.331E+01    0.687E+01
DAV:   8    -0.135124190951E+04   -0.18749E+01   -0.14208E+01 13904   0.270E+01    0.781E+01
DAV:   9    -0.135339666047E+04   -0.21548E+01   -0.11302E+01 13344   0.242E+01    0.829E+01
DAV:  10    -0.133829261308E+04    0.15104E+02   -0.82716E+00 13272   0.213E+01    0.575E+01
DAV:  11    -0.133190274673E+04    0.63899E+01   -0.48655E+00 13392   0.140E+01    0.409E+01
DAV:  12    -0.133300188461E+04   -0.10991E+01   -0.36593E+00 13248   0.122E+01    0.457E+01
DAV:  13    -0.133257919475E+04    0.42269E+00   -0.39792E+00 13536   0.131E+01    0.444E+01
DAV:  14    -0.132966638129E+04    0.29128E+01   -0.29679E+00 13448   0.113E+01    0.334E+01
DAV:  15    -0.132857844912E+04    0.10879E+01   -0.21144E+00 13280   0.882E+00    0.280E+01
DAV:  16    -0.132801782803E+04    0.56062E+00   -0.14340E+00 13280   0.696E+00    0.233E+01
DAV:  17    -0.132732512638E+04    0.69270E+00   -0.98337E-01 13376   0.533E+00    0.165E+01
DAV:  18    -0.132739342669E+04   -0.68300E-01   -0.74757E-01 13336   0.484E+00    0.180E+01
DAV:  19    -0.132734337178E+04    0.50055E-01   -0.60728E-01 13232   0.426E+00    0.179E+01
DAV:  20    -0.132744183443E+04   -0.98463E-01   -0.57017E-01 13408   0.429E+00    0.195E+01
DAV:  21    -0.132752232390E+04   -0.80489E-01   -0.49266E-01 13376   0.398E+00    0.210E+01
DAV:  22    -0.132738297731E+04    0.13935E+00   -0.49979E-01 13304   0.389E+00    0.195E+01
DAV:  23    -0.132704328840E+04    0.33969E+00   -0.48774E-01 13272   0.398E+00    0.146E+01
DAV:  24    -0.132683676640E+04    0.20652E+00   -0.34241E-01 13320   0.315E+00    0.109E+01
DAV:  25    -0.132707790735E+04   -0.24114E+00   -0.40000E-01 13432   0.344E+00    0.145E+01
DAV:  26    -0.132716140048E+04   -0.83493E-01   -0.43647E-01 13400   0.388E+00    0.161E+01
DAV:  27    -0.132675589330E+04    0.40551E+00   -0.32099E-01 13424   0.320E+00    0.996E+00
DAV:  28    -0.132660610048E+04    0.14979E+00   -0.13785E-01 13512   0.194E+00    0.620E+00
DAV:  29    -0.132661959152E+04   -0.13491E-01   -0.10530E-01 13624   0.152E+00    0.644E+00
DAV:  30    -0.132662928964E+04   -0.96981E-02   -0.10218E-01 13376   0.159E+00    0.641E+00
DAV:  31    -0.132658143529E+04    0.47854E-01   -0.70816E-02 13408   0.142E+00    0.516E+00
DAV:  32    -0.132655969081E+04    0.21744E-01   -0.40918E-02 13408   0.105E+00    0.420E+00
DAV:  33    -0.132659982139E+04   -0.40131E-01   -0.46585E-02 13408   0.119E+00    0.576E+00
DAV:  34    -0.132662694180E+04   -0.27120E-01   -0.78792E-02 13384   0.150E+00    0.640E+00
DAV:  35    -0.132655892963E+04    0.68012E-01   -0.62134E-02 13464   0.127E+00    0.372E+00
DAV:  36    -0.132654155261E+04    0.17377E-01   -0.23638E-02 13312   0.820E-01    0.300E+00
DAV:  37    -0.132654276831E+04   -0.12157E-02   -0.13722E-02 13424   0.614E-01    0.315E+00
DAV:  38    -0.132654321752E+04   -0.44921E-03   -0.14223E-02 13528   0.603E-01    0.331E+00
DAV:  39    -0.132653544016E+04    0.77774E-02   -0.11096E-02 13432   0.504E-01    0.268E+00
DAV:  40    -0.132653068868E+04    0.47515E-02   -0.55276E-03 13376   0.383E-01    0.209E+00
DAV:  41    -0.132652692994E+04    0.37587E-02   -0.47935E-03 13392   0.383E-01    0.158E+00
DAV:  42    -0.132652380058E+04    0.31294E-02   -0.32258E-03 13408   0.337E-01    0.110E+00
DAV:  43    -0.132652362044E+04    0.18015E-03   -0.18486E-03 13344   0.242E-01    0.104E+00
DAV:  44    -0.132652408026E+04   -0.45982E-03   -0.19711E-03 13496   0.255E-01    0.107E+00
DAV:  45    -0.132652282078E+04    0.12595E-02   -0.15013E-03 13392   0.224E-01    0.882E-01
DAV:  46    -0.132652232170E+04    0.49908E-03   -0.68893E-04 13424   0.148E-01    0.740E-01
DAV:  47    -0.132652303503E+04   -0.71333E-03   -0.14077E-03 13744   0.217E-01    0.745E-01
DAV:  48    -0.132652207524E+04    0.95979E-03   -0.11518E-03 13576   0.200E-01    0.478E-01
DAV:  49    -0.132652178712E+04    0.28813E-03   -0.39316E-04 13536   0.112E-01    0.353E-01
DAV:  50    -0.132652184649E+04   -0.59377E-04   -0.27408E-04 13640   0.898E-02    0.338E-01
DAV:  51    -0.132652179258E+04    0.53916E-04   -0.24299E-04 13672   0.895E-02    0.251E-01
DAV:  52    -0.132652238457E+04   -0.59199E-03   -0.42495E-04 13856   0.129E-01    0.516E-01
DAV:  53    -0.132652192417E+04    0.46040E-03   -0.39743E-04 13744   0.123E-01    0.309E-01
DAV:  54    -0.132652185856E+04    0.65613E-04   -0.10747E-04 13688   0.643E-02    0.198E-01
DAV:  55    -0.132652197993E+04   -0.12137E-03   -0.10884E-04 13712   0.615E-02    0.203E-01
DAV:  56    -0.132652200172E+04   -0.21794E-04   -0.84867E-05 13752   0.560E-02    0.158E-01
DAV:  57    -0.132652247459E+04   -0.47287E-03   -0.29211E-04 15632   0.100E-01    0.449E-01
DAV:  58    -0.132652212267E+04    0.35192E-03   -0.29338E-04 14536   0.975E-02    0.269E-01
DAV:  59    -0.132652205950E+04    0.63176E-04   -0.84595E-05 13552   0.500E-02    0.128E-01
DAV:  60    -0.132652209564E+04   -0.36142E-04   -0.31584E-05 11592   0.300E-02
 -----------------------------------------------------------------------------
|                                                                             |
|           W    W    AA    RRRRR   N    N  II  N    N   GGGG   !!!           |
|           W    W   A  A   R    R  NN   N  II  NN   N  G    G  !!!           |
|           W    W  A    A  R    R  N N  N  II  N N  N  G       !!!           |
|           W WW W  AAAAAA  RRRRR   N  N N  II  N  N N  G  GGG   !            |
|           WW  WW  A    A  R   R   N   NN  II  N   NN  G    G                |
|           W    W  A    A  R    R  N    N  II  N    N   GGGG   !!!           |
|                                                                             |
|     The electronic self-consistency was not achieved in the given           |
|     number of steps (NELM). The forces and other quantities evaluated       |
|     might not be reliable so examine the results carefully. If you find     |
|     spurious results, we suggest increasing NELM, if you were close to      |
|     convergence or switching to a different ALGO or adjusting the           |
|     density mixing parameters otherwise.                                    |
|                                                                             |
 -----------------------------------------------------------------------------

   3 F= -.14240298E+04 E0= -.14232980E+04  d E =-.420289E+01
 curvature:   8.63 expect dE= 0.881E+01 dE for cont linesearch  0.276E-01
 ZBRENT: interpolating
 opt :   0.5259  next Energy= -1424.036996 (dE=-0.421E+01)
 bond charge predicted
       N       E                     dE             d eps       ncg     rms          rms(c)
DAV:   1    -0.132651074692E+04    0.11313E-01   -0.87934E+00 12152   0.226E+00    0.276E+00
DAV:   2    -0.132687811028E+04   -0.36736E+00   -0.23658E-01 20800   0.181E+00    0.142E+01
DAV:   3    -0.132677582287E+04    0.10229E+00   -0.27295E-01 17512   0.253E+00    0.119E+01
DAV:   4    -0.132692673162E+04   -0.15091E+00   -0.23803E-01 15664   0.296E+00    0.129E+01
DAV:   5    -0.132692073739E+04    0.59942E-02   -0.52500E-01 17048   0.336E+00    0.122E+01
DAV:   6    -0.132711463681E+04   -0.19390E+00   -0.44343E-01 15576   0.380E+00    0.158E+01
DAV:   7    -0.132700883375E+04    0.10580E+00   -0.49511E-01 15120   0.383E+00    0.138E+01
DAV:   8    -0.132683254557E+04    0.17629E+00   -0.34714E-01 15000   0.338E+00    0.102E+01
DAV:   9    -0.132696727509E+04   -0.13473E+00   -0.33200E-01 14104   0.307E+00    0.135E+01
DAV:  10    -0.132660919429E+04    0.35808E+00   -0.21292E-01 14088   0.251E+00    0.516E+00
DAV:  11    -0.132654927279E+04    0.59921E-01   -0.57624E-02 14024   0.129E+00    0.336E+00
DAV:  12    -0.132655474043E+04   -0.54676E-02   -0.37262E-02 13912   0.967E-01    0.379E+00
DAV:  13    -0.132656556169E+04   -0.10821E-01   -0.36922E-02 13760   0.105E+00    0.403E+00
DAV:  14    -0.132655150808E+04    0.14054E-01   -0.30822E-02 13600   0.981E-01    0.345E+00
DAV:  15    -0.132653095274E+04    0.20555E-01   -0.17778E-02 13688   0.707E-01    0.177E+00
DAV:  16    -0.132652465428E+04    0.62985E-02   -0.64861E-03 13602   0.430E-01    0.875E-01
DAV:  17    -0.132652829548E+04   -0.36412E-02   -0.43465E-03 13776   0.366E-01    0.156E+00
DAV:  18    -0.132653013387E+04   -0.18384E-02   -0.61957E-03 13608   0.413E-01    0.171E+00
DAV:  19    -0.132652591747E+04    0.42164E-02   -0.48446E-03 13592   0.391E-01    0.110E+00
DAV:  20    -0.132652377643E+04    0.21410E-02   -0.21188E-03 13522   0.248E-01    0.691E-01
DAV:  21    -0.132652309303E+04    0.68340E-03   -0.93591E-04 13680   0.145E-01    0.392E-01
DAV:  22    -0.132652347880E+04   -0.38577E-03   -0.67578E-04 13736   0.136E-01    0.508E-01
DAV:  23    -0.132652361336E+04   -0.13456E-03   -0.73241E-04 13544   0.144E-01    0.599E-01
DAV:  24    -0.132652308362E+04    0.52974E-03   -0.51542E-04 13496   0.118E-01    0.340E-01
DAV:  25    -0.132652288162E+04    0.20200E-03   -0.20058E-04 13464   0.772E-02    0.163E-01
DAV:  26    -0.132652304736E+04   -0.16574E-03   -0.17418E-04 13688   0.671E-02    0.301E-01
DAV:  27    -0.132652307800E+04   -0.30634E-04   -0.25580E-04 13608   0.759E-02    0.310E-01
DAV:  28    -0.132652289651E+04    0.18149E-03   -0.14987E-04 13552   0.654E-02    0.134E-01
DAV:  29    -0.132652286865E+04    0.27859E-04   -0.40829E-05 12136   0.352E-02    0.883E-02
DAV:  30    -0.132652288819E+04   -0.19539E-04   -0.29158E-05  9096   0.263E-02    0.131E-01
DAV:  31    -0.132652289163E+04   -0.34478E-05   -0.32499E-05  9704   0.302E-02
   4 F= -.14240341E+04 E0= -.14233022E+04  d E =-.420714E+01
 curvature:  -2.25 expect dE=-0.239E+01 dE for cont linesearch -0.123E-02
 trial: gam= 0.04408 g(F)=  0.106E+01 g(S)=  0.000E+00 ort =-0.121E+00 (trialstep = 0.905E+00)
 search vector abs. value=  0.111E+01
 bond charge predicted
       N       E                     dE             d eps       ncg     rms          rms(c)
DAV:   1    -0.132676811590E+04   -0.24523E+00   -0.16840E+02 12152   0.120E+01    0.438E+00
DAV:   2    -0.132960392885E+04   -0.28358E+01   -0.33521E+00 14752   0.535E+00    0.357E+01
DAV:   3    -0.132826801175E+04    0.13359E+01   -0.14278E+00 12793   0.647E+00    0.246E+01
DAV:   4    -0.132777145008E+04    0.49656E+00   -0.76290E-01 13200   0.524E+00    0.199E+01
DAV:   5    -0.132826359891E+04   -0.49215E+00   -0.82054E-01 14256   0.529E+00    0.218E+01
DAV:   6    -0.132859712651E+04   -0.33353E+00   -0.91957E-01 13584   0.615E+00    0.248E+01
DAV:   7    -0.132773447197E+04    0.86265E+00   -0.93637E-01 13704   0.541E+00    0.154E+01
DAV:   8    -0.132751842720E+04    0.21604E+00   -0.49281E-01 13480   0.425E+00    0.131E+01
DAV:   9    -0.132763071689E+04   -0.11229E+00   -0.46090E-01 13792   0.405E+00    0.144E+01
DAV:  10    -0.132780655429E+04   -0.17584E+00   -0.48772E-01 13624   0.390E+00    0.184E+01
DAV:  11    -0.132726453918E+04    0.54202E+00   -0.37003E-01 13824   0.331E+00    0.763E+00
DAV:  12    -0.132717643220E+04    0.88107E-01   -0.14802E-01 13864   0.235E+00    0.604E+00
DAV:  13    -0.132727619927E+04   -0.99767E-01   -0.16245E-01 13560   0.209E+00    0.901E+00
DAV:  14    -0.132719790202E+04    0.78297E-01   -0.14968E-01 13514   0.203E+00    0.660E+00
DAV:  15    -0.132713395055E+04    0.63951E-01   -0.72889E-02 13706   0.150E+00    0.516E+00
DAV:  16    -0.132711472470E+04    0.19226E-01   -0.39226E-02 13642   0.101E+00    0.419E+00
DAV:  17    -0.132712048972E+04   -0.57650E-02   -0.33451E-02 13458   0.103E+00    0.395E+00
DAV:  18    -0.132711218194E+04    0.83078E-02   -0.32620E-02 13434   0.994E-01    0.360E+00
DAV:  19    -0.132709274299E+04    0.19439E-01   -0.21453E-02 13554   0.773E-01    0.235E+00
DAV:  20    -0.132708274073E+04    0.10002E-01   -0.84288E-03 13554   0.517E-01    0.122E+00
DAV:  21    -0.132708569698E+04   -0.29563E-02   -0.52666E-03 13586   0.389E-01    0.172E+00
DAV:  22    -0.132708533625E+04    0.36074E-03   -0.61725E-03 13530   0.407E-01    0.145E+00
DAV:  23    -0.132708220120E+04    0.31350E-02   -0.42294E-03 13530   0.372E-01    0.111E+00
DAV:  24    -0.132708049068E+04    0.17105E-02   -0.19082E-03 13450   0.236E-01    0.767E-01
DAV:  25    -0.132707985629E+04    0.63439E-03   -0.97191E-04 13450   0.169E-01    0.516E-01
DAV:  26    -0.132708094271E+04   -0.10864E-02   -0.11648E-03 13506   0.188E-01    0.807E-01
DAV:  27    -0.132708063230E+04    0.31041E-03   -0.14591E-03 13498   0.193E-01    0.762E-01
DAV:  28    -0.132707960088E+04    0.10314E-02   -0.71645E-04 13482   0.145E-01    0.379E-01
DAV:  29    -0.132707963434E+04   -0.33465E-04   -0.25145E-04 13402   0.893E-02    0.393E-01
DAV:  30    -0.132707987569E+04   -0.24135E-03   -0.33546E-04 13512   0.977E-02    0.506E-01
DAV:  31    -0.132707958598E+04    0.28971E-03   -0.32939E-04 13480   0.985E-02    0.312E-01
DAV:  32    -0.132707936051E+04    0.22547E-03   -0.13626E-04 13434   0.700E-02    0.121E-01
DAV:  33    -0.132707937090E+04   -0.10393E-04   -0.51221E-05 13202   0.387E-02    0.136E-01
DAV:  34    -0.132707943802E+04   -0.67119E-04   -0.69522E-05 12848   0.422E-02    0.221E-01
DAV:  35    -0.132707938949E+04    0.48524E-04   -0.71573E-05 12704   0.424E-02    0.156E-01
DAV:  36    -0.132707936098E+04    0.28516E-04   -0.30833E-05 10536   0.308E-02    0.115E-01
DAV:  37    -0.132707935326E+04    0.77204E-05   -0.14318E-05  6744   0.180E-02    0.910E-02
DAV:  38    -0.132707935206E+04    0.11930E-05   -0.10128E-05  6688   0.170E-02
   5 F= -.14246244E+04 E0= -.14238927E+04  d E =-.590345E+00
 trial-energy change:   -0.590345  1 .order   -0.629049   -0.958635   -0.299463
 step:   1.3164(harm=  1.3164)  dis= 0.08949  next Energy= -1424.731146 (dE=-0.697E+00)
 bond charge predicted
       N       E                     dE             d eps       ncg     rms          rms(c)
DAV:   1    -0.132709993235E+04   -0.20579E-01   -0.33915E+01 12152   0.547E+00    0.180E+00
DAV:   2    -0.132753572235E+04   -0.43579E+00   -0.63395E-01 14226   0.218E+00    0.143E+01
DAV:   3    -0.132749733722E+04    0.38385E-01   -0.33924E-01 12978   0.285E+00    0.141E+01
DAV:   4    -0.132730691626E+04    0.19042E+00   -0.19653E-01 13200   0.250E+00    0.915E+00
DAV:   5    -0.132742096720E+04   -0.11405E+00   -0.20061E-01 14354   0.246E+00    0.104E+01
DAV:   6    -0.132752678702E+04   -0.10582E+00   -0.28463E-01 13834   0.287E+00    0.129E+01
DAV:   7    -0.132725917387E+04    0.26761E+00   -0.27574E-01 13714   0.239E+00    0.615E+00
DAV:   8    -0.132720812199E+04    0.51052E-01   -0.87218E-02 13456   0.158E+00    0.459E+00
DAV:   9    -0.132723866697E+04   -0.30545E-01   -0.71514E-02 13522   0.144E+00    0.582E+00
DAV:  10    -0.132723095094E+04    0.77160E-02   -0.68285E-02 13466   0.143E+00    0.523E+00
DAV:  11    -0.132718329566E+04    0.47655E-01   -0.48767E-02 13522   0.125E+00    0.308E+00
DAV:  12    -0.132717159231E+04    0.11703E-01   -0.22314E-02 13610   0.829E-01    0.258E+00
DAV:  13    -0.132717341120E+04   -0.18189E-02   -0.18895E-02 13458   0.679E-01    0.263E+00
DAV:  14    -0.132717854068E+04   -0.51295E-02   -0.17548E-02 13426   0.716E-01    0.290E+00
DAV:  15    -0.132716612308E+04    0.12418E-01   -0.12799E-02 13578   0.617E-01    0.194E+00
DAV:  16    -0.132715969160E+04    0.64315E-02   -0.55418E-03 13626   0.399E-01    0.104E+00
DAV:  17    -0.132716399400E+04   -0.43024E-02   -0.44148E-03 13506   0.370E-01    0.168E+00
DAV:  18    -0.132716324136E+04    0.75264E-03   -0.56591E-03 13458   0.391E-01    0.161E+00
DAV:  19    -0.132715866887E+04    0.45725E-02   -0.31432E-03 13546   0.306E-01    0.778E-01
DAV:  20    -0.132715782799E+04    0.84089E-03   -0.10644E-03 13490   0.177E-01    0.535E-01
DAV:  21    -0.132715808125E+04   -0.25326E-03   -0.84194E-04 13480   0.147E-01    0.596E-01
DAV:  22    -0.132715786963E+04    0.21162E-03   -0.76449E-04 13488   0.151E-01    0.446E-01
DAV:  23    -0.132715739294E+04    0.47669E-03   -0.43273E-04 13592   0.120E-01    0.250E-01
DAV:  24    -0.132715741211E+04   -0.19176E-04   -0.16475E-04 13776   0.666E-02    0.282E-01
DAV:  25    -0.132715740392E+04    0.81907E-05   -0.14138E-04 13392   0.645E-02    0.251E-01
DAV:  26    -0.132715745884E+04   -0.54919E-04   -0.15738E-04 13560   0.708E-02    0.275E-01
DAV:  27    -0.132715737682E+04    0.82026E-04   -0.14958E-04 13496   0.637E-02    0.226E-01
DAV:  28    -0.132715729042E+04    0.86396E-04   -0.70769E-05 13152   0.438E-02    0.107E-01
DAV:  29    -0.132715731287E+04   -0.22450E-04   -0.36352E-05 11672   0.338E-02    0.140E-01
DAV:  30    -0.132715734901E+04   -0.36143E-04   -0.50502E-05 11376   0.377E-02    0.193E-01
DAV:  31    -0.132715729270E+04    0.56309E-04   -0.41630E-05 11080   0.354E-02    0.101E-01
DAV:  32    -0.132715727820E+04    0.14508E-04   -0.13399E-05  7056   0.212E-02    0.689E-02
DAV:  33    -0.132715728175E+04   -0.35546E-05   -0.82380E-06  6536   0.147E-02
   6 F= -.14247185E+04 E0= -.14239869E+04  d E =-.684407E+00
 curvature:  -0.69 expect dE=-0.812E-01 dE for cont linesearch -0.116E-01
 ZBRENT: increasing intervall
 opt :   2.1388  next Energy= -1424.671368 (dE=-0.637E+00)
 bond charge predicted
       N       E                     dE             d eps       ncg     rms          rms(c)
DAV:   1    -0.132685433365E+04    0.30294E+00   -0.13775E+02 12152   0.112E+01    0.323E+00
DAV:   2    -0.132829754685E+04   -0.14432E+01   -0.30058E+00 14954   0.432E+00    0.242E+01
DAV:   3    -0.132884857426E+04   -0.55103E+00   -0.10280E+00 13114   0.603E+00    0.308E+01
DAV:   4    -0.132832177380E+04    0.52680E+00   -0.90520E-01 13424   0.594E+00    0.253E+01
DAV:   5    -0.132802594053E+04    0.29583E+00   -0.84076E-01 14760   0.516E+00    0.180E+01
DAV:   6    -0.132786247069E+04    0.16347E+00   -0.57796E-01 13520   0.472E+00    0.172E+01
DAV:   7    -0.132739531916E+04    0.46715E+00   -0.45067E-01 13400   0.360E+00    0.102E+01
DAV:   8    -0.132719256380E+04    0.20276E+00   -0.19361E-01 13544   0.227E+00    0.555E+00
DAV:   9    -0.132731646209E+04   -0.12390E+00   -0.15019E-01 13360   0.214E+00    0.917E+00
DAV:  10    -0.132733803344E+04   -0.21571E-01   -0.16785E-01 13370   0.225E+00    0.968E+00
DAV:  11    -0.132716725098E+04    0.17078E+00   -0.13736E-01 13474   0.189E+00    0.419E+00
DAV:  12    -0.132715690241E+04    0.10349E-01   -0.49149E-02 13394   0.130E+00    0.417E+00
DAV:  13    -0.132718205369E+04   -0.25151E-01   -0.57477E-02 13378   0.119E+00    0.516E+00
DAV:  14    -0.132718197968E+04    0.74017E-04   -0.57620E-02 13370   0.132E+00    0.479E+00
DAV:  15    -0.132715165365E+04    0.30326E-01   -0.43343E-02 13522   0.112E+00    0.380E+00
DAV:  16    -0.132714202427E+04    0.96294E-02   -0.26944E-02 13450   0.834E-01    0.322E+00
DAV:  17    -0.132714548499E+04   -0.34607E-02   -0.22173E-02 13426   0.841E-01    0.310E+00
DAV:  18    -0.132715297043E+04   -0.74854E-02   -0.24248E-02 13394   0.868E-01    0.383E+00
DAV:  19    -0.132712889015E+04    0.24080E-01   -0.18013E-02 13610   0.707E-01    0.193E+00
DAV:  20    -0.132712268980E+04    0.62004E-02   -0.55605E-03 13554   0.439E-01    0.109E+00
DAV:  21    -0.132712603519E+04   -0.33454E-02   -0.50863E-03 13362   0.387E-01    0.163E+00
DAV:  22    -0.132712512302E+04    0.91218E-03   -0.55247E-03 13370   0.379E-01    0.155E+00
DAV:  23    -0.132712114063E+04    0.39824E-02   -0.28786E-03 13618   0.294E-01    0.897E-01
DAV:  24    -0.132712073904E+04    0.40159E-03   -0.10531E-03 13466   0.165E-01    0.809E-01
DAV:  25    -0.132712104105E+04   -0.30201E-03   -0.10635E-03 13520   0.167E-01    0.812E-01
DAV:  26    -0.132712062758E+04    0.41347E-03   -0.11361E-03 13408   0.195E-01    0.577E-01
DAV:  27    -0.132711984242E+04    0.78517E-03   -0.61933E-04 13408   0.154E-01    0.346E-01
DAV:  28    -0.132711988961E+04   -0.47195E-04   -0.25389E-04 13976   0.822E-02    0.371E-01
DAV:  29    -0.132712010740E+04   -0.21779E-03   -0.26003E-04 13456   0.850E-02    0.484E-01
DAV:  30    -0.132711980617E+04    0.30123E-03   -0.24839E-04 13520   0.881E-02    0.268E-01
DAV:  31    -0.132711970975E+04    0.96423E-04   -0.11808E-04 13400   0.576E-02    0.187E-01
DAV:  32    -0.132711966460E+04    0.45145E-04   -0.57712E-05 12896   0.364E-02    0.108E-01
DAV:  33    -0.132711969252E+04   -0.27918E-04   -0.41142E-05 12024   0.342E-02    0.136E-01
DAV:  34    -0.132711968969E+04    0.28322E-05   -0.42388E-05 11672   0.339E-02
   7 F= -.14247150E+04 E0= -.14239836E+04  d E =-.680900E+00
 curvature:   2.79 expect dE= 0.515E+00 dE for cont linesearch  0.399E-01
 ZBRENT: bracketing found
 ZBRENT: interpolating
 opt :   1.7447  next Energy= -1424.739778 (dE=-0.706E+00)
 bond charge predicted
       N       E                     dE             d eps       ncg     rms          rms(c)
DAV:   1    -0.132711038987E+04    0.93026E-02   -0.31087E+01 12152   0.536E+00    0.164E+00
DAV:   2    -0.132741235261E+04   -0.30196E+00   -0.65410E-01 13514   0.217E+00    0.100E+01
DAV:   3    -0.132763842443E+04   -0.22607E+00   -0.24971E-01 13048   0.297E+00    0.166E+01
DAV:   4    -0.132742625019E+04    0.21217E+00   -0.27890E-01 13144   0.277E+00    0.115E+01
DAV:   5    -0.132735391228E+04    0.72338E-01   -0.20015E-01 13496   0.248E+00    0.878E+00
DAV:   6    -0.132747639783E+04   -0.12249E+00   -0.28147E-01 13536   0.261E+00    0.107E+01
DAV:   7    -0.132726616450E+04    0.21023E+00   -0.17803E-01 13552   0.228E+00    0.586E+00
DAV:   8    -0.132722213599E+04    0.44029E-01   -0.69403E-02 13362   0.157E+00    0.492E+00
DAV:   9    -0.132721727810E+04    0.48579E-02   -0.53111E-02 13490   0.122E+00    0.475E+00
DAV:  10    -0.132721600966E+04    0.12684E-02   -0.52250E-02 13402   0.119E+00    0.416E+00
DAV:  11    -0.132718882387E+04    0.27186E-01   -0.35943E-02 13506   0.106E+00    0.299E+00
DAV:  12    -0.132717309502E+04    0.15729E-01   -0.17848E-02 13474   0.703E-01    0.205E+00
DAV:  13    -0.132716804408E+04    0.50509E-02   -0.80114E-03 13506   0.474E-01    0.133E+00
DAV:  14    -0.132718307061E+04   -0.15027E-01   -0.10408E-02 13474   0.558E-01    0.285E+00
DAV:  15    -0.132717823062E+04    0.48400E-02   -0.15196E-02 13514   0.627E-01    0.226E+00
DAV:  16    -0.132716730844E+04    0.10922E-01   -0.77315E-03 13570   0.504E-01    0.107E+00
DAV:  17    -0.132716791850E+04   -0.61006E-03   -0.30187E-03 13402   0.302E-01    0.123E+00
DAV:  18    -0.132716912875E+04   -0.12102E-02   -0.35012E-03 13410   0.318E-01    0.137E+00
DAV:  19    -0.132716726932E+04    0.18594E-02   -0.29295E-03 13402   0.309E-01    0.104E+00
DAV:  20    -0.132716553131E+04    0.17380E-02   -0.17468E-03 13698   0.225E-01    0.683E-01
DAV:  21    -0.132716495898E+04    0.57233E-03   -0.78607E-04 13602   0.142E-01    0.425E-01
DAV:  22    -0.132716514701E+04   -0.18803E-03   -0.50846E-04 13496   0.130E-01    0.462E-01
DAV:  23    -0.132716491467E+04    0.23234E-03   -0.43350E-04 13672   0.118E-01    0.398E-01
DAV:  24    -0.132716471575E+04    0.19892E-03   -0.25811E-04 13848   0.835E-02    0.270E-01
DAV:  25    -0.132716465172E+04    0.64031E-04   -0.14391E-04 13528   0.658E-02    0.180E-01
DAV:  26    -0.132716474260E+04   -0.90880E-04   -0.14195E-04 13528   0.634E-02    0.267E-01
DAV:  27    -0.132716466343E+04    0.79174E-04   -0.13952E-04 13456   0.581E-02    0.202E-01
DAV:  28    -0.132716459644E+04    0.66987E-04   -0.61662E-05 13208   0.412E-02    0.109E-01
DAV:  29    -0.132716459686E+04   -0.42096E-06   -0.23594E-05  9712   0.272E-02
   8 F= -.14247432E+04 E0= -.14240117E+04  d E =-.709134E+00
 curvature:  -1.73 expect dE=-0.232E+00 dE for cont linesearch -0.335E-03
 trial: gam= 0.10597 g(F)=  0.134E+00 g(S)=  0.000E+00 ort =-0.146E-01 (trialstep = 0.107E+01)
 search vector abs. value=  0.143E+00
 bond charge predicted
       N       E                     dE             d eps       ncg     rms          rms(c)
DAV:   1    -0.132721113870E+04   -0.46542E-01   -0.29868E+01 12152   0.556E+00    0.224E+00
DAV:   2    -0.132868711392E+04   -0.14760E+01   -0.97496E-01 13290   0.419E+00    0.237E+01
DAV:   3    -0.132745861950E+04    0.12285E+01   -0.62388E-01 13272   0.459E+00    0.978E+00
DAV:   4    -0.132836056479E+04   -0.90195E+00   -0.26894E-01 13368   0.340E+00    0.255E+01
DAV:   5    -0.132755578394E+04    0.80478E+00   -0.69096E-01 13592   0.353E+00    0.114E+01
DAV:   6    -0.132793442741E+04   -0.37864E+00   -0.38893E-01 13616   0.346E+00    0.160E+01
DAV:   7    -0.132750080381E+04    0.43362E+00   -0.31079E-01 13496   0.344E+00    0.938E+00
DAV:   8    -0.132738491331E+04    0.11589E+00   -0.16591E-01 13408   0.223E+00    0.709E+00
DAV:   9    -0.132736172346E+04    0.23190E-01   -0.11600E-01 13552   0.189E+00    0.610E+00
DAV:  10    -0.132735241540E+04    0.93081E-02   -0.91739E-02 13560   0.172E+00    0.569E+00
DAV:  11    -0.132733801853E+04    0.14397E-01   -0.79527E-02 13474   0.146E+00    0.578E+00
DAV:  12    -0.132727294180E+04    0.65077E-01   -0.43150E-02 13586   0.105E+00    0.222E+00
DAV:  13    -0.132726723396E+04    0.57078E-02   -0.13357E-02 13514   0.630E-01    0.182E+00
DAV:  14    -0.132728018961E+04   -0.12956E-01   -0.15325E-02 13536   0.657E-01    0.295E+00
DAV:  15    -0.132727455129E+04    0.56383E-02   -0.17229E-02 13594   0.686E-01    0.237E+00
DAV:  16    -0.132726715112E+04    0.74002E-02   -0.10667E-02 13610   0.569E-01    0.179E+00
DAV:  17    -0.132726920081E+04   -0.20497E-02   -0.69128E-03 13530   0.443E-01    0.201E+00
DAV:  18    -0.132726810380E+04    0.10970E-02   -0.75064E-03 13434   0.491E-01    0.167E+00
DAV:  19    -0.132726326705E+04    0.48368E-02   -0.53277E-03 13498   0.426E-01    0.116E+00
DAV:  20    -0.132726116786E+04    0.20992E-02   -0.26302E-03 13522   0.269E-01    0.804E-01
DAV:  21    -0.132726067403E+04    0.49383E-03   -0.11741E-03 13482   0.182E-01    0.602E-01
DAV:  22    -0.132726205166E+04   -0.13776E-02   -0.11544E-03 13480   0.202E-01    0.963E-01
DAV:  23    -0.132726136586E+04    0.68580E-03   -0.14671E-03 13432   0.203E-01    0.810E-01
DAV:  24    -0.132726017260E+04    0.11933E-02   -0.70002E-04 13488   0.152E-01    0.374E-01
DAV:  25    -0.132726006784E+04    0.10475E-03   -0.19007E-04 13536   0.817E-02    0.304E-01
DAV:  26    -0.132726026251E+04   -0.19466E-03   -0.23075E-04 13408   0.850E-02    0.400E-01
DAV:  27    -0.132726017596E+04    0.86544E-04   -0.30888E-04 13376   0.907E-02    0.362E-01
DAV:  28    -0.132725993314E+04    0.24282E-03   -0.14784E-04 13336   0.686E-02    0.154E-01
DAV:  29    -0.132725991618E+04    0.16968E-04   -0.45248E-05 12336   0.344E-02    0.128E-01
DAV:  30    -0.132725991270E+04    0.34724E-05   -0.32888E-05  9960   0.276E-02
   9 F= -.14248728E+04 E0= -.14241423E+04  d E =-.129576E+00
 ZBRENT: can't locate minimum, use default step
 trial-energy change:   -0.129576  1 .order   -0.129387   -0.142249   -0.116525
 step:   4.2923(harm=  5.9339)  dis= 0.10594  next Energy= -1425.136508 (dE=-0.393E+00)
 bond charge predicted
       N       E                     dE             d eps       ncg     rms          rms(c)
DAV:   1    -0.132682486260E+04    0.43505E+00   -0.26936E+02 12152   0.168E+01    0.719E+00
DAV:   2    -0.133920027045E+04   -0.12375E+02   -0.71139E+00 13200   0.131E+01    0.581E+01
DAV:   3    -0.132914468399E+04    0.10056E+02   -0.35667E+00 13416   0.144E+01    0.265E+01
DAV:   4    -0.133586131003E+04   -0.67166E+01   -0.27522E+00 13416   0.105E+01    0.592E+01
DAV:   5    -0.133086832461E+04    0.49930E+01   -0.26590E+00 13376   0.104E+01    0.414E+01
DAV:   6    -0.133143034606E+04   -0.56202E+00   -0.23718E+00 13600   0.955E+00    0.363E+01
DAV:   7    -0.133025686572E+04    0.11735E+01   -0.19407E+00 13440   0.990E+00    0.322E+01
DAV:   8    -0.132940791042E+04    0.84896E+00   -0.13619E+00 13376   0.739E+00    0.273E+01
DAV:   9    -0.132887206119E+04    0.53585E+00   -0.10067E+00 13600   0.653E+00    0.238E+01
DAV:  10    -0.132855487634E+04    0.31718E+00   -0.85878E-01 13592   0.571E+00    0.204E+01
DAV:  11    -0.132822148221E+04    0.33339E+00   -0.66423E-01 13440   0.482E+00    0.180E+01
DAV:  12    -0.132767538436E+04    0.54610E+00   -0.38818E-01 13448   0.339E+00    0.108E+01
DAV:  13    -0.132744525221E+04    0.23013E+00   -0.17655E-01 13664   0.226E+00    0.608E+00
DAV:  14    -0.132753906741E+04   -0.93815E-01   -0.13210E-01 13576   0.199E+00    0.894E+00
DAV:  15    -0.132756352120E+04   -0.24454E-01   -0.18396E-01 13512   0.233E+00    0.898E+00
DAV:  16    -0.132745550382E+04    0.10802E+00   -0.13358E-01 13456   0.214E+00    0.672E+00
DAV:  17    -0.132742828496E+04    0.27219E-01   -0.81219E-02 13376   0.149E+00    0.601E+00
DAV:  18    -0.132742637996E+04    0.19050E-02   -0.77320E-02 13384   0.147E+00    0.539E+00
DAV:  19    -0.132745664275E+04   -0.30263E-01   -0.84505E-02 13464   0.163E+00    0.631E+00
DAV:  20    -0.132741217119E+04    0.44472E-01   -0.77534E-02 13528   0.142E+00    0.534E+00
DAV:  21    -0.132738815811E+04    0.24013E-01   -0.35297E-02 13432   0.957E-01    0.415E+00
DAV:  22    -0.132739348066E+04   -0.53226E-02   -0.24389E-02 13368   0.904E-01    0.413E+00
DAV:  23    -0.132737835437E+04    0.15126E-01   -0.22014E-02 13440   0.873E-01    0.354E+00
DAV:  24    -0.132736417482E+04    0.14180E-01   -0.13790E-02 13472   0.619E-01    0.246E+00
DAV:  25    -0.132735963013E+04    0.45447E-02   -0.68040E-03 13416   0.482E-01    0.174E+00
DAV:  26    -0.132736254127E+04   -0.29111E-02   -0.72948E-03 13344   0.512E-01    0.191E+00
DAV:  27    -0.132735778711E+04    0.47542E-02   -0.73956E-03 13432   0.461E-01    0.158E+00
DAV:  28    -0.132735349465E+04    0.42925E-02   -0.33291E-03 13360   0.293E-01    0.760E-01
DAV:  29    -0.132735379862E+04   -0.30397E-03   -0.13305E-03 13336   0.201E-01    0.798E-01
DAV:  30    -0.132735564176E+04   -0.18431E-02   -0.19197E-03 13472   0.242E-01    0.121E+00
DAV:  31    -0.132735377033E+04    0.18714E-02   -0.18068E-03 13424   0.240E-01    0.752E-01
DAV:  32    -0.132735282306E+04    0.94727E-03   -0.65294E-04 13368   0.161E-01    0.442E-01
DAV:  33    -0.132735319098E+04   -0.36792E-03   -0.48262E-04 13456   0.128E-01    0.593E-01
DAV:  34    -0.132735335731E+04   -0.16633E-03   -0.67399E-04 13504   0.133E-01    0.668E-01
DAV:  35    -0.132735264510E+04    0.71221E-03   -0.44056E-04 13568   0.115E-01    0.317E-01
DAV:  36    -0.132735257204E+04    0.73069E-04   -0.14997E-04 13400   0.659E-02    0.268E-01
DAV:  37    -0.132735255593E+04    0.16106E-04   -0.12028E-04 13400   0.545E-02    0.227E-01
DAV:  38    -0.132735255337E+04    0.25611E-05   -0.10086E-04 13448   0.576E-02    0.172E-01
DAV:  39    -0.132735249595E+04    0.57417E-04   -0.57897E-05 13192   0.452E-02    0.987E-02
DAV:  40    -0.132735250439E+04   -0.84406E-05   -0.24867E-05  9872   0.263E-02    0.102E-01
DAV:  41    -0.132735253600E+04   -0.31605E-04   -0.28450E-05  9696   0.293E-02    0.117E-01
DAV:  42    -0.132735252472E+04    0.11277E-04   -0.27360E-05  8504   0.266E-02    0.789E-02
DAV:  43    -0.132735251841E+04    0.63092E-05   -0.11088E-05  6816   0.165E-02    0.372E-02
DAV:  44    -0.132735252437E+04   -0.59591E-05   -0.51224E-06  6784   0.118E-02    0.387E-02
DAV:  45    -0.132735254566E+04   -0.21287E-04   -0.59938E-06  7688   0.134E-02    0.455E-02
DAV:  46    -0.132735255112E+04   -0.54601E-05   -0.48463E-06  7088   0.123E-02    0.270E-02
DAV:  47    -0.132735255594E+04   -0.48226E-05   -0.27239E-06  6432   0.888E-03
  10 F= -.14250725E+04 E0= -.14243452E+04  d E =-.329309E+00
 curvature:  -2.84 expect dE=-0.414E+00 dE for cont linesearch -0.170E-02
 trial: gam= 1.04527 g(F)=  0.146E+00 g(S)=  0.000E+00 ort = 0.926E-02 (trialstep = 0.766E+00)
 search vector abs. value=  0.322E+00
 bond charge predicted
       N       E                     dE             d eps       ncg     rms          rms(c)
DAV:   1    -0.132737243805E+04   -0.19887E-01   -0.35562E+01 12160   0.608E+00    0.160E+00
DAV:   2    -0.132953545199E+04   -0.21630E+01   -0.11058E+00 13472   0.494E+00    0.291E+01
DAV:   3    -0.132756808962E+04    0.19674E+01   -0.77247E-01 13328   0.505E+00    0.780E+00
DAV:   4    -0.132802331676E+04   -0.45523E+00   -0.15302E-01 13368   0.263E+00    0.193E+01
DAV:   5    -0.132748192802E+04    0.54139E+00   -0.26118E-01 13344   0.250E+00    0.505E+00
DAV:   6    -0.132770790479E+04   -0.22598E+00   -0.15274E-01 13416   0.227E+00    0.110E+01
DAV:   7    -0.132753639618E+04    0.17151E+00   -0.17682E-01 13472   0.233E+00    0.632E+00
DAV:   8    -0.132750765834E+04    0.28738E-01   -0.97248E-02 13344   0.172E+00    0.622E+00
DAV:   9    -0.132744129146E+04    0.66367E-01   -0.60578E-02 13608   0.124E+00    0.310E+00
DAV:  10    -0.132744444917E+04   -0.31577E-02   -0.27787E-02 13664   0.883E-01    0.326E+00
DAV:  11    -0.132745867456E+04   -0.14225E-01   -0.35720E-02 13472   0.954E-01    0.413E+00
DAV:  12    -0.132743418164E+04    0.24493E-01   -0.30881E-02 13512   0.853E-01    0.258E+00
DAV:  13    -0.132742349518E+04    0.10686E-01   -0.10947E-02 13560   0.570E-01    0.164E+00
DAV:  14    -0.132742662410E+04   -0.31289E-02   -0.67784E-03 13544   0.416E-01    0.198E+00
DAV:  15    -0.132743150971E+04   -0.48856E-02   -0.91133E-03 13600   0.509E-01    0.224E+00
DAV:  16    -0.132742404604E+04    0.74637E-02   -0.73333E-03 13608   0.486E-01    0.161E+00
DAV:  17    -0.132742198252E+04    0.20635E-02   -0.31964E-03 13408   0.300E-01    0.132E+00
DAV:  18    -0.132742072610E+04    0.12564E-02   -0.21430E-03 13432   0.252E-01    0.102E+00
DAV:  19    -0.132742239384E+04   -0.16677E-02   -0.27126E-03 13496   0.277E-01    0.133E+00
DAV:  20    -0.132741951000E+04    0.28838E-02   -0.26164E-03 13496   0.256E-01    0.687E-01
DAV:  21    -0.132741881935E+04    0.69065E-03   -0.73794E-04 13536   0.151E-01    0.466E-01
DAV:  22    -0.132741897312E+04   -0.15377E-03   -0.45094E-04 13416   0.117E-01    0.532E-01
DAV:  23    -0.132741918173E+04   -0.20861E-03   -0.49692E-04 13464   0.118E-01    0.623E-01
DAV:  24    -0.132741854337E+04    0.63836E-03   -0.35027E-04 13608   0.103E-01    0.285E-01
DAV:  25    -0.132741845947E+04    0.83891E-04   -0.10204E-04 13408   0.576E-02    0.221E-01
DAV:  26    -0.132741853480E+04   -0.75325E-04   -0.10768E-04 13280   0.537E-02    0.285E-01
DAV:  27    -0.132741847585E+04    0.58952E-04   -0.12020E-04 13272   0.562E-02    0.225E-01
DAV:  28    -0.132741841715E+04    0.58693E-04   -0.55800E-05 12976   0.430E-02    0.186E-01
DAV:  29    -0.132741839956E+04    0.17598E-04   -0.24702E-05  8368   0.260E-02    0.158E-01
DAV:  30    -0.132741839476E+04    0.47972E-05   -0.23156E-05  8448   0.269E-02
  11 F= -.14251853E+04 E0= -.14244594E+04  d E =-.112825E+00
 ZBRENT: can't locate minimum, use default step
 trial-energy change:   -0.112825  1 .order   -0.112682   -0.118852   -0.106511
 step:   3.0629(harm=  7.3744)  dis= 0.11199  next Energy= -1425.644822 (dE=-0.572E+00)
 bond charge predicted
       N       E                     dE             d eps       ncg     rms          rms(c)
DAV:   1    -0.132700977764E+04    0.40862E+00   -0.32034E+02 12152   0.184E+01    0.491E+00
DAV:   2    -0.134429218675E+04   -0.17282E+02   -0.75597E+00 13336   0.154E+01    0.661E+01
DAV:   3    -0.132897428071E+04    0.15318E+02   -0.52255E+00 13440   0.155E+01    0.219E+01
DAV:   4    -0.132788799319E+04    0.10863E+01   -0.15883E+00 13376   0.629E+00    0.146E+01
DAV:   5    -0.133170580519E+04   -0.38178E+01   -0.11014E+00 13456   0.681E+00    0.447E+01
DAV:   6    -0.133021130652E+04    0.14945E+01   -0.19513E+00 13376   0.787E+00    0.355E+01
DAV:   7    -0.132871464988E+04    0.14967E+01   -0.11007E+00 13392   0.654E+00    0.202E+01
DAV:   8    -0.132829323787E+04    0.42141E+00   -0.66932E-01 13360   0.485E+00    0.174E+01
DAV:   9    -0.132792888738E+04    0.36435E+00   -0.43764E-01 13352   0.380E+00    0.122E+01
DAV:  10    -0.132796154873E+04   -0.32661E-01   -0.34841E-01 13344   0.339E+00    0.129E+01
DAV:  11    -0.132785184524E+04    0.10970E+00   -0.33066E-01 13392   0.314E+00    0.116E+01
DAV:  12    -0.132763385336E+04    0.21799E+00   -0.20520E-01 13344   0.230E+00    0.628E+00
DAV:  13    -0.132759004790E+04    0.43805E-01   -0.85111E-02 13344   0.163E+00    0.480E+00
DAV:  14    -0.132764865518E+04   -0.58607E-01   -0.82388E-02 13392   0.155E+00    0.688E+00
DAV:  15    -0.132764811744E+04    0.53774E-03   -0.99534E-02 13360   0.166E+00    0.672E+00
DAV:  16    -0.132758749882E+04    0.60619E-01   -0.67698E-02 13352   0.144E+00    0.470E+00
DAV:  17    -0.132757741732E+04    0.10082E-01   -0.36283E-02 13328   0.968E-01    0.404E+00
DAV:  18    -0.132758305818E+04   -0.56409E-02   -0.35458E-02 13352   0.102E+00    0.394E+00
DAV:  19    -0.132756468984E+04    0.18368E-01   -0.30253E-02 13360   0.964E-01    0.317E+00
DAV:  20    -0.132755300298E+04    0.11687E-01   -0.20122E-02 13816   0.731E-01    0.243E+00
DAV:  21    -0.132755334263E+04   -0.33965E-03   -0.11652E-02 13624   0.626E-01    0.232E+00
DAV:  22    -0.132756616619E+04   -0.12824E-01   -0.15411E-02 13480   0.688E-01    0.346E+00
DAV:  23    -0.132754734272E+04    0.18823E-01   -0.15465E-02 13488   0.635E-01    0.172E+00
DAV:  24    -0.132754152075E+04    0.58220E-02   -0.43401E-03 13552   0.395E-01    0.890E-01
DAV:  25    -0.132754307376E+04   -0.15530E-02   -0.28829E-03 13440   0.298E-01    0.121E+00
DAV:  26    -0.132754488431E+04   -0.18106E-02   -0.43843E-03 13408   0.331E-01    0.150E+00
DAV:  27    -0.132754092946E+04    0.39549E-02   -0.31623E-03 13440   0.298E-01    0.770E-01
DAV:  28    -0.132753996486E+04    0.96460E-03   -0.91344E-04 13288   0.170E-01    0.504E-01
DAV:  29    -0.132753984357E+04    0.12129E-03   -0.55084E-04 13312   0.119E-01    0.427E-01
DAV:  30    -0.132754010380E+04   -0.26023E-03   -0.57607E-04 13328   0.133E-01    0.465E-01
DAV:  31    -0.132753970445E+04    0.39935E-03   -0.45244E-04 13352   0.123E-01    0.320E-01
DAV:  32    -0.132753959461E+04    0.10983E-03   -0.19323E-04 13344   0.727E-02    0.267E-01
DAV:  33    -0.132753953999E+04    0.54628E-04   -0.10615E-04 13280   0.527E-02    0.202E-01
DAV:  34    -0.132753961789E+04   -0.77902E-04   -0.10553E-04 13400   0.550E-02    0.260E-01
DAV:  35    -0.132753954173E+04    0.76159E-04   -0.11628E-04 13280   0.537E-02    0.183E-01
DAV:  36    -0.132753948399E+04    0.57744E-04   -0.53806E-05 12832   0.378E-02    0.897E-02
DAV:  37    -0.132753948879E+04   -0.48054E-05   -0.26230E-05  9984   0.280E-02
  12 F= -.14254491E+04 E0= -.14247273E+04  d E =-.376618E+00
 curvature:  -4.39 expect dE=-0.284E+00 dE for cont linesearch -0.105E+00
 ZBRENT: increasing intervall
 opt :   7.6573  next Energy= -1425.616051 (dE=-0.544E+00)
 bond charge predicted
       N       E                     dE             d eps       ncg     rms          rms(c)
DAV:   1    -0.132444709137E+04    0.30924E+01   -0.12904E+03 12160   0.375E+01    0.106E+01
DAV:   2    -0.138287991185E+04   -0.58433E+02   -0.31634E+01 13272   0.326E+01    0.995E+01
DAV:   3    -0.133428573659E+04    0.48594E+02   -0.21199E+01 13424   0.322E+01    0.452E+01
DAV:   4    -0.134046883723E+04   -0.61831E+01   -0.74472E+00 13424   0.167E+01    0.706E+01
DAV:   5    -0.133221109629E+04    0.82577E+01   -0.70760E+00 13008   0.148E+01    0.491E+01
DAV:   6    -0.133355766342E+04   -0.13466E+01   -0.48441E+00 13432   0.126E+01    0.472E+01
DAV:   7    -0.133230632505E+04    0.12513E+01   -0.39177E+00 13424   0.128E+01    0.404E+01
DAV:   8    -0.133134586533E+04    0.96046E+00   -0.24129E+00 13376   0.967E+00    0.376E+01
DAV:   9    -0.132926075126E+04    0.20851E+01   -0.15483E+00 13360   0.769E+00    0.260E+01
DAV:  10    -0.132903318146E+04    0.22757E+00   -0.10643E+00 13344   0.627E+00    0.265E+01
DAV:  11    -0.132843303385E+04    0.60015E+00   -0.99747E-01 13440   0.573E+00    0.213E+01
DAV:  12    -0.132781404405E+04    0.61899E+00   -0.60940E-01 13384   0.432E+00    0.134E+01
DAV:  13    -0.132764178639E+04    0.17226E+00   -0.40521E-01 13328   0.338E+00    0.102E+01
DAV:  14    -0.132777211965E+04   -0.13033E+00   -0.32326E-01 13440   0.323E+00    0.130E+01
DAV:  15    -0.132761407282E+04    0.15805E+00   -0.32802E-01 13432   0.303E+00    0.104E+01
DAV:  16    -0.132759581891E+04    0.18254E-01   -0.24382E-01 13352   0.262E+00    0.999E+00
DAV:  17    -0.132772472965E+04   -0.12891E+00   -0.22154E-01 13408   0.261E+00    0.121E+01
DAV:  18    -0.132762750799E+04    0.97222E-01   -0.25169E-01 13440   0.269E+00    0.959E+00
DAV:  19    -0.132748516397E+04    0.14234E+00   -0.16017E-01 13408   0.235E+00    0.623E+00
DAV:  20    -0.132752536023E+04   -0.40196E-01   -0.11294E-01 13344   0.200E+00    0.768E+00
DAV:  21    -0.132755754890E+04   -0.32189E-01   -0.12823E-01 13424   0.191E+00    0.859E+00
DAV:  22    -0.132744547597E+04    0.11207E+00   -0.10163E-01 13408   0.177E+00    0.510E+00
DAV:  23    -0.132741745459E+04    0.28021E-01   -0.53058E-02 13416   0.125E+00    0.419E+00
DAV:  24    -0.132740950129E+04    0.79533E-02   -0.40918E-02 13440   0.105E+00    0.350E+00
DAV:  25    -0.132741420577E+04   -0.47045E-02   -0.31266E-02 13432   0.105E+00    0.349E+00
DAV:  26    -0.132739419232E+04    0.20013E-01   -0.24462E-02 13392   0.900E-01    0.264E+00
DAV:  27    -0.132738480355E+04    0.93888E-02   -0.10509E-02 13336   0.516E-01    0.172E+00
DAV:  28    -0.132738373635E+04    0.10672E-02   -0.56571E-03 13336   0.398E-01    0.154E+00
DAV:  29    -0.132738932174E+04   -0.55854E-02   -0.69570E-03 13336   0.443E-01    0.228E+00
DAV:  30    -0.132738139204E+04    0.79297E-02   -0.65012E-03 13392   0.424E-01    0.126E+00
DAV:  31    -0.132737951892E+04    0.18731E-02   -0.23040E-03 13344   0.283E-01    0.871E-01
DAV:  32    -0.132738175664E+04   -0.22377E-02   -0.25747E-03 13384   0.274E-01    0.130E+00
DAV:  33    -0.132738095887E+04    0.79778E-03   -0.32214E-03 13408   0.299E-01    0.112E+00
DAV:  34    -0.132737875844E+04    0.22004E-02   -0.17874E-03 13448   0.249E-01    0.688E-01
DAV:  35    -0.132737820325E+04    0.55519E-03   -0.77066E-04 13304   0.141E-01    0.512E-01
DAV:  36    -0.132737808801E+04    0.11524E-03   -0.45870E-04 13360   0.107E-01    0.425E-01
DAV:  37    -0.132737806805E+04    0.19958E-04   -0.38462E-04 13328   0.111E-01    0.351E-01
DAV:  38    -0.132737780689E+04    0.26116E-03   -0.25165E-04 13472   0.932E-02    0.205E-01
DAV:  39    -0.132737785188E+04   -0.44989E-04   -0.12162E-04 13536   0.626E-02    0.254E-01
DAV:  40    -0.132737787217E+04   -0.20294E-04   -0.13022E-04 13480   0.657E-02    0.238E-01
DAV:  41    -0.132737778707E+04    0.85101E-04   -0.10112E-04 13512   0.572E-02    0.181E-01
DAV:  42    -0.132737778130E+04    0.57688E-05   -0.48585E-05 12280   0.319E-02    0.169E-01
DAV:  43    -0.132737778581E+04   -0.45106E-05   -0.45590E-05 11848   0.334E-02
  13 F= -.14255777E+04 E0= -.14248636E+04  d E =-.505178E+00
 curvature:  -6.98 expect dE=-0.927E+00 dE for cont linesearch -0.196E-01
 ZBRENT: bracketing found
 ZBRENT: interpolating
 opt :   6.4852  next Energy= -1425.595301 (dE=-0.523E+00)
 bond charge predicted
       N       E                     dE             d eps       ncg     rms          rms(c)
DAV:   1    -0.132736237283E+04    0.15408E-01   -0.83522E+01 12152   0.938E+00    0.220E+00
DAV:   2    -0.133151887153E+04   -0.41565E+01   -0.17750E+00 13336   0.688E+00    0.392E+01
DAV:   3    -0.132793230842E+04    0.35866E+01   -0.14175E+00 13272   0.702E+00    0.158E+01
DAV:   4    -0.132783038023E+04    0.10193E+00   -0.35773E-01 13408   0.312E+00    0.143E+01
DAV:   5    -0.132766410055E+04    0.16628E+00   -0.31411E-01 13296   0.312E+00    0.838E+00
DAV:   6    -0.132790944804E+04   -0.24535E+00   -0.30553E-01 13320   0.304E+00    0.138E+01
DAV:   7    -0.132759074486E+04    0.31870E+00   -0.27145E-01 13288   0.271E+00    0.677E+00
DAV:   8    -0.132751424017E+04    0.76505E-01   -0.10059E-01 13296   0.169E+00    0.452E+00
DAV:   9    -0.132750817873E+04    0.60614E-02   -0.57852E-02 13696   0.112E+00    0.414E+00
DAV:  10    -0.132752889478E+04   -0.20716E-01   -0.54800E-02 13688   0.125E+00    0.464E+00
DAV:  11    -0.132750288716E+04    0.26008E-01   -0.50713E-02 13672   0.120E+00    0.365E+00
DAV:  12    -0.132749316224E+04    0.97249E-02   -0.29982E-02 13496   0.891E-01    0.327E+00
DAV:  13    -0.132748824055E+04    0.49217E-02   -0.20838E-02 13480   0.771E-01    0.275E+00
DAV:  14    -0.132750998578E+04   -0.21745E-01   -0.23467E-02 13584   0.846E-01    0.413E+00
DAV:  15    -0.132748426481E+04    0.25721E-01   -0.23625E-02 13456   0.778E-01    0.237E+00
DAV:  16    -0.132747660265E+04    0.76622E-02   -0.79929E-03 13488   0.508E-01    0.164E+00
DAV:  17    -0.132747792935E+04   -0.13267E-02   -0.60359E-03 13568   0.408E-01    0.184E+00
DAV:  18    -0.132747664844E+04    0.12809E-02   -0.60653E-03 13552   0.420E-01    0.153E+00
DAV:  19    -0.132747355025E+04    0.30982E-02   -0.40996E-03 13560   0.389E-01    0.117E+00
DAV:  20    -0.132747277791E+04    0.77234E-03   -0.27687E-03 13752   0.285E-01    0.109E+00
DAV:  21    -0.132747356694E+04   -0.78903E-03   -0.25861E-03 13512   0.257E-01    0.116E+00
DAV:  22    -0.132747185558E+04    0.17114E-02   -0.17571E-03 13520   0.238E-01    0.752E-01
DAV:  23    -0.132747109010E+04    0.76547E-03   -0.75389E-04 13552   0.156E-01    0.595E-01
DAV:  24    -0.132747071220E+04    0.37791E-03   -0.34612E-04 13632   0.969E-02    0.396E-01
DAV:  25    -0.132747077603E+04   -0.63832E-04   -0.29581E-04 13496   0.985E-02    0.366E-01
DAV:  26    -0.132747064086E+04    0.13517E-03   -0.29005E-04 13528   0.100E-01    0.311E-01
DAV:  27    -0.132747051347E+04    0.12739E-03   -0.15001E-04 13424   0.660E-02    0.241E-01
DAV:  28    -0.132747046950E+04    0.43971E-04   -0.68379E-05 13152   0.408E-02    0.196E-01
DAV:  29    -0.132747049354E+04   -0.24034E-04   -0.58494E-05 12752   0.416E-02    0.206E-01
DAV:  30    -0.132747047897E+04    0.14562E-04   -0.74650E-05 12640   0.450E-02    0.181E-01
DAV:  31    -0.132747042056E+04    0.58413E-04   -0.42223E-05 11544   0.361E-02    0.968E-02
DAV:  32    -0.132747041810E+04    0.24668E-05   -0.12747E-05  7192   0.203E-02
  14 F= -.14255959E+04 E0= -.14248798E+04  d E =-.523341E+00
 curvature:  -6.27 expect dE=-0.640E+00 dE for cont linesearch -0.733E-04
 trial: gam= 0.73994 g(F)=  0.102E+00 g(S)=  0.000E+00 ort =-0.194E-02 (trialstep = 0.191E+01)
 search vector abs. value=  0.275E+00
 bond charge predicted
       N       E                     dE             d eps       ncg     rms          rms(c)
DAV:   1    -0.132729435344E+04    0.17607E+00   -0.19428E+02 12168   0.146E+01    0.355E+00
DAV:   2    -0.134215362691E+04   -0.14859E+02   -0.45902E+00 13328   0.135E+01    0.651E+01
DAV:   3    -0.132842724618E+04    0.13726E+02   -0.29473E+00 13416   0.133E+01    0.202E+01
DAV:   4    -0.132962265677E+04   -0.11954E+01   -0.10309E+00 13856   0.541E+00    0.345E+01
DAV:   5    -0.132779049931E+04    0.18322E+01   -0.95289E-01 13424   0.511E+00    0.111E+01
DAV:   6    -0.132859901987E+04   -0.80852E+00   -0.70627E-01 13592   0.452E+00    0.202E+01
DAV:   7    -0.132812876829E+04    0.47025E+00   -0.60454E-01 13496   0.470E+00    0.158E+01
DAV:   8    -0.132773749869E+04    0.39127E+00   -0.33686E-01 13408   0.302E+00    0.950E+00
DAV:   9    -0.132767751830E+04    0.59980E-01   -0.15738E-01 13416   0.208E+00    0.810E+00
DAV:  10    -0.132769512934E+04   -0.17611E-01   -0.15571E-01 13528   0.213E+00    0.834E+00
DAV:  11    -0.132760380564E+04    0.91324E-01   -0.14600E-01 13368   0.191E+00    0.610E+00
DAV:  12    -0.132754245044E+04    0.61355E-01   -0.73133E-02 13392   0.133E+00    0.327E+00
DAV:  13    -0.132755939829E+04   -0.16948E-01   -0.41737E-02 13448   0.110E+00    0.424E+00
DAV:  14    -0.132757690247E+04   -0.17504E-01   -0.50573E-02 13584   0.115E+00    0.487E+00
DAV:  15    -0.132755069750E+04    0.26205E-01   -0.44473E-02 13440   0.108E+00    0.346E+00
DAV:  16    -0.132754473431E+04    0.59632E-02   -0.24818E-02 13504   0.882E-01    0.330E+00
DAV:  17    -0.132754605611E+04   -0.13218E-02   -0.20385E-02 13456   0.767E-01    0.326E+00
DAV:  18    -0.132754139429E+04    0.46618E-02   -0.19375E-02 13456   0.771E-01    0.282E+00
DAV:  19    -0.132753059002E+04    0.10804E-01   -0.13845E-02 13496   0.632E-01    0.215E+00
DAV:  20    -0.132752591699E+04    0.46730E-02   -0.87100E-03 13664   0.467E-01    0.158E+00
DAV:  21    -0.132752708602E+04   -0.11690E-02   -0.59232E-03 13568   0.460E-01    0.154E+00
DAV:  22    -0.132752645814E+04    0.62789E-03   -0.52352E-03 13544   0.439E-01    0.162E+00
DAV:  23    -0.132752263002E+04    0.38281E-02   -0.38881E-03 13568   0.330E-01    0.106E+00
DAV:  24    -0.132752098015E+04    0.16499E-02   -0.15452E-03 13400   0.220E-01    0.628E-01
DAV:  25    -0.132752158447E+04   -0.60432E-03   -0.11295E-03 13360   0.188E-01    0.792E-01
DAV:  26    -0.132752156178E+04    0.22687E-04   -0.14265E-03 13368   0.190E-01    0.787E-01
DAV:  27    -0.132752036336E+04    0.11984E-02   -0.81755E-04 13488   0.160E-01    0.345E-01
DAV:  28    -0.132752019961E+04    0.16375E-03   -0.24939E-04 13296   0.856E-02    0.268E-01
DAV:  29    -0.132752044159E+04   -0.24197E-03   -0.24748E-04 13312   0.808E-02    0.427E-01
DAV:  30    -0.132752039462E+04    0.46964E-04   -0.31263E-04 13296   0.979E-02    0.347E-01
DAV:  31    -0.132752017565E+04    0.21897E-03   -0.18102E-04 13328   0.809E-02    0.244E-01
DAV:  32    -0.132752014621E+04    0.29444E-04   -0.74907E-05 13400   0.405E-02    0.218E-01
DAV:  33    -0.132752012719E+04    0.19021E-04   -0.55813E-05 12536   0.369E-02    0.179E-01
DAV:  34    -0.132752012079E+04    0.63994E-05   -0.52730E-05 12552   0.423E-02    0.151E-01
DAV:  35    -0.132752009723E+04    0.23554E-04   -0.43157E-05 11000   0.367E-02    0.135E-01
DAV:  36    -0.132752007574E+04    0.21491E-04   -0.20787E-05  7528   0.230E-02    0.889E-02
DAV:  37    -0.132752007724E+04   -0.14952E-05   -0.10120E-05  6664   0.169E-02
  15 F= -.14257586E+04 E0= -.14250472E+04  d E =-.162764E+00
 trial-energy change:   -0.162764  1 .order   -0.161622   -0.192144   -0.131101
 step:   5.0695(harm=  6.0109)  dis= 0.10327  next Energy= -1425.872261 (dE=-0.276E+00)
 bond charge predicted
       N       E                     dE             d eps       ncg     rms          rms(c)
DAV:   1    -0.132668467792E+04    0.83540E+00   -0.53226E+02 12152   0.242E+01    0.596E+00
DAV:   2    -0.136323338398E+04   -0.36549E+02   -0.11789E+01 13272   0.232E+01    0.885E+01
DAV:   3    -0.133046244475E+04    0.32771E+02   -0.95561E+00 13480   0.223E+01    0.358E+01
DAV:   4    -0.133355509926E+04   -0.30927E+01   -0.25516E+00 13600   0.953E+00    0.545E+01
DAV:   5    -0.132800450963E+04    0.55506E+01   -0.27027E+00 13448   0.865E+00    0.164E+01
DAV:   6    -0.132979011014E+04   -0.17856E+01   -0.17210E+00 13616   0.709E+00    0.288E+01
DAV:   7    -0.132927899147E+04    0.51112E+00   -0.15074E+00 13512   0.743E+00    0.258E+01
DAV:   8    -0.132821824530E+04    0.10607E+01   -0.85614E-01 13424   0.534E+00    0.175E+01
DAV:   9    -0.132792627154E+04    0.29197E+00   -0.44515E-01 13528   0.367E+00    0.142E+01
DAV:  10    -0.132790154950E+04    0.24722E-01   -0.40855E-01 13528   0.346E+00    0.132E+01
DAV:  11    -0.132768333945E+04    0.21821E+00   -0.33619E-01 13456   0.317E+00    0.100E+01
DAV:  12    -0.132753062952E+04    0.15271E+00   -0.20311E-01 13376   0.226E+00    0.605E+00
DAV:  13    -0.132756719769E+04   -0.36568E-01   -0.12107E-01 13456   0.183E+00    0.733E+00
DAV:  14    -0.132761711192E+04   -0.49914E-01   -0.13837E-01 13504   0.195E+00    0.845E+00
DAV:  15    -0.132752768951E+04    0.89422E-01   -0.12157E-01 13448   0.183E+00    0.562E+00
DAV:  16    -0.132750826497E+04    0.19425E-01   -0.71480E-02 13408   0.149E+00    0.484E+00
DAV:  17    -0.132755175609E+04   -0.43491E-01   -0.68171E-02 13424   0.146E+00    0.650E+00
DAV:  18    -0.132752134517E+04    0.30411E-01   -0.68402E-02 13448   0.146E+00    0.512E+00
DAV:  19    -0.132748717615E+04    0.34169E-01   -0.40897E-02 13488   0.117E+00    0.393E+00
DAV:  20    -0.132747970220E+04    0.74740E-02   -0.29705E-02 13712   0.872E-01    0.354E+00
DAV:  21    -0.132747794341E+04    0.17588E-02   -0.23570E-02 13632   0.875E-01    0.307E+00
DAV:  22    -0.132746767166E+04    0.10272E-01   -0.17164E-02 13592   0.810E-01    0.250E+00
DAV:  23    -0.132745925633E+04    0.84153E-02   -0.12157E-02 13616   0.613E-01    0.196E+00
DAV:  24    -0.132745441811E+04    0.48382E-02   -0.65750E-03 13496   0.417E-01    0.122E+00
DAV:  25    -0.132745642977E+04   -0.20117E-02   -0.46921E-03 13440   0.388E-01    0.146E+00
DAV:  26    -0.132745583775E+04    0.59202E-03   -0.49413E-03 13448   0.371E-01    0.142E+00
DAV:  27    -0.132745214620E+04    0.36916E-02   -0.29127E-03 13520   0.285E-01    0.709E-01
DAV:  28    -0.132745141597E+04    0.73023E-03   -0.10096E-03 13472   0.170E-01    0.497E-01
DAV:  29    -0.132745241858E+04   -0.10026E-02   -0.93571E-04 13440   0.159E-01    0.842E-01
DAV:  30    -0.132745218314E+04    0.23544E-03   -0.12920E-03 13488   0.189E-01    0.687E-01
DAV:  31    -0.132745149711E+04    0.68603E-03   -0.78145E-04 13496   0.159E-01    0.539E-01
DAV:  32    -0.132745140236E+04    0.94744E-04   -0.37736E-04 13424   0.948E-02    0.499E-01
DAV:  33    -0.132745138071E+04    0.21654E-04   -0.36883E-04 13368   0.936E-02    0.449E-01
DAV:  34    -0.132745115941E+04    0.22130E-03   -0.32759E-04 13344   0.103E-01    0.281E-01
DAV:  35    -0.132745105630E+04    0.10312E-03   -0.16728E-04 13376   0.783E-02    0.265E-01
DAV:  36    -0.132745104808E+04    0.82178E-05   -0.93769E-05 13216   0.461E-02    0.259E-01
DAV:  37    -0.132745104455E+04    0.35244E-05   -0.72206E-05 13072   0.445E-02    0.240E-01
DAV:  38    -0.132745097290E+04    0.71657E-04   -0.46882E-05 12800   0.389E-02    0.153E-01
DAV:  39    -0.132745095349E+04    0.19406E-04   -0.20078E-05  8296   0.237E-02    0.121E-01
DAV:  40    -0.132745094965E+04    0.38422E-05   -0.12099E-05  6768   0.162E-02
  16 F= -.14258790E+04 E0= -.14251754E+04  d E =-.283172E+00
 curvature:  -7.79 expect dE=-0.395E+00 dE for cont linesearch -0.914E-03
 trial: gam= 0.09164 g(F)=  0.508E-01 g(S)=  0.000E+00 ort = 0.568E-02 (trialstep = 0.254E+01)
 search vector abs. value=  0.541E-01
 bond charge predicted
       N       E                     dE             d eps       ncg     rms          rms(c)
DAV:   1    -0.132741471552E+04    0.36238E-01   -0.67361E+01 12160   0.846E+00    0.247E+00
DAV:   2    -0.133102639823E+04   -0.36117E+01   -0.16627E+00 13344   0.630E+00    0.368E+01
DAV:   3    -0.132857947166E+04    0.24469E+01   -0.11875E+00 13600   0.713E+00    0.242E+01
DAV:   4    -0.132780079624E+04    0.77868E+00   -0.53330E-01 13352   0.379E+00    0.121E+01
DAV:   5    -0.132782100473E+04   -0.20208E-01   -0.34055E-01 13272   0.325E+00    0.111E+01
DAV:   6    -0.132834865829E+04   -0.52765E+00   -0.45532E-01 13344   0.380E+00    0.188E+01
DAV:   7    -0.132781317348E+04    0.53548E+00   -0.43074E-01 13368   0.360E+00    0.104E+01
DAV:   8    -0.132764498037E+04    0.16819E+00   -0.15660E-01 13402   0.231E+00    0.746E+00
DAV:   9    -0.132762883850E+04    0.16142E-01   -0.10997E-01 13352   0.170E+00    0.687E+00
DAV:  10    -0.132763256743E+04   -0.37289E-02   -0.99236E-02 13416   0.182E+00    0.634E+00
DAV:  11    -0.132757834277E+04    0.54225E-01   -0.87700E-02 13368   0.166E+00    0.519E+00
DAV:  12    -0.132754713123E+04    0.31212E-01   -0.43922E-02 13328   0.108E+00    0.390E+00
DAV:  13    -0.132755431386E+04   -0.71826E-02   -0.29281E-02 13265   0.901E-01    0.422E+00
DAV:  14    -0.132758691725E+04   -0.32603E-01   -0.39449E-02 13322   0.108E+00    0.556E+00
DAV:  15    -0.132754588730E+04    0.41030E-01   -0.37015E-02 13314   0.104E+00    0.332E+00
DAV:  16    -0.132753035708E+04    0.15530E-01   -0.15075E-02 13250   0.708E-01    0.240E+00
DAV:  17    -0.132753110926E+04   -0.75218E-03   -0.95241E-03 13320   0.522E-01    0.251E+00
DAV:  18    -0.132753113529E+04   -0.26027E-04   -0.10598E-02 13384   0.581E-01    0.231E+00
DAV:  19    -0.132752520081E+04    0.59345E-02   -0.93307E-03 13304   0.518E-01    0.189E+00
DAV:  20    -0.132752068388E+04    0.45169E-02   -0.56253E-03 13264   0.390E-01    0.138E+00
DAV:  21    -0.132751916283E+04    0.15211E-02   -0.26999E-03 13296   0.289E-01    0.109E+00
DAV:  22    -0.132751914399E+04    0.18836E-04   -0.17035E-03 13376   0.231E-01    0.109E+00
DAV:  23    -0.132751789997E+04    0.12440E-02   -0.15892E-03 13288   0.201E-01    0.794E-01
DAV:  24    -0.132751706225E+04    0.83772E-03   -0.77666E-04 13440   0.155E-01    0.489E-01
DAV:  25    -0.132751722140E+04   -0.15915E-03   -0.49186E-04 13312   0.123E-01    0.533E-01
DAV:  26    -0.132751726866E+04   -0.47263E-04   -0.65265E-04 13416   0.129E-01    0.522E-01
DAV:  27    -0.132751677040E+04    0.49826E-03   -0.44369E-04 13320   0.120E-01    0.284E-01
DAV:  28    -0.132751662558E+04    0.14483E-03   -0.16705E-04 13368   0.760E-02    0.181E-01
DAV:  29    -0.132751672012E+04   -0.94548E-04   -0.13114E-04 13408   0.662E-02    0.259E-01
DAV:  30    -0.132751682746E+04   -0.10733E-03   -0.20179E-04 13424   0.739E-02    0.350E-01
DAV:  31    -0.132751659879E+04    0.22867E-03   -0.14216E-04 13424   0.656E-02    0.139E-01
DAV:  32    -0.132751656759E+04    0.31198E-04   -0.33809E-05 11944   0.336E-02    0.936E-02
DAV:  33    -0.132751657184E+04   -0.42561E-05   -0.21226E-05  8560   0.234E-02
  17 F= -.14259841E+04 E0= -.14252826E+04  d E =-.105113E+00
 trial-energy change:   -0.105113  1 .order   -0.105209   -0.130322   -0.080096
 step:   6.5947(harm=  6.5947)  dis= 0.05274  next Energy= -1426.048103 (dE=-0.169E+00)
 bond charge predicted
       N       E                     dE             d eps       ncg     rms          rms(c)
DAV:   1    -0.132722076202E+04    0.29581E+00   -0.17135E+02 12152   0.135E+01    0.398E+00
DAV:   2    -0.133528399644E+04   -0.80632E+01   -0.39251E+00 13304   0.986E+00    0.508E+01
DAV:   3    -0.132903056765E+04    0.62534E+01   -0.24148E+00 13400   0.109E+01    0.289E+01
DAV:   4    -0.132871365468E+04    0.31691E+00   -0.11472E+00 13304   0.556E+00    0.261E+01
DAV:   5    -0.132821302981E+04    0.50062E+00   -0.94108E-01 13312   0.532E+00    0.178E+01
DAV:   6    -0.132930869718E+04   -0.10957E+01   -0.10320E+00 13376   0.573E+00    0.259E+01
DAV:   7    -0.132847167591E+04    0.83702E+00   -0.85875E-01 13400   0.568E+00    0.180E+01
DAV:   8    -0.132793542460E+04    0.53625E+00   -0.44535E-01 13373   0.406E+00    0.131E+01
DAV:   9    -0.132782735859E+04    0.10807E+00   -0.29920E-01 13292   0.291E+00    0.114E+01
DAV:  10    -0.132785738679E+04   -0.30028E-01   -0.24029E-01 13292   0.293E+00    0.111E+01
DAV:  11    -0.132769457867E+04    0.16281E+00   -0.21267E-01 13332   0.271E+00    0.834E+00
DAV:  12    -0.132756626643E+04    0.12831E+00   -0.11192E-01 13366   0.183E+00    0.476E+00
DAV:  13    -0.132757458812E+04   -0.83217E-02   -0.61330E-02 13358   0.132E+00    0.524E+00
DAV:  14    -0.132769824219E+04   -0.12365E+00   -0.98380E-02 13334   0.175E+00    0.892E+00
DAV:  15    -0.132761564213E+04    0.82600E-01   -0.11167E-01 13462   0.182E+00    0.602E+00
DAV:  16    -0.132755692398E+04    0.58718E-01   -0.59496E-02 13318   0.140E+00    0.405E+00
DAV:  17    -0.132754466178E+04    0.12262E-01   -0.33363E-02 13294   0.920E-01    0.342E+00
DAV:  18    -0.132755616253E+04   -0.11501E-01   -0.28260E-02 13410   0.935E-01    0.394E+00
DAV:  19    -0.132755102349E+04    0.51390E-02   -0.27599E-02 13362   0.924E-01    0.379E+00
DAV:  20    -0.132753285685E+04    0.18167E-01   -0.20164E-02 13298   0.751E-01    0.275E+00
DAV:  21    -0.132752266846E+04    0.10188E-01   -0.84825E-03 13362   0.517E-01    0.184E+00
DAV:  22    -0.132752257550E+04    0.92962E-04   -0.45939E-03 13458   0.380E-01    0.170E+00
DAV:  23    -0.132752298455E+04   -0.40905E-03   -0.60220E-03 13400   0.389E-01    0.176E+00
DAV:  24    -0.132751784516E+04    0.51394E-02   -0.40128E-03 13384   0.342E-01    0.877E-01
DAV:  25    -0.132751671028E+04    0.11349E-02   -0.13715E-03 13313   0.200E-01    0.610E-01
DAV:  26    -0.132751672535E+04   -0.15065E-04   -0.93634E-04 13456   0.147E-01    0.596E-01
DAV:  27    -0.132751706276E+04   -0.33741E-03   -0.96468E-04 13369   0.171E-01    0.630E-01
DAV:  28    -0.132751628380E+04    0.77895E-03   -0.74476E-04 13416   0.166E-01    0.368E-01
DAV:  29    -0.132751613839E+04    0.14541E-03   -0.36727E-04 13273   0.106E-01    0.337E-01
DAV:  30    -0.132751618491E+04   -0.46520E-04   -0.30946E-04 13368   0.877E-02    0.357E-01
DAV:  31    -0.132751613073E+04    0.54183E-04   -0.24417E-04 13400   0.874E-02    0.293E-01
DAV:  32    -0.132751597898E+04    0.15175E-03   -0.15856E-04 13448   0.698E-02    0.193E-01
DAV:  33    -0.132751594299E+04    0.35990E-04   -0.82056E-05 13456   0.441E-02    0.148E-01
DAV:  34    -0.132751594706E+04   -0.40699E-05   -0.65845E-05 13032   0.425E-02    0.137E-01
DAV:  35    -0.132751596874E+04   -0.21686E-04   -0.59183E-05 12864   0.417E-02    0.186E-01
DAV:  36    -0.132751591431E+04    0.54433E-04   -0.45079E-05 10240   0.338E-02    0.977E-02
DAV:  37    -0.132751590700E+04    0.73118E-05   -0.13810E-05  6920   0.206E-02    0.797E-02
DAV:  38    -0.132751591092E+04   -0.39230E-05   -0.11865E-05  6576   0.187E-02
  18 F= -.14260480E+04 E0= -.14253500E+04  d E =-.169009E+00
 curvature:  -3.48 expect dE=-0.924E-01 dE for cont linesearch -0.602E-06
 trial: gam= 0.53008 g(F)=  0.266E-01 g(S)=  0.000E+00 ort = 0.967E-04 (trialstep = 0.335E+01)
 search vector abs. value=  0.419E-01
 bond charge predicted
       N       E                     dE             d eps       ncg     rms          rms(c)
DAV:   1    -0.132738392455E+04    0.13198E+00   -0.89348E+01 12152   0.979E+00    0.384E+00
DAV:   2    -0.133138112077E+04   -0.39972E+01   -0.22272E+00 13272   0.693E+00    0.381E+01
DAV:   3    -0.132798502477E+04    0.33961E+01   -0.14052E+00 13246   0.761E+00    0.146E+01
DAV:   4    -0.133047339941E+04   -0.24884E+01   -0.71042E-01 13344   0.558E+00    0.401E+01
DAV:   5    -0.132835622131E+04    0.21172E+01   -0.10734E+00 13424   0.617E+00    0.164E+01
DAV:   6    -0.132922376236E+04   -0.86754E+00   -0.80423E-01 13530   0.603E+00    0.248E+01
DAV:   7    -0.132833837842E+04    0.88538E+00   -0.79587E-01 13402   0.580E+00    0.163E+01
DAV:   8    -0.132784571905E+04    0.49266E+00   -0.38912E-01 13350   0.393E+00    0.111E+01
DAV:   9    -0.132771737182E+04    0.12835E+00   -0.25264E-01 13454   0.271E+00    0.889E+00
DAV:  10    -0.132770226788E+04    0.15104E-01   -0.19768E-01 13502   0.246E+00    0.796E+00
DAV:  11    -0.132762106359E+04    0.81204E-01   -0.13224E-01 13382   0.207E+00    0.627E+00
DAV:  12    -0.132755536056E+04    0.65703E-01   -0.73108E-02 13350   0.142E+00    0.390E+00
DAV:  13    -0.132753276615E+04    0.22594E-01   -0.35890E-02 13374   0.959E-01    0.248E+00
DAV:  14    -0.132754856007E+04   -0.15794E-01   -0.26822E-02 13388   0.871E-01    0.357E+00
DAV:  15    -0.132754724712E+04    0.13129E-02   -0.32881E-02 13316   0.913E-01    0.332E+00
DAV:  16    -0.132752911809E+04    0.18129E-01   -0.20600E-02 13348   0.805E-01    0.213E+00
DAV:  17    -0.132753315648E+04   -0.40384E-02   -0.13138E-02 13294   0.633E-01    0.265E+00
DAV:  18    -0.132753541107E+04   -0.22546E-02   -0.14868E-02 13418   0.658E-01    0.262E+00
DAV:  19    -0.132752816572E+04    0.72454E-02   -0.12444E-02 13354   0.635E-01    0.192E+00
DAV:  20    -0.132752104549E+04    0.71202E-02   -0.74559E-03 13410   0.481E-01    0.124E+00
DAV:  21    -0.132751935342E+04    0.16921E-02   -0.34976E-03 13442   0.283E-01    0.888E-01
DAV:  22    -0.132752113334E+04   -0.17799E-02   -0.30758E-03 13440   0.304E-01    0.115E+00
DAV:  23    -0.132752188974E+04   -0.75639E-03   -0.32483E-03 13400   0.307E-01    0.140E+00
DAV:  24    -0.132751865654E+04    0.32332E-02   -0.21939E-03 13368   0.241E-01    0.707E-01
DAV:  25    -0.132751798160E+04    0.67494E-03   -0.55886E-04 13360   0.137E-01    0.490E-01
DAV:  26    -0.132751837507E+04   -0.39347E-03   -0.54762E-04 13352   0.139E-01    0.574E-01
DAV:  27    -0.132751852836E+04   -0.15328E-03   -0.83525E-04 13384   0.150E-01    0.697E-01
DAV:  28    -0.132751789650E+04    0.63185E-03   -0.50479E-04 13320   0.115E-01    0.475E-01
DAV:  29    -0.132751783798E+04    0.58527E-04   -0.18871E-04 13264   0.725E-02    0.450E-01
DAV:  30    -0.132751786100E+04   -0.23028E-04   -0.23245E-04 13312   0.764E-02    0.437E-01
DAV:  31    -0.132751756494E+04    0.29606E-03   -0.19054E-04 13360   0.761E-02    0.185E-01
DAV:  32    -0.132751748227E+04    0.82671E-04   -0.63861E-05 13112   0.490E-02    0.826E-02
DAV:  33    -0.132751749021E+04   -0.79337E-05   -0.36830E-05 11824   0.321E-02    0.963E-02
DAV:  34    -0.132751751858E+04   -0.28371E-04   -0.48365E-05 11288   0.333E-02    0.151E-01
DAV:  35    -0.132751748098E+04    0.37600E-04   -0.38784E-05  9208   0.293E-02    0.757E-02
DAV:  36    -0.132751747293E+04    0.80501E-05   -0.10926E-05  6368   0.170E-02    0.520E-02
DAV:  37    -0.132751747252E+04    0.41001E-06   -0.57921E-06  6320   0.111E-02
  19 F= -.14261059E+04 E0= -.14254100E+04  d E =-.578839E-01
 trial-energy change:   -0.057884  1 .order   -0.057161   -0.089230   -0.025092
 step:   4.5533(harm=  4.6636)  dis= 0.02910  next Energy= -1426.110451 (dE=-0.624E-01)
 bond charge predicted
       N       E                     dE             d eps       ncg     rms          rms(c)
DAV:   1    -0.132748630767E+04    0.31165E-01   -0.11475E+01 12160   0.350E+00    0.133E+00
DAV:   2    -0.132803424690E+04   -0.54794E+00   -0.35227E-01 13280   0.249E+00    0.151E+01
DAV:   3    -0.132757113505E+04    0.46311E+00   -0.30851E-01 13142   0.270E+00    0.597E+00
DAV:   4    -0.132773101153E+04   -0.15988E+00   -0.56766E-02 13234   0.173E+00    0.118E+01
DAV:   5    -0.132759854287E+04    0.13247E+00   -0.86931E-02 13298   0.197E+00    0.582E+00
DAV:   6    -0.132771380459E+04   -0.11526E+00   -0.12685E-01 13446   0.208E+00    0.906E+00
