         264
 Energy:  -1497.4733517000000      en  -1384.1567617000001      edisp  -113.31659000000001     
 X   0.00000000       0.00000000       0.00000000    
 X   14.2799997       0.00000000       0.00000000    
 X   0.00000000       14.2799997       0.00000000    
 X   0.00000000       0.00000000       14.2799997    
 X   14.2799997       14.2799997       0.00000000    
 X   14.2799997       0.00000000       14.2799997    
 X   0.00000000       14.2799997       14.2799997    
 X   14.2799997       14.2799997       14.2799997    
 Ni   0.00000000       0.00000000       0.00000000    
 Ni   0.00000000       1.78499997       1.78499997    
 Ni   1.78499997       0.00000000       1.78499997    
 Ni   1.78499997       1.78499997       0.00000000    
 Ni   0.00000000       0.00000000       3.56999993    
 Ni   0.00000000       1.78499997       5.35500002    
 Ni   1.78499997       0.00000000       5.35500002    
 Ni   1.78499997       1.78499997       3.56999993    
 Ni   0.00000000       0.00000000       7.13999987    
 Ni   0.00000000       1.78499997       8.92500019    
 Ni   1.78499997       0.00000000       8.92500019    
 Ni   1.78499997       1.78499997       7.13999987    
 Ni   0.00000000       0.00000000       10.7100000    
 Ni   0.00000000       1.78499997       12.4949999    
 Ni   1.78499997       0.00000000       12.4949999    
 Ni   1.78499997       1.78499997       10.7100000    
 Ni   0.00000000       3.56999993       0.00000000    
 Ni   0.00000000       5.35500002       1.78499997    
 Ni   1.78499997       3.56999993       1.78499997    
 Ni   1.78499997       5.35500002       0.00000000    
 Ni   0.00000000       3.56999993       3.56999993    
 Ni   0.00000000       5.35500002       5.35500002    
 Ni   1.78499997       3.56999993       5.35500002    
 Ni   1.78499997       5.35500002       3.56999993    
 Ni   0.00000000       3.56999993       7.13999987    
 Ni   0.00000000       5.35500002       8.92500019    
 Ni   1.78499997       3.56999993       8.92500019    
 Ni   1.78499997       5.35500002       7.13999987    
 Ni   0.00000000       3.56999993       10.7100000    
 Ni   0.00000000       5.35500002       12.4949999    
 Ni   1.78499997       3.56999993       12.4949999    
 Ni   1.78499997       5.35500002       10.7100000    
 Ni   0.00000000       7.13999987       0.00000000    
 Ni   0.00000000       8.92500019       1.78499997    
 Ni   1.78499997       7.13999987       1.78499997    
 Ni   1.78499997       8.92500019       0.00000000    
 Ni   0.00000000       7.13999987       3.56999993    
 Ni   0.00000000       8.92500019       5.35500002    
 Ni   1.78499997       7.13999987       5.35500002    
 Ni   1.78499997       8.92500019       3.56999993    
 Ni   0.00000000       7.13999987       7.13999987    
 Ni   0.00000000       8.92500019       8.92500019    
 Ni   1.78499997       7.13999987       8.92500019    
 Ni   1.78499997       8.92500019       7.13999987    
 Ni   0.00000000       7.13999987       10.7100000    
 Ni   0.00000000       8.92500019       12.4949999    
 Ni   1.78499997       7.13999987       12.4949999    
 Ni   1.78499997       8.92500019       10.7100000    
 Ni   0.00000000       10.7100000       0.00000000    
 Ni   0.00000000       12.4949999       1.78499997    
 Ni   1.78499997       10.7100000       1.78499997    
 Ni   1.78499997       12.4949999       0.00000000    
 Ni   0.00000000       10.7100000       3.56999993    
 Ni   0.00000000       12.4949999       5.35500002    
 Ni   1.78499997       10.7100000       5.35500002    
 Ni   1.78499997       12.4949999       3.56999993    
 Ni   0.00000000       10.7100000       7.13999987    
 Ni   0.00000000       12.4949999       8.92500019    
 Ni   1.78499997       10.7100000       8.92500019    
 Ni   1.78499997       12.4949999       7.13999987    
 Ni   0.00000000       10.7100000       10.7100000    
 Ni   0.00000000       12.4949999       12.4949999    
 Ni   1.78499997       10.7100000       12.4949999    
 Ni   1.78499997       12.4949999       10.7100000    
 Ni   3.56999993       0.00000000       0.00000000    
 Ni   3.56999993       1.78499997       1.78499997    
 Ni   5.35500002       0.00000000       1.78499997    
 Ni   5.35500002       1.78499997       0.00000000    
 Ni   3.56999993       0.00000000       3.56999993    
 Ni   3.56999993       1.78499997       5.35500002    
 Ni   5.35500002       0.00000000       5.35500002    
 Ni   5.35500002       1.78499997       3.56999993    
 Ni   3.56999993       0.00000000       7.13999987    
 Ni   3.56999993       1.78499997       8.92500019    
 Ni   5.35500002       0.00000000       8.92500019    
 Ni   5.35500002       1.78499997       7.13999987    
 Ni   3.56999993       0.00000000       10.7100000    
 Ni   3.56999993       1.78499997       12.4949999    
 Ni   5.35500002       0.00000000       12.4949999    
 Ni   5.35500002       1.78499997       10.7100000    
 Ni   3.56999993       3.56999993       0.00000000    
 Ni   3.56999993       5.35500002       1.78499997    
 Ni   5.35500002       3.56999993       1.78499997    
 Ni   5.35500002       5.35500002       0.00000000    
 Ni   3.56999993       3.56999993       3.56999993    
 Ni   3.56999993       5.35500002       5.35500002    
 Ni   5.35500002       3.56999993       5.35500002    
 Ni   5.35500002       5.35500002       3.56999993    
 Ni   3.56999993       3.56999993       7.13999987    
 Ni   3.56999993       5.35500002       8.92500019    
 Ni   5.35500002       3.56999993       8.92500019    
 Ni   5.35500002       5.35500002       7.13999987    
 Ni   3.56999993       3.56999993       10.7100000    
 Ni   3.56999993       5.35500002       12.4949999    
 Ni   5.35500002       3.56999993       12.4949999    
 Ni   5.35500002       5.35500002       10.7100000    
 Ni   3.56999993       7.13999987       0.00000000    
 Ni   3.56999993       8.92500019       1.78499997    
 Ni   5.35500002       7.13999987       1.78499997    
 Ni   5.35500002       8.92500019       0.00000000    
 Ni   3.56999993       7.13999987       3.56999993    
 Ni   3.56999993       8.92500019       5.35500002    
 Ni   5.35500002       7.13999987       5.35500002    
 Ni   5.35500002       8.92500019       3.56999993    
 Ni   3.56999993       7.13999987       7.13999987    
 Ni   3.56999993       8.92500019       8.92500019    
 Ni   5.35500002       7.13999987       8.92500019    
 Ni   5.35500002       8.92500019       7.13999987    
 Ni   3.56999993       7.13999987       10.7100000    
 Ni   3.56999993       8.92500019       12.4949999    
 Ni   5.35500002       7.13999987       12.4949999    
 Ni   5.35500002       8.92500019       10.7100000    
 Ni   3.56999993       10.7100000       0.00000000    
 Ni   3.56999993       12.4949999       1.78499997    
 Ni   5.35500002       10.7100000       1.78499997    
 Ni   5.35500002       12.4949999       0.00000000    
 Ni   3.56999993       10.7100000       3.56999993    
 Ni   3.56999993       12.4949999       5.35500002    
 Ni   5.35500002       10.7100000       5.35500002    
 Ni   5.35500002       12.4949999       3.56999993    
 Ni   3.56999993       10.7100000       7.13999987    
 Ni   3.56999993       12.4949999       8.92500019    
 Ni   5.35500002       10.7100000       8.92500019    
 Ni   5.35500002       12.4949999       7.13999987    
 Ni   3.56999993       10.7100000       10.7100000    
 Ni   3.56999993       12.4949999       12.4949999    
 Ni   5.35500002       10.7100000       12.4949999    
 Ni   5.35500002       12.4949999       10.7100000    
 Ni   7.13999987       0.00000000       0.00000000    
 Ni   7.13999987       1.78499997       1.78499997    
 Ni   8.92500019       0.00000000       1.78499997    
 Ni   8.92500019       1.78499997       0.00000000    
 Ni   7.13999987       0.00000000       3.56999993    
 Ni   7.13999987       1.78499997       5.35500002    
 Ni   8.92500019       0.00000000       5.35500002    
 Ni   8.92500019       1.78499997       3.56999993    
 Ni   7.13999987       0.00000000       7.13999987    
 Ni   7.13999987       1.78499997       8.92500019    
 Ni   8.92500019       0.00000000       8.92500019    
 Ni   8.92500019       1.78499997       7.13999987    
 Ni   7.13999987       0.00000000       10.7100000    
 Ni   7.13999987       1.78499997       12.4949999    
 Ni   8.92500019       0.00000000       12.4949999    
 Ni   8.92500019       1.78499997       10.7100000    
 Ni   7.13999987       3.56999993       0.00000000    
 Ni   7.13999987       5.35500002       1.78499997    
 Ni   8.92500019       3.56999993       1.78499997    
 Ni   8.92500019       5.35500002       0.00000000    
 Ni   7.13999987       3.56999993       3.56999993    
 Ni   7.13999987       5.35500002       5.35500002    
 Ni   8.92500019       3.56999993       5.35500002    
 Ni   8.92500019       5.35500002       3.56999993    
 Ni   7.13999987       3.56999993       7.13999987    
 Ni   7.13999987       5.35500002       8.92500019    
 Ni   8.92500019       3.56999993       8.92500019    
 Ni   8.92500019       5.35500002       7.13999987    
 Ni   7.13999987       3.56999993       10.7100000    
 Ni   7.13999987       5.35500002       12.4949999    
 Ni   8.92500019       3.56999993       12.4949999    
 Ni   8.92500019       5.35500002       10.7100000    
 Ni   7.13999987       7.13999987       0.00000000    
 Ni   7.13999987       8.92500019       1.78499997    
 Ni   8.92500019       7.13999987       1.78499997    
 Ni   8.92500019       8.92500019       0.00000000    
 Ni   7.13999987       7.13999987       3.56999993    
 Ni   7.13999987       8.92500019       5.35500002    
 Ni   8.92500019       7.13999987       5.35500002    
 Ni   8.92500019       8.92500019       3.56999993    
 Ni   7.13999987       7.13999987       7.13999987    
 Ni   7.13999987       8.92500019       8.92500019    
 Ni   8.92500019       7.13999987       8.92500019    
 Ni   8.92500019       8.92500019       7.13999987    
 Ni   7.13999987       7.13999987       10.7100000    
 Ni   7.13999987       8.92500019       12.4949999    
 Ni   8.92500019       7.13999987       12.4949999    
 Ni   8.92500019       8.92500019       10.7100000    
 Ni   7.13999987       10.7100000       0.00000000    
 Ni   7.13999987       12.4949999       1.78499997    
 Ni   8.92500019       10.7100000       1.78499997    
 Ni   8.92500019       12.4949999       0.00000000    
 Ni   7.13999987       10.7100000       3.56999993    
 Ni   7.13999987       12.4949999       5.35500002    
 Ni   8.92500019       10.7100000       5.35500002    
 Ni   8.92500019       12.4949999       3.56999993    
 Ni   7.13999987       10.7100000       7.13999987    
 Ni   7.13999987       12.4949999       8.92500019    
 Ni   8.92500019       10.7100000       8.92500019    
 Ni   8.92500019       12.4949999       7.13999987    
 Ni   7.13999987       10.7100000       10.7100000    
 Ni   7.13999987       12.4949999       12.4949999    
 Ni   8.92500019       10.7100000       12.4949999    
 Ni   8.92500019       12.4949999       10.7100000    
 Ni   10.7100000       0.00000000       0.00000000    
 Ni   10.7100000       1.78499997       1.78499997    
 Ni   12.4949999       0.00000000       1.78499997    
 Ni   12.4949999       1.78499997       0.00000000    
 Ni   10.7100000       0.00000000       3.56999993    
 Ni   10.7100000       1.78499997       5.35500002    
 Ni   12.4949999       0.00000000       5.35500002    
 Ni   12.4949999       1.78499997       3.56999993    
 Ni   10.7100000       0.00000000       7.13999987    
 Ni   10.7100000       1.78499997       8.92500019    
 Ni   12.4949999       0.00000000       8.92500019    
 Ni   12.4949999       1.78499997       7.13999987    
 Ni   10.7100000       0.00000000       10.7100000    
 Ni   10.7100000       1.78499997       12.4949999    
 Ni   12.4949999       0.00000000       12.4949999    
 Ni   12.4949999       1.78499997       10.7100000    
 Ni   10.7100000       3.56999993       0.00000000    
 Ni   10.7100000       5.35500002       1.78499997    
 Ni   12.4949999       3.56999993       1.78499997    
 Ni   12.4949999       5.35500002       0.00000000    
 Ni   10.7100000       3.56999993       3.56999993    
 Ni   10.7100000       5.35500002       5.35500002    
 Ni   12.4949999       3.56999993       5.35500002    
 Ni   12.4949999       5.35500002       3.56999993    
 Ni   10.7100000       3.56999993       7.13999987    
 Ni   10.7100000       5.35500002       8.92500019    
 Ni   12.4949999       3.56999993       8.92500019    
 Ni   12.4949999       5.35500002       7.13999987    
 Ni   10.7100000       3.56999993       10.7100000    
 Ni   10.7100000       5.35500002       12.4949999    
 Ni   12.4949999       3.56999993       12.4949999    
 Ni   12.4949999       5.35500002       10.7100000    
 Ni   10.7100000       7.13999987       0.00000000    
 Ni   10.7100000       8.92500019       1.78499997    
 Ni   12.4949999       7.13999987       1.78499997    
 Ni   12.4949999       8.92500019       0.00000000    
 Ni   10.7100000       7.13999987       3.56999993    
 Ni   10.7100000       8.92500019       5.35500002    
 Ni   12.4949999       7.13999987       5.35500002    
 Ni   12.4949999       8.92500019       3.56999993    
 Ni   10.7100000       7.13999987       7.13999987    
 Ni   10.7100000       8.92500019       8.92500019    
 Ni   12.4949999       7.13999987       8.92500019    
 Ni   12.4949999       8.92500019       7.13999987    
 Ni   10.7100000       7.13999987       10.7100000    
 Ni   10.7100000       8.92500019       12.4949999    
 Ni   12.4949999       7.13999987       12.4949999    
 Ni   12.4949999       8.92500019       10.7100000    
 Ni   10.7100000       10.7100000       0.00000000    
 Ni   10.7100000       12.4949999       1.78499997    
 Ni   12.4949999       10.7100000       1.78499997    
 Ni   12.4949999       12.4949999       0.00000000    
 Ni   10.7100000       10.7100000       3.56999993    
 Ni   10.7100000       12.4949999       5.35500002    
 Ni   12.4949999       10.7100000       5.35500002    
 Ni   12.4949999       12.4949999       3.56999993    
 Ni   10.7100000       10.7100000       7.13999987    
 Ni   10.7100000       12.4949999       8.92500019    
 Ni   12.4949999       10.7100000       8.92500019    
 Ni   12.4949999       12.4949999       7.13999987    
 Ni   10.7100000       10.7100000       10.7100000    
 Ni   10.7100000       12.4949999       12.4949999    
 Ni   12.4949999       10.7100000       12.4949999    
 Ni   12.4949999       12.4949999       10.7100000    
