       N       E                     dE             d eps       ncg     rms          rms(c)
DAV:   1     0.238902428833E+05    0.23890E+05   -0.99323E+05 12432   0.162E+03
DAV:   2     0.305417960272E+03   -0.23585E+05   -0.22925E+05 12288   0.499E+02
DAV:   3    -0.143506685775E+04   -0.17405E+04   -0.14641E+04 12800   0.165E+02
DAV:   4    -0.163396446129E+04   -0.19890E+03   -0.16933E+03 21128   0.491E+01
DAV:   5    -0.164090344116E+04   -0.69390E+01   -0.67768E+01 16512   0.113E+01    0.141E+02
DAV:   6    -0.149880472798E+04    0.14210E+03   -0.32799E+03 13024   0.104E+02    0.137E+02
DAV:   7    -0.138738314694E+04    0.11142E+03   -0.49206E+02 12584   0.443E+01    0.291E+01
DAV:   8    -0.138575469171E+04    0.16285E+01   -0.38810E+01 15360   0.694E+00    0.124E+01
DAV:   9    -0.138431823499E+04    0.14365E+01   -0.64706E+00 13064   0.455E+00    0.362E+00
DAV:  10    -0.138415255188E+04    0.16568E+00   -0.12289E+00 13136   0.234E+00    0.102E+00
DAV:  11    -0.138415836131E+04   -0.58094E-02   -0.64104E-02 17072   0.436E-01    0.369E-01
DAV:  12    -0.138415666114E+04    0.17002E-02   -0.18264E-02 13344   0.243E-01    0.812E-02
DAV:  13    -0.138415676115E+04   -0.10001E-03   -0.16666E-03 16128   0.694E-02    0.188E-02
DAV:  14    -0.138415676682E+04   -0.56754E-05   -0.93909E-05 19192   0.999E-03    0.710E-03
DAV:  15    -0.138415676370E+04    0.31222E-05   -0.78769E-06 13784   0.500E-03    0.136E-03
DAV:  16    -0.138415676141E+04    0.22918E-05   -0.59623E-07 10752   0.139E-03    0.119E-03
DAV:  17    -0.138415676155E+04   -0.14409E-06   -0.56721E-08  6904   0.361E-04    0.258E-04
DAV:  18    -0.138415676173E+04   -0.17401E-06   -0.20609E-08  6704   0.152E-04    0.463E-05
DAV:  19    -0.138415676172E+04    0.49477E-08   -0.10935E-08  6600   0.114E-04
   1 F= -.14974734E+04 E0= -.14966871E+04  d E =-.157248E+01
