<?xml version="1.0" encoding="ISO-8859-1"?>
<modeling>
 <generator>
  <i name="program" type="string">vasp </i>
  <i name="version" type="string">6.2.1  </i>
  <i name="subversion" type="string">16May21 (build Jun 16 2021 03:23:30) complex                          parallel </i>
  <i name="platform" type="string">LinuxPGI </i>
  <i name="date" type="string">2022 04 23 </i>
  <i name="time" type="string">23:03:39 </i>
 </generator>
 <incar>
  <i type="string" name="SYSTEM">NiAl</i>
  <i type="int" name="ISTART">     0</i>
  <i type="int" name="NELMIN">     6</i>
  <i name="EDIFF">      0.00000010</i>
  <i name="ENCUT">    360.00000000</i>
  <i type="string" name="LREAL">Auto</i>
  <i type="logical" name="LPLANE"> T  </i>
  <i type="int" name="ISMEAR">     0</i>
  <i name="SIGMA">      0.05000000</i>
  <i type="logical" name="LWAVE"> F  </i>
  <i type="logical" name="LCHARG"> F  </i>
  <i type="int" name="IVDW">    12</i>
 </incar>
 <primitive_cell>
  <structure name="primitive_cell" >
   <crystal>
    <varray name="basis" >
     <v>       1.78500000      -1.78500000       0.00000000 </v>
     <v>       1.78500000       0.00000000       1.78500000 </v>
     <v>       0.00000000      -1.78500000       1.78500000 </v>
    </varray>
    <i name="volume">     11.37482325 </i>
    <varray name="rec_basis" >
     <v>       0.28011204      -0.28011204      -0.28011204 </v>
     <v>       0.28011204       0.28011204       0.28011204 </v>
     <v>      -0.28011204      -0.28011204       0.28011204 </v>
    </varray>
   </crystal>
   <varray name="positions" >
    <v>       0.00000000       0.00000000       0.00000000 </v>
   </varray>
  </structure>
  <varray name="primitive_index" >
   <v type="int" >        1 </v>
  </varray>
 </primitive_cell>
 <kpoints>
  <generation param="Gamma">
   <v type="int" name="divisions">       2        2        2 </v>
   <v name="usershift">      0.00000000       0.00000000       0.00000000 </v>
   <v name="genvec1">      0.50000000       0.00000000       0.00000000 </v>
   <v name="genvec2">      0.00000000       0.50000000       0.00000000 </v>
   <v name="genvec3">      0.00000000       0.00000000       0.50000000 </v>
   <v name="shift">      0.00000000       0.00000000       0.00000000 </v>
  </generation>
  <varray name="kpointlist" >
   <v>       0.00000000       0.00000000       0.00000000 </v>
   <v>       0.50000000       0.00000000       0.00000000 </v>
   <v>       0.50000000       0.50000000       0.00000000 </v>
   <v>       0.50000000       0.50000000       0.50000000 </v>
  </varray>
  <varray name="weights" >
   <v>       0.12500000 </v>
   <v>       0.37500000 </v>
   <v>       0.37500000 </v>
   <v>       0.12500000 </v>
  </varray>
 </kpoints>
 <parameters>
  <separator name="general" >
   <i type="string" name="SYSTEM">NiAl</i>
   <i type="logical" name="LCOMPAT"> F  </i>
  </separator>
  <separator name="electronic" >
   <i type="string" name="PREC">normal</i>
   <i name="ENMAX">    360.00000000</i>
   <i name="ENAUG">    802.31000000</i>
   <i name="EDIFF">      0.00000010</i>
   <i type="int" name="IALGO">    38</i>
   <i type="int" name="IWAVPR">    10</i>
   <i type="int" name="NBANDS">  1536</i>
   <i type="int" name="NBANDSLOW">    -1</i>
   <i type="int" name="NBANDSHIGH">    -1</i>
   <i name="NELECT">   2560.00000000</i>
   <i type="int" name="TURBO">     0</i>
   <i type="int" name="IRESTART">     0</i>
   <i type="int" name="NREBOOT">     0</i>
   <i type="int" name="NMIN">     0</i>
   <i name="EREF">      0.00000000</i>
   <separator name="electronic smearing" >
    <i type="int" name="ISMEAR">     0</i>
    <i name="SIGMA">      0.05000000</i>
    <i name="KSPACING">      0.50000000</i>
    <i type="logical" name="KGAMMA"> T  </i>
    <i type="logical" name="KBLOWUP"> T  </i>
   </separator>
   <separator name="electronic projectors" >
    <i type="logical" name="LREAL"> T  </i>
    <v name="ROPT">     -0.00050000</v>
    <i type="int" name="LMAXPAW">  -100</i>
    <i type="int" name="LMAXMIX">     2</i>
    <i type="logical" name="NLSPLINE"> F  </i>
   </separator>
   <separator name="electronic startup" >
    <i type="int" name="ISTART">     0</i>
    <i type="int" name="ICHARG">     2</i>
    <i type="int" name="INIWAV">     1</i>
   </separator>
   <separator name="electronic spin" >
    <i type="int" name="ISPIN">     1</i>
    <i type="logical" name="LNONCOLLINEAR"> F  </i>
    <v name="MAGMOM">      1.00000000      1.00000000      1.00000000      1.00000000      1.00000000      1.00000000      1.00000000      1.00000000      1.00000000      1.00000000      1.00000000      1.00000000      1.00000000      1.00000000      1.00000000      1.00000000      1.00000000      1.00000000      1.00000000      1.00000000
      1.00000000      1.00000000      1.00000000      1.00000000      1.00000000      1.00000000      1.00000000      1.00000000      1.00000000      1.00000000      1.00000000      1.00000000      1.00000000      1.00000000      1.00000000      1.00000000      1.00000000      1.00000000      1.00000000      1.00000000
      1.00000000      1.00000000      1.00000000      1.00000000      1.00000000      1.00000000      1.00000000      1.00000000      1.00000000      1.00000000      1.00000000      1.00000000      1.00000000      1.00000000      1.00000000      1.00000000      1.00000000      1.00000000      1.00000000      1.00000000
      1.00000000      1.00000000      1.00000000      1.00000000      1.00000000      1.00000000      1.00000000      1.00000000      1.00000000      1.00000000      1.00000000      1.00000000      1.00000000      1.00000000      1.00000000      1.00000000      1.00000000      1.00000000      1.00000000      1.00000000
      1.00000000      1.00000000      1.00000000      1.00000000      1.00000000      1.00000000      1.00000000      1.00000000      1.00000000      1.00000000      1.00000000      1.00000000      1.00000000      1.00000000      1.00000000      1.00000000      1.00000000      1.00000000      1.00000000      1.00000000
      1.00000000      1.00000000      1.00000000      1.00000000      1.00000000      1.00000000      1.00000000      1.00000000      1.00000000      1.00000000      1.00000000      1.00000000      1.00000000      1.00000000      1.00000000      1.00000000      1.00000000      1.00000000      1.00000000      1.00000000
      1.00000000      1.00000000      1.00000000      1.00000000      1.00000000      1.00000000      1.00000000      1.00000000      1.00000000      1.00000000      1.00000000      1.00000000      1.00000000      1.00000000      1.00000000      1.00000000      1.00000000      1.00000000      1.00000000      1.00000000
      1.00000000      1.00000000      1.00000000      1.00000000      1.00000000      1.00000000      1.00000000      1.00000000      1.00000000      1.00000000      1.00000000      1.00000000      1.00000000      1.00000000      1.00000000      1.00000000      1.00000000      1.00000000      1.00000000      1.00000000
      1.00000000      1.00000000      1.00000000      1.00000000      1.00000000      1.00000000      1.00000000      1.00000000      1.00000000      1.00000000      1.00000000      1.00000000      1.00000000      1.00000000      1.00000000      1.00000000      1.00000000      1.00000000      1.00000000      1.00000000
      1.00000000      1.00000000      1.00000000      1.00000000      1.00000000      1.00000000      1.00000000      1.00000000      1.00000000      1.00000000      1.00000000      1.00000000      1.00000000      1.00000000      1.00000000      1.00000000      1.00000000      1.00000000      1.00000000      1.00000000
      1.00000000      1.00000000      1.00000000      1.00000000      1.00000000      1.00000000      1.00000000      1.00000000      1.00000000      1.00000000      1.00000000      1.00000000      1.00000000      1.00000000      1.00000000      1.00000000      1.00000000      1.00000000      1.00000000      1.00000000
      1.00000000      1.00000000      1.00000000      1.00000000      1.00000000      1.00000000      1.00000000      1.00000000      1.00000000      1.00000000      1.00000000      1.00000000      1.00000000      1.00000000      1.00000000      1.00000000      1.00000000      1.00000000      1.00000000      1.00000000
      1.00000000      1.00000000      1.00000000      1.00000000      1.00000000      1.00000000      1.00000000      1.00000000      1.00000000      1.00000000      1.00000000      1.00000000      1.00000000      1.00000000      1.00000000      1.00000000</v>
    <i name="NUPDOWN">     -1.00000000</i>
    <i type="logical" name="LSORBIT"> F  </i>
    <v name="SAXIS">      0.00000000      0.00000000      1.00000000</v>
    <i type="logical" name="LSPIRAL"> F  </i>
    <v name="QSPIRAL">      0.00000000      0.00000000      0.00000000</v>
    <i type="logical" name="LZEROZ"> F  </i>
   </separator>
   <separator name="electronic exchange-correlation" >
    <i type="logical" name="LASPH"> F  </i>
    <i type="logical" name="LMETAGGA"> F  </i>
   </separator>
   <separator name="electronic convergence" >
    <i type="int" name="NELM">    60</i>
    <i type="int" name="NELMDL">    -5</i>
    <i type="int" name="NELMIN">     6</i>
    <i name="ENINI">    360.00000000</i>
    <separator name="electronic convergence detail" >
     <i type="logical" name="LDIAG"> T  </i>
     <i type="logical" name="LSUBROT"> F  </i>
     <i name="WEIMIN">      0.00000000</i>
     <i name="EBREAK">      0.00000000</i>
     <i name="DEPER">      0.30000000</i>
     <i type="int" name="NRMM">     4</i>
     <i name="TIME">      0.40000000</i>
    </separator>
   </separator>
   <separator name="electronic mixer" >
    <i name="AMIX">      0.40000000</i>
    <i name="BMIX">      1.00000000</i>
    <i name="AMIN">      0.10000000</i>
    <i name="AMIX_MAG">      1.60000000</i>
    <i name="BMIX_MAG">      1.00000000</i>
    <separator name="electronic mixer details" >
     <i type="int" name="IMIX">     4</i>
     <i type="logical" name="MIXFIRST"> F  </i>
     <i type="int" name="MAXMIX">   -45</i>
     <i name="WC">    100.00000000</i>
     <i type="int" name="INIMIX">     1</i>
     <i type="int" name="MIXPRE">     1</i>
     <i type="int" name="MREMOVE">     5</i>
    </separator>
   </separator>
   <separator name="electronic dipolcorrection" >
    <i type="logical" name="LDIPOL"> F  </i>
    <i type="logical" name="LMONO"> F  </i>
    <i type="int" name="IDIPOL">     0</i>
    <i name="EPSILON">      1.00000000</i>
    <v name="DIPOL">   -100.00000000   -100.00000000   -100.00000000</v>
    <i name="EFIELD">      0.00000000</i>
   </separator>
  </separator>
  <separator name="grids" >
   <i type="int" name="NGX">    70</i>
   <i type="int" name="NGY">    70</i>
   <i type="int" name="NGZ">    70</i>
   <i type="int" name="NGXF">   140</i>
   <i type="int" name="NGYF">   140</i>
   <i type="int" name="NGZF">   140</i>
   <i type="logical" name="ADDGRID"> F  </i>
  </separator>
  <separator name="ionic" >
   <i type="int" name="NSW">     0</i>
   <i type="int" name="IBRION">    -1</i>
   <i type="int" name="MDALGO">     0</i>
   <i type="int" name="ISIF">     2</i>
   <i name="PSTRESS">      0.00000000</i>
   <i name="EDIFFG">      0.00000100</i>
   <i type="int" name="NFREE">     0</i>
   <i name="POTIM">      0.50000000</i>
   <i name="SMASS">     -3.00000000</i>
   <i name="SCALEE">      1.00000000</i>
  </separator>
  <separator name="ionic md" >
   <i name="TEBEG">      0.00010000</i>
   <i name="TEEND">      0.00010000</i>
   <i type="int" name="NBLOCK">     1</i>
   <i type="int" name="KBLOCK">     1</i>
   <i type="int" name="NPACO">   256</i>
   <i name="APACO">     16.00000000</i>
  </separator>
  <separator name="symmetry" >
   <i type="int" name="ISYM">     2</i>
   <i name="SYMPREC">      0.00001000</i>
  </separator>
  <separator name="dos" >
   <i type="int" name="LORBIT">     0</i>
   <v name="RWIGS">     -1.00000000</v>
   <i type="int" name="NEDOS">   301</i>
   <i name="EMIN">     10.00000000</i>
   <i name="EMAX">    -10.00000000</i>
   <i name="EFERMI">      0.00000000</i>
  </separator>
  <separator name="writing" >
   <i type="int" name="NWRITE">     2</i>
   <i type="logical" name="LWAVE"> F  </i>
   <i type="logical" name="LDOWNSAMPLE"> F  </i>
   <i type="logical" name="LCHARG"> F  </i>
   <i type="logical" name="LPARD"> F  </i>
   <i type="logical" name="LVTOT"> F  </i>
   <i type="logical" name="LVHAR"> F  </i>
   <i type="logical" name="LELF"> F  </i>
   <i type="logical" name="LOPTICS"> F  </i>
   <v name="STM">      0.00000000      0.00000000      0.00000000      0.00000000      0.00000000      0.00000000      0.00000000</v>
  </separator>
  <separator name="performance" >
   <i type="int" name="NPAR">     1</i>
   <i type="int" name="NSIM">     4</i>
   <i type="int" name="NBLK">    -1</i>
   <i type="logical" name="LPLANE"> T  </i>
   <i type="logical" name="LSCALAPACK"> T  </i>
   <i type="logical" name="LSCAAWARE"> F  </i>
   <i type="logical" name="LSCALU"> F  </i>
   <i type="logical" name="LASYNC"> F  </i>
   <i type="logical" name="LORBITALREAL"> F  </i>
  </separator>
  <separator name="miscellaneous" >
   <i type="int" name="IDIOT">     3</i>
   <i type="int" name="PHON_NSTRUCT">    -1</i>
   <i type="logical" name="LMUSIC"> F  </i>
   <v name="POMASS">     58.69000000</v>
   <v name="DARWINR">      0.00000000</v>
   <v name="DARWINV">      1.00000000</v>
   <i type="logical" name="LCORR"> T  </i>
  </separator>
  <i type="logical" name="GGA_COMPAT"> T  </i>
  <i type="logical" name="LBERRY"> F  </i>
  <i type="int" name="ICORELEVEL">     0</i>
  <i type="logical" name="LDAU"> F  </i>
  <i type="int" name="I_CONSTRAINED_M">     0</i>
  <separator name="electronic exchange-correlation" >
   <i type="string" name="GGA">--</i>
   <i type="int" name="VOSKOWN">     0</i>
   <i type="logical" name="LHFCALC"> F  </i>
   <i type="string" name="PRECFOCK"></i>
   <i type="logical" name="LSYMGRAD"> F  </i>
   <i type="logical" name="LHFONE"> F  </i>
   <i type="logical" name="LRHFCALC"> F  </i>
   <i type="logical" name="LTHOMAS"> F  </i>
   <i type="logical" name="LMODELHF"> F  </i>
   <i type="logical" name="LFOCKACE"> F  </i>
   <i name="ENCUT4O">     -1.00000000</i>
   <i type="int" name="EXXOEP">     0</i>
   <i type="int" name="FOURORBIT">     0</i>
   <i name="AEXX">      0.00000000</i>
   <i name="HFALPHA">      0.00000000</i>
   <i name="MCALPHA">      0.00000000</i>
   <i name="ALDAX">      1.00000000</i>
   <i name="AGGAX">      1.00000000</i>
   <i name="ALDAC">      1.00000000</i>
   <i name="AGGAC">      1.00000000</i>
   <i type="int" name="NKREDX">     1</i>
   <i type="int" name="NKREDY">     1</i>
   <i type="int" name="NKREDZ">     1</i>
   <i type="logical" name="SHIFTRED"> F  </i>
   <i type="logical" name="ODDONLY"> F  </i>
   <i type="logical" name="EVENONLY"> F  </i>
   <i type="int" name="LMAXFOCK">     0</i>
   <i type="int" name="NMAXFOCKAE">     0</i>
   <i type="logical" name="LFOCKAEDFT"> F  </i>
   <i name="HFSCREEN">      0.00000000</i>
   <i name="HFSCREENC">      0.00000000</i>
   <i type="int" name="NBANDSGWLOW">     0</i>
  </separator>
  <separator name="vdW DFT" >
   <i type="logical" name="LUSE_VDW"> F  </i>
   <i name="Zab_VDW">     -0.84910000</i>
   <i name="PARAM1">      0.12340000</i>
   <i name="PARAM2">      1.00000000</i>
   <i name="PARAM3">      0.00000000</i>
  </separator>
  <separator name="model GW" >
   <i type="int" name="MODEL_GW">     0</i>
   <i name="MODEL_EPS0">      6.82489395</i>
   <i name="MODEL_ALPHA">      1.00000000</i>
  </separator>
  <separator name="linear response parameters" >
   <i type="logical" name="LEPSILON"> F  </i>
   <i type="logical" name="LRPA"> F  </i>
   <i type="logical" name="LNABLA"> F  </i>
   <i type="logical" name="LVEL"> F  </i>
   <i type="int" name="KINTER">     0</i>
   <i name="CSHIFT">      0.10000000</i>
   <i name="OMEGAMAX">     -1.00000000</i>
   <i name="DEG_THRESHOLD">      0.00200000</i>
   <i name="RTIME">     -0.10000000</i>
   <i name="WPLASMAI">      0.00000000</i>
   <v name="DFIELD">      0.00000000      0.00000000      0.00000000</v>
   <v name="WPLASMA">      0.00000000      0.00000000      0.00000000      0.00000000      0.00000000      0.00000000      0.00000000      0.00000000      0.00000000</v>
  </separator>
  <separator name="orbital magnetization" >
   <i type="logical" name="NUCIND"> F  </i>
   <v name="MAGPOS">      0.00000000      0.00000000      0.00000000</v>
   <i type="logical" name="LNICSALL"> T  </i>
   <i type="logical" name="ORBITALMAG"> F  </i>
   <i type="logical" name="LMAGBLOCH"> F  </i>
   <i type="logical" name="LCHIMAG"> F  </i>
   <i type="logical" name="LGAUGE"> T  </i>
   <i type="int" name="MAGATOM">     0</i>
   <v name="MAGDIPOL">      0.00000000      0.00000000      0.00000000</v>
   <v name="AVECCONST">      0.00000000      0.00000000      0.00000000</v>
  </separator>
  <separator name="response functions" >
   <i type="logical" name="LFINITE_TEMPERATURE"> F  </i>
   <i type="logical" name="LADDER"> F  </i>
   <i type="logical" name="LRPAFORCE"> F  </i>
   <i type="logical" name="LFXC"> F  </i>
   <i type="logical" name="LHARTREE"> T  </i>
   <i type="int" name="IBSE">     0</i>
   <v type="int" name="KPOINT">    -1     0     0     0</v>
   <i type="logical" name="LTCTC"> F  </i>
   <i type="logical" name="LTCTE"> F  </i>
   <i type="logical" name="LTETE"> F  </i>
   <i type="logical" name="LTRIPLET"> F  </i>
   <i type="logical" name="LFXCEPS"> F  </i>
   <i type="logical" name="LFXHEG"> F  </i>
   <i type="int" name="NATURALO">     2</i>
   <i type="logical" name="LHOLEGF"> F  </i>
   <i type="logical" name="L2ORDER"> F  </i>
   <i type="logical" name="LDMP1"> F  </i>
   <i type="logical" name="LMP2LT"> F  </i>
   <i type="logical" name="LSMP2LT"> F  </i>
   <i type="logical" name="LGWLF"> F  </i>
   <i name="ENCUTGW">     -2.00000000</i>
   <i name="ENCUTGWSOFT">     -2.00000000</i>
   <i name="ENCUTLF">     -1.00000000</i>
   <i type="logical" name="LESF_SPLINES"> F  </i>
   <i type="int" name="LMAXMP2">    -1</i>
   <i name="SCISSOR">      0.00000000</i>
   <i type="int" name="NOMEGA">     0</i>
   <i type="int" name="NOMEGAR">     0</i>
   <i type="int" name="NBANDSGW">    -1</i>
   <i type="int" name="NBANDSO">    -1</i>
   <i type="int" name="NBANDSV">    -1</i>
   <i type="int" name="NELM">     1</i>
   <i type="int" name="NELMHF">     1</i>
   <i type="int" name="DIM">     3</i>
   <i type="int" name="IESPILON">     4</i>
   <i type="int" name="ANTIRES">     0</i>
   <i name="OMEGAMAX">    -30.00000000</i>
   <i name="OMEGAMIN">    -30.00000000</i>
   <i name="OMEGATL">   -200.00000000</i>
   <i type="int" name="OMEGAGRID">     0</i>
   <i name="CSHIFT">     -0.10000000</i>
   <i type="logical" name="LSELFENERGY"> F  </i>
   <i type="logical" name="LSPECTRAL"> F  </i>
   <i type="logical" name="LSPECTRALGW"> F  </i>
   <i type="logical" name="LSINGLES"> F  </i>
   <i type="logical" name="LFERMIGW"> F  </i>
   <i type="logical" name="ODDONLYGW"> F  </i>
   <i type="logical" name="EVENONLYGW"> F  </i>
   <i type="int" name="NKREDLFX">     1</i>
   <i type="int" name="NKREDLFY">     1</i>
   <i type="int" name="NKREDLFZ">     1</i>
   <i type="int" name="MAXMEM">  2800</i>
   <i type="int" name="TELESCOPE">     0</i>
   <i type="int" name="NTAUPAR">    -1</i>
   <i type="int" name="NOMEGAPAR">    -1</i>
   <i name="DAMP_NEWTON">      0.80000001</i>
   <i name="LAMBDA">      1.00000000</i>
  </separator>
  <separator name="External order field" >
   <i name="OFIELD_KAPPA">      0.00000000</i>
   <v name="OFIELD_K">      0.00000000      0.00000000      0.00000000</v>
   <i name="OFIELD_Q6_NEAR">      0.00000000</i>
   <i name="OFIELD_Q6_FAR">      0.00000000</i>
   <i name="OFIELD_A">      0.00000000</i>
  </separator>
  <separator name="solvation model" >
   <i type="logical" name="LSOL"> F  </i>
  </separator>
 </parameters>
 <atominfo>
  <atoms>     256 </atoms>
  <types>       1 </types>
  <array name="atoms" >
   <dimension dim="1">ion</dimension>
   <field type="string">element</field>
   <field type="int">atomtype</field>
   <set>
    <rc><c>Ni</c><c>   1</c></rc>
    <rc><c>Ni</c><c>   1</c></rc>
    <rc><c>Ni</c><c>   1</c></rc>
    <rc><c>Ni</c><c>   1</c></rc>
    <rc><c>Ni</c><c>   1</c></rc>
    <rc><c>Ni</c><c>   1</c></rc>
    <rc><c>Ni</c><c>   1</c></rc>
    <rc><c>Ni</c><c>   1</c></rc>
    <rc><c>Ni</c><c>   1</c></rc>
    <rc><c>Ni</c><c>   1</c></rc>
    <rc><c>Ni</c><c>   1</c></rc>
    <rc><c>Ni</c><c>   1</c></rc>
    <rc><c>Ni</c><c>   1</c></rc>
    <rc><c>Ni</c><c>   1</c></rc>
    <rc><c>Ni</c><c>   1</c></rc>
    <rc><c>Ni</c><c>   1</c></rc>
    <rc><c>Ni</c><c>   1</c></rc>
    <rc><c>Ni</c><c>   1</c></rc>
    <rc><c>Ni</c><c>   1</c></rc>
    <rc><c>Ni</c><c>   1</c></rc>
    <rc><c>Ni</c><c>   1</c></rc>
    <rc><c>Ni</c><c>   1</c></rc>
    <rc><c>Ni</c><c>   1</c></rc>
    <rc><c>Ni</c><c>   1</c></rc>
    <rc><c>Ni</c><c>   1</c></rc>
    <rc><c>Ni</c><c>   1</c></rc>
    <rc><c>Ni</c><c>   1</c></rc>
    <rc><c>Ni</c><c>   1</c></rc>
    <rc><c>Ni</c><c>   1</c></rc>
    <rc><c>Ni</c><c>   1</c></rc>
    <rc><c>Ni</c><c>   1</c></rc>
    <rc><c>Ni</c><c>   1</c></rc>
    <rc><c>Ni</c><c>   1</c></rc>
    <rc><c>Ni</c><c>   1</c></rc>
    <rc><c>Ni</c><c>   1</c></rc>
    <rc><c>Ni</c><c>   1</c></rc>
    <rc><c>Ni</c><c>   1</c></rc>
    <rc><c>Ni</c><c>   1</c></rc>
    <rc><c>Ni</c><c>   1</c></rc>
    <rc><c>Ni</c><c>   1</c></rc>
    <rc><c>Ni</c><c>   1</c></rc>
    <rc><c>Ni</c><c>   1</c></rc>
    <rc><c>Ni</c><c>   1</c></rc>
    <rc><c>Ni</c><c>   1</c></rc>
    <rc><c>Ni</c><c>   1</c></rc>
    <rc><c>Ni</c><c>   1</c></rc>
    <rc><c>Ni</c><c>   1</c></rc>
    <rc><c>Ni</c><c>   1</c></rc>
    <rc><c>Ni</c><c>   1</c></rc>
    <rc><c>Ni</c><c>   1</c></rc>
    <rc><c>Ni</c><c>   1</c></rc>
    <rc><c>Ni</c><c>   1</c></rc>
    <rc><c>Ni</c><c>   1</c></rc>
    <rc><c>Ni</c><c>   1</c></rc>
    <rc><c>Ni</c><c>   1</c></rc>
    <rc><c>Ni</c><c>   1</c></rc>
    <rc><c>Ni</c><c>   1</c></rc>
    <rc><c>Ni</c><c>   1</c></rc>
    <rc><c>Ni</c><c>   1</c></rc>
    <rc><c>Ni</c><c>   1</c></rc>
    <rc><c>Ni</c><c>   1</c></rc>
    <rc><c>Ni</c><c>   1</c></rc>
    <rc><c>Ni</c><c>   1</c></rc>
    <rc><c>Ni</c><c>   1</c></rc>
    <rc><c>Ni</c><c>   1</c></rc>
    <rc><c>Ni</c><c>   1</c></rc>
    <rc><c>Ni</c><c>   1</c></rc>
    <rc><c>Ni</c><c>   1</c></rc>
    <rc><c>Ni</c><c>   1</c></rc>
    <rc><c>Ni</c><c>   1</c></rc>
    <rc><c>Ni</c><c>   1</c></rc>
    <rc><c>Ni</c><c>   1</c></rc>
    <rc><c>Ni</c><c>   1</c></rc>
    <rc><c>Ni</c><c>   1</c></rc>
    <rc><c>Ni</c><c>   1</c></rc>
    <rc><c>Ni</c><c>   1</c></rc>
    <rc><c>Ni</c><c>   1</c></rc>
    <rc><c>Ni</c><c>   1</c></rc>
    <rc><c>Ni</c><c>   1</c></rc>
    <rc><c>Ni</c><c>   1</c></rc>
    <rc><c>Ni</c><c>   1</c></rc>
    <rc><c>Ni</c><c>   1</c></rc>
    <rc><c>Ni</c><c>   1</c></rc>
    <rc><c>Ni</c><c>   1</c></rc>
    <rc><c>Ni</c><c>   1</c></rc>
    <rc><c>Ni</c><c>   1</c></rc>
    <rc><c>Ni</c><c>   1</c></rc>
    <rc><c>Ni</c><c>   1</c></rc>
    <rc><c>Ni</c><c>   1</c></rc>
    <rc><c>Ni</c><c>   1</c></rc>
    <rc><c>Ni</c><c>   1</c></rc>
    <rc><c>Ni</c><c>   1</c></rc>
    <rc><c>Ni</c><c>   1</c></rc>
    <rc><c>Ni</c><c>   1</c></rc>
    <rc><c>Ni</c><c>   1</c></rc>
    <rc><c>Ni</c><c>   1</c></rc>
    <rc><c>Ni</c><c>   1</c></rc>
    <rc><c>Ni</c><c>   1</c></rc>
    <rc><c>Ni</c><c>   1</c></rc>
    <rc><c>Ni</c><c>   1</c></rc>
    <rc><c>Ni</c><c>   1</c></rc>
    <rc><c>Ni</c><c>   1</c></rc>
    <rc><c>Ni</c><c>   1</c></rc>
    <rc><c>Ni</c><c>   1</c></rc>
    <rc><c>Ni</c><c>   1</c></rc>
    <rc><c>Ni</c><c>   1</c></rc>
    <rc><c>Ni</c><c>   1</c></rc>
    <rc><c>Ni</c><c>   1</c></rc>
    <rc><c>Ni</c><c>   1</c></rc>
    <rc><c>Ni</c><c>   1</c></rc>
    <rc><c>Ni</c><c>   1</c></rc>
    <rc><c>Ni</c><c>   1</c></rc>
    <rc><c>Ni</c><c>   1</c></rc>
    <rc><c>Ni</c><c>   1</c></rc>
    <rc><c>Ni</c><c>   1</c></rc>
    <rc><c>Ni</c><c>   1</c></rc>
    <rc><c>Ni</c><c>   1</c></rc>
    <rc><c>Ni</c><c>   1</c></rc>
    <rc><c>Ni</c><c>   1</c></rc>
    <rc><c>Ni</c><c>   1</c></rc>
    <rc><c>Ni</c><c>   1</c></rc>
    <rc><c>Ni</c><c>   1</c></rc>
    <rc><c>Ni</c><c>   1</c></rc>
    <rc><c>Ni</c><c>   1</c></rc>
    <rc><c>Ni</c><c>   1</c></rc>
    <rc><c>Ni</c><c>   1</c></rc>
    <rc><c>Ni</c><c>   1</c></rc>
    <rc><c>Ni</c><c>   1</c></rc>
    <rc><c>Ni</c><c>   1</c></rc>
    <rc><c>Ni</c><c>   1</c></rc>
    <rc><c>Ni</c><c>   1</c></rc>
    <rc><c>Ni</c><c>   1</c></rc>
    <rc><c>Ni</c><c>   1</c></rc>
    <rc><c>Ni</c><c>   1</c></rc>
    <rc><c>Ni</c><c>   1</c></rc>
    <rc><c>Ni</c><c>   1</c></rc>
    <rc><c>Ni</c><c>   1</c></rc>
    <rc><c>Ni</c><c>   1</c></rc>
    <rc><c>Ni</c><c>   1</c></rc>
    <rc><c>Ni</c><c>   1</c></rc>
    <rc><c>Ni</c><c>   1</c></rc>
    <rc><c>Ni</c><c>   1</c></rc>
    <rc><c>Ni</c><c>   1</c></rc>
    <rc><c>Ni</c><c>   1</c></rc>
    <rc><c>Ni</c><c>   1</c></rc>
    <rc><c>Ni</c><c>   1</c></rc>
    <rc><c>Ni</c><c>   1</c></rc>
    <rc><c>Ni</c><c>   1</c></rc>
    <rc><c>Ni</c><c>   1</c></rc>
    <rc><c>Ni</c><c>   1</c></rc>
    <rc><c>Ni</c><c>   1</c></rc>
    <rc><c>Ni</c><c>   1</c></rc>
    <rc><c>Ni</c><c>   1</c></rc>
    <rc><c>Ni</c><c>   1</c></rc>
    <rc><c>Ni</c><c>   1</c></rc>
    <rc><c>Ni</c><c>   1</c></rc>
    <rc><c>Ni</c><c>   1</c></rc>
    <rc><c>Ni</c><c>   1</c></rc>
    <rc><c>Ni</c><c>   1</c></rc>
    <rc><c>Ni</c><c>   1</c></rc>
    <rc><c>Ni</c><c>   1</c></rc>
    <rc><c>Ni</c><c>   1</c></rc>
    <rc><c>Ni</c><c>   1</c></rc>
    <rc><c>Ni</c><c>   1</c></rc>
    <rc><c>Ni</c><c>   1</c></rc>
    <rc><c>Ni</c><c>   1</c></rc>
    <rc><c>Ni</c><c>   1</c></rc>
    <rc><c>Ni</c><c>   1</c></rc>
    <rc><c>Ni</c><c>   1</c></rc>
    <rc><c>Ni</c><c>   1</c></rc>
    <rc><c>Ni</c><c>   1</c></rc>
    <rc><c>Ni</c><c>   1</c></rc>
    <rc><c>Ni</c><c>   1</c></rc>
    <rc><c>Ni</c><c>   1</c></rc>
    <rc><c>Ni</c><c>   1</c></rc>
    <rc><c>Ni</c><c>   1</c></rc>
    <rc><c>Ni</c><c>   1</c></rc>
    <rc><c>Ni</c><c>   1</c></rc>
    <rc><c>Ni</c><c>   1</c></rc>
    <rc><c>Ni</c><c>   1</c></rc>
    <rc><c>Ni</c><c>   1</c></rc>
    <rc><c>Ni</c><c>   1</c></rc>
    <rc><c>Ni</c><c>   1</c></rc>
    <rc><c>Ni</c><c>   1</c></rc>
    <rc><c>Ni</c><c>   1</c></rc>
    <rc><c>Ni</c><c>   1</c></rc>
    <rc><c>Ni</c><c>   1</c></rc>
    <rc><c>Ni</c><c>   1</c></rc>
    <rc><c>Ni</c><c>   1</c></rc>
    <rc><c>Ni</c><c>   1</c></rc>
    <rc><c>Ni</c><c>   1</c></rc>
    <rc><c>Ni</c><c>   1</c></rc>
    <rc><c>Ni</c><c>   1</c></rc>
    <rc><c>Ni</c><c>   1</c></rc>
    <rc><c>Ni</c><c>   1</c></rc>
    <rc><c>Ni</c><c>   1</c></rc>
    <rc><c>Ni</c><c>   1</c></rc>
    <rc><c>Ni</c><c>   1</c></rc>
    <rc><c>Ni</c><c>   1</c></rc>
    <rc><c>Ni</c><c>   1</c></rc>
    <rc><c>Ni</c><c>   1</c></rc>
    <rc><c>Ni</c><c>   1</c></rc>
    <rc><c>Ni</c><c>   1</c></rc>
    <rc><c>Ni</c><c>   1</c></rc>
    <rc><c>Ni</c><c>   1</c></rc>
    <rc><c>Ni</c><c>   1</c></rc>
    <rc><c>Ni</c><c>   1</c></rc>
    <rc><c>Ni</c><c>   1</c></rc>
    <rc><c>Ni</c><c>   1</c></rc>
    <rc><c>Ni</c><c>   1</c></rc>
    <rc><c>Ni</c><c>   1</c></rc>
    <rc><c>Ni</c><c>   1</c></rc>
    <rc><c>Ni</c><c>   1</c></rc>
    <rc><c>Ni</c><c>   1</c></rc>
    <rc><c>Ni</c><c>   1</c></rc>
    <rc><c>Ni</c><c>   1</c></rc>
    <rc><c>Ni</c><c>   1</c></rc>
    <rc><c>Ni</c><c>   1</c></rc>
    <rc><c>Ni</c><c>   1</c></rc>
    <rc><c>Ni</c><c>   1</c></rc>
    <rc><c>Ni</c><c>   1</c></rc>
    <rc><c>Ni</c><c>   1</c></rc>
    <rc><c>Ni</c><c>   1</c></rc>
    <rc><c>Ni</c><c>   1</c></rc>
    <rc><c>Ni</c><c>   1</c></rc>
    <rc><c>Ni</c><c>   1</c></rc>
    <rc><c>Ni</c><c>   1</c></rc>
    <rc><c>Ni</c><c>   1</c></rc>
    <rc><c>Ni</c><c>   1</c></rc>
    <rc><c>Ni</c><c>   1</c></rc>
    <rc><c>Ni</c><c>   1</c></rc>
    <rc><c>Ni</c><c>   1</c></rc>
    <rc><c>Ni</c><c>   1</c></rc>
    <rc><c>Ni</c><c>   1</c></rc>
    <rc><c>Ni</c><c>   1</c></rc>
    <rc><c>Ni</c><c>   1</c></rc>
    <rc><c>Ni</c><c>   1</c></rc>
    <rc><c>Ni</c><c>   1</c></rc>
    <rc><c>Ni</c><c>   1</c></rc>
    <rc><c>Ni</c><c>   1</c></rc>
    <rc><c>Ni</c><c>   1</c></rc>
    <rc><c>Ni</c><c>   1</c></rc>
    <rc><c>Ni</c><c>   1</c></rc>
    <rc><c>Ni</c><c>   1</c></rc>
    <rc><c>Ni</c><c>   1</c></rc>
    <rc><c>Ni</c><c>   1</c></rc>
    <rc><c>Ni</c><c>   1</c></rc>
    <rc><c>Ni</c><c>   1</c></rc>
    <rc><c>Ni</c><c>   1</c></rc>
    <rc><c>Ni</c><c>   1</c></rc>
    <rc><c>Ni</c><c>   1</c></rc>
    <rc><c>Ni</c><c>   1</c></rc>
    <rc><c>Ni</c><c>   1</c></rc>
    <rc><c>Ni</c><c>   1</c></rc>
    <rc><c>Ni</c><c>   1</c></rc>
    <rc><c>Ni</c><c>   1</c></rc>
   </set>
  </array>
  <array name="atomtypes" >
   <dimension dim="1">type</dimension>
   <field type="int">atomspertype</field>
   <field type="string">element</field>
   <field>mass</field>
   <field>valence</field>
   <field type="string">pseudopotential</field>
   <set>
    <rc><c> 256</c><c>Ni</c><c>     58.69000000</c><c>     10.00000000</c><c>  PAW Ni_GW 31Mar2010                   </c></rc>
   </set>
  </array>
 </atominfo>
 <structure name="initialpos" >
  <crystal>
   <varray name="basis" >
    <v>      14.28000000       0.00000000       0.00000000 </v>
    <v>       0.00000000      14.28000000       0.00000000 </v>
    <v>       0.00000000       0.00000000      14.28000000 </v>
   </varray>
   <i name="volume">   2911.95475200 </i>
   <varray name="rec_basis" >
    <v>       0.07002801       0.00000000       0.00000000 </v>
    <v>       0.00000000       0.07002801       0.00000000 </v>
    <v>       0.00000000       0.00000000       0.07002801 </v>
   </varray>
  </crystal>
  <varray name="positions" >
   <v>       0.00000000       0.00000000       0.00000000 </v>
   <v>       0.00000000       0.12500000       0.12500000 </v>
   <v>       0.12500000       0.00000000       0.12500000 </v>
   <v>       0.12500000       0.12500000       0.00000000 </v>
   <v>       0.00000000       0.00000000       0.25000000 </v>
   <v>       0.00000000       0.12500000       0.37500000 </v>
   <v>       0.12500000       0.00000000       0.37500000 </v>
   <v>       0.12500000       0.12500000       0.25000000 </v>
   <v>       0.00000000       0.00000000       0.50000000 </v>
   <v>       0.00000000       0.12500000       0.62500000 </v>
   <v>       0.12500000       0.00000000       0.62500000 </v>
   <v>       0.12500000       0.12500000       0.50000000 </v>
   <v>       0.00000000       0.00000000       0.75000000 </v>
   <v>       0.00000000       0.12500000       0.87500000 </v>
   <v>       0.12500000       0.00000000       0.87500000 </v>
   <v>       0.12500000       0.12500000       0.75000000 </v>
   <v>       0.00000000       0.25000000       0.00000000 </v>
   <v>       0.00000000       0.37500000       0.12500000 </v>
   <v>       0.12500000       0.25000000       0.12500000 </v>
   <v>       0.12500000       0.37500000       0.00000000 </v>
   <v>       0.00000000       0.25000000       0.25000000 </v>
   <v>       0.00000000       0.37500000       0.37500000 </v>
   <v>       0.12500000       0.25000000       0.37500000 </v>
   <v>       0.12500000       0.37500000       0.25000000 </v>
   <v>       0.00000000       0.25000000       0.50000000 </v>
   <v>       0.00000000       0.37500000       0.62500000 </v>
   <v>       0.12500000       0.25000000       0.62500000 </v>
   <v>       0.12500000       0.37500000       0.50000000 </v>
   <v>       0.00000000       0.25000000       0.75000000 </v>
   <v>       0.00000000       0.37500000       0.87500000 </v>
   <v>       0.12500000       0.25000000       0.87500000 </v>
   <v>       0.12500000       0.37500000       0.75000000 </v>
   <v>       0.00000000       0.50000000       0.00000000 </v>
   <v>       0.00000000       0.62500000       0.12500000 </v>
   <v>       0.12500000       0.50000000       0.12500000 </v>
   <v>       0.12500000       0.62500000       0.00000000 </v>
   <v>       0.00000000       0.50000000       0.25000000 </v>
   <v>       0.00000000       0.62500000       0.37500000 </v>
   <v>       0.12500000       0.50000000       0.37500000 </v>
   <v>       0.12500000       0.62500000       0.25000000 </v>
   <v>       0.00000000       0.50000000       0.50000000 </v>
   <v>       0.00000000       0.62500000       0.62500000 </v>
   <v>       0.12500000       0.50000000       0.62500000 </v>
   <v>       0.12500000       0.62500000       0.50000000 </v>
   <v>       0.00000000       0.50000000       0.75000000 </v>
   <v>       0.00000000       0.62500000       0.87500000 </v>
   <v>       0.12500000       0.50000000       0.87500000 </v>
   <v>       0.12500000       0.62500000       0.75000000 </v>
   <v>       0.00000000       0.75000000       0.00000000 </v>
   <v>       0.00000000       0.87500000       0.12500000 </v>
   <v>       0.12500000       0.75000000       0.12500000 </v>
   <v>       0.12500000       0.87500000       0.00000000 </v>
   <v>       0.00000000       0.75000000       0.25000000 </v>
   <v>       0.00000000       0.87500000       0.37500000 </v>
   <v>       0.12500000       0.75000000       0.37500000 </v>
   <v>       0.12500000       0.87500000       0.25000000 </v>
   <v>       0.00000000       0.75000000       0.50000000 </v>
   <v>       0.00000000       0.87500000       0.62500000 </v>
   <v>       0.12500000       0.75000000       0.62500000 </v>
   <v>       0.12500000       0.87500000       0.50000000 </v>
   <v>       0.00000000       0.75000000       0.75000000 </v>
   <v>       0.00000000       0.87500000       0.87500000 </v>
   <v>       0.12500000       0.75000000       0.87500000 </v>
   <v>       0.12500000       0.87500000       0.75000000 </v>
   <v>       0.25000000       0.00000000       0.00000000 </v>
   <v>       0.25000000       0.12500000       0.12500000 </v>
   <v>       0.37500000       0.00000000       0.12500000 </v>
   <v>       0.37500000       0.12500000       0.00000000 </v>
   <v>       0.25000000       0.00000000       0.25000000 </v>
   <v>       0.25000000       0.12500000       0.37500000 </v>
   <v>       0.37500000       0.00000000       0.37500000 </v>
   <v>       0.37500000       0.12500000       0.25000000 </v>
   <v>       0.25000000       0.00000000       0.50000000 </v>
   <v>       0.25000000       0.12500000       0.62500000 </v>
   <v>       0.37500000       0.00000000       0.62500000 </v>
   <v>       0.37500000       0.12500000       0.50000000 </v>
   <v>       0.25000000       0.00000000       0.75000000 </v>
   <v>       0.25000000       0.12500000       0.87500000 </v>
   <v>       0.37500000       0.00000000       0.87500000 </v>
   <v>       0.37500000       0.12500000       0.75000000 </v>
   <v>       0.25000000       0.25000000       0.00000000 </v>
   <v>       0.25000000       0.37500000       0.12500000 </v>
   <v>       0.37500000       0.25000000       0.12500000 </v>
   <v>       0.37500000       0.37500000       0.00000000 </v>
   <v>       0.25000000       0.25000000       0.25000000 </v>
   <v>       0.25000000       0.37500000       0.37500000 </v>
   <v>       0.37500000       0.25000000       0.37500000 </v>
   <v>       0.37500000       0.37500000       0.25000000 </v>
   <v>       0.25000000       0.25000000       0.50000000 </v>
   <v>       0.25000000       0.37500000       0.62500000 </v>
   <v>       0.37500000       0.25000000       0.62500000 </v>
   <v>       0.37500000       0.37500000       0.50000000 </v>
   <v>       0.25000000       0.25000000       0.75000000 </v>
   <v>       0.25000000       0.37500000       0.87500000 </v>
   <v>       0.37500000       0.25000000       0.87500000 </v>
   <v>       0.37500000       0.37500000       0.75000000 </v>
   <v>       0.25000000       0.50000000       0.00000000 </v>
   <v>       0.25000000       0.62500000       0.12500000 </v>
   <v>       0.37500000       0.50000000       0.12500000 </v>
   <v>       0.37500000       0.62500000       0.00000000 </v>
   <v>       0.25000000       0.50000000       0.25000000 </v>
   <v>       0.25000000       0.62500000       0.37500000 </v>
   <v>       0.37500000       0.50000000       0.37500000 </v>
   <v>       0.37500000       0.62500000       0.25000000 </v>
   <v>       0.25000000       0.50000000       0.50000000 </v>
   <v>       0.25000000       0.62500000       0.62500000 </v>
   <v>       0.37500000       0.50000000       0.62500000 </v>
   <v>       0.37500000       0.62500000       0.50000000 </v>
   <v>       0.25000000       0.50000000       0.75000000 </v>
   <v>       0.25000000       0.62500000       0.87500000 </v>
   <v>       0.37500000       0.50000000       0.87500000 </v>
   <v>       0.37500000       0.62500000       0.75000000 </v>
   <v>       0.25000000       0.75000000       0.00000000 </v>
   <v>       0.25000000       0.87500000       0.12500000 </v>
   <v>       0.37500000       0.75000000       0.12500000 </v>
   <v>       0.37500000       0.87500000       0.00000000 </v>
   <v>       0.25000000       0.75000000       0.25000000 </v>
   <v>       0.25000000       0.87500000       0.37500000 </v>
   <v>       0.37500000       0.75000000       0.37500000 </v>
   <v>       0.37500000       0.87500000       0.25000000 </v>
   <v>       0.25000000       0.75000000       0.50000000 </v>
   <v>       0.25000000       0.87500000       0.62500000 </v>
   <v>       0.37500000       0.75000000       0.62500000 </v>
   <v>       0.37500000       0.87500000       0.50000000 </v>
   <v>       0.25000000       0.75000000       0.75000000 </v>
   <v>       0.25000000       0.87500000       0.87500000 </v>
   <v>       0.37500000       0.75000000       0.87500000 </v>
   <v>       0.37500000       0.87500000       0.75000000 </v>
   <v>       0.50000000       0.00000000       0.00000000 </v>
   <v>       0.50000000       0.12500000       0.12500000 </v>
   <v>       0.62500000       0.00000000       0.12500000 </v>
   <v>       0.62500000       0.12500000       0.00000000 </v>
   <v>       0.50000000       0.00000000       0.25000000 </v>
   <v>       0.50000000       0.12500000       0.37500000 </v>
   <v>       0.62500000       0.00000000       0.37500000 </v>
   <v>       0.62500000       0.12500000       0.25000000 </v>
   <v>       0.50000000       0.00000000       0.50000000 </v>
   <v>       0.50000000       0.12500000       0.62500000 </v>
   <v>       0.62500000       0.00000000       0.62500000 </v>
   <v>       0.62500000       0.12500000       0.50000000 </v>
   <v>       0.50000000       0.00000000       0.75000000 </v>
   <v>       0.50000000       0.12500000       0.87500000 </v>
   <v>       0.62500000       0.00000000       0.87500000 </v>
   <v>       0.62500000       0.12500000       0.75000000 </v>
   <v>       0.50000000       0.25000000       0.00000000 </v>
   <v>       0.50000000       0.37500000       0.12500000 </v>
   <v>       0.62500000       0.25000000       0.12500000 </v>
   <v>       0.62500000       0.37500000       0.00000000 </v>
   <v>       0.50000000       0.25000000       0.25000000 </v>
   <v>       0.50000000       0.37500000       0.37500000 </v>
   <v>       0.62500000       0.25000000       0.37500000 </v>
   <v>       0.62500000       0.37500000       0.25000000 </v>
   <v>       0.50000000       0.25000000       0.50000000 </v>
   <v>       0.50000000       0.37500000       0.62500000 </v>
   <v>       0.62500000       0.25000000       0.62500000 </v>
   <v>       0.62500000       0.37500000       0.50000000 </v>
   <v>       0.50000000       0.25000000       0.75000000 </v>
   <v>       0.50000000       0.37500000       0.87500000 </v>
   <v>       0.62500000       0.25000000       0.87500000 </v>
   <v>       0.62500000       0.37500000       0.75000000 </v>
   <v>       0.50000000       0.50000000       0.00000000 </v>
   <v>       0.50000000       0.62500000       0.12500000 </v>
   <v>       0.62500000       0.50000000       0.12500000 </v>
   <v>       0.62500000       0.62500000       0.00000000 </v>
   <v>       0.50000000       0.50000000       0.25000000 </v>
   <v>       0.50000000       0.62500000       0.37500000 </v>
   <v>       0.62500000       0.50000000       0.37500000 </v>
   <v>       0.62500000       0.62500000       0.25000000 </v>
   <v>       0.50000000       0.50000000       0.50000000 </v>
   <v>       0.50000000       0.62500000       0.62500000 </v>
   <v>       0.62500000       0.50000000       0.62500000 </v>
   <v>       0.62500000       0.62500000       0.50000000 </v>
   <v>       0.50000000       0.50000000       0.75000000 </v>
   <v>       0.50000000       0.62500000       0.87500000 </v>
   <v>       0.62500000       0.50000000       0.87500000 </v>
   <v>       0.62500000       0.62500000       0.75000000 </v>
   <v>       0.50000000       0.75000000       0.00000000 </v>
   <v>       0.50000000       0.87500000       0.12500000 </v>
   <v>       0.62500000       0.75000000       0.12500000 </v>
   <v>       0.62500000       0.87500000       0.00000000 </v>
   <v>       0.50000000       0.75000000       0.25000000 </v>
   <v>       0.50000000       0.87500000       0.37500000 </v>
   <v>       0.62500000       0.75000000       0.37500000 </v>
   <v>       0.62500000       0.87500000       0.25000000 </v>
   <v>       0.50000000       0.75000000       0.50000000 </v>
   <v>       0.50000000       0.87500000       0.62500000 </v>
   <v>       0.62500000       0.75000000       0.62500000 </v>
   <v>       0.62500000       0.87500000       0.50000000 </v>
   <v>       0.50000000       0.75000000       0.75000000 </v>
   <v>       0.50000000       0.87500000       0.87500000 </v>
   <v>       0.62500000       0.75000000       0.87500000 </v>
   <v>       0.62500000       0.87500000       0.75000000 </v>
   <v>       0.75000000       0.00000000       0.00000000 </v>
   <v>       0.75000000       0.12500000       0.12500000 </v>
   <v>       0.87500000       0.00000000       0.12500000 </v>
   <v>       0.87500000       0.12500000       0.00000000 </v>
   <v>       0.75000000       0.00000000       0.25000000 </v>
   <v>       0.75000000       0.12500000       0.37500000 </v>
   <v>       0.87500000       0.00000000       0.37500000 </v>
   <v>       0.87500000       0.12500000       0.25000000 </v>
   <v>       0.75000000       0.00000000       0.50000000 </v>
   <v>       0.75000000       0.12500000       0.62500000 </v>
   <v>       0.87500000       0.00000000       0.62500000 </v>
   <v>       0.87500000       0.12500000       0.50000000 </v>
   <v>       0.75000000       0.00000000       0.75000000 </v>
   <v>       0.75000000       0.12500000       0.87500000 </v>
   <v>       0.87500000       0.00000000       0.87500000 </v>
   <v>       0.87500000       0.12500000       0.75000000 </v>
   <v>       0.75000000       0.25000000       0.00000000 </v>
   <v>       0.75000000       0.37500000       0.12500000 </v>
   <v>       0.87500000       0.25000000       0.12500000 </v>
   <v>       0.87500000       0.37500000       0.00000000 </v>
   <v>       0.75000000       0.25000000       0.25000000 </v>
   <v>       0.75000000       0.37500000       0.37500000 </v>
   <v>       0.87500000       0.25000000       0.37500000 </v>
   <v>       0.87500000       0.37500000       0.25000000 </v>
   <v>       0.75000000       0.25000000       0.50000000 </v>
   <v>       0.75000000       0.37500000       0.62500000 </v>
   <v>       0.87500000       0.25000000       0.62500000 </v>
   <v>       0.87500000       0.37500000       0.50000000 </v>
   <v>       0.75000000       0.25000000       0.75000000 </v>
   <v>       0.75000000       0.37500000       0.87500000 </v>
   <v>       0.87500000       0.25000000       0.87500000 </v>
   <v>       0.87500000       0.37500000       0.75000000 </v>
   <v>       0.75000000       0.50000000       0.00000000 </v>
   <v>       0.75000000       0.62500000       0.12500000 </v>
   <v>       0.87500000       0.50000000       0.12500000 </v>
   <v>       0.87500000       0.62500000       0.00000000 </v>
   <v>       0.75000000       0.50000000       0.25000000 </v>
   <v>       0.75000000       0.62500000       0.37500000 </v>
   <v>       0.87500000       0.50000000       0.37500000 </v>
   <v>       0.87500000       0.62500000       0.25000000 </v>
   <v>       0.75000000       0.50000000       0.50000000 </v>
   <v>       0.75000000       0.62500000       0.62500000 </v>
   <v>       0.87500000       0.50000000       0.62500000 </v>
   <v>       0.87500000       0.62500000       0.50000000 </v>
   <v>       0.75000000       0.50000000       0.75000000 </v>
   <v>       0.75000000       0.62500000       0.87500000 </v>
   <v>       0.87500000       0.50000000       0.87500000 </v>
   <v>       0.87500000       0.62500000       0.75000000 </v>
   <v>       0.75000000       0.75000000       0.00000000 </v>
   <v>       0.75000000       0.87500000       0.12500000 </v>
   <v>       0.87500000       0.75000000       0.12500000 </v>
   <v>       0.87500000       0.87500000       0.00000000 </v>
   <v>       0.75000000       0.75000000       0.25000000 </v>
   <v>       0.75000000       0.87500000       0.37500000 </v>
   <v>       0.87500000       0.75000000       0.37500000 </v>
   <v>       0.87500000       0.87500000       0.25000000 </v>
   <v>       0.75000000       0.75000000       0.50000000 </v>
   <v>       0.75000000       0.87500000       0.62500000 </v>
   <v>       0.87500000       0.75000000       0.62500000 </v>
   <v>       0.87500000       0.87500000       0.50000000 </v>
   <v>       0.75000000       0.75000000       0.75000000 </v>
   <v>       0.75000000       0.87500000       0.87500000 </v>
   <v>       0.87500000       0.75000000       0.87500000 </v>
   <v>       0.87500000       0.87500000       0.75000000 </v>
  </varray>
 </structure>
 <calculation>
  <scstep>
   <time name="dav">   20.55   20.55</time>
   <time name="total">   21.14   21.18</time>
   <energy>
    <i name="alphaZ">  24344.95203255 </i>
    <i name="ewald">-236714.19502262 </i>
    <i name="hartreedc"> -57612.99237724 </i>
    <i name="XCdc">   2964.12573976 </i>
    <i name="pawpsdc"> 243755.93551122 </i>
    <i name="pawaedc">-263627.63738642 </i>
    <i name="eentropy">     -0.09157112 </i>
    <i name="bandstr">  34909.83275144 </i>
    <i name="atom"> 275870.31320572 </i>
    <i name="e_fr_energy">  23890.24288328 </i>
    <i name="e_wo_entrp">  23890.33445441 </i>
    <i name="e_0_energy">  23890.28866885 </i>
   </energy>
  </scstep>
  <scstep>
   <time name="dav">   20.34   20.34</time>
   <time name="total">   20.35   20.35</time>
   <energy>
    <i name="e_fr_energy">    305.41796027 </i>
    <i name="e_wo_entrp">    305.65208212 </i>
    <i name="e_0_energy">    305.53502119 </i>
   </energy>
  </scstep>
  <scstep>
   <time name="dav">   21.02   21.02</time>
   <time name="total">   21.03   21.03</time>
   <energy>
    <i name="e_fr_energy">  -1435.06685775 </i>
    <i name="e_wo_entrp">  -1434.18431943 </i>
    <i name="e_0_energy">  -1434.62558859 </i>
   </energy>
  </scstep>
  <scstep>
   <time name="dav">   32.02   32.03</time>
   <time name="total">   32.03   32.04</time>
   <energy>
    <i name="e_fr_energy">  -1633.96446129 </i>
    <i name="e_wo_entrp">  -1632.62448988 </i>
    <i name="e_0_energy">  -1633.29447559 </i>
   </energy>
  </scstep>
  <scstep>
   <time name="dav">   25.85   25.85</time>
   <time name="total">   28.09   28.10</time>
   <energy>
    <i name="e_fr_energy">  -1640.90344116 </i>
    <i name="e_wo_entrp">  -1639.55240182 </i>
    <i name="e_0_energy">  -1640.22792149 </i>
   </energy>
  </scstep>
  <scstep>
   <time name="dav">   21.28   21.28</time>
   <time name="total">   24.09   24.10</time>
   <energy>
    <i name="e_fr_energy">  -1498.80472798 </i>
    <i name="e_wo_entrp">  -1497.09239543 </i>
    <i name="e_0_energy">  -1497.94856171 </i>
   </energy>
  </scstep>
  <scstep>
   <time name="dav">   20.72   20.72</time>
   <time name="total">   23.54   23.54</time>
   <energy>
    <i name="e_fr_energy">  -1387.38314694 </i>
    <i name="e_wo_entrp">  -1385.82804015 </i>
    <i name="e_0_energy">  -1386.60559354 </i>
   </energy>
  </scstep>
  <scstep>
   <time name="dav">   24.35   24.35</time>
   <time name="total">   27.18   27.18</time>
   <energy>
    <i name="e_fr_energy">  -1385.75469171 </i>
    <i name="e_wo_entrp">  -1384.17809996 </i>
    <i name="e_0_energy">  -1384.96639583 </i>
   </energy>
  </scstep>
  <scstep>
   <time name="dav">   21.34   21.34</time>
   <time name="total">   24.17   24.17</time>
   <energy>
    <i name="e_fr_energy">  -1384.31823499 </i>
    <i name="e_wo_entrp">  -1382.74214758 </i>
    <i name="e_0_energy">  -1383.53019129 </i>
   </energy>
  </scstep>
  <scstep>
   <time name="dav">   21.43   21.43</time>
   <time name="total">   24.27   24.27</time>
   <energy>
    <i name="e_fr_energy">  -1384.15255188 </i>
    <i name="e_wo_entrp">  -1382.58094082 </i>
    <i name="e_0_energy">  -1383.36674635 </i>
   </energy>
  </scstep>
  <scstep>
   <time name="dav">   26.66   26.67</time>
   <time name="total">   29.51   29.51</time>
   <energy>
    <i name="e_fr_energy">  -1384.15836131 </i>
    <i name="e_wo_entrp">  -1382.58604625 </i>
    <i name="e_0_energy">  -1383.37220378 </i>
   </energy>
  </scstep>
  <scstep>
   <time name="dav">   21.69   21.69</time>
   <time name="total">   24.52   24.52</time>
   <energy>
    <i name="e_fr_energy">  -1384.15666114 </i>
    <i name="e_wo_entrp">  -1382.58420932 </i>
    <i name="e_0_energy">  -1383.37043523 </i>
   </energy>
  </scstep>
  <scstep>
   <time name="dav">   25.41   25.42</time>
   <time name="total">   28.27   28.27</time>
   <energy>
    <i name="e_fr_energy">  -1384.15676115 </i>
    <i name="e_wo_entrp">  -1382.58422230 </i>
    <i name="e_0_energy">  -1383.37049173 </i>
   </energy>
  </scstep>
  <scstep>
   <time name="dav">   29.41   29.41</time>
   <time name="total">   32.27   32.27</time>
   <energy>
    <i name="e_fr_energy">  -1384.15676682 </i>
    <i name="e_wo_entrp">  -1382.58428670 </i>
    <i name="e_0_energy">  -1383.37052676 </i>
   </energy>
  </scstep>
  <scstep>
   <time name="dav">   22.25   22.26</time>
   <time name="total">   25.10   25.10</time>
   <energy>
    <i name="e_fr_energy">  -1384.15676370 </i>
    <i name="e_wo_entrp">  -1382.58428119 </i>
    <i name="e_0_energy">  -1383.37052244 </i>
   </energy>
  </scstep>
  <scstep>
   <time name="dav">   18.48   18.49</time>
   <time name="total">   21.33   21.33</time>
   <energy>
    <i name="e_fr_energy">  -1384.15676141 </i>
    <i name="e_wo_entrp">  -1382.58428166 </i>
    <i name="e_0_energy">  -1383.37052153 </i>
   </energy>
  </scstep>
  <scstep>
   <time name="dav">   13.64   13.64</time>
   <time name="total">   16.50   16.51</time>
   <energy>
    <i name="e_fr_energy">  -1384.15676155 </i>
    <i name="e_wo_entrp">  -1382.58428161 </i>
    <i name="e_0_energy">  -1383.37052158 </i>
   </energy>
  </scstep>
  <scstep>
   <time name="dav">   13.38   13.38</time>
   <time name="total">   16.23   16.24</time>
   <energy>
    <i name="e_fr_energy">  -1384.15676173 </i>
    <i name="e_wo_entrp">  -1382.58428296 </i>
    <i name="e_0_energy">  -1383.37052234 </i>
   </energy>
  </scstep>
  <scstep>
   <time name="dav">   13.25   13.25</time>
   <time name="total">   13.84   13.84</time>
   <energy>
    <i name="alphaZ">  24344.95203255 </i>
    <i name="ewald">-236714.19502262 </i>
    <i name="hartreedc"> -52775.26839423 </i>
    <i name="XCdc">   2749.15351359 </i>
    <i name="pawpsdc"> 271978.48257711 </i>
    <i name="pawaedc">-292037.02361805 </i>
    <i name="eentropy">     -1.57247863 </i>
    <i name="bandstr">   5201.00142284 </i>
    <i name="atom"> 275870.31320572 </i>
    <i name="e_fr_energy">  -1384.15676172 </i>
    <i name="e_wo_entrp">  -1382.58428309 </i>
    <i name="e_0_energy">  -1383.37052241 </i>
   </energy>
  </scstep>
  <structure>
   <crystal>
    <varray name="basis" >
     <v>      14.28000000       0.00000000       0.00000000 </v>
     <v>       0.00000000      14.28000000       0.00000000 </v>
     <v>       0.00000000       0.00000000      14.28000000 </v>
    </varray>
    <i name="volume">   2911.95475200 </i>
    <varray name="rec_basis" >
     <v>       0.07002801       0.00000000       0.00000000 </v>
     <v>       0.00000000       0.07002801       0.00000000 </v>
     <v>       0.00000000       0.00000000       0.07002801 </v>
    </varray>
   </crystal>
   <varray name="positions" >
    <v>       0.00000000       0.00000000       0.00000000 </v>
    <v>       0.00000000       0.12500000       0.12500000 </v>
    <v>       0.12500000       0.00000000       0.12500000 </v>
    <v>       0.12500000       0.12500000       0.00000000 </v>
    <v>       0.00000000       0.00000000       0.25000000 </v>
    <v>       0.00000000       0.12500000       0.37500000 </v>
    <v>       0.12500000       0.00000000       0.37500000 </v>
    <v>       0.12500000       0.12500000       0.25000000 </v>
    <v>       0.00000000       0.00000000       0.50000000 </v>
    <v>       0.00000000       0.12500000       0.62500000 </v>
    <v>       0.12500000       0.00000000       0.62500000 </v>
    <v>       0.12500000       0.12500000       0.50000000 </v>
    <v>       0.00000000       0.00000000       0.75000000 </v>
    <v>       0.00000000       0.12500000       0.87500000 </v>
    <v>       0.12500000       0.00000000       0.87500000 </v>
    <v>       0.12500000       0.12500000       0.75000000 </v>
    <v>       0.00000000       0.25000000       0.00000000 </v>
    <v>       0.00000000       0.37500000       0.12500000 </v>
    <v>       0.12500000       0.25000000       0.12500000 </v>
    <v>       0.12500000       0.37500000       0.00000000 </v>
    <v>       0.00000000       0.25000000       0.25000000 </v>
    <v>       0.00000000       0.37500000       0.37500000 </v>
    <v>       0.12500000       0.25000000       0.37500000 </v>
    <v>       0.12500000       0.37500000       0.25000000 </v>
    <v>       0.00000000       0.25000000       0.50000000 </v>
    <v>       0.00000000       0.37500000       0.62500000 </v>
    <v>       0.12500000       0.25000000       0.62500000 </v>
    <v>       0.12500000       0.37500000       0.50000000 </v>
    <v>       0.00000000       0.25000000       0.75000000 </v>
    <v>       0.00000000       0.37500000       0.87500000 </v>
    <v>       0.12500000       0.25000000       0.87500000 </v>
    <v>       0.12500000       0.37500000       0.75000000 </v>
    <v>       0.00000000       0.50000000       0.00000000 </v>
    <v>       0.00000000       0.62500000       0.12500000 </v>
    <v>       0.12500000       0.50000000       0.12500000 </v>
    <v>       0.12500000       0.62500000       0.00000000 </v>
    <v>       0.00000000       0.50000000       0.25000000 </v>
    <v>       0.00000000       0.62500000       0.37500000 </v>
    <v>       0.12500000       0.50000000       0.37500000 </v>
    <v>       0.12500000       0.62500000       0.25000000 </v>
    <v>       0.00000000       0.50000000       0.50000000 </v>
    <v>       0.00000000       0.62500000       0.62500000 </v>
    <v>       0.12500000       0.50000000       0.62500000 </v>
    <v>       0.12500000       0.62500000       0.50000000 </v>
    <v>       0.00000000       0.50000000       0.75000000 </v>
    <v>       0.00000000       0.62500000       0.87500000 </v>
    <v>       0.12500000       0.50000000       0.87500000 </v>
    <v>       0.12500000       0.62500000       0.75000000 </v>
    <v>       0.00000000       0.75000000       0.00000000 </v>
    <v>       0.00000000       0.87500000       0.12500000 </v>
    <v>       0.12500000       0.75000000       0.12500000 </v>
    <v>       0.12500000       0.87500000       0.00000000 </v>
    <v>       0.00000000       0.75000000       0.25000000 </v>
    <v>       0.00000000       0.87500000       0.37500000 </v>
    <v>       0.12500000       0.75000000       0.37500000 </v>
    <v>       0.12500000       0.87500000       0.25000000 </v>
    <v>       0.00000000       0.75000000       0.50000000 </v>
    <v>       0.00000000       0.87500000       0.62500000 </v>
    <v>       0.12500000       0.75000000       0.62500000 </v>
    <v>       0.12500000       0.87500000       0.50000000 </v>
    <v>       0.00000000       0.75000000       0.75000000 </v>
    <v>       0.00000000       0.87500000       0.87500000 </v>
    <v>       0.12500000       0.75000000       0.87500000 </v>
    <v>       0.12500000       0.87500000       0.75000000 </v>
    <v>       0.25000000       0.00000000       0.00000000 </v>
    <v>       0.25000000       0.12500000       0.12500000 </v>
    <v>       0.37500000       0.00000000       0.12500000 </v>
    <v>       0.37500000       0.12500000       0.00000000 </v>
    <v>       0.25000000       0.00000000       0.25000000 </v>
    <v>       0.25000000       0.12500000       0.37500000 </v>
    <v>       0.37500000       0.00000000       0.37500000 </v>
    <v>       0.37500000       0.12500000       0.25000000 </v>
    <v>       0.25000000       0.00000000       0.50000000 </v>
    <v>       0.25000000       0.12500000       0.62500000 </v>
    <v>       0.37500000       0.00000000       0.62500000 </v>
    <v>       0.37500000       0.12500000       0.50000000 </v>
    <v>       0.25000000       0.00000000       0.75000000 </v>
    <v>       0.25000000       0.12500000       0.87500000 </v>
    <v>       0.37500000       0.00000000       0.87500000 </v>
    <v>       0.37500000       0.12500000       0.75000000 </v>
    <v>       0.25000000       0.25000000       0.00000000 </v>
    <v>       0.25000000       0.37500000       0.12500000 </v>
    <v>       0.37500000       0.25000000       0.12500000 </v>
    <v>       0.37500000       0.37500000       0.00000000 </v>
    <v>       0.25000000       0.25000000       0.25000000 </v>
    <v>       0.25000000       0.37500000       0.37500000 </v>
    <v>       0.37500000       0.25000000       0.37500000 </v>
    <v>       0.37500000       0.37500000       0.25000000 </v>
    <v>       0.25000000       0.25000000       0.50000000 </v>
    <v>       0.25000000       0.37500000       0.62500000 </v>
    <v>       0.37500000       0.25000000       0.62500000 </v>
    <v>       0.37500000       0.37500000       0.50000000 </v>
    <v>       0.25000000       0.25000000       0.75000000 </v>
    <v>       0.25000000       0.37500000       0.87500000 </v>
    <v>       0.37500000       0.25000000       0.87500000 </v>
    <v>       0.37500000       0.37500000       0.75000000 </v>
    <v>       0.25000000       0.50000000       0.00000000 </v>
    <v>       0.25000000       0.62500000       0.12500000 </v>
    <v>       0.37500000       0.50000000       0.12500000 </v>
    <v>       0.37500000       0.62500000       0.00000000 </v>
    <v>       0.25000000       0.50000000       0.25000000 </v>
    <v>       0.25000000       0.62500000       0.37500000 </v>
    <v>       0.37500000       0.50000000       0.37500000 </v>
    <v>       0.37500000       0.62500000       0.25000000 </v>
    <v>       0.25000000       0.50000000       0.50000000 </v>
    <v>       0.25000000       0.62500000       0.62500000 </v>
    <v>       0.37500000       0.50000000       0.62500000 </v>
    <v>       0.37500000       0.62500000       0.50000000 </v>
    <v>       0.25000000       0.50000000       0.75000000 </v>
    <v>       0.25000000       0.62500000       0.87500000 </v>
    <v>       0.37500000       0.50000000       0.87500000 </v>
    <v>       0.37500000       0.62500000       0.75000000 </v>
    <v>       0.25000000       0.75000000       0.00000000 </v>
    <v>       0.25000000       0.87500000       0.12500000 </v>
    <v>       0.37500000       0.75000000       0.12500000 </v>
    <v>       0.37500000       0.87500000       0.00000000 </v>
    <v>       0.25000000       0.75000000       0.25000000 </v>
    <v>       0.25000000       0.87500000       0.37500000 </v>
    <v>       0.37500000       0.75000000       0.37500000 </v>
    <v>       0.37500000       0.87500000       0.25000000 </v>
    <v>       0.25000000       0.75000000       0.50000000 </v>
    <v>       0.25000000       0.87500000       0.62500000 </v>
    <v>       0.37500000       0.75000000       0.62500000 </v>
    <v>       0.37500000       0.87500000       0.50000000 </v>
    <v>       0.25000000       0.75000000       0.75000000 </v>
    <v>       0.25000000       0.87500000       0.87500000 </v>
    <v>       0.37500000       0.75000000       0.87500000 </v>
    <v>       0.37500000       0.87500000       0.75000000 </v>
    <v>       0.50000000       0.00000000       0.00000000 </v>
    <v>       0.50000000       0.12500000       0.12500000 </v>
    <v>       0.62500000       0.00000000       0.12500000 </v>
    <v>       0.62500000       0.12500000       0.00000000 </v>
    <v>       0.50000000       0.00000000       0.25000000 </v>
    <v>       0.50000000       0.12500000       0.37500000 </v>
    <v>       0.62500000       0.00000000       0.37500000 </v>
    <v>       0.62500000       0.12500000       0.25000000 </v>
    <v>       0.50000000       0.00000000       0.50000000 </v>
    <v>       0.50000000       0.12500000       0.62500000 </v>
    <v>       0.62500000       0.00000000       0.62500000 </v>
    <v>       0.62500000       0.12500000       0.50000000 </v>
    <v>       0.50000000       0.00000000       0.75000000 </v>
    <v>       0.50000000       0.12500000       0.87500000 </v>
    <v>       0.62500000       0.00000000       0.87500000 </v>
    <v>       0.62500000       0.12500000       0.75000000 </v>
    <v>       0.50000000       0.25000000       0.00000000 </v>
    <v>       0.50000000       0.37500000       0.12500000 </v>
    <v>       0.62500000       0.25000000       0.12500000 </v>
    <v>       0.62500000       0.37500000       0.00000000 </v>
    <v>       0.50000000       0.25000000       0.25000000 </v>
    <v>       0.50000000       0.37500000       0.37500000 </v>
    <v>       0.62500000       0.25000000       0.37500000 </v>
    <v>       0.62500000       0.37500000       0.25000000 </v>
    <v>       0.50000000       0.25000000       0.50000000 </v>
    <v>       0.50000000       0.37500000       0.62500000 </v>
    <v>       0.62500000       0.25000000       0.62500000 </v>
    <v>       0.62500000       0.37500000       0.50000000 </v>
    <v>       0.50000000       0.25000000       0.75000000 </v>
    <v>       0.50000000       0.37500000       0.87500000 </v>
    <v>       0.62500000       0.25000000       0.87500000 </v>
    <v>       0.62500000       0.37500000       0.75000000 </v>
    <v>       0.50000000       0.50000000       0.00000000 </v>
    <v>       0.50000000       0.62500000       0.12500000 </v>
    <v>       0.62500000       0.50000000       0.12500000 </v>
    <v>       0.62500000       0.62500000       0.00000000 </v>
    <v>       0.50000000       0.50000000       0.25000000 </v>
    <v>       0.50000000       0.62500000       0.37500000 </v>
    <v>       0.62500000       0.50000000       0.37500000 </v>
    <v>       0.62500000       0.62500000       0.25000000 </v>
    <v>       0.50000000       0.50000000       0.50000000 </v>
    <v>       0.50000000       0.62500000       0.62500000 </v>
    <v>       0.62500000       0.50000000       0.62500000 </v>
    <v>       0.62500000       0.62500000       0.50000000 </v>
    <v>       0.50000000       0.50000000       0.75000000 </v>
    <v>       0.50000000       0.62500000       0.87500000 </v>
    <v>       0.62500000       0.50000000       0.87500000 </v>
    <v>       0.62500000       0.62500000       0.75000000 </v>
    <v>       0.50000000       0.75000000       0.00000000 </v>
    <v>       0.50000000       0.87500000       0.12500000 </v>
    <v>       0.62500000       0.75000000       0.12500000 </v>
    <v>       0.62500000       0.87500000       0.00000000 </v>
    <v>       0.50000000       0.75000000       0.25000000 </v>
    <v>       0.50000000       0.87500000       0.37500000 </v>
    <v>       0.62500000       0.75000000       0.37500000 </v>
    <v>       0.62500000       0.87500000       0.25000000 </v>
    <v>       0.50000000       0.75000000       0.50000000 </v>
    <v>       0.50000000       0.87500000       0.62500000 </v>
    <v>       0.62500000       0.75000000       0.62500000 </v>
    <v>       0.62500000       0.87500000       0.50000000 </v>
    <v>       0.50000000       0.75000000       0.75000000 </v>
    <v>       0.50000000       0.87500000       0.87500000 </v>
    <v>       0.62500000       0.75000000       0.87500000 </v>
    <v>       0.62500000       0.87500000       0.75000000 </v>
    <v>       0.75000000       0.00000000       0.00000000 </v>
    <v>       0.75000000       0.12500000       0.12500000 </v>
    <v>       0.87500000       0.00000000       0.12500000 </v>
    <v>       0.87500000       0.12500000       0.00000000 </v>
    <v>       0.75000000       0.00000000       0.25000000 </v>
    <v>       0.75000000       0.12500000       0.37500000 </v>
    <v>       0.87500000       0.00000000       0.37500000 </v>
    <v>       0.87500000       0.12500000       0.25000000 </v>
    <v>       0.75000000       0.00000000       0.50000000 </v>
    <v>       0.75000000       0.12500000       0.62500000 </v>
    <v>       0.87500000       0.00000000       0.62500000 </v>
    <v>       0.87500000       0.12500000       0.50000000 </v>
    <v>       0.75000000       0.00000000       0.75000000 </v>
    <v>       0.75000000       0.12500000       0.87500000 </v>
    <v>       0.87500000       0.00000000       0.87500000 </v>
    <v>       0.87500000       0.12500000       0.75000000 </v>
    <v>       0.75000000       0.25000000       0.00000000 </v>
    <v>       0.75000000       0.37500000       0.12500000 </v>
    <v>       0.87500000       0.25000000       0.12500000 </v>
    <v>       0.87500000       0.37500000       0.00000000 </v>
    <v>       0.75000000       0.25000000       0.25000000 </v>
    <v>       0.75000000       0.37500000       0.37500000 </v>
    <v>       0.87500000       0.25000000       0.37500000 </v>
    <v>       0.87500000       0.37500000       0.25000000 </v>
    <v>       0.75000000       0.25000000       0.50000000 </v>
    <v>       0.75000000       0.37500000       0.62500000 </v>
    <v>       0.87500000       0.25000000       0.62500000 </v>
    <v>       0.87500000       0.37500000       0.50000000 </v>
    <v>       0.75000000       0.25000000       0.75000000 </v>
    <v>       0.75000000       0.37500000       0.87500000 </v>
    <v>       0.87500000       0.25000000       0.87500000 </v>
    <v>       0.87500000       0.37500000       0.75000000 </v>
    <v>       0.75000000       0.50000000       0.00000000 </v>
    <v>       0.75000000       0.62500000       0.12500000 </v>
    <v>       0.87500000       0.50000000       0.12500000 </v>
    <v>       0.87500000       0.62500000       0.00000000 </v>
    <v>       0.75000000       0.50000000       0.25000000 </v>
    <v>       0.75000000       0.62500000       0.37500000 </v>
    <v>       0.87500000       0.50000000       0.37500000 </v>
    <v>       0.87500000       0.62500000       0.25000000 </v>
    <v>       0.75000000       0.50000000       0.50000000 </v>
    <v>       0.75000000       0.62500000       0.62500000 </v>
    <v>       0.87500000       0.50000000       0.62500000 </v>
    <v>       0.87500000       0.62500000       0.50000000 </v>
    <v>       0.75000000       0.50000000       0.75000000 </v>
    <v>       0.75000000       0.62500000       0.87500000 </v>
    <v>       0.87500000       0.50000000       0.87500000 </v>
    <v>       0.87500000       0.62500000       0.75000000 </v>
    <v>       0.75000000       0.75000000       0.00000000 </v>
    <v>       0.75000000       0.87500000       0.12500000 </v>
    <v>       0.87500000       0.75000000       0.12500000 </v>
    <v>       0.87500000       0.87500000       0.00000000 </v>
    <v>       0.75000000       0.75000000       0.25000000 </v>
    <v>       0.75000000       0.87500000       0.37500000 </v>
    <v>       0.87500000       0.75000000       0.37500000 </v>
    <v>       0.87500000       0.87500000       0.25000000 </v>
    <v>       0.75000000       0.75000000       0.50000000 </v>
    <v>       0.75000000       0.87500000       0.62500000 </v>
    <v>       0.87500000       0.75000000       0.62500000 </v>
    <v>       0.87500000       0.87500000       0.50000000 </v>
    <v>       0.75000000       0.75000000       0.75000000 </v>
    <v>       0.75000000       0.87500000       0.87500000 </v>
    <v>       0.87500000       0.75000000       0.87500000 </v>
    <v>       0.87500000       0.87500000       0.75000000 </v>
   </varray>
  </structure>
  <varray name="forces" >
   <v>       0.00000000       0.00000000       0.00000000 </v>
   <v>       0.00000000       0.00000000       0.00000000 </v>
   <v>       0.00000000       0.00000000       0.00000000 </v>
   <v>      -0.00000000       0.00000000      -0.00000000 </v>
   <v>      -0.00000000      -0.00000000      -0.00000000 </v>
   <v>      -0.00000000       0.00000000      -0.00000000 </v>
   <v>      -0.00000000      -0.00000000      -0.00000000 </v>
   <v>       0.00000000      -0.00000000       0.00000000 </v>
   <v>      -0.00000000      -0.00000000       0.00000000 </v>
   <v>      -0.00000000      -0.00000000       0.00000000 </v>
   <v>      -0.00000000      -0.00000000      -0.00000000 </v>
   <v>      -0.00000000       0.00000000       0.00000000 </v>
   <v>       0.00000000       0.00000000      -0.00000000 </v>
   <v>       0.00000000       0.00000000      -0.00000000 </v>
   <v>       0.00000000       0.00000000      -0.00000000 </v>
   <v>       0.00000000       0.00000000      -0.00000000 </v>
   <v>       0.00000000       0.00000000      -0.00000000 </v>
   <v>       0.00000000       0.00000000      -0.00000000 </v>
   <v>       0.00000000       0.00000000      -0.00000000 </v>
   <v>       0.00000000       0.00000000       0.00000000 </v>
   <v>       0.00000000       0.00000000      -0.00000000 </v>
   <v>      -0.00000000      -0.00000000      -0.00000000 </v>
   <v>       0.00000000       0.00000000       0.00000000 </v>
   <v>       0.00000000       0.00000000      -0.00000000 </v>
   <v>      -0.00000000      -0.00000000       0.00000000 </v>
   <v>       0.00000000       0.00000000      -0.00000000 </v>
   <v>      -0.00000000       0.00000000       0.00000000 </v>
   <v>      -0.00000000      -0.00000000       0.00000000 </v>
   <v>      -0.00000000       0.00000000      -0.00000000 </v>
   <v>       0.00000000       0.00000000       0.00000000 </v>
   <v>      -0.00000000       0.00000000       0.00000000 </v>
   <v>      -0.00000000      -0.00000000      -0.00000000 </v>
   <v>       0.00000000      -0.00000000      -0.00000000 </v>
   <v>       0.00000000       0.00000000      -0.00000000 </v>
   <v>       0.00000000      -0.00000000      -0.00000000 </v>
   <v>      -0.00000000      -0.00000000       0.00000000 </v>
   <v>      -0.00000000      -0.00000000      -0.00000000 </v>
   <v>      -0.00000000       0.00000000       0.00000000 </v>
   <v>      -0.00000000      -0.00000000      -0.00000000 </v>
   <v>       0.00000000       0.00000000      -0.00000000 </v>
   <v>      -0.00000000      -0.00000000       0.00000000 </v>
   <v>       0.00000000      -0.00000000       0.00000000 </v>
   <v>      -0.00000000      -0.00000000       0.00000000 </v>
   <v>      -0.00000000       0.00000000      -0.00000000 </v>
   <v>       0.00000000      -0.00000000       0.00000000 </v>
   <v>      -0.00000000      -0.00000000      -0.00000000 </v>
   <v>       0.00000000      -0.00000000      -0.00000000 </v>
   <v>       0.00000000      -0.00000000      -0.00000000 </v>
   <v>       0.00000000       0.00000000      -0.00000000 </v>
   <v>       0.00000000       0.00000000       0.00000000 </v>
   <v>       0.00000000       0.00000000      -0.00000000 </v>
   <v>       0.00000000       0.00000000      -0.00000000 </v>
   <v>       0.00000000      -0.00000000       0.00000000 </v>
   <v>      -0.00000000       0.00000000       0.00000000 </v>
   <v>      -0.00000000      -0.00000000       0.00000000 </v>
   <v>       0.00000000      -0.00000000       0.00000000 </v>
   <v>      -0.00000000      -0.00000000       0.00000000 </v>
   <v>      -0.00000000      -0.00000000       0.00000000 </v>
   <v>      -0.00000000      -0.00000000      -0.00000000 </v>
   <v>      -0.00000000      -0.00000000      -0.00000000 </v>
   <v>      -0.00000000      -0.00000000      -0.00000000 </v>
   <v>       0.00000000       0.00000000      -0.00000000 </v>
   <v>      -0.00000000      -0.00000000       0.00000000 </v>
   <v>      -0.00000000      -0.00000000       0.00000000 </v>
   <v>       0.00000000       0.00000000      -0.00000000 </v>
   <v>      -0.00000000       0.00000000      -0.00000000 </v>
   <v>       0.00000000       0.00000000       0.00000000 </v>
   <v>       0.00000000      -0.00000000      -0.00000000 </v>
   <v>       0.00000000       0.00000000      -0.00000000 </v>
   <v>       0.00000000      -0.00000000      -0.00000000 </v>
   <v>       0.00000000       0.00000000      -0.00000000 </v>
   <v>      -0.00000000      -0.00000000       0.00000000 </v>
   <v>      -0.00000000      -0.00000000      -0.00000000 </v>
   <v>      -0.00000000       0.00000000       0.00000000 </v>
   <v>      -0.00000000      -0.00000000      -0.00000000 </v>
   <v>       0.00000000      -0.00000000      -0.00000000 </v>
   <v>      -0.00000000      -0.00000000       0.00000000 </v>
   <v>       0.00000000       0.00000000       0.00000000 </v>
   <v>      -0.00000000      -0.00000000       0.00000000 </v>
   <v>      -0.00000000      -0.00000000       0.00000000 </v>
   <v>      -0.00000000      -0.00000000       0.00000000 </v>
   <v>       0.00000000       0.00000000       0.00000000 </v>
   <v>      -0.00000000      -0.00000000       0.00000000 </v>
   <v>      -0.00000000      -0.00000000      -0.00000000 </v>
   <v>       0.00000000       0.00000000      -0.00000000 </v>
   <v>       0.00000000       0.00000000      -0.00000000 </v>
   <v>       0.00000000       0.00000000      -0.00000000 </v>
   <v>      -0.00000000       0.00000000       0.00000000 </v>
   <v>       0.00000000       0.00000000       0.00000000 </v>
   <v>      -0.00000000      -0.00000000       0.00000000 </v>
   <v>       0.00000000       0.00000000       0.00000000 </v>
   <v>       0.00000000       0.00000000      -0.00000000 </v>
   <v>      -0.00000000      -0.00000000       0.00000000 </v>
   <v>      -0.00000000      -0.00000000      -0.00000000 </v>
   <v>      -0.00000000       0.00000000       0.00000000 </v>
   <v>      -0.00000000      -0.00000000       0.00000000 </v>
   <v>       0.00000000       0.00000000       0.00000000 </v>
   <v>       0.00000000       0.00000000      -0.00000000 </v>
   <v>       0.00000000      -0.00000000      -0.00000000 </v>
   <v>       0.00000000      -0.00000000       0.00000000 </v>
   <v>       0.00000000      -0.00000000      -0.00000000 </v>
   <v>       0.00000000       0.00000000      -0.00000000 </v>
   <v>       0.00000000      -0.00000000       0.00000000 </v>
   <v>       0.00000000       0.00000000       0.00000000 </v>
   <v>      -0.00000000      -0.00000000      -0.00000000 </v>
   <v>      -0.00000000      -0.00000000       0.00000000 </v>
   <v>      -0.00000000      -0.00000000       0.00000000 </v>
   <v>       0.00000000       0.00000000      -0.00000000 </v>
   <v>      -0.00000000      -0.00000000       0.00000000 </v>
   <v>      -0.00000000      -0.00000000       0.00000000 </v>
   <v>      -0.00000000      -0.00000000      -0.00000000 </v>
   <v>      -0.00000000      -0.00000000      -0.00000000 </v>
   <v>      -0.00000000      -0.00000000       0.00000000 </v>
   <v>       0.00000000       0.00000000      -0.00000000 </v>
   <v>      -0.00000000      -0.00000000      -0.00000000 </v>
   <v>      -0.00000000      -0.00000000       0.00000000 </v>
   <v>       0.00000000       0.00000000       0.00000000 </v>
   <v>       0.00000000      -0.00000000       0.00000000 </v>
   <v>       0.00000000       0.00000000       0.00000000 </v>
   <v>       0.00000000       0.00000000      -0.00000000 </v>
   <v>       0.00000000       0.00000000       0.00000000 </v>
   <v>      -0.00000000      -0.00000000       0.00000000 </v>
   <v>       0.00000000       0.00000000       0.00000000 </v>
   <v>       0.00000000      -0.00000000       0.00000000 </v>
   <v>      -0.00000000      -0.00000000      -0.00000000 </v>
   <v>      -0.00000000      -0.00000000       0.00000000 </v>
   <v>       0.00000000      -0.00000000      -0.00000000 </v>
   <v>      -0.00000000      -0.00000000      -0.00000000 </v>
   <v>      -0.00000000      -0.00000000      -0.00000000 </v>
   <v>       0.00000000      -0.00000000       0.00000000 </v>
   <v>      -0.00000000       0.00000000       0.00000000 </v>
   <v>      -0.00000000      -0.00000000       0.00000000 </v>
   <v>       0.00000000       0.00000000       0.00000000 </v>
   <v>      -0.00000000       0.00000000      -0.00000000 </v>
   <v>       0.00000000       0.00000000      -0.00000000 </v>
   <v>       0.00000000      -0.00000000      -0.00000000 </v>
   <v>       0.00000000       0.00000000      -0.00000000 </v>
   <v>       0.00000000      -0.00000000       0.00000000 </v>
   <v>       0.00000000      -0.00000000      -0.00000000 </v>
   <v>      -0.00000000       0.00000000      -0.00000000 </v>
   <v>      -0.00000000      -0.00000000      -0.00000000 </v>
   <v>      -0.00000000       0.00000000       0.00000000 </v>
   <v>      -0.00000000       0.00000000      -0.00000000 </v>
   <v>      -0.00000000       0.00000000      -0.00000000 </v>
   <v>      -0.00000000       0.00000000       0.00000000 </v>
   <v>      -0.00000000      -0.00000000      -0.00000000 </v>
   <v>      -0.00000000       0.00000000       0.00000000 </v>
   <v>      -0.00000000      -0.00000000       0.00000000 </v>
   <v>      -0.00000000       0.00000000      -0.00000000 </v>
   <v>       0.00000000       0.00000000       0.00000000 </v>
   <v>      -0.00000000       0.00000000      -0.00000000 </v>
   <v>      -0.00000000      -0.00000000      -0.00000000 </v>
   <v>       0.00000000       0.00000000      -0.00000000 </v>
   <v>       0.00000000       0.00000000      -0.00000000 </v>
   <v>       0.00000000       0.00000000       0.00000000 </v>
   <v>       0.00000000       0.00000000       0.00000000 </v>
   <v>      -0.00000000       0.00000000       0.00000000 </v>
   <v>      -0.00000000      -0.00000000       0.00000000 </v>
   <v>       0.00000000       0.00000000       0.00000000 </v>
   <v>       0.00000000       0.00000000      -0.00000000 </v>
   <v>      -0.00000000      -0.00000000       0.00000000 </v>
   <v>       0.00000000      -0.00000000       0.00000000 </v>
   <v>      -0.00000000      -0.00000000       0.00000000 </v>
   <v>       0.00000000      -0.00000000       0.00000000 </v>
   <v>       0.00000000      -0.00000000       0.00000000 </v>
   <v>      -0.00000000      -0.00000000       0.00000000 </v>
   <v>       0.00000000      -0.00000000       0.00000000 </v>
   <v>       0.00000000      -0.00000000       0.00000000 </v>
   <v>       0.00000000      -0.00000000      -0.00000000 </v>
   <v>      -0.00000000       0.00000000      -0.00000000 </v>
[...]
       <r>     7.5101    16.1319  2948.1522 </r>
       <r>     7.5641    56.5750  2951.2106 </r>
       <r>     7.6182    48.0040  2953.8056 </r>
       <r>     7.6722   110.8776  2959.7994 </r>
       <r>     7.7263   210.7149  2971.1902 </r>
       <r>     7.7804    89.7191  2976.0402 </r>
       <r>     7.8344    24.4436  2977.3616 </r>
       <r>     7.8885     2.5245  2977.4980 </r>
       <r>     7.9425     0.1243  2977.5048 </r>
       <r>     7.9966     8.6958  2977.9748 </r>
       <r>     8.0506   104.8898  2983.6450 </r>
       <r>     8.1047   175.5304  2993.1338 </r>
       <r>     8.1588    42.4229  2995.4271 </r>
       <r>     8.2128     1.3440  2995.4997 </r>
       <r>     8.2669     0.0052  2995.5000 </r>
       <r>     8.3209     0.1440  2995.5078 </r>
       <r>     8.3750     8.3662  2995.9601 </r>
       <r>     8.4291    65.0676  2999.4775 </r>
       <r>     8.4831    77.7293  3003.6794 </r>
       <r>     8.5372    14.7698  3004.4778 </r>
       <r>     8.5912     0.5933  3004.5099 </r>
       <r>     8.6453     8.6457  3004.9772 </r>
       <r>     8.6993    52.0287  3007.7898 </r>
       <r>     8.7534    47.2889  3010.3461 </r>
       <r>     8.8075    40.9893  3012.5619 </r>
       <r>     8.8615   103.5635  3018.1604 </r>
       <r>     8.9156   152.0589  3026.3803 </r>
       <r>     8.9696   147.3913  3034.3480 </r>
       <r>     9.0237    99.7551  3039.7406 </r>
       <r>     9.0778    13.8006  3040.4866 </r>
       <r>     9.1318     0.2473  3040.5000 </r>
       <r>     9.1859     0.0005  3040.5000 </r>
       <r>     9.2399     0.0000  3040.5000 </r>
       <r>     9.2940     0.0000  3040.5000 </r>
       <r>     9.3480     0.0001  3040.5000 </r>
       <r>     9.4021     0.0445  3040.5024 </r>
       <r>     9.4562     3.7473  3040.7050 </r>
       <r>     9.5102    38.8773  3042.8066 </r>
       <r>     9.5643    56.2924  3045.8497 </r>
       <r>     9.6183    11.7159  3046.4830 </r>
       <r>     9.6724     0.6091  3046.5159 </r>
       <r>     9.7264     5.6471  3046.8212 </r>
       <r>     9.7805    34.1626  3048.6679 </r>
       <r>     9.8346   107.6405  3054.4868 </r>
       <r>     9.8886   105.7777  3060.2049 </r>
       <r>     9.9427    31.5539  3061.9106 </r>
       <r>     9.9967    30.1885  3063.5426 </r>
       <r>    10.0508    33.7571  3065.3674 </r>
       <r>    10.1049    38.4806  3067.4476 </r>
       <r>    10.1589    58.7415  3070.6230 </r>
       <r>    10.2130    22.5482  3071.8419 </r>
       <r>    10.2670     2.8346  3071.9952 </r>
       <r>    10.3211     0.0888  3072.0000 </r>
       <r>    10.3751     0.0004  3072.0000 </r>
       <r>    10.4292     0.0000  3072.0000 </r>
       <r>    10.4833     0.0000  3072.0000 </r>
       <r>    10.5373     0.0000  3072.0000 </r>
       <r>    10.5914     0.0000  3072.0000 </r>
       <r>    10.6454     0.0000  3072.0000 </r>
       <r>    10.6995     0.0000  3072.0000 </r>
       <r>    10.7535     0.0000  3072.0000 </r>
       <r>    10.8076     0.0000  3072.0000 </r>
       <r>    10.8617     0.0000  3072.0000 </r>
       <r>    10.9157     0.0000  3072.0000 </r>
      </set>
     </set>
    </array>
   </total>
  </dos>
 </calculation>
 <structure name="finalpos" >
  <crystal>
   <varray name="basis" >
    <v>      14.28000000       0.00000000       0.00000000 </v>
    <v>       0.00000000      14.28000000       0.00000000 </v>
    <v>       0.00000000       0.00000000      14.28000000 </v>
   </varray>
   <i name="volume">   2911.95475200 </i>
   <varray name="rec_basis" >
    <v>       0.07002801       0.00000000       0.00000000 </v>
    <v>       0.00000000       0.07002801       0.00000000 </v>
    <v>       0.00000000       0.00000000       0.07002801 </v>
   </varray>
  </crystal>
  <varray name="positions" >
   <v>       0.00000000       0.00000000       0.00000000 </v>
   <v>       0.00000000       0.12500000       0.12500000 </v>
   <v>       0.12500000       0.00000000       0.12500000 </v>
   <v>       0.12500000       0.12500000       0.00000000 </v>
   <v>       0.00000000       0.00000000       0.25000000 </v>
   <v>       0.00000000       0.12500000       0.37500000 </v>
   <v>       0.12500000       0.00000000       0.37500000 </v>
   <v>       0.12500000       0.12500000       0.25000000 </v>
   <v>       0.00000000       0.00000000       0.50000000 </v>
   <v>       0.00000000       0.12500000       0.62500000 </v>
   <v>       0.12500000       0.00000000       0.62500000 </v>
   <v>       0.12500000       0.12500000       0.50000000 </v>
   <v>       0.00000000       0.00000000       0.75000000 </v>
   <v>       0.00000000       0.12500000       0.87500000 </v>
   <v>       0.12500000       0.00000000       0.87500000 </v>
   <v>       0.12500000       0.12500000       0.75000000 </v>
   <v>       0.00000000       0.25000000       0.00000000 </v>
   <v>       0.00000000       0.37500000       0.12500000 </v>
   <v>       0.12500000       0.25000000       0.12500000 </v>
   <v>       0.12500000       0.37500000       0.00000000 </v>
   <v>       0.00000000       0.25000000       0.25000000 </v>
   <v>       0.00000000       0.37500000       0.37500000 </v>
   <v>       0.12500000       0.25000000       0.37500000 </v>
   <v>       0.12500000       0.37500000       0.25000000 </v>
   <v>       0.00000000       0.25000000       0.50000000 </v>
   <v>       0.00000000       0.37500000       0.62500000 </v>
   <v>       0.12500000       0.25000000       0.62500000 </v>
   <v>       0.12500000       0.37500000       0.50000000 </v>
   <v>       0.00000000       0.25000000       0.75000000 </v>
   <v>       0.00000000       0.37500000       0.87500000 </v>
   <v>       0.12500000       0.25000000       0.87500000 </v>
   <v>       0.12500000       0.37500000       0.75000000 </v>
   <v>       0.00000000       0.50000000       0.00000000 </v>
   <v>       0.00000000       0.62500000       0.12500000 </v>
   <v>       0.12500000       0.50000000       0.12500000 </v>
   <v>       0.12500000       0.62500000       0.00000000 </v>
   <v>       0.00000000       0.50000000       0.25000000 </v>
   <v>       0.00000000       0.62500000       0.37500000 </v>
   <v>       0.12500000       0.50000000       0.37500000 </v>
   <v>       0.12500000       0.62500000       0.25000000 </v>
   <v>       0.00000000       0.50000000       0.50000000 </v>
   <v>       0.00000000       0.62500000       0.62500000 </v>
   <v>       0.12500000       0.50000000       0.62500000 </v>
   <v>       0.12500000       0.62500000       0.50000000 </v>
   <v>       0.00000000       0.50000000       0.75000000 </v>
   <v>       0.00000000       0.62500000       0.87500000 </v>
   <v>       0.12500000       0.50000000       0.87500000 </v>
   <v>       0.12500000       0.62500000       0.75000000 </v>
   <v>       0.00000000       0.75000000       0.00000000 </v>
   <v>       0.00000000       0.87500000       0.12500000 </v>
   <v>       0.12500000       0.75000000       0.12500000 </v>
   <v>       0.12500000       0.87500000       0.00000000 </v>
   <v>       0.00000000       0.75000000       0.25000000 </v>
   <v>       0.00000000       0.87500000       0.37500000 </v>
   <v>       0.12500000       0.75000000       0.37500000 </v>
   <v>       0.12500000       0.87500000       0.25000000 </v>
   <v>       0.00000000       0.75000000       0.50000000 </v>
   <v>       0.00000000       0.87500000       0.62500000 </v>
   <v>       0.12500000       0.75000000       0.62500000 </v>
   <v>       0.12500000       0.87500000       0.50000000 </v>
   <v>       0.00000000       0.75000000       0.75000000 </v>
   <v>       0.00000000       0.87500000       0.87500000 </v>
   <v>       0.12500000       0.75000000       0.87500000 </v>
   <v>       0.12500000       0.87500000       0.75000000 </v>
   <v>       0.25000000       0.00000000       0.00000000 </v>
   <v>       0.25000000       0.12500000       0.12500000 </v>
   <v>       0.37500000       0.00000000       0.12500000 </v>
   <v>       0.37500000       0.12500000       0.00000000 </v>
   <v>       0.25000000       0.00000000       0.25000000 </v>
   <v>       0.25000000       0.12500000       0.37500000 </v>
   <v>       0.37500000       0.00000000       0.37500000 </v>
   <v>       0.37500000       0.12500000       0.25000000 </v>
   <v>       0.25000000       0.00000000       0.50000000 </v>
   <v>       0.25000000       0.12500000       0.62500000 </v>
   <v>       0.37500000       0.00000000       0.62500000 </v>
   <v>       0.37500000       0.12500000       0.50000000 </v>
   <v>       0.25000000       0.00000000       0.75000000 </v>
   <v>       0.25000000       0.12500000       0.87500000 </v>
   <v>       0.37500000       0.00000000       0.87500000 </v>
   <v>       0.37500000       0.12500000       0.75000000 </v>
   <v>       0.25000000       0.25000000       0.00000000 </v>
   <v>       0.25000000       0.37500000       0.12500000 </v>
   <v>       0.37500000       0.25000000       0.12500000 </v>
   <v>       0.37500000       0.37500000       0.00000000 </v>
   <v>       0.25000000       0.25000000       0.25000000 </v>
   <v>       0.25000000       0.37500000       0.37500000 </v>
   <v>       0.37500000       0.25000000       0.37500000 </v>
   <v>       0.37500000       0.37500000       0.25000000 </v>
   <v>       0.25000000       0.25000000       0.50000000 </v>
   <v>       0.25000000       0.37500000       0.62500000 </v>
   <v>       0.37500000       0.25000000       0.62500000 </v>
   <v>       0.37500000       0.37500000       0.50000000 </v>
   <v>       0.25000000       0.25000000       0.75000000 </v>
   <v>       0.25000000       0.37500000       0.87500000 </v>
   <v>       0.37500000       0.25000000       0.87500000 </v>
   <v>       0.37500000       0.37500000       0.75000000 </v>
   <v>       0.25000000       0.50000000       0.00000000 </v>
   <v>       0.25000000       0.62500000       0.12500000 </v>
   <v>       0.37500000       0.50000000       0.12500000 </v>
   <v>       0.37500000       0.62500000       0.00000000 </v>
   <v>       0.25000000       0.50000000       0.25000000 </v>
   <v>       0.25000000       0.62500000       0.37500000 </v>
   <v>       0.37500000       0.50000000       0.37500000 </v>
   <v>       0.37500000       0.62500000       0.25000000 </v>
   <v>       0.25000000       0.50000000       0.50000000 </v>
   <v>       0.25000000       0.62500000       0.62500000 </v>
   <v>       0.37500000       0.50000000       0.62500000 </v>
   <v>       0.37500000       0.62500000       0.50000000 </v>
   <v>       0.25000000       0.50000000       0.75000000 </v>
   <v>       0.25000000       0.62500000       0.87500000 </v>
   <v>       0.37500000       0.50000000       0.87500000 </v>
   <v>       0.37500000       0.62500000       0.75000000 </v>
   <v>       0.25000000       0.75000000       0.00000000 </v>
   <v>       0.25000000       0.87500000       0.12500000 </v>
   <v>       0.37500000       0.75000000       0.12500000 </v>
   <v>       0.37500000       0.87500000       0.00000000 </v>
   <v>       0.25000000       0.75000000       0.25000000 </v>
   <v>       0.25000000       0.87500000       0.37500000 </v>
   <v>       0.37500000       0.75000000       0.37500000 </v>
   <v>       0.37500000       0.87500000       0.25000000 </v>
   <v>       0.25000000       0.75000000       0.50000000 </v>
   <v>       0.25000000       0.87500000       0.62500000 </v>
   <v>       0.37500000       0.75000000       0.62500000 </v>
   <v>       0.37500000       0.87500000       0.50000000 </v>
   <v>       0.25000000       0.75000000       0.75000000 </v>
   <v>       0.25000000       0.87500000       0.87500000 </v>
   <v>       0.37500000       0.75000000       0.87500000 </v>
   <v>       0.37500000       0.87500000       0.75000000 </v>
   <v>       0.50000000       0.00000000       0.00000000 </v>
   <v>       0.50000000       0.12500000       0.12500000 </v>
   <v>       0.62500000       0.00000000       0.12500000 </v>
   <v>       0.62500000       0.12500000       0.00000000 </v>
   <v>       0.50000000       0.00000000       0.25000000 </v>
   <v>       0.50000000       0.12500000       0.37500000 </v>
   <v>       0.62500000       0.00000000       0.37500000 </v>
   <v>       0.62500000       0.12500000       0.25000000 </v>
   <v>       0.50000000       0.00000000       0.50000000 </v>
   <v>       0.50000000       0.12500000       0.62500000 </v>
   <v>       0.62500000       0.00000000       0.62500000 </v>
   <v>       0.62500000       0.12500000       0.50000000 </v>
   <v>       0.50000000       0.00000000       0.75000000 </v>
   <v>       0.50000000       0.12500000       0.87500000 </v>
   <v>       0.62500000       0.00000000       0.87500000 </v>
   <v>       0.62500000       0.12500000       0.75000000 </v>
   <v>       0.50000000       0.25000000       0.00000000 </v>
   <v>       0.50000000       0.37500000       0.12500000 </v>
   <v>       0.62500000       0.25000000       0.12500000 </v>
   <v>       0.62500000       0.37500000       0.00000000 </v>
   <v>       0.50000000       0.25000000       0.25000000 </v>
   <v>       0.50000000       0.37500000       0.37500000 </v>
   <v>       0.62500000       0.25000000       0.37500000 </v>
   <v>       0.62500000       0.37500000       0.25000000 </v>
   <v>       0.50000000       0.25000000       0.50000000 </v>
   <v>       0.50000000       0.37500000       0.62500000 </v>
   <v>       0.62500000       0.25000000       0.62500000 </v>
   <v>       0.62500000       0.37500000       0.50000000 </v>
   <v>       0.50000000       0.25000000       0.75000000 </v>
   <v>       0.50000000       0.37500000       0.87500000 </v>
   <v>       0.62500000       0.25000000       0.87500000 </v>
   <v>       0.62500000       0.37500000       0.75000000 </v>
   <v>       0.50000000       0.50000000       0.00000000 </v>
   <v>       0.50000000       0.62500000       0.12500000 </v>
   <v>       0.62500000       0.50000000       0.12500000 </v>
   <v>       0.62500000       0.62500000       0.00000000 </v>
   <v>       0.50000000       0.50000000       0.25000000 </v>
   <v>       0.50000000       0.62500000       0.37500000 </v>
   <v>       0.62500000       0.50000000       0.37500000 </v>
   <v>       0.62500000       0.62500000       0.25000000 </v>
   <v>       0.50000000       0.50000000       0.50000000 </v>
   <v>       0.50000000       0.62500000       0.62500000 </v>
   <v>       0.62500000       0.50000000       0.62500000 </v>
   <v>       0.62500000       0.62500000       0.50000000 </v>
   <v>       0.50000000       0.50000000       0.75000000 </v>
   <v>       0.50000000       0.62500000       0.87500000 </v>
   <v>       0.62500000       0.50000000       0.87500000 </v>
   <v>       0.62500000       0.62500000       0.75000000 </v>
   <v>       0.50000000       0.75000000       0.00000000 </v>
   <v>       0.50000000       0.87500000       0.12500000 </v>
   <v>       0.62500000       0.75000000       0.12500000 </v>
   <v>       0.62500000       0.87500000       0.00000000 </v>
   <v>       0.50000000       0.75000000       0.25000000 </v>
   <v>       0.50000000       0.87500000       0.37500000 </v>
   <v>       0.62500000       0.75000000       0.37500000 </v>
   <v>       0.62500000       0.87500000       0.25000000 </v>
   <v>       0.50000000       0.75000000       0.50000000 </v>
   <v>       0.50000000       0.87500000       0.62500000 </v>
   <v>       0.62500000       0.75000000       0.62500000 </v>
   <v>       0.62500000       0.87500000       0.50000000 </v>
   <v>       0.50000000       0.75000000       0.75000000 </v>
   <v>       0.50000000       0.87500000       0.87500000 </v>
   <v>       0.62500000       0.75000000       0.87500000 </v>
   <v>       0.62500000       0.87500000       0.75000000 </v>
   <v>       0.75000000       0.00000000       0.00000000 </v>
   <v>       0.75000000       0.12500000       0.12500000 </v>
   <v>       0.87500000       0.00000000       0.12500000 </v>
   <v>       0.87500000       0.12500000       0.00000000 </v>
   <v>       0.75000000       0.00000000       0.25000000 </v>
   <v>       0.75000000       0.12500000       0.37500000 </v>
   <v>       0.87500000       0.00000000       0.37500000 </v>
   <v>       0.87500000       0.12500000       0.25000000 </v>
   <v>       0.75000000       0.00000000       0.50000000 </v>
   <v>       0.75000000       0.12500000       0.62500000 </v>
   <v>       0.87500000       0.00000000       0.62500000 </v>
   <v>       0.87500000       0.12500000       0.50000000 </v>
   <v>       0.75000000       0.00000000       0.75000000 </v>
   <v>       0.75000000       0.12500000       0.87500000 </v>
   <v>       0.87500000       0.00000000       0.87500000 </v>
   <v>       0.87500000       0.12500000       0.75000000 </v>
   <v>       0.75000000       0.25000000       0.00000000 </v>
   <v>       0.75000000       0.37500000       0.12500000 </v>
   <v>       0.87500000       0.25000000       0.12500000 </v>
   <v>       0.87500000       0.37500000       0.00000000 </v>
   <v>       0.75000000       0.25000000       0.25000000 </v>
   <v>       0.75000000       0.37500000       0.37500000 </v>
   <v>       0.87500000       0.25000000       0.37500000 </v>
   <v>       0.87500000       0.37500000       0.25000000 </v>
   <v>       0.75000000       0.25000000       0.50000000 </v>
   <v>       0.75000000       0.37500000       0.62500000 </v>
   <v>       0.87500000       0.25000000       0.62500000 </v>
   <v>       0.87500000       0.37500000       0.50000000 </v>
   <v>       0.75000000       0.25000000       0.75000000 </v>
   <v>       0.75000000       0.37500000       0.87500000 </v>
   <v>       0.87500000       0.25000000       0.87500000 </v>
   <v>       0.87500000       0.37500000       0.75000000 </v>
   <v>       0.75000000       0.50000000       0.00000000 </v>
   <v>       0.75000000       0.62500000       0.12500000 </v>
   <v>       0.87500000       0.50000000       0.12500000 </v>
   <v>       0.87500000       0.62500000       0.00000000 </v>
   <v>       0.75000000       0.50000000       0.25000000 </v>
   <v>       0.75000000       0.62500000       0.37500000 </v>
   <v>       0.87500000       0.50000000       0.37500000 </v>
   <v>       0.87500000       0.62500000       0.25000000 </v>
   <v>       0.75000000       0.50000000       0.50000000 </v>
   <v>       0.75000000       0.62500000       0.62500000 </v>
   <v>       0.87500000       0.50000000       0.62500000 </v>
   <v>       0.87500000       0.62500000       0.50000000 </v>
   <v>       0.75000000       0.50000000       0.75000000 </v>
   <v>       0.75000000       0.62500000       0.87500000 </v>
   <v>       0.87500000       0.50000000       0.87500000 </v>
   <v>       0.87500000       0.62500000       0.75000000 </v>
   <v>       0.75000000       0.75000000       0.00000000 </v>
   <v>       0.75000000       0.87500000       0.12500000 </v>
   <v>       0.87500000       0.75000000       0.12500000 </v>
   <v>       0.87500000       0.87500000       0.00000000 </v>
   <v>       0.75000000       0.75000000       0.25000000 </v>
   <v>       0.75000000       0.87500000       0.37500000 </v>
   <v>       0.87500000       0.75000000       0.37500000 </v>
   <v>       0.87500000       0.87500000       0.25000000 </v>
   <v>       0.75000000       0.75000000       0.50000000 </v>
   <v>       0.75000000       0.87500000       0.62500000 </v>
   <v>       0.87500000       0.75000000       0.62500000 </v>
   <v>       0.87500000       0.87500000       0.50000000 </v>
   <v>       0.75000000       0.75000000       0.75000000 </v>
   <v>       0.75000000       0.87500000       0.87500000 </v>
   <v>       0.87500000       0.75000000       0.87500000 </v>
   <v>       0.87500000       0.87500000       0.75000000 </v>
  </varray>
 </structure>
</modeling>
