 254 254   0   0
  0.2268316E+02  0.1514622E-08  0.1514622E-08  0.2900000E-08  0.5000000E-15
   1.0000000000000000E-004
  CAR 
 NiAl                                    
      6.00885251    -23.59418586  301     -0.57353672      1.00000000
    -23.594  0.0000E+00  0.0000E+00
    -23.496  0.0000E+00  0.0000E+00
    -23.397  0.0000E+00  0.0000E+00
    -23.298  0.0000E+00  0.0000E+00
    -23.199  0.0000E+00  0.0000E+00
    -23.101  0.0000E+00  0.0000E+00
    -23.002  0.0000E+00  0.0000E+00
    -22.903  0.0000E+00  0.0000E+00
    -22.805  0.0000E+00  0.0000E+00
    -22.706  0.0000E+00  0.0000E+00
    -22.607  0.0000E+00  0.0000E+00
    -22.509  0.1829E-11  0.1805E-12
    -22.410  0.4907E-04  0.4842E-05
    -22.311  0.7599E+00  0.7499E-01
    -22.213  0.1634E+02  0.1688E+01
    -22.114  0.3163E+01  0.2000E+01
    -22.015  0.1458E-02  0.2000E+01
    -21.917  0.4386E-09  0.2000E+01
    -21.818  0.0000E+00  0.2000E+01
    -21.719  0.0000E+00  0.2000E+01
    -21.621  0.0000E+00  0.2000E+01
    -21.522  0.0000E+00  0.2000E+01
    -21.423  0.0000E+00  0.2000E+01
    -21.325  0.0000E+00  0.2000E+01
    -21.226  0.0000E+00  0.2000E+01
    -21.127  0.0000E+00  0.2000E+01
    -21.029  0.0000E+00  0.2000E+01
    -20.930  0.0000E+00  0.2000E+01
    -20.831  0.0000E+00  0.2000E+01
    -20.733  0.0000E+00  0.2000E+01
    -20.634  0.0000E+00  0.2000E+01
    -20.535  0.0000E+00  0.2000E+01
    -20.437  0.0000E+00  0.2000E+01
    -20.338  0.0000E+00  0.2000E+01
    -20.239  0.0000E+00  0.2000E+01
    -20.140  0.0000E+00  0.2000E+01
    -20.042  0.0000E+00  0.2000E+01
    -19.943  0.0000E+00  0.2000E+01
    -19.844  0.0000E+00  0.2000E+01
    -19.746  0.0000E+00  0.2000E+01
    -19.647  0.0000E+00  0.2000E+01
    -19.548  0.0000E+00  0.2000E+01
    -19.450  0.0000E+00  0.2000E+01
    -19.351  0.0000E+00  0.2000E+01
    -19.252  0.0000E+00  0.2000E+01
    -19.154  0.0000E+00  0.2000E+01
    -19.055  0.0000E+00  0.2000E+01
    -18.956  0.0000E+00  0.2000E+01
    -18.858  0.0000E+00  0.2000E+01
    -18.759  0.0000E+00  0.2000E+01
    -18.660  0.0000E+00  0.2000E+01
    -18.562  0.0000E+00  0.2000E+01
    -18.463  0.0000E+00  0.2000E+01
    -18.364  0.0000E+00  0.2000E+01
    -18.266  0.0000E+00  0.2000E+01
    -18.167  0.0000E+00  0.2000E+01
    -18.068  0.0000E+00  0.2000E+01
    -17.970  0.0000E+00  0.2000E+01
    -17.871  0.0000E+00  0.2000E+01
    -17.772  0.0000E+00  0.2000E+01
    -17.674  0.0000E+00  0.2000E+01
    -17.575  0.0000E+00  0.2000E+01
    -17.476  0.0000E+00  0.2000E+01
    -17.378  0.0000E+00  0.2000E+01
    -17.279  0.0000E+00  0.2000E+01
    -17.180  0.0000E+00  0.2000E+01
    -17.082  0.0000E+00  0.2000E+01
    -16.983  0.0000E+00  0.2000E+01
    -16.884  0.0000E+00  0.2000E+01
    -16.785  0.0000E+00  0.2000E+01
    -16.687  0.0000E+00  0.2000E+01
    -16.588  0.0000E+00  0.2000E+01
    -16.489  0.0000E+00  0.2000E+01
    -16.391  0.0000E+00  0.2000E+01
    -16.292  0.0000E+00  0.2000E+01
    -16.193  0.0000E+00  0.2000E+01
    -16.095  0.0000E+00  0.2000E+01
    -15.996  0.0000E+00  0.2000E+01
    -15.897  0.0000E+00  0.2000E+01
    -15.799  0.0000E+00  0.2000E+01
    -15.700  0.1149E-08  0.2000E+01
    -15.601  0.2587E-02  0.2000E+01
    -15.503  0.3915E+01  0.2387E+01
    -15.404  0.1580E+02  0.3946E+01
    -15.305  0.5494E+00  0.4000E+01
    -15.207  0.2436E-04  0.4000E+01
    -15.108  0.6132E-12  0.4000E+01
    -15.009  0.0000E+00  0.4000E+01
    -14.911  0.0000E+00  0.4000E+01
    -14.812  0.0000E+00  0.4000E+01
    -14.713  0.0000E+00  0.4000E+01
    -14.615  0.0000E+00  0.4000E+01
    -14.516  0.0000E+00  0.4000E+01
    -14.417  0.0000E+00  0.4000E+01
    -14.319  0.0000E+00  0.4000E+01
    -14.220  0.0000E+00  0.4000E+01
    -14.121  0.0000E+00  0.4000E+01
    -14.023  0.0000E+00  0.4000E+01
    -13.924  0.0000E+00  0.4000E+01
    -13.825  0.0000E+00  0.4000E+01
    -13.727  0.0000E+00  0.4000E+01
    -13.628  0.0000E+00  0.4000E+01
    -13.529  0.0000E+00  0.4000E+01
    -13.430  0.0000E+00  0.4000E+01
    -13.332  0.0000E+00  0.4000E+01
    -13.233  0.0000E+00  0.4000E+01
    -13.134  0.0000E+00  0.4000E+01
    -13.036  0.0000E+00  0.4000E+01
    -12.937  0.0000E+00  0.4000E+01
    -12.838  0.0000E+00  0.4000E+01
    -12.740  0.0000E+00  0.4000E+01
    -12.641  0.0000E+00  0.4000E+01
    -12.542  0.0000E+00  0.4000E+01
    -12.444  0.0000E+00  0.4000E+01
    -12.345  0.0000E+00  0.4000E+01
    -12.246  0.0000E+00  0.4000E+01
    -12.148  0.0000E+00  0.4000E+01
    -12.049  0.0000E+00  0.4000E+01
    -11.950  0.0000E+00  0.4000E+01
    -11.852  0.0000E+00  0.4000E+01
    -11.753  0.0000E+00  0.4000E+01
    -11.654  0.0000E+00  0.4000E+01
    -11.556  0.0000E+00  0.4000E+01
    -11.457  0.0000E+00  0.4000E+01
    -11.358  0.0000E+00  0.4000E+01
    -11.260  0.0000E+00  0.4000E+01
    -11.161  0.0000E+00  0.4000E+01
    -11.062  0.0000E+00  0.4000E+01
    -10.964  0.0000E+00  0.4000E+01
    -10.865  0.0000E+00  0.4000E+01
    -10.766  0.0000E+00  0.4000E+01
    -10.668  0.0000E+00  0.4000E+01
    -10.569  0.0000E+00  0.4000E+01
    -10.470  0.0000E+00  0.4000E+01
    -10.371  0.0000E+00  0.4000E+01
    -10.273  0.0000E+00  0.4000E+01
    -10.174  0.0000E+00  0.4000E+01
    -10.075  0.0000E+00  0.4000E+01
     -9.977  0.0000E+00  0.4000E+01
     -9.878  0.0000E+00  0.4000E+01
     -9.779  0.0000E+00  0.4000E+01
     -9.681  0.0000E+00  0.4000E+01
     -9.582  0.0000E+00  0.4000E+01
     -9.483  0.0000E+00  0.4000E+01
     -9.385  0.3012E-11  0.4000E+01
     -9.286  0.4031E-04  0.4000E+01
     -9.187  0.3226E+00  0.4032E+01
     -9.089  0.4224E+01  0.4449E+01
     -8.990  0.7092E+00  0.4519E+01
     -8.891  0.1849E+02  0.6343E+01
     -8.793  0.1169E+02  0.7497E+01
     -8.694  0.6432E-01  0.7503E+01
     -8.595  0.3114E+01  0.7811E+01
     -8.497  0.4411E+01  0.8246E+01
     -8.398  0.3457E+02  0.1166E+02
     -8.299  0.2396E+02  0.1402E+02
     -8.201  0.2295E+02  0.1629E+02
     -8.102  0.7229E+01  0.1700E+02
     -8.003  0.9597E+00  0.1709E+02
     -7.905  0.2399E+02  0.1946E+02
     -7.806  0.7387E+01  0.2019E+02
     -7.707  0.2316E+02  0.2248E+02
     -7.609  0.2809E+02  0.2525E+02
     -7.510  0.7024E+02  0.3218E+02
     -7.411  0.3263E+01  0.3250E+02
     -7.313  0.5546E-02  0.3250E+02
     -7.214  0.7919E+01  0.3328E+02
     -7.115  0.6822E+02  0.4001E+02
     -7.016  0.4972E+02  0.4492E+02
     -6.918  0.1732E+02  0.4663E+02
     -6.819  0.1740E+02  0.4835E+02
     -6.720  0.2514E+02  0.5083E+02
     -6.622  0.2372E+02  0.5317E+02
     -6.523  0.3945E+02  0.5706E+02
     -6.424  0.4842E+02  0.6184E+02
     -6.326  0.8017E+02  0.6975E+02
     -6.227  0.1456E+02  0.7119E+02
     -6.128  0.4654E+02  0.7578E+02
     -6.030  0.6025E+02  0.8172E+02
     -5.931  0.9085E+02  0.9069E+02
     -5.832  0.1965E+02  0.9263E+02
     -5.734  0.1357E+02  0.9397E+02
     -5.635  0.1414E+02  0.9536E+02
     -5.536  0.4455E+02  0.9976E+02
     -5.438  0.1246E+03  0.1121E+03
     -5.339  0.9468E+02  0.1214E+03
     -5.240  0.7165E+02  0.1285E+03
     -5.142  0.9229E+02  0.1376E+03
     -5.043  0.1124E+03  0.1487E+03
     -4.944  0.8029E+02  0.1566E+03
     -4.846  0.4328E+02  0.1609E+03
     -4.747  0.2247E+03  0.1830E+03
     -4.648  0.1914E+03  0.2019E+03
     -4.550  0.2022E+03  0.2219E+03
     -4.451  0.2293E+03  0.2445E+03
     -4.352  0.2995E+03  0.2740E+03
     -4.254  0.2314E+03  0.2969E+03
     -4.155  0.2874E+03  0.3252E+03
     -4.056  0.1869E+03  0.3437E+03
     -3.958  0.4396E+03  0.3871E+03
     -3.859  0.4607E+03  0.4325E+03
     -3.760  0.4980E+03  0.4817E+03
     -3.661  0.4033E+03  0.5215E+03
     -3.563  0.4828E+03  0.5691E+03
     -3.464  0.3814E+03  0.6067E+03
     -3.365  0.3463E+03  0.6409E+03
     -3.267  0.3532E+03  0.6758E+03
     -3.168  0.4934E+03  0.7244E+03
     -3.069  0.4966E+03  0.7734E+03
     -2.971  0.3332E+03  0.8063E+03
     -2.872  0.5802E+03  0.8636E+03
     -2.773  0.5427E+03  0.9171E+03
     -2.675  0.5014E+03  0.9666E+03
     -2.576  0.5498E+03  0.1021E+04
     -2.477  0.6343E+03  0.1083E+04
     -2.379  0.7073E+03  0.1153E+04
     -2.280  0.8259E+03  0.1235E+04
     -2.181  0.9056E+03  0.1324E+04
     -2.083  0.7889E+03  0.1402E+04
     -1.984  0.9384E+03  0.1495E+04
     -1.885  0.6988E+03  0.1564E+04
     -1.787  0.5733E+03  0.1620E+04
     -1.688  0.5781E+03  0.1677E+04
     -1.589  0.5313E+03  0.1730E+04
     -1.491  0.5623E+03  0.1785E+04
     -1.392  0.8255E+03  0.1867E+04
     -1.293  0.7528E+03  0.1941E+04
     -1.195  0.4850E+03  0.1989E+04
     -1.096  0.7198E+03  0.2060E+04
     -0.997  0.7561E+03  0.2134E+04
     -0.899  0.8843E+03  0.2222E+04
     -0.800  0.6248E+03  0.2283E+04
     -0.701  0.9029E+03  0.2372E+04
     -0.602  0.1240E+04  0.2495E+04
     -0.504  0.1088E+04  0.2602E+04
     -0.405  0.4931E+03  0.2651E+04
     -0.306  0.1708E+03  0.2668E+04
     -0.208  0.1224E+03  0.2680E+04
     -0.109  0.1688E+03  0.2696E+04
     -0.010  0.1564E+03  0.2712E+04
      0.088  0.7830E+02  0.2719E+04
      0.187  0.5273E+02  0.2725E+04
      0.286  0.3850E+02  0.2728E+04
      0.384  0.6449E+02  0.2735E+04
      0.483  0.1177E+03  0.2746E+04
      0.582  0.9142E+02  0.2755E+04
      0.680  0.9121E+02  0.2764E+04
      0.779  0.7776E+02  0.2772E+04
      0.878  0.1265E+03  0.2785E+04
      0.976  0.1409E+03  0.2799E+04
      1.075  0.3521E+02  0.2802E+04
      1.174  0.2136E+02  0.2804E+04
      1.272  0.1195E+03  0.2816E+04
      1.371  0.7091E+02  0.2823E+04
      1.470  0.3045E+02  0.2826E+04
      1.568  0.8201E+02  0.2834E+04
      1.667  0.1099E+03  0.2845E+04
      1.766  0.7597E+02  0.2852E+04
      1.864  0.8339E+02  0.2861E+04
      1.963  0.9768E+02  0.2870E+04
      2.062  0.4578E+02  0.2875E+04
      2.160  0.6727E+02  0.2881E+04
      2.259  0.1109E+03  0.2892E+04
      2.358  0.1072E+03  0.2903E+04
      2.456  0.3194E+02  0.2906E+04
      2.555  0.6904E+02  0.2913E+04
      2.654  0.3363E+02  0.2916E+04
      2.753  0.1685E+02  0.2918E+04
      2.851  0.3733E+02  0.2922E+04
      2.950  0.7874E+02  0.2929E+04
      3.049  0.2128E+03  0.2950E+04
      3.147  0.1255E+03  0.2963E+04
      3.246  0.2883E+02  0.2966E+04
      3.345  0.2754E+02  0.2968E+04
      3.443  0.8791E+02  0.2977E+04
      3.542  0.5759E+02  0.2983E+04
      3.641  0.4020E+02  0.2987E+04
      3.739  0.7612E+02  0.2994E+04
      3.838  0.1742E+02  0.2996E+04
      3.937  0.1940E+02  0.2998E+04
      4.035  0.1762E+02  0.2999E+04
      4.134  0.5985E+02  0.3005E+04
      4.233  0.4324E+02  0.3010E+04
      4.331  0.4857E+02  0.3014E+04
      4.430  0.8238E+02  0.3023E+04
      4.529  0.6048E+02  0.3029E+04
      4.627  0.6610E+02  0.3035E+04
      4.726  0.2949E+02  0.3038E+04
      4.825  0.4826E+00  0.3038E+04
      4.923  0.2615E-04  0.3038E+04
      5.022  0.9451E-12  0.3038E+04
      5.121  0.0000E+00  0.3038E+04
      5.219  0.0000E+00  0.3038E+04
      5.318  0.0000E+00  0.3038E+04
      5.417  0.0000E+00  0.3038E+04
      5.515  0.0000E+00  0.3038E+04
      5.614  0.0000E+00  0.3038E+04
      5.713  0.0000E+00  0.3038E+04
      5.811  0.0000E+00  0.3038E+04
      5.910  0.0000E+00  0.3038E+04
      6.009  0.0000E+00  0.3038E+04
