  254  254    1    1
  0.2268316E+02  0.1514622E-08  0.1514622E-08  0.2900000E-08  0.5000000E-15
   1.0000000000000000E-004
  CAR 
 NiAl                                    
   2532      4   1519
 
  0.1262379E-14  0.1262379E-14  0.1262379E-14  0.2500000E+00
    1      -22.248593   1.000000
    2      -15.472125   1.000000
    3       -9.133468   1.000000
    4       -8.606209   1.000000
    5       -8.229005   1.000000
    6       -8.225346   1.000000
    7       -8.225236   1.000000
    8       -8.225165   1.000000
    9       -8.225117   1.000000
   10       -8.225084   1.000000
   11       -7.789555   1.000000
   12       -7.735857   1.000000
   13       -7.719937   1.000000
   14       -7.719285   1.000000
   15       -7.719090   1.000000
   16       -7.719066   1.000000
   17       -7.718997   1.000000
   18       -7.061774   1.000000
   19       -6.933615   1.000000
   20       -6.931097   1.000000
   21       -6.930958   1.000000
   22       -6.930825   1.000000
   23       -6.930691   1.000000
   24       -6.794829   1.000000
   25       -6.622574   1.000000
   26       -6.585577   1.000000
   27       -6.585523   1.000000
   28       -6.584924   1.000000
   29       -6.584734   1.000000
   30       -6.584654   1.000000
   31       -6.572607   1.000000
   32       -6.182109   1.000000
   33       -6.166759   1.000000
   34       -6.162846   1.000000
   35       -6.162105   1.000000
   36       -6.161910   1.000000
   37       -6.159820   1.000000
   38       -6.058620   1.000000
   39       -5.969792   1.000000
   40       -5.959316   1.000000
   41       -5.959018   1.000000
   42       -5.958902   1.000000
   43       -5.958215   1.000000
   44       -5.954485   1.000000
   45       -5.954299   1.000000
   46       -5.954133   1.000000
   47       -5.954096   1.000000
   48       -5.954012   1.000000
   49       -5.952853   1.000000
   50       -5.784901   1.000000
   51       -5.662681   1.000000
   52       -5.630230   1.000000
   53       -5.620004   1.000000
   54       -5.619199   1.000000
   55       -5.619129   1.000000
   56       -5.618008   1.000000
   57       -5.601654   1.000000
   58       -5.549964   1.000000
   59       -5.530602   1.000000
   60       -5.529013   1.000000
   61       -5.528742   1.000000
   62       -5.527497   1.000000
   63       -5.468817   1.000000
   64       -5.275207   1.000000
   65       -5.163369   1.000000
   66       -5.161939   1.000000
   67       -5.161778   1.000000
   68       -5.160643   1.000000
   69       -5.154679   1.000000
   70       -5.124534   1.000000
   71       -5.058497   1.000000
   72       -5.009458   1.000000
   73       -5.008240   1.000000
   74       -5.008181   1.000000
   75       -5.007933   1.000000
   76       -4.980546   1.000000
   77       -4.930359   1.000000
   78       -4.867644   1.000000
   79       -4.816406   1.000000
   80       -4.816219   1.000000
   81       -4.815870   1.000000
   82       -4.800442   1.000000
   83       -4.798124   1.000000
   84       -4.797704   1.000000
   85       -4.796977   1.000000
   86       -4.777903   1.000000
   87       -4.764871   1.000000
   88       -4.696270   1.000000
   89       -4.694225   1.000000
   90       -4.694191   1.000000
   91       -4.693147   1.000000
   92       -4.680355   1.000000
   93       -4.678746   1.000000
   94       -4.660434   1.000000
   95       -4.660093   1.000000
   96       -4.659978   1.000000
   97       -4.584503   1.000000
   98       -4.584372   1.000000
   99       -4.584315   1.000000
  100       -4.584113   1.000000
  101       -4.584091   1.000000
  102       -4.584074   1.000000
  103       -4.584050   1.000000
  104       -4.583969   1.000000
  105       -4.583959   1.000000
  106       -4.583910   1.000000
  107       -4.583640   1.000000
  108       -4.582450   1.000000
  109       -4.538637   1.000000
  110       -4.538244   1.000000
  111       -4.536879   1.000000
  112       -4.453003   1.000000
  113       -4.452019   1.000000
  114       -4.451523   1.000000
  115       -4.432454   1.000000
  116       -4.430217   1.000000
  117       -4.430113   1.000000
  118       -4.430054   1.000000
  119       -4.425546   1.000000
  120       -4.394066   1.000000
  121       -4.386907   1.000000
  122       -4.386692   1.000000
  123       -4.386080   1.000000
  124       -4.385694   1.000000
  125       -4.385675   1.000000
  126       -4.385600   1.000000
  127       -4.385580   1.000000
  128       -4.385537   1.000000
  129       -4.385508   1.000000
  130       -4.385247   1.000000
  131       -4.383271   1.000000
  132       -4.383134   1.000000
  133       -4.352125   1.000000
  134       -4.351873   1.000000
  135       -4.351754   1.000000
  136       -4.351464   1.000000
  137       -4.351269   1.000000
  138       -4.351207   1.000000
  139       -4.351164   1.000000
  140       -4.351124   1.000000
  141       -4.350918   1.000000
  142       -4.350770   1.000000
  143       -4.350744   1.000000
  144       -4.349901   1.000000
  145       -4.307575   1.000000
  146       -4.306342   1.000000
  147       -4.306315   1.000000
  148       -4.306228   1.000000
  149       -4.305283   1.000000
  150       -4.292327   1.000000
  151       -4.274230   1.000000
  152       -4.270437   1.000000
  153       -4.270343   1.000000
  154       -4.269728   1.000000
  155       -4.263376   1.000000
  156       -4.255525   1.000000
  157       -4.250761   1.000000
  158       -4.250166   1.000000
  159       -4.246612   1.000000
  160       -4.215503   1.000000
  161       -4.214979   1.000000
  162       -4.214946   1.000000
  163       -4.214355   1.000000
  164       -4.213804   1.000000
  165       -4.213370   1.000000
  166       -4.213225   1.000000
  167       -4.212969   1.000000
  168       -4.212885   1.000000
  169       -4.212581   1.000000
  170       -4.212091   1.000000
  171       -4.208977   1.000000
  172       -4.146459   1.000000
  173       -4.143675   1.000000
  174       -4.143064   1.000000
  175       -4.142788   1.000000
  176       -4.136278   1.000000
  177       -4.121742   1.000000
  178       -4.104030   1.000000
  179       -4.103814   1.000000
  180       -4.103636   1.000000
  181       -4.044856   1.000000
  182       -4.033334   1.000000
  183       -4.032340   1.000000
  184       -4.017883   1.000000
  185       -4.015282   1.000000
  186       -4.014622   1.000000
  187       -4.013903   1.000000
  188       -4.013842   1.000000
  189       -4.013369   1.000000
  190       -4.013147   1.000000
  191       -4.013082   1.000000
  192       -4.012905   1.000000
  193       -4.012767   1.000000
  194       -4.011689   1.000000
  195       -4.006537   1.000000
  196       -3.952449   1.000000
  197       -3.949529   1.000000
  198       -3.947667   1.000000
  199       -3.904253   1.000000
  200       -3.896487   1.000000
  201       -3.896217   1.000000
  202       -3.894297   1.000000
  203       -3.893799   1.000000
  204       -3.893736   1.000000
  205       -3.893452   1.000000
  206       -3.888391   1.000000
  207       -3.884314   1.000000
  208       -3.825008   1.000000
  209       -3.824386   1.000000
  210       -3.824311   1.000000
  211       -3.824139   1.000000
  212       -3.824017   1.000000
  213       -3.823981   1.000000
  214       -3.823886   1.000000
  215       -3.823831   1.000000
  216       -3.823731   1.000000
  217       -3.823686   1.000000
  218       -3.823643   1.000000
  219       -3.823618   1.000000
  220       -3.819302   1.000000
  221       -3.818236   1.000000
  222       -3.818028   1.000000
  223       -3.817887   1.000000
  224       -3.817612   1.000000
  225       -3.816299   1.000000
  226       -3.773435   1.000000
  227       -3.766427   1.000000
  228       -3.765575   1.000000
  229       -3.765397   1.000000
  230       -3.765271   1.000000
  231       -3.764717   1.000000
  232       -3.764700   1.000000
  233       -3.764630   1.000000
  234       -3.764527   1.000000
  235       -3.764244   1.000000
  236       -3.763171   1.000000
  237       -3.759313   1.000000
  238       -3.743807   1.000000
  239       -3.742160   1.000000
  240       -3.741871   1.000000
  241       -3.741747   1.000000
  242       -3.739835   1.000000
  243       -3.734505   1.000000
  244       -3.703060   1.000000
  245       -3.702583   1.000000
  246       -3.702496   1.000000
  247       -3.702410   1.000000
  248       -3.700841   1.000000
  249       -3.700723   1.000000
  250       -3.698865   1.000000
  251       -3.698725   1.000000
  252       -3.698650   1.000000
  253       -3.698640   1.000000
  254       -3.690124   1.000000
  255       -3.690066   1.000000
  256       -3.640372   1.000000
  257       -3.638336   1.000000
  258       -3.637992   1.000000
  259       -3.636324   1.000000
  260       -3.636214   1.000000
  261       -3.635998   1.000000
  262       -3.635900   1.000000
  263       -3.635823   1.000000
  264       -3.635788   1.000000
  265       -3.635653   1.000000
  266       -3.635552   1.000000
  267       -3.635456   1.000000
  268       -3.628710   1.000000
  269       -3.628469   1.000000
  270       -3.628036   1.000000
  271       -3.603812   1.000000
  272       -3.603319   1.000000
  273       -3.602763   1.000000
  274       -3.602576   1.000000
  275       -3.585624   1.000000
  276       -3.581695   1.000000
  277       -3.581519   1.000000
  278       -3.580841   1.000000
  279       -3.580244   1.000000
  280       -3.578148   1.000000
  281       -3.569181   1.000000
  282       -3.568969   1.000000
  283       -3.558845   1.000000
  284       -3.558651   1.000000
  285       -3.558513   1.000000
  286       -3.558424   1.000000
  287       -3.556980   1.000000
  288       -3.556768   1.000000
  289       -3.555199   1.000000
  290       -3.553816   1.000000
  291       -3.553670   1.000000
  292       -3.553548   1.000000
  293       -3.553318   1.000000
  294       -3.549715   1.000000
  295       -3.488812   1.000000
  296       -3.488380   1.000000
  297       -3.487062   1.000000
  298       -3.485013   1.000000
  299       -3.484879   1.000000
  300       -3.478305   1.000000
  301       -3.478134   1.000000
  302       -3.477822   1.000000
  303       -3.477447   1.000000
  304       -3.477389   1.000000
  305       -3.477300   1.000000
  306       -3.477199   1.000000
  307       -3.476890   1.000000
  308       -3.476387   1.000000
  309       -3.473851   1.000000
  310       -3.472173   1.000000
  311       -3.406628   1.000000
  312       -3.406111   1.000000
  313       -3.406006   1.000000
  314       -3.405941   1.000000
  315       -3.405762   1.000000
  316       -3.405652   1.000000
  317       -3.385937   1.000000
  318       -3.375103   1.000000
  319       -3.373665   1.000000
  320       -3.370617   1.000000
  321       -3.370005   1.000000
  322       -3.369782   1.000000
  323       -3.369681   1.000000
  324       -3.369623   1.000000
  325       -3.369512   1.000000
  326       -3.369402   1.000000
  327       -3.369091   1.000000
  328       -3.368936   1.000000
  329       -3.360543   1.000000
  330       -3.359616   1.000000
  331       -3.359430   1.000000
  332       -3.359284   1.000000
  333       -3.359149   1.000000
  334       -3.358923   1.000000
  335       -3.355115   1.000000
  336       -3.353246   1.000000
  337       -3.353172   1.000000
  338       -3.352572   1.000000
  339       -3.351620   1.000000
  340       -3.346339   1.000000
  341       -3.269247   1.000000
  342       -3.266769   1.000000
  343       -3.262524   1.000000
  344       -3.228923   1.000000
  345       -3.226217   1.000000
  346       -3.225727   1.000000
  347       -3.224585   1.000000
  348       -3.224303   1.000000
  349       -3.223764   1.000000
  350       -3.213275   1.000000
  351       -3.212742   1.000000
  352       -3.207747   1.000000
  353       -3.193991   1.000000
  354       -3.193504   1.000000
  355       -3.191479   1.000000
  356       -3.190846   1.000000
  357       -3.189943   1.000000
  358       -3.189408   1.000000
  359       -3.189348   1.000000
  360       -3.188859   1.000000
  361       -3.188807   1.000000
  362       -3.188333   1.000000
  363       -3.184978   1.000000
  364       -3.180775   1.000000
  365       -3.179365   1.000000
  366       -3.124597   1.000000
  367       -3.121542   1.000000
  368       -3.120359   1.000000
  369       -3.119163   1.000000
  370       -3.117153   1.000000
  371       -3.113521   1.000000
  372       -3.097924   1.000000
  373       -3.095003   1.000000
  374       -3.093861   1.000000
  375       -3.093407   1.000000
  376       -3.093312   1.000000
  377       -3.093185   1.000000
  378       -3.093024   1.000000
  379       -3.092852   1.000000
  380       -3.092511   1.000000
  381       -3.092421   1.000000
  382       -3.092222   1.000000
  383       -3.091408   1.000000
  384       -3.054066   1.000000
  385       -3.048252   1.000000
  386       -3.042185   1.000000
  387       -3.041591   1.000000
  388       -3.041377   1.000000
  389       -3.040939   1.000000
  390       -3.040909   1.000000
  391       -3.040827   1.000000
  392       -3.040781   1.000000
  393       -3.040658   1.000000
  394       -3.039295   1.000000
  395       -3.038690   1.000000
  396       -2.988033   1.000000
  397       -2.986569   1.000000
  398       -2.986277   1.000000
  399       -2.985816   1.000000
  400       -2.985804   1.000000
  401       -2.985540   1.000000
  402       -2.941119   1.000000
  403       -2.929414   1.000000
  404       -2.926854   1.000000
  405       -2.926663   1.000000
  406       -2.924733   1.000000
  407       -2.922085   1.000000
  408       -2.917478   1.000000
  409       -2.917100   1.000000
  410       -2.916820   1.000000
  411       -2.916764   1.000000
  412       -2.916564   1.000000
  413       -2.914852   1.000000
  414       -2.897855   1.000000
  415       -2.890656   1.000000
  416       -2.890643   1.000000
  417       -2.890248   1.000000
  418       -2.890210   1.000000
  419       -2.890058   1.000000
  420       -2.889417   1.000000
  421       -2.887336   1.000000
  422       -2.884298   1.000000
  423       -2.883652   1.000000
  424       -2.883223   1.000000
  425       -2.880253   1.000000
  426       -2.870337   1.000000
  427       -2.866699   1.000000
  428       -2.860843   1.000000
  429       -2.860687   1.000000
  430       -2.859774   1.000000
  431       -2.859111   1.000000
  432       -2.858663   1.000000
  433       -2.858612   1.000000
  434       -2.856799   1.000000
  435       -2.856747   1.000000
  436       -2.856598   1.000000
  437       -2.856517   1.000000
  438       -2.856328   1.000000
  439       -2.856216   1.000000
  440       -2.855990   1.000000
  441       -2.855973   1.000000
  442       -2.854376   1.000000
  443       -2.848717   1.000000
  444       -2.803522   1.000000
  445       -2.798190   1.000000
  446       -2.791196   1.000000
  447       -2.785791   1.000000
  448       -2.784544   1.000000
  449       -2.784227   1.000000
  450       -2.784173   1.000000
  451       -2.783708   1.000000
  452       -2.783498   1.000000
  453       -2.783406   1.000000
  454       -2.783322   1.000000
  455       -2.783180   1.000000
  456       -2.782957   1.000000
  457       -2.782913   1.000000
  458       -2.782492   1.000000
  459       -2.782004   1.000000
  460       -2.780293   1.000000
  461       -2.780145   1.000000
  462       -2.779993   1.000000
  463       -2.779279   1.000000
  464       -2.777897   1.000000
  465       -2.744652   1.000000
  466       -2.742859   1.000000
  467       -2.742722   1.000000
  468       -2.742644   1.000000
  469       -2.716048   1.000000
  470       -2.694181   1.000000
  471       -2.693963   1.000000
  472       -2.693387   1.000000
  473       -2.692571   1.000000
  474       -2.691048   1.000000
  475       -2.690146   1.000000
  476       -2.690091   1.000000
  477       -2.689486   1.000000
  478       -2.688648   1.000000
  479       -2.688611   1.000000
  480       -2.688139   1.000000
  481       -2.687526   1.000000
  482       -2.687247   1.000000
  483       -2.686917   1.000000
  484       -2.686807   1.000000
  485       -2.686333   1.000000
  486       -2.686011   1.000000
  487       -2.685927   1.000000
  488       -2.685604   1.000000
  489       -2.683666   1.000000
  490       -2.682958   1.000000
  491       -2.681678   1.000000
  492       -2.680828   1.000000
  493       -2.680725   1.000000
  494       -2.680659   1.000000
  495       -2.680631   1.000000
  496       -2.680487   1.000000
  497       -2.680389   1.000000
  498       -2.680292   1.000000
  499       -2.680273   1.000000
  500       -2.679556   1.000000
  501       -2.638028   1.000000
  502       -2.628876   1.000000
  503       -2.628795   1.000000
  504       -2.628563   1.000000
  505       -2.628191   1.000000
  506       -2.625388   1.000000
  507       -2.623559   1.000000
  508       -2.622632   1.000000
  509       -2.620538   1.000000
  510       -2.620188   1.000000
  511       -2.619929   1.000000
  512       -2.619268   1.000000
  513       -2.608627   1.000000
  514       -2.596646   1.000000
  515       -2.594669   1.000000
  516       -2.594556   1.000000
  517       -2.591546   1.000000
  518       -2.584298   1.000000
  519       -2.577476   1.000000
  520       -2.567820   1.000000
  521       -2.567117   1.000000
  522       -2.565175   1.000000
  523       -2.562797   1.000000
  524       -2.546808   1.000000
  525       -2.545310   1.000000
  526       -2.532862   1.000000
  527       -2.522924   1.000000
  528       -2.522219   1.000000
  529       -2.521860   1.000000
  530       -2.521837   1.000000
  531       -2.521604   1.000000
  532       -2.521573   1.000000
  533       -2.521311   1.000000
  534       -2.521028   1.000000
  535       -2.520620   1.000000
  536       -2.519608   1.000000
  537       -2.516044   1.000000
  538       -2.511307   1.000000
  539       -2.505931   1.000000
  540       -2.505758   1.000000
  541       -2.503948   1.000000
  542       -2.495160   1.000000
  543       -2.481060   1.000000
  544       -2.480537   1.000000
  545       -2.477862   1.000000
  546       -2.466687   1.000000
  547       -2.465313   1.000000
  548       -2.463805   1.000000
  549       -2.463279   1.000000
  550       -2.463137   1.000000
  551       -2.458831   1.000000
  552       -2.455167   1.000000
  553       -2.452463   1.000000
  554       -2.451318   1.000000
  555       -2.450893   1.000000
  556       -2.450505   1.000000
  557       -2.450297   1.000000
  558       -2.449745   1.000000
  559       -2.449672   1.000000
  560       -2.449651   1.000000
  561       -2.449039   1.000000
  562       -2.448922   1.000000
  563       -2.448872   1.000000
  564       -2.446141   1.000000
  565       -2.444989   1.000000
  566       -2.441297   1.000000
  567       -2.440784   1.000000
  568       -2.440046   1.000000
  569       -2.439886   1.000000
  570       -2.439717   1.000000
  571       -2.438554   1.000000
  572       -2.418888   1.000000
  573       -2.398104   1.000000
  574       -2.394788   1.000000
  575       -2.391491   1.000000
  576       -2.390650   1.000000
  577       -2.388770   1.000000
  578       -2.387708   1.000000
  579       -2.387349   1.000000
  580       -2.386044   1.000000
  581       -2.385852   1.000000
  582       -2.382187   1.000000
  583       -2.379054   1.000000
  584       -2.377240   1.000000
  585       -2.374519   1.000000
  586       -2.374247   1.000000
  587       -2.374075   1.000000
  588       -2.371503   1.000000
  589       -2.355056   1.000000
  590       -2.352790   1.000000
  591       -2.348445   1.000000
  592       -2.346158   1.000000
  593       -2.346008   1.000000
  594       -2.345811   1.000000
  595       -2.341341   1.000000
  596       -2.335072   1.000000
  597       -2.332966   1.000000
  598       -2.332930   1.000000
  599       -2.332723   1.000000
  600       -2.332466   1.000000
  601       -2.332411   1.000000
  602       -2.331946   1.000000
  603       -2.328976   1.000000
  604       -2.327528   1.000000
  605       -2.314670   1.000000
  606       -2.314367   1.000000
  607       -2.313823   1.000000
  608       -2.313601   1.000000
  609       -2.313568   1.000000
  610       -2.313530   1.000000
  611       -2.313429   1.000000
  612       -2.298703   1.000000
  613       -2.298230   1.000000
  614       -2.287315   1.000000
  615       -2.276972   1.000000
  616       -2.274494   1.000000
  617       -2.273310   1.000000
  618       -2.273027   1.000000
  619       -2.272767   1.000000
  620       -2.268775   1.000000
  621       -2.268549   1.000000
  622       -2.268062   1.000000
  623       -2.264970   1.000000
  624       -2.254340   1.000000
  625       -2.253465   1.000000
  626       -2.251533   1.000000
  627       -2.238970   1.000000
  628       -2.238752   1.000000
  629       -2.238639   1.000000
  630       -2.238587   1.000000
  631       -2.238490   1.000000
  632       -2.238427   1.000000
  633       -2.231458   1.000000
  634       -2.230075   1.000000
  635       -2.224358   1.000000
  636       -2.215739   1.000000
  637       -2.215568   1.000000
  638       -2.215362   1.000000
  639       -2.215104   1.000000
  640       -2.214274   1.000000
  641       -2.214092   1.000000
  642       -2.205128   1.000000
  643       -2.204667   1.000000
  644       -2.203594   1.000000
  645       -2.191888   1.000000
  646       -2.191718   1.000000
  647       -2.190865   1.000000
  648       -2.190811   1.000000
  649       -2.190644   1.000000
  650       -2.189815   1.000000
  651       -2.189577   1.000000
  652       -2.188459   1.000000
  653       -2.187864   1.000000
  654       -2.187685   1.000000
  655       -2.187336   1.000000
  656       -2.187038   1.000000
  657       -2.186694   1.000000
  658       -2.186636   1.000000
  659       -2.186465   1.000000
  660       -2.184278   1.000000
  661       -2.183378   1.000000
  662       -2.180963   1.000000
  663       -2.179075   1.000000
  664       -2.177657   1.000000
  665       -2.177397   1.000000
  666       -2.177147   1.000000
  667       -2.175790   1.000000
  668       -2.174780   1.000000
  669       -2.173371   1.000000
  670       -2.172345   1.000000
  671       -2.171546   1.000000
  672       -2.169312   1.000000
  673       -2.138873   1.000000
  674       -2.138056   1.000000
  675       -2.129449   1.000000
  676       -2.126644   1.000000
  677       -2.126160   1.000000
  678       -2.125655   1.000000
  679       -2.124651   1.000000
  680       -2.122825   1.000000
  681       -2.114306   1.000000
  682       -2.105419   1.000000
  683       -2.105104   1.000000
  684       -2.104087   1.000000
  685       -2.103870   1.000000
  686       -2.103809   1.000000
  687       -2.103441   1.000000
  688       -2.078967   1.000000
  689       -2.078933   1.000000
  690       -2.077110   1.000000
  691       -2.076895   1.000000
  692       -2.076238   1.000000
  693       -2.075711   1.000000
  694       -2.074562   1.000000
  695       -2.074287   1.000000
  696       -2.074154   1.000000
  697       -2.073896   1.000000
  698       -2.073671   1.000000
  699       -2.073017   1.000000
  700       -2.072694   1.000000
  701       -2.070802   1.000000
  702       -2.070563   1.000000
  703       -2.069844   1.000000
  704       -2.061925   1.000000
  705       -2.061798   1.000000
  706       -2.061187   1.000000
  707       -2.060313   1.000000
  708       -2.060214   1.000000
  709       -2.059712   1.000000
  710       -2.059539   1.000000
  711       -2.059534   1.000000
  712       -2.059397   1.000000
  713       -2.059346   1.000000
  714       -2.059176   1.000000
  715       -2.058919   1.000000
  716       -2.056883   1.000000
  717       -2.056703   1.000000
  718       -2.033792   1.000000
  719       -2.033625   1.000000
  720       -2.033508   1.000000
  721       -2.033340   1.000000
  722       -2.033328   1.000000
  723       -2.033173   1.000000
  724       -2.029853   1.000000
  725       -2.028317   1.000000
  726       -2.011458   1.000000
  727       -2.009778   1.000000
  728       -2.007605   1.000000
  729       -2.003653   1.000000
  730       -2.002737   1.000000
  731       -2.000239   1.000000
  732       -1.988236   1.000000
  733       -1.988159   1.000000
  734       -1.987802   1.000000
  735       -1.987567   1.000000
  736       -1.987540   1.000000
  737       -1.987465   1.000000
  738       -1.987351   1.000000
  739       -1.987241   1.000000
  740       -1.985033   1.000000
  741       -1.974384   1.000000
  742       -1.946029   1.000000
  743       -1.945037   1.000000
  744       -1.944344   1.000000
  745       -1.944078   1.000000
  746       -1.943863   1.000000
  747       -1.943616   1.000000
  748       -1.941734   1.000000
  749       -1.940796   1.000000
  750       -1.938843   1.000000
  751       -1.937363   1.000000
  752       -1.937290   1.000000
  753       -1.932706   1.000000
  754       -1.928689   1.000000
  755       -1.918768   1.000000
  756       -1.891194   1.000000
  757       -1.890434   1.000000
  758       -1.890264   1.000000
  759       -1.889144   1.000000
  760       -1.888913   1.000000
  761       -1.888776   1.000000
  762       -1.888655   1.000000
  763       -1.888468   1.000000
  764       -1.888042   1.000000
  765       -1.886737   1.000000
  766       -1.886217   1.000000
  767       -1.885927   1.000000
  768       -1.885465   1.000000
  769       -1.885430   1.000000
  770       -1.885034   1.000000
  771       -1.881411   1.000000
  772       -1.879525   1.000000
  773       -1.879482   1.000000
  774       -1.878975   1.000000
  775       -1.878823   1.000000
  776       -1.878553   1.000000
  777       -1.875826   1.000000
  778       -1.853414   1.000000
  779       -1.852789   1.000000
  780       -1.847948   1.000000
  781       -1.847378   1.000000
  782       -1.846913   1.000000
  783       -1.843918   1.000000
  784       -1.842922   1.000000
  785       -1.842537   1.000000
  786       -1.842310   1.000000
  787       -1.842106   1.000000
  788       -1.842089   1.000000
  789       -1.825540   1.000000
  790       -1.823357   1.000000
  791       -1.821607   1.000000
  792       -1.820387   1.000000
  793       -1.819343   1.000000
  794       -1.818574   1.000000
  795       -1.817529   1.000000
  796       -1.817500   1.000000
  797       -1.817159   1.000000
  798       -1.809705   1.000000
  799       -1.806121   1.000000
  800       -1.804106   1.000000
  801       -1.800516   1.000000
  802       -1.798755   1.000000
  803       -1.798058   1.000000
  804       -1.797648   1.000000
  805       -1.796843   1.000000
  806       -1.796630   1.000000
  807       -1.791793   1.000000
  808       -1.789937   1.000000
  809       -1.789540   1.000000
  810       -1.789155   1.000000
  811       -1.788898   1.000000
  812       -1.788650   1.000000
  813       -1.788059   1.000000
  814       -1.787693   1.000000
  815       -1.785851   1.000000
  816       -1.777841   1.000000
  817       -1.764606   1.000000
  818       -1.762142   1.000000
  819       -1.752906   1.000000
  820       -1.751415   1.000000
  821       -1.751079   1.000000
  822       -1.750125   1.000000
  823       -1.749725   1.000000
  824       -1.749349   1.000000
  825       -1.749192   1.000000
  826       -1.749022   1.000000
  827       -1.748881   1.000000
  828       -1.740681   1.000000
  829       -1.722677   1.000000
  830       -1.720012   1.000000
  831       -1.718736   1.000000
  832       -1.716748   1.000000
  833       -1.715797   1.000000
  834       -1.715319   1.000000
  835       -1.715255   1.000000
  836       -1.715029   1.000000
  837       -1.714900   1.000000
  838       -1.712140   1.000000
  839       -1.711989   1.000000
  840       -1.711615   1.000000
  841       -1.711501   1.000000
  842       -1.711087   1.000000
  843       -1.710751   1.000000
  844       -1.703924   1.000000
  845       -1.701936   1.000000
  846       -1.700518   1.000000
  847       -1.699435   1.000000
  848       -1.699050   1.000000
  849       -1.698653   1.000000
  850       -1.697666   1.000000
  851       -1.696833   1.000000
  852       -1.692046   1.000000
  853       -1.690906   1.000000
  854       -1.690842   1.000000
  855       -1.690340   1.000000
  856       -1.689143   1.000000
  857       -1.688783   1.000000
  858       -1.687738   1.000000
  859       -1.686276   1.000000
  860       -1.684025   1.000000
  861       -1.670455   1.000000
  862       -1.667004   1.000000
  863       -1.664538   1.000000
  864       -1.653727   1.000000
  865       -1.636540   1.000000
  866       -1.632381   1.000000
  867       -1.631769   1.000000
  868       -1.631219   1.000000
  869       -1.628819   1.000000
  870       -1.624065   1.000000
  871       -1.610450   1.000000
  872       -1.609047   1.000000
  873       -1.604646   1.000000
  874       -1.602685   1.000000
  875       -1.602208   1.000000
  876       -1.601035   1.000000
  877       -1.600891   1.000000
  878       -1.600726   1.000000
  879       -1.600694   1.000000
  880       -1.599825   1.000000
  881       -1.599489   1.000000
  882       -1.598934   1.000000
  883       -1.588331   1.000000
  884       -1.584198   1.000000
  885       -1.581174   1.000000
  886       -1.579546   1.000000
  887       -1.579050   1.000000
  888       -1.575225   1.000000
  889       -1.531771   1.000000
  890       -1.530779   1.000000
  891       -1.528510   1.000000
  892       -1.528042   1.000000
  893       -1.527899   1.000000
  894       -1.527803   1.000000
  895       -1.507723   1.000000
  896       -1.484594   1.000000
  897       -1.481572   1.000000
  898       -1.477214   1.000000
  899       -1.475973   1.000000
  900       -1.475831   1.000000
  901       -1.473760   1.000000