<?xml version="1.0" encoding="ISO-8859-1"?>
<modeling>
 <generator>
  <i name="program" type="string">vasp </i>
  <i name="version" type="string">6.2.1  </i>
  <i name="subversion" type="string">16May21 (build Jun 16 2021 03:23:30) complex                          parallel </i>
  <i name="platform" type="string">LinuxPGI </i>
  <i name="date" type="string">2022 04 26 </i>
  <i name="time" type="string">01:17:25 </i>
 </generator>
 <incar>
  <i type="string" name="SYSTEM">NiAl</i>
  <i type="int" name="ISTART">     0</i>
  <i type="int" name="NELM">   250</i>
  <i type="int" name="NELMIN">     6</i>
  <i name="EDIFF">      0.00000500</i>
  <i type="int" name="ISIF">     0</i>
  <i name="ENCUT">    360.00000000</i>
  <i type="string" name="LREAL">Auto</i>
  <i type="logical" name="LPLANE"> T  </i>
  <i type="int" name="ISMEAR">     0</i>
  <i name="SIGMA">      0.05000000</i>
  <i type="logical" name="LWAVE"> F  </i>
  <i type="logical" name="LCHARG"> F  </i>
  <i type="int" name="IVDW">    12</i>
 </incar>
 <primitive_cell>
  <structure name="primitive_cell" >
   <crystal>
    <varray name="basis" >
     <v>       0.00000000     -15.14622176       0.00000000 </v>
     <v>       0.00000000      -7.57311088     -13.11701281 </v>
     <v>      29.00000000       0.00000000       0.00000000 </v>
    </varray>
    <i name="volume">   5761.52236213 </i>
    <varray name="rec_basis" >
     <v>       0.00000000      -0.06602307       0.03811843 </v>
     <v>       0.00000000       0.00000000      -0.07623687 </v>
     <v>       0.03448276       0.00000000       0.00000000 </v>
    </varray>
   </crystal>
   <varray name="positions" >
    <v>       0.44444450       0.44444418       0.10434517 </v>
    <v>       0.44444439       0.77777770       0.10434517 </v>
    <v>       0.44444423       0.11111143       0.10434517 </v>
    <v>       0.77777779       0.44444418       0.10434517 </v>
    <v>       0.77777768       0.77777770       0.10434517 </v>
    <v>       0.77777752       0.11111143       0.10434517 </v>
    <v>       0.11111120       0.44444418       0.10434517 </v>
    <v>       0.11111109       0.77777770       0.10434517 </v>
    <v>       0.11111093       0.11111143       0.10434517 </v>
    <v>       0.55555543       0.55555561       0.17318552 </v>
    <v>       0.55555532       0.88888912       0.17318552 </v>
    <v>       0.55555554       0.22222209       0.17318552 </v>
    <v>       0.88888873       0.55555561       0.17318552 </v>
    <v>       0.88888862       0.88888912       0.17318552 </v>
    <v>       0.88888884       0.22222209       0.17318552 </v>
    <v>       0.22222214       0.55555561       0.17318552 </v>
    <v>       0.22222203       0.88888912       0.17318552 </v>
    <v>       0.22222225       0.22222209       0.17318552 </v>
    <v>       0.66666637       0.66666703       0.24249897 </v>
    <v>       0.66666659       0.00000000       0.24249897 </v>
    <v>       0.66666648       0.33333352       0.24249897 </v>
    <v>       0.99999978       0.66666703       0.24249897 </v>
    <v>       0.00000000       0.00000000       0.24249897 </v>
    <v>       0.99999989       0.33333352       0.24249897 </v>
    <v>       0.33333307       0.66666703       0.24249897 </v>
    <v>       0.33333329       0.00000000       0.24249897 </v>
    <v>       0.33333318       0.33333352       0.24249897 </v>
    <v>       0.77777768       0.77777770       0.31173069 </v>
    <v>       0.77777752       0.11111143       0.31173069 </v>
    <v>       0.77777779       0.44444418       0.31173069 </v>
    <v>       0.11111109       0.77777770       0.31173069 </v>
    <v>       0.11111093       0.11111143       0.31173069 </v>
    <v>       0.11111120       0.44444418       0.31173069 </v>
    <v>       0.44444439       0.77777770       0.31173069 </v>
    <v>       0.44444423       0.11111143       0.31173069 </v>
    <v>       0.44444450       0.44444418       0.31173069 </v>
    <v>       0.88888862       0.88888912       0.38096241 </v>
    <v>       0.88888884       0.22222209       0.38096241 </v>
    <v>       0.88888873       0.55555561       0.38096241 </v>
    <v>       0.22222203       0.88888912       0.38096241 </v>
    <v>       0.22222225       0.22222209       0.38096241 </v>
    <v>       0.22222214       0.55555561       0.38096241 </v>
    <v>       0.55555532       0.88888912       0.38096241 </v>
    <v>       0.55555554       0.22222209       0.38096241 </v>
    <v>       0.55555543       0.55555561       0.38096241 </v>
    <v>       0.00000000       0.00000000       0.45027586 </v>
    <v>       0.99999989       0.33333352       0.45027586 </v>
    <v>       0.99999978       0.66666703       0.45027586 </v>
    <v>       0.33333329       0.00000000       0.45027586 </v>
    <v>       0.33333318       0.33333352       0.45027586 </v>
    <v>       0.33333307       0.66666703       0.45027586 </v>
    <v>       0.66666659       0.00000000       0.45027586 </v>
    <v>       0.66666648       0.33333352       0.45027586 </v>
    <v>       0.66666637       0.66666703       0.45027586 </v>
    <v>       0.11111093       0.11111143       0.51911621 </v>
    <v>       0.11111120       0.44444418       0.51911621 </v>
    <v>       0.11111109       0.77777770       0.51911621 </v>
    <v>       0.44444423       0.11111143       0.51911621 </v>
    <v>       0.44444450       0.44444418       0.51911621 </v>
    <v>       0.44444439       0.77777770       0.51911621 </v>
    <v>       0.77777752       0.11111143       0.51911621 </v>
    <v>       0.77777779       0.44444418       0.51911621 </v>
    <v>       0.77777768       0.77777770       0.51911621 </v>
    <v>       0.27777824       0.27777742       0.10434517 </v>
    <v>       0.27777813       0.61111094       0.10434517 </v>
    <v>       0.27777802       0.94444445       0.10434517 </v>
    <v>       0.61111153       0.27777742       0.10434517 </v>
    <v>       0.61111142       0.61111094       0.10434517 </v>
    <v>       0.61111131       0.94444445       0.10434517 </v>
    <v>       0.94444483       0.27777742       0.10434517 </v>
    <v>       0.94444472       0.61111094       0.10434517 </v>
    <v>       0.94444461       0.94444445       0.10434517 </v>
    <v>       0.38888917       0.38888885       0.17318552 </v>
    <v>       0.38888906       0.72222236       0.17318552 </v>
    <v>       0.38888928       0.05555533       0.17318552 </v>
    <v>       0.72222247       0.38888885       0.17318552 </v>
    <v>       0.72222236       0.72222236       0.17318552 </v>
    <v>       0.72222258       0.05555533       0.17318552 </v>
    <v>       0.05555588       0.38888885       0.17318552 </v>
    <v>       0.05555577       0.72222236       0.17318552 </v>
    <v>       0.05555599       0.05555533       0.17318552 </v>
    <v>       0.50000011       0.50000027       0.24249897 </v>
    <v>       0.50000038       0.83333303       0.24249897 </v>
    <v>       0.50000022       0.16666676       0.24249897 </v>
    <v>       0.83333340       0.50000027       0.24249897 </v>
    <v>       0.83333367       0.83333303       0.24249897 </v>
    <v>       0.83333351       0.16666676       0.24249897 </v>
    <v>       0.16666681       0.50000027       0.24249897 </v>
    <v>       0.16666708       0.83333303       0.24249897 </v>
    <v>       0.16666692       0.16666676       0.24249897 </v>
    <v>       0.61111142       0.61111094       0.31173069 </v>
    <v>       0.61111131       0.94444445       0.31173069 </v>
    <v>       0.61111153       0.27777742       0.31173069 </v>
    <v>       0.94444472       0.61111094       0.31173069 </v>
    <v>       0.94444461       0.94444445       0.31173069 </v>
    <v>       0.94444483       0.27777742       0.31173069 </v>
    <v>       0.27777813       0.61111094       0.31173069 </v>
    <v>       0.27777802       0.94444445       0.31173069 </v>
    <v>       0.27777824       0.27777742       0.31173069 </v>
    <v>       0.72222236       0.72222236       0.38096241 </v>
    <v>       0.72222258       0.05555533       0.38096241 </v>
    <v>       0.72222247       0.38888885       0.38096241 </v>
    <v>       0.05555577       0.72222236       0.38096241 </v>
    <v>       0.05555599       0.05555533       0.38096241 </v>
    <v>       0.05555588       0.38888885       0.38096241 </v>
    <v>       0.38888906       0.72222236       0.38096241 </v>
    <v>       0.38888928       0.05555533       0.38096241 </v>
    <v>       0.38888917       0.38888885       0.38096241 </v>
    <v>       0.83333367       0.83333303       0.45027586 </v>
    <v>       0.83333351       0.16666676       0.45027586 </v>
    <v>       0.83333340       0.50000027       0.45027586 </v>
    <v>       0.16666708       0.83333303       0.45027586 </v>
    <v>       0.16666692       0.16666676       0.45027586 </v>
    <v>       0.16666681       0.50000027       0.45027586 </v>
    <v>       0.50000038       0.83333303       0.45027586 </v>
    <v>       0.50000022       0.16666676       0.45027586 </v>
    <v>       0.50000011       0.50000027       0.45027586 </v>
    <v>       0.94444461       0.94444445       0.51911621 </v>
    <v>       0.94444483       0.27777742       0.51911621 </v>
    <v>       0.94444472       0.61111094       0.51911621 </v>
    <v>       0.27777802       0.94444445       0.51911621 </v>
    <v>       0.27777824       0.27777742       0.51911621 </v>
    <v>       0.27777813       0.61111094       0.51911621 </v>
    <v>       0.61111131       0.94444445       0.51911621 </v>
    <v>       0.61111153       0.27777742       0.51911621 </v>
    <v>       0.61111142       0.61111094       0.51911621 </v>
    <v>       0.27777785       0.44444418       0.10434517 </v>
    <v>       0.27777774       0.77777770       0.10434517 </v>
    <v>       0.27777758       0.11111143       0.10434517 </v>
    <v>       0.61111115       0.44444418       0.10434517 </v>
    <v>       0.61111104       0.77777770       0.10434517 </v>
    <v>       0.61111088       0.11111143       0.10434517 </v>
    <v>       0.94444444       0.44444418       0.10434517 </v>
    <v>       0.94444433       0.77777770       0.10434517 </v>
    <v>       0.94444417       0.11111143       0.10434517 </v>
    <v>       0.38888879       0.55555561       0.17318552 </v>
    <v>       0.38888868       0.88888912       0.17318552 </v>
    <v>       0.38888890       0.22222209       0.17318552 </v>
    <v>       0.72222208       0.55555561       0.17318552 </v>
    <v>       0.72222197       0.88888912       0.17318552 </v>
    <v>       0.72222219       0.22222209       0.17318552 </v>
    <v>       0.05555549       0.55555561       0.17318552 </v>
    <v>       0.05555538       0.88888912       0.17318552 </v>
    <v>       0.05555560       0.22222209       0.17318552 </v>
    <v>       0.49999972       0.66666703       0.24249897 </v>
    <v>       0.49999994       0.00000000       0.24249897 </v>
    <v>       0.49999983       0.33333352       0.24249897 </v>
    <v>       0.83333302       0.66666703       0.24249897 </v>
    <v>       0.83333324       0.00000000       0.24249897 </v>
    <v>       0.83333313       0.33333352       0.24249897 </v>
    <v>       0.16666643       0.66666703       0.24249897 </v>
    <v>       0.16666665       0.00000000       0.24249897 </v>
    <v>       0.16666654       0.33333352       0.24249897 </v>
    <v>       0.61111104       0.77777770       0.31173069 </v>
    <v>       0.61111088       0.11111143       0.31173069 </v>
    <v>       0.61111115       0.44444418       0.31173069 </v>
    <v>       0.94444433       0.77777770       0.31173069 </v>
    <v>       0.94444417       0.11111143       0.31173069 </v>
    <v>       0.94444444       0.44444418       0.31173069 </v>
    <v>       0.27777774       0.77777770       0.31173069 </v>
    <v>       0.27777758       0.11111143       0.31173069 </v>
    <v>       0.27777785       0.44444418       0.31173069 </v>
    <v>       0.72222197       0.88888912       0.38096241 </v>
    <v>       0.72222219       0.22222209       0.38096241 </v>
    <v>       0.72222208       0.55555561       0.38096241 </v>
    <v>       0.05555538       0.88888912       0.38096241 </v>
    <v>       0.05555560       0.22222209       0.38096241 </v>
    <v>       0.05555549       0.55555561       0.38096241 </v>
    <v>       0.38888868       0.88888912       0.38096241 </v>
    <v>       0.38888890       0.22222209       0.38096241 </v>
    <v>       0.38888879       0.55555561       0.38096241 </v>
    <v>       0.83333324       0.00000000       0.45027586 </v>
    <v>       0.83333313       0.33333352       0.45027586 </v>
    <v>       0.83333302       0.66666703       0.45027586 </v>
    <v>       0.16666665       0.00000000       0.45027586 </v>
    <v>       0.16666654       0.33333352       0.45027586 </v>
    <v>       0.16666643       0.66666703       0.45027586 </v>
    <v>       0.49999994       0.00000000       0.45027586 </v>
    <v>       0.49999983       0.33333352       0.45027586 </v>
    <v>       0.49999972       0.66666703       0.45027586 </v>
    <v>       0.94444417       0.11111143       0.51911621 </v>
    <v>       0.94444444       0.44444418       0.51911621 </v>
    <v>       0.94444433       0.77777770       0.51911621 </v>
    <v>       0.27777758       0.11111143       0.51911621 </v>
    <v>       0.27777785       0.44444418       0.51911621 </v>
    <v>       0.27777774       0.77777770       0.51911621 </v>
    <v>       0.61111088       0.11111143       0.51911621 </v>
    <v>       0.61111115       0.44444418       0.51911621 </v>
    <v>       0.61111104       0.77777770       0.51911621 </v>
    <v>       0.44444488       0.27777742       0.10434517 </v>
    <v>       0.44444477       0.61111094       0.10434517 </v>
    <v>       0.44444466       0.94444445       0.10434517 </v>
    <v>       0.77777818       0.27777742       0.10434517 </v>
    <v>       0.77777807       0.61111094       0.10434517 </v>
    <v>       0.77777796       0.94444445       0.10434517 </v>
    <v>       0.11111159       0.27777742       0.10434517 </v>
    <v>       0.11111148       0.61111094       0.10434517 </v>
    <v>       0.11111137       0.94444445       0.10434517 </v>
    <v>       0.55555582       0.38888885       0.17318552 </v>
    <v>       0.55555571       0.72222236       0.17318552 </v>
    <v>       0.55555593       0.05555533       0.17318552 </v>
    <v>       0.88888911       0.38888885       0.17318552 </v>
    <v>       0.88888900       0.72222236       0.17318552 </v>
    <v>       0.88888922       0.05555533       0.17318552 </v>
    <v>       0.22222252       0.38888885       0.17318552 </v>
    <v>       0.22222241       0.72222236       0.17318552 </v>
    <v>       0.22222264       0.05555533       0.17318552 </v>
    <v>       0.66666675       0.50000027       0.24249897 </v>
    <v>       0.66666702       0.83333303       0.24249897 </v>
    <v>       0.66666686       0.16666676       0.24249897 </v>
    <v>       0.00000016       0.50000027       0.24249897 </v>
    <v>       0.00000043       0.83333303       0.24249897 </v>
    <v>       0.00000027       0.16666676       0.24249897 </v>
    <v>       0.33333346       0.50000027       0.24249897 </v>
    <v>       0.33333373       0.83333303       0.24249897 </v>
    <v>       0.33333357       0.16666676       0.24249897 </v>
    <v>       0.77777807       0.61111094       0.31173069 </v>
    <v>       0.77777796       0.94444445       0.31173069 </v>
    <v>       0.77777818       0.27777742       0.31173069 </v>
    <v>       0.11111148       0.61111094       0.31173069 </v>
    <v>       0.11111137       0.94444445       0.31173069 </v>
    <v>       0.11111159       0.27777742       0.31173069 </v>
    <v>       0.44444477       0.61111094       0.31173069 </v>
    <v>       0.44444466       0.94444445       0.31173069 </v>
    <v>       0.44444488       0.27777742       0.31173069 </v>
    <v>       0.88888900       0.72222236       0.38096241 </v>
    <v>       0.88888922       0.05555533       0.38096241 </v>
    <v>       0.88888911       0.38888885       0.38096241 </v>
    <v>       0.22222241       0.72222236       0.38096241 </v>
    <v>       0.22222264       0.05555533       0.38096241 </v>
    <v>       0.22222252       0.38888885       0.38096241 </v>
    <v>       0.55555571       0.72222236       0.38096241 </v>
    <v>       0.55555593       0.05555533       0.38096241 </v>
    <v>       0.55555582       0.38888885       0.38096241 </v>
    <v>       0.00000043       0.83333303       0.45027586 </v>
    <v>       0.00000027       0.16666676       0.45027586 </v>
    <v>       0.00000016       0.50000027       0.45027586 </v>
    <v>       0.33333373       0.83333303       0.45027586 </v>
    <v>       0.33333357       0.16666676       0.45027586 </v>
    <v>       0.33333346       0.50000027       0.45027586 </v>
    <v>       0.66666702       0.83333303       0.45027586 </v>
    <v>       0.66666686       0.16666676       0.45027586 </v>
    <v>       0.66666675       0.50000027       0.45027586 </v>
    <v>       0.11111137       0.94444445       0.51911621 </v>
    <v>       0.11111159       0.27777742       0.51911621 </v>
    <v>       0.11111148       0.61111094       0.51911621 </v>
    <v>       0.44444466       0.94444445       0.51911621 </v>
    <v>       0.44444488       0.27777742       0.51911621 </v>
    <v>       0.44444477       0.61111094       0.51911621 </v>
    <v>       0.77777796       0.94444445       0.51911621 </v>
    <v>       0.77777818       0.27777742       0.51911621 </v>
    <v>       0.77777807       0.61111094       0.51911621 </v>
    <v>       0.55561801       0.38880804       0.58793103 </v>
    <v>       0.49996510       0.50011387       0.58793103 </v>
   </varray>
  </structure>
  <varray name="primitive_index" >
   <v type="int" >        1 </v>
   <v type="int" >        2 </v>
   <v type="int" >        3 </v>
   <v type="int" >        4 </v>
   <v type="int" >        5 </v>
   <v type="int" >        6 </v>
   <v type="int" >        7 </v>
   <v type="int" >        8 </v>
   <v type="int" >        9 </v>
   <v type="int" >       10 </v>
   <v type="int" >       11 </v>
   <v type="int" >       12 </v>
   <v type="int" >       13 </v>
   <v type="int" >       14 </v>
   <v type="int" >       15 </v>
   <v type="int" >       16 </v>
   <v type="int" >       17 </v>
   <v type="int" >       18 </v>
   <v type="int" >       19 </v>
   <v type="int" >       20 </v>
   <v type="int" >       21 </v>
   <v type="int" >       22 </v>
   <v type="int" >       23 </v>
   <v type="int" >       24 </v>
   <v type="int" >       25 </v>
   <v type="int" >       26 </v>
   <v type="int" >       27 </v>
   <v type="int" >       28 </v>
   <v type="int" >       29 </v>
   <v type="int" >       30 </v>
   <v type="int" >       31 </v>
   <v type="int" >       32 </v>
   <v type="int" >       33 </v>
   <v type="int" >       34 </v>
   <v type="int" >       35 </v>
   <v type="int" >       36 </v>
   <v type="int" >       37 </v>
   <v type="int" >       38 </v>
   <v type="int" >       39 </v>
   <v type="int" >       40 </v>
   <v type="int" >       41 </v>
   <v type="int" >       42 </v>
   <v type="int" >       43 </v>
   <v type="int" >       44 </v>
   <v type="int" >       45 </v>
   <v type="int" >       46 </v>
   <v type="int" >       47 </v>
   <v type="int" >       48 </v>
   <v type="int" >       49 </v>
   <v type="int" >       50 </v>
   <v type="int" >       51 </v>
   <v type="int" >       52 </v>
   <v type="int" >       53 </v>
   <v type="int" >       54 </v>
   <v type="int" >       55 </v>
   <v type="int" >       56 </v>
   <v type="int" >       57 </v>
   <v type="int" >       58 </v>
   <v type="int" >       59 </v>
   <v type="int" >       60 </v>
   <v type="int" >       61 </v>
   <v type="int" >       62 </v>
   <v type="int" >       63 </v>
   <v type="int" >       64 </v>
   <v type="int" >       65 </v>
   <v type="int" >       66 </v>
   <v type="int" >       67 </v>
   <v type="int" >       68 </v>
   <v type="int" >       69 </v>
   <v type="int" >       70 </v>
   <v type="int" >       71 </v>
   <v type="int" >       72 </v>
   <v type="int" >       73 </v>
   <v type="int" >       74 </v>
   <v type="int" >       75 </v>
   <v type="int" >       76 </v>
   <v type="int" >       77 </v>
   <v type="int" >       78 </v>
   <v type="int" >       79 </v>
   <v type="int" >       80 </v>
   <v type="int" >       81 </v>
   <v type="int" >       82 </v>
   <v type="int" >       83 </v>
   <v type="int" >       84 </v>
   <v type="int" >       85 </v>
   <v type="int" >       86 </v>
   <v type="int" >       87 </v>
   <v type="int" >       88 </v>
   <v type="int" >       89 </v>
   <v type="int" >       90 </v>
   <v type="int" >       91 </v>
   <v type="int" >       92 </v>
   <v type="int" >       93 </v>
   <v type="int" >       94 </v>
   <v type="int" >       95 </v>
   <v type="int" >       96 </v>
   <v type="int" >       97 </v>
   <v type="int" >       98 </v>
   <v type="int" >       99 </v>
   <v type="int" >      100 </v>
   <v type="int" >      101 </v>
   <v type="int" >      102 </v>
   <v type="int" >      103 </v>
   <v type="int" >      104 </v>
   <v type="int" >      105 </v>
   <v type="int" >      106 </v>
   <v type="int" >      107 </v>
   <v type="int" >      108 </v>
   <v type="int" >      109 </v>
   <v type="int" >      110 </v>
   <v type="int" >      111 </v>
   <v type="int" >      112 </v>
   <v type="int" >      113 </v>
   <v type="int" >      114 </v>
   <v type="int" >      115 </v>
   <v type="int" >      116 </v>
   <v type="int" >      117 </v>
   <v type="int" >      118 </v>
   <v type="int" >      119 </v>
   <v type="int" >      120 </v>
   <v type="int" >      121 </v>
   <v type="int" >      122 </v>
   <v type="int" >      123 </v>
   <v type="int" >      124 </v>
   <v type="int" >      125 </v>
   <v type="int" >      126 </v>
   <v type="int" >      127 </v>
   <v type="int" >      128 </v>
   <v type="int" >      129 </v>
   <v type="int" >      130 </v>
   <v type="int" >      131 </v>
   <v type="int" >      132 </v>
   <v type="int" >      133 </v>
   <v type="int" >      134 </v>
   <v type="int" >      135 </v>
   <v type="int" >      136 </v>
   <v type="int" >      137 </v>
   <v type="int" >      138 </v>
   <v type="int" >      139 </v>
   <v type="int" >      140 </v>
   <v type="int" >      141 </v>
   <v type="int" >      142 </v>
   <v type="int" >      143 </v>
   <v type="int" >      144 </v>
   <v type="int" >      145 </v>
   <v type="int" >      146 </v>
   <v type="int" >      147 </v>
   <v type="int" >      148 </v>
   <v type="int" >      149 </v>
   <v type="int" >      150 </v>
   <v type="int" >      151 </v>
   <v type="int" >      152 </v>
   <v type="int" >      153 </v>
   <v type="int" >      154 </v>
   <v type="int" >      155 </v>
   <v type="int" >      156 </v>
   <v type="int" >      157 </v>
   <v type="int" >      158 </v>
   <v type="int" >      159 </v>
   <v type="int" >      160 </v>
   <v type="int" >      161 </v>
   <v type="int" >      162 </v>
   <v type="int" >      163 </v>
   <v type="int" >      164 </v>
   <v type="int" >      165 </v>
   <v type="int" >      166 </v>
   <v type="int" >      167 </v>
   <v type="int" >      168 </v>
   <v type="int" >      169 </v>
   <v type="int" >      170 </v>
   <v type="int" >      171 </v>
   <v type="int" >      172 </v>
   <v type="int" >      173 </v>
   <v type="int" >      174 </v>
   <v type="int" >      175 </v>
   <v type="int" >      176 </v>
   <v type="int" >      177 </v>
   <v type="int" >      178 </v>
   <v type="int" >      179 </v>
   <v type="int" >      180 </v>
   <v type="int" >      181 </v>
   <v type="int" >      182 </v>
   <v type="int" >      183 </v>
   <v type="int" >      184 </v>
   <v type="int" >      185 </v>
   <v type="int" >      186 </v>
   <v type="int" >      187 </v>
   <v type="int" >      188 </v>
   <v type="int" >      189 </v>
   <v type="int" >      190 </v>
   <v type="int" >      191 </v>
   <v type="int" >      192 </v>
   <v type="int" >      193 </v>
   <v type="int" >      194 </v>
   <v type="int" >      195 </v>
   <v type="int" >      196 </v>
   <v type="int" >      197 </v>
   <v type="int" >      198 </v>
   <v type="int" >      199 </v>
   <v type="int" >      200 </v>
   <v type="int" >      201 </v>
   <v type="int" >      202 </v>
   <v type="int" >      203 </v>
   <v type="int" >      204 </v>
   <v type="int" >      205 </v>
   <v type="int" >      206 </v>
   <v type="int" >      207 </v>
   <v type="int" >      208 </v>
   <v type="int" >      209 </v>
   <v type="int" >      210 </v>
   <v type="int" >      211 </v>
   <v type="int" >      212 </v>
   <v type="int" >      213 </v>
   <v type="int" >      214 </v>
   <v type="int" >      215 </v>
   <v type="int" >      216 </v>
   <v type="int" >      217 </v>
   <v type="int" >      218 </v>
   <v type="int" >      219 </v>
   <v type="int" >      220 </v>
   <v type="int" >      221 </v>
   <v type="int" >      222 </v>
   <v type="int" >      223 </v>
   <v type="int" >      224 </v>
   <v type="int" >      225 </v>
   <v type="int" >      226 </v>
   <v type="int" >      227 </v>
   <v type="int" >      228 </v>
   <v type="int" >      229 </v>
   <v type="int" >      230 </v>
   <v type="int" >      231 </v>
   <v type="int" >      232 </v>
   <v type="int" >      233 </v>
   <v type="int" >      234 </v>
   <v type="int" >      235 </v>
   <v type="int" >      236 </v>
   <v type="int" >      237 </v>
   <v type="int" >      238 </v>
   <v type="int" >      239 </v>
   <v type="int" >      240 </v>
   <v type="int" >      241 </v>
   <v type="int" >      242 </v>
   <v type="int" >      243 </v>
   <v type="int" >      244 </v>
   <v type="int" >      245 </v>
   <v type="int" >      246 </v>
   <v type="int" >      247 </v>
   <v type="int" >      248 </v>
   <v type="int" >      249 </v>
   <v type="int" >      250 </v>
   <v type="int" >      251 </v>
   <v type="int" >      252 </v>
   <v type="int" >      253 </v>
   <v type="int" >      254 </v>
  </varray>
 </primitive_cell>
 <kpoints>
  <generation param="Gamma">
   <v type="int" name="divisions">       2        2        1 </v>
   <v name="usershift">      0.00000000       0.00000000       0.00000000 </v>
   <v name="genvec1">      0.50000000      -0.00000000       0.00000000 </v>
   <v name="genvec2">      0.00000000       0.50000000       0.00000000 </v>
   <v name="genvec3">      0.00000000       0.00000000       1.00000000 </v>
   <v name="shift">      0.00000000       0.00000000       0.00000000 </v>
  </generation>
  <varray name="kpointlist" >
   <v>       0.00000000       0.00000000       0.00000000 </v>
   <v>       0.50000000       0.00000000       0.00000000 </v>
   <v>       0.50000000       0.50000000       0.00000000 </v>
   <v>       0.00000000       0.50000000       0.00000000 </v>
  </varray>
  <varray name="weights" >
   <v>       0.25000000 </v>
   <v>       0.25000000 </v>
   <v>       0.25000000 </v>
   <v>       0.25000000 </v>
  </varray>
 </kpoints>
 <parameters>
  <separator name="general" >
   <i type="string" name="SYSTEM">NiAl</i>
   <i type="logical" name="LCOMPAT"> F  </i>
  </separator>
  <separator name="electronic" >
   <i type="string" name="PREC">normal</i>
   <i name="ENMAX">    360.00000000</i>
   <i name="ENAUG">   1139.60900000</i>
   <i name="EDIFF">      0.00000500</i>
   <i type="int" name="IALGO">    38</i>
   <i type="int" name="IWAVPR">    10</i>
   <i type="int" name="NBANDS">  1519</i>
   <i type="int" name="NBANDSLOW">    -1</i>
   <i type="int" name="NBANDSHIGH">    -1</i>
   <i name="NELECT">   2532.00000000</i>
   <i type="int" name="TURBO">     0</i>
   <i type="int" name="IRESTART">     0</i>
   <i type="int" name="NREBOOT">     0</i>
   <i type="int" name="NMIN">     0</i>
   <i name="EREF">      0.00000000</i>
   <separator name="electronic smearing" >
    <i type="int" name="ISMEAR">     0</i>
    <i name="SIGMA">      0.05000000</i>
    <i name="KSPACING">      0.50000000</i>
    <i type="logical" name="KGAMMA"> T  </i>
    <i type="logical" name="KBLOWUP"> T  </i>
   </separator>
   <separator name="electronic projectors" >
    <i type="logical" name="LREAL"> T  </i>
    <v name="ROPT">     -0.00050000     -0.00050000</v>
    <i type="int" name="LMAXPAW">  -100</i>
    <i type="int" name="LMAXMIX">     2</i>
    <i type="logical" name="NLSPLINE"> F  </i>
   </separator>
   <separator name="electronic startup" >
    <i type="int" name="ISTART">     0</i>
    <i type="int" name="ICHARG">     2</i>
    <i type="int" name="INIWAV">     1</i>
   </separator>
   <separator name="electronic spin" >
    <i type="int" name="ISPIN">     1</i>
    <i type="logical" name="LNONCOLLINEAR"> F  </i>
    <v name="MAGMOM">      1.00000000      1.00000000      1.00000000      1.00000000      1.00000000      1.00000000      1.00000000      1.00000000      1.00000000      1.00000000      1.00000000      1.00000000      1.00000000      1.00000000      1.00000000      1.00000000      1.00000000      1.00000000      1.00000000      1.00000000
      1.00000000      1.00000000      1.00000000      1.00000000      1.00000000      1.00000000      1.00000000      1.00000000      1.00000000      1.00000000      1.00000000      1.00000000      1.00000000      1.00000000      1.00000000      1.00000000      1.00000000      1.00000000      1.00000000      1.00000000
      1.00000000      1.00000000      1.00000000      1.00000000      1.00000000      1.00000000      1.00000000      1.00000000      1.00000000      1.00000000      1.00000000      1.00000000      1.00000000      1.00000000      1.00000000      1.00000000      1.00000000      1.00000000      1.00000000      1.00000000
      1.00000000      1.00000000      1.00000000      1.00000000      1.00000000      1.00000000      1.00000000      1.00000000      1.00000000      1.00000000      1.00000000      1.00000000      1.00000000      1.00000000      1.00000000      1.00000000      1.00000000      1.00000000      1.00000000      1.00000000
      1.00000000      1.00000000      1.00000000      1.00000000      1.00000000      1.00000000      1.00000000      1.00000000      1.00000000      1.00000000      1.00000000      1.00000000      1.00000000      1.00000000      1.00000000      1.00000000      1.00000000      1.00000000      1.00000000      1.00000000
      1.00000000      1.00000000      1.00000000      1.00000000      1.00000000      1.00000000      1.00000000      1.00000000      1.00000000      1.00000000      1.00000000      1.00000000      1.00000000      1.00000000      1.00000000      1.00000000      1.00000000      1.00000000      1.00000000      1.00000000
      1.00000000      1.00000000      1.00000000      1.00000000      1.00000000      1.00000000      1.00000000      1.00000000      1.00000000      1.00000000      1.00000000      1.00000000      1.00000000      1.00000000      1.00000000      1.00000000      1.00000000      1.00000000      1.00000000      1.00000000
      1.00000000      1.00000000      1.00000000      1.00000000      1.00000000      1.00000000      1.00000000      1.00000000      1.00000000      1.00000000      1.00000000      1.00000000      1.00000000      1.00000000      1.00000000      1.00000000      1.00000000      1.00000000      1.00000000      1.00000000
      1.00000000      1.00000000      1.00000000      1.00000000      1.00000000      1.00000000      1.00000000      1.00000000      1.00000000      1.00000000      1.00000000      1.00000000      1.00000000      1.00000000      1.00000000      1.00000000      1.00000000      1.00000000      1.00000000      1.00000000
      1.00000000      1.00000000      1.00000000      1.00000000      1.00000000      1.00000000      1.00000000      1.00000000      1.00000000      1.00000000      1.00000000      1.00000000      1.00000000      1.00000000      1.00000000      1.00000000      1.00000000      1.00000000      1.00000000      1.00000000
      1.00000000      1.00000000      1.00000000      1.00000000      1.00000000      1.00000000      1.00000000      1.00000000      1.00000000      1.00000000      1.00000000      1.00000000      1.00000000      1.00000000      1.00000000      1.00000000      1.00000000      1.00000000      1.00000000      1.00000000
      1.00000000      1.00000000      1.00000000      1.00000000      1.00000000      1.00000000      1.00000000      1.00000000      1.00000000      1.00000000      1.00000000      1.00000000      1.00000000      1.00000000      1.00000000      1.00000000      1.00000000      1.00000000      1.00000000      1.00000000
      1.00000000      1.00000000      1.00000000      1.00000000      1.00000000      1.00000000      1.00000000      1.00000000      1.00000000      1.00000000      1.00000000      1.00000000      1.00000000      1.00000000</v>
    <i name="NUPDOWN">     -1.00000000</i>
    <i type="logical" name="LSORBIT"> F  </i>
    <v name="SAXIS">      0.00000000      0.00000000      1.00000000</v>
    <i type="logical" name="LSPIRAL"> F  </i>
    <v name="QSPIRAL">      0.00000000      0.00000000      0.00000000</v>
    <i type="logical" name="LZEROZ"> F  </i>
   </separator>
   <separator name="electronic exchange-correlation" >
    <i type="logical" name="LASPH"> F  </i>
    <i type="logical" name="LMETAGGA"> F  </i>
   </separator>
   <separator name="electronic convergence" >
    <i type="int" name="NELM">   250</i>
    <i type="int" name="NELMDL">    -5</i>
    <i type="int" name="NELMIN">     6</i>
    <i name="ENINI">    360.00000000</i>
    <separator name="electronic convergence detail" >
     <i type="logical" name="LDIAG"> T  </i>
     <i type="logical" name="LSUBROT"> F  </i>
     <i name="WEIMIN">      0.00000000</i>
     <i name="EBREAK">      0.00000000</i>
     <i name="DEPER">      0.30000000</i>
     <i type="int" name="NRMM">     4</i>
     <i name="TIME">      0.40000000</i>
    </separator>
   </separator>
   <separator name="electronic mixer" >
    <i name="AMIX">      0.40000000</i>
    <i name="BMIX">      1.00000000</i>
    <i name="AMIN">      0.10000000</i>
    <i name="AMIX_MAG">      1.60000000</i>
    <i name="BMIX_MAG">      1.00000000</i>
    <separator name="electronic mixer details" >
     <i type="int" name="IMIX">     4</i>
     <i type="logical" name="MIXFIRST"> F  </i>
     <i type="int" name="MAXMIX">   -45</i>
     <i name="WC">    100.00000000</i>
     <i type="int" name="INIMIX">     1</i>
     <i type="int" name="MIXPRE">     1</i>
     <i type="int" name="MREMOVE">     5</i>
    </separator>
   </separator>
   <separator name="electronic dipolcorrection" >
    <i type="logical" name="LDIPOL"> F  </i>
    <i type="logical" name="LMONO"> F  </i>
    <i type="int" name="IDIPOL">     0</i>
    <i name="EPSILON">      1.00000000</i>
    <v name="DIPOL">   -100.00000000   -100.00000000   -100.00000000</v>
    <i name="EFIELD">      0.00000000</i>
   </separator>
  </separator>
  <separator name="grids" >
   <i type="int" name="NGX">    70</i>
   <i type="int" name="NGY">    70</i>
   <i type="int" name="NGZ">   140</i>
   <i type="int" name="NGXF">   140</i>
   <i type="int" name="NGYF">   140</i>
   <i type="int" name="NGZF">   280</i>
   <i type="logical" name="ADDGRID"> F  </i>
  </separator>
  <separator name="ionic" >
   <i type="int" name="NSW">     0</i>
   <i type="int" name="IBRION">    -1</i>
   <i type="int" name="MDALGO">     0</i>
   <i type="int" name="ISIF">     0</i>
   <i name="PSTRESS">      0.00000000</i>
   <i name="EDIFFG">      0.00005000</i>
   <i type="int" name="NFREE">     0</i>
   <i name="POTIM">      0.50000000</i>
   <i name="SMASS">     -3.00000000</i>
   <i name="SCALEE">      1.00000000</i>
  </separator>
  <separator name="ionic md" >
   <i name="TEBEG">      0.00010000</i>
   <i name="TEEND">      0.00010000</i>
   <i type="int" name="NBLOCK">     1</i>
   <i type="int" name="KBLOCK">     1</i>
   <i type="int" name="NPACO">   256</i>
   <i name="APACO">     16.00000000</i>
  </separator>
  <separator name="symmetry" >
   <i type="int" name="ISYM">     2</i>
   <i name="SYMPREC">      0.00001000</i>
  </separator>
  <separator name="dos" >
   <i type="int" name="LORBIT">     0</i>
   <v name="RWIGS">     -1.00000000     -1.00000000</v>
   <i type="int" name="NEDOS">   301</i>
   <i name="EMIN">     10.00000000</i>
   <i name="EMAX">    -10.00000000</i>
   <i name="EFERMI">      0.00000000</i>
  </separator>
  <separator name="writing" >
   <i type="int" name="NWRITE">     2</i>
   <i type="logical" name="LWAVE"> F  </i>
   <i type="logical" name="LDOWNSAMPLE"> F  </i>
   <i type="logical" name="LCHARG"> F  </i>
   <i type="logical" name="LPARD"> F  </i>
   <i type="logical" name="LVTOT"> F  </i>
   <i type="logical" name="LVHAR"> F  </i>
   <i type="logical" name="LELF"> F  </i>
   <i type="logical" name="LOPTICS"> F  </i>
   <v name="STM">      0.00000000      0.00000000      0.00000000      0.00000000      0.00000000      0.00000000      0.00000000</v>
  </separator>
  <separator name="performance" >
   <i type="int" name="NPAR">     1</i>
   <i type="int" name="NSIM">     4</i>
   <i type="int" name="NBLK">    -1</i>
   <i type="logical" name="LPLANE"> T  </i>
   <i type="logical" name="LSCALAPACK"> T  </i>
   <i type="logical" name="LSCAAWARE"> F  </i>
   <i type="logical" name="LSCALU"> F  </i>
   <i type="logical" name="LASYNC"> F  </i>
   <i type="logical" name="LORBITALREAL"> F  </i>
  </separator>
  <separator name="miscellaneous" >
   <i type="int" name="IDIOT">     3</i>
   <i type="int" name="PHON_NSTRUCT">    -1</i>
   <i type="logical" name="LMUSIC"> F  </i>
   <v name="POMASS">     58.69000000     16.00000000</v>
   <v name="DARWINR">      0.00000000      0.00000000</v>
   <v name="DARWINV">      1.00000000      1.00000000</v>
   <i type="logical" name="LCORR"> T  </i>
  </separator>
  <i type="logical" name="GGA_COMPAT"> T  </i>
  <i type="logical" name="LBERRY"> F  </i>
  <i type="int" name="ICORELEVEL">     0</i>
  <i type="logical" name="LDAU"> F  </i>
  <i type="int" name="I_CONSTRAINED_M">     0</i>
  <separator name="electronic exchange-correlation" >
   <i type="string" name="GGA">--</i>
   <i type="int" name="VOSKOWN">     0</i>
   <i type="logical" name="LHFCALC"> F  </i>
   <i type="string" name="PRECFOCK"></i>
   <i type="logical" name="LSYMGRAD"> F  </i>
   <i type="logical" name="LHFONE"> F  </i>
   <i type="logical" name="LRHFCALC"> F  </i>
   <i type="logical" name="LTHOMAS"> F  </i>
   <i type="logical" name="LMODELHF"> F  </i>
   <i type="logical" name="LFOCKACE"> F  </i>
   <i name="ENCUT4O">     -1.00000000</i>
   <i type="int" name="EXXOEP">     0</i>
   <i type="int" name="FOURORBIT">     0</i>
   <i name="AEXX">      0.00000000</i>
   <i name="HFALPHA">      0.00000000</i>
   <i name="MCALPHA">      0.00000000</i>
   <i name="ALDAX">      1.00000000</i>
   <i name="AGGAX">      1.00000000</i>
   <i name="ALDAC">      1.00000000</i>
   <i name="AGGAC">      1.00000000</i>
   <i type="int" name="NKREDX">     1</i>
   <i type="int" name="NKREDY">     1</i>
   <i type="int" name="NKREDZ">     1</i>
   <i type="logical" name="SHIFTRED"> F  </i>
   <i type="logical" name="ODDONLY"> F  </i>
   <i type="logical" name="EVENONLY"> F  </i>
   <i type="int" name="LMAXFOCK">     0</i>
   <i type="int" name="NMAXFOCKAE">     0</i>
   <i type="logical" name="LFOCKAEDFT"> F  </i>
   <i name="HFSCREEN">      0.00000000</i>
   <i name="HFSCREENC">      0.00000000</i>
   <i type="int" name="NBANDSGWLOW">     0</i>
  </separator>
  <separator name="vdW DFT" >
   <i type="logical" name="LUSE_VDW"> F  </i>
   <i name="Zab_VDW">     -0.84910000</i>
   <i name="PARAM1">      0.12340000</i>
   <i name="PARAM2">      1.00000000</i>
   <i name="PARAM3">      0.00000000</i>
  </separator>
  <separator name="model GW" >
   <i type="int" name="MODEL_GW">     0</i>
   <i name="MODEL_EPS0">     13.60989534</i>
   <i name="MODEL_ALPHA">      1.00000000</i>
  </separator>
  <separator name="linear response parameters" >
   <i type="logical" name="LEPSILON"> F  </i>
   <i type="logical" name="LRPA"> F  </i>
   <i type="logical" name="LNABLA"> F  </i>
   <i type="logical" name="LVEL"> F  </i>
   <i type="int" name="KINTER">     0</i>
   <i name="CSHIFT">      0.10000000</i>
   <i name="OMEGAMAX">     -1.00000000</i>
   <i name="DEG_THRESHOLD">      0.00200000</i>
   <i name="RTIME">     -0.10000000</i>
   <i name="WPLASMAI">      0.00000000</i>
   <v name="DFIELD">      0.00000000      0.00000000      0.00000000</v>
   <v name="WPLASMA">      0.00000000      0.00000000      0.00000000      0.00000000      0.00000000      0.00000000      0.00000000      0.00000000      0.00000000</v>
  </separator>
  <separator name="orbital magnetization" >
   <i type="logical" name="NUCIND"> F  </i>
   <v name="MAGPOS">      0.00000000      0.00000000      0.00000000</v>
   <i type="logical" name="LNICSALL"> T  </i>
   <i type="logical" name="ORBITALMAG"> F  </i>
   <i type="logical" name="LMAGBLOCH"> F  </i>
   <i type="logical" name="LCHIMAG"> F  </i>
   <i type="logical" name="LGAUGE"> T  </i>
   <i type="int" name="MAGATOM">     0</i>
   <v name="MAGDIPOL">      0.00000000      0.00000000      0.00000000</v>
   <v name="AVECCONST">      0.00000000      0.00000000      0.00000000</v>
  </separator>
  <separator name="response functions" >
   <i type="logical" name="LFINITE_TEMPERATURE"> F  </i>
   <i type="logical" name="LADDER"> F  </i>
   <i type="logical" name="LRPAFORCE"> F  </i>
   <i type="logical" name="LFXC"> F  </i>
   <i type="logical" name="LHARTREE"> T  </i>
   <i type="int" name="IBSE">     0</i>
   <v type="int" name="KPOINT">    -1     0     0     0</v>
   <i type="logical" name="LTCTC"> F  </i>
   <i type="logical" name="LTCTE"> F  </i>
   <i type="logical" name="LTETE"> F  </i>
   <i type="logical" name="LTRIPLET"> F  </i>
   <i type="logical" name="LFXCEPS"> F  </i>
   <i type="logical" name="LFXHEG"> F  </i>
   <i type="int" name="NATURALO">     2</i>
   <i type="logical" name="LHOLEGF"> F  </i>
   <i type="logical" name="L2ORDER"> F  </i>
   <i type="logical" name="LDMP1"> F  </i>
   <i type="logical" name="LMP2LT"> F  </i>
   <i type="logical" name="LSMP2LT"> F  </i>
   <i type="logical" name="LGWLF"> F  </i>
   <i name="ENCUTGW">     -2.00000000</i>
   <i name="ENCUTGWSOFT">     -2.00000000</i>
   <i name="ENCUTLF">     -1.00000000</i>
   <i type="logical" name="LESF_SPLINES"> F  </i>
   <i type="int" name="LMAXMP2">    -1</i>
   <i name="SCISSOR">      0.00000000</i>
   <i type="int" name="NOMEGA">     0</i>
   <i type="int" name="NOMEGAR">     0</i>
   <i type="int" name="NBANDSGW">    -1</i>
   <i type="int" name="NBANDSO">    -1</i>
   <i type="int" name="NBANDSV">    -1</i>
   <i type="int" name="NELM">   250</i>
   <i type="int" name="NELMHF">     1</i>
   <i type="int" name="DIM">     3</i>
   <i type="int" name="IESPILON">     4</i>
   <i type="int" name="ANTIRES">     0</i>
   <i name="OMEGAMAX">    -30.00000000</i>
   <i name="OMEGAMIN">    -30.00000000</i>
   <i name="OMEGATL">   -200.00000000</i>
   <i type="int" name="OMEGAGRID">     0</i>
   <i name="CSHIFT">     -0.10000000</i>
   <i type="logical" name="LSELFENERGY"> F  </i>
   <i type="logical" name="LSPECTRAL"> F  </i>
   <i type="logical" name="LSPECTRALGW"> F  </i>
   <i type="logical" name="LSINGLES"> F  </i>
   <i type="logical" name="LFERMIGW"> F  </i>
   <i type="logical" name="ODDONLYGW"> F  </i>
   <i type="logical" name="EVENONLYGW"> F  </i>
   <i type="int" name="NKREDLFX">     1</i>
   <i type="int" name="NKREDLFY">     1</i>
   <i type="int" name="NKREDLFZ">     1</i>
   <i type="int" name="MAXMEM">  2800</i>
   <i type="int" name="TELESCOPE">     0</i>
   <i type="int" name="NTAUPAR">    -1</i>
   <i type="int" name="NOMEGAPAR">    -1</i>
   <i name="DAMP_NEWTON">      0.80000001</i>
   <i name="LAMBDA">      1.00000000</i>
  </separator>
  <separator name="External order field" >
   <i name="OFIELD_KAPPA">      0.00000000</i>
   <v name="OFIELD_K">      0.00000000      0.00000000      0.00000000</v>
   <i name="OFIELD_Q6_NEAR">      0.00000000</i>
   <i name="OFIELD_Q6_FAR">      0.00000000</i>
   <i name="OFIELD_A">      0.00000000</i>
  </separator>
  <separator name="solvation model" >
   <i type="logical" name="LSOL"> F  </i>
  </separator>
 </parameters>
 <atominfo>
  <atoms>     254 </atoms>
  <types>       2 </types>
  <array name="atoms" >
   <dimension dim="1">ion</dimension>
   <field type="string">element</field>
   <field type="int">atomtype</field>
   <set>
    <rc><c>Ni</c><c>   1</c></rc>
    <rc><c>Ni</c><c>   1</c></rc>
    <rc><c>Ni</c><c>   1</c></rc>
    <rc><c>Ni</c><c>   1</c></rc>
    <rc><c>Ni</c><c>   1</c></rc>
    <rc><c>Ni</c><c>   1</c></rc>
    <rc><c>Ni</c><c>   1</c></rc>
    <rc><c>Ni</c><c>   1</c></rc>
    <rc><c>Ni</c><c>   1</c></rc>
    <rc><c>Ni</c><c>   1</c></rc>
    <rc><c>Ni</c><c>   1</c></rc>
    <rc><c>Ni</c><c>   1</c></rc>
    <rc><c>Ni</c><c>   1</c></rc>
    <rc><c>Ni</c><c>   1</c></rc>
    <rc><c>Ni</c><c>   1</c></rc>
    <rc><c>Ni</c><c>   1</c></rc>
    <rc><c>Ni</c><c>   1</c></rc>
    <rc><c>Ni</c><c>   1</c></rc>
    <rc><c>Ni</c><c>   1</c></rc>
    <rc><c>Ni</c><c>   1</c></rc>
    <rc><c>Ni</c><c>   1</c></rc>
    <rc><c>Ni</c><c>   1</c></rc>
    <rc><c>Ni</c><c>   1</c></rc>
    <rc><c>Ni</c><c>   1</c></rc>
    <rc><c>Ni</c><c>   1</c></rc>
    <rc><c>Ni</c><c>   1</c></rc>
    <rc><c>Ni</c><c>   1</c></rc>
    <rc><c>Ni</c><c>   1</c></rc>
    <rc><c>Ni</c><c>   1</c></rc>
    <rc><c>Ni</c><c>   1</c></rc>
    <rc><c>Ni</c><c>   1</c></rc>
    <rc><c>Ni</c><c>   1</c></rc>
    <rc><c>Ni</c><c>   1</c></rc>
    <rc><c>Ni</c><c>   1</c></rc>
    <rc><c>Ni</c><c>   1</c></rc>
    <rc><c>Ni</c><c>   1</c></rc>
    <rc><c>Ni</c><c>   1</c></rc>
    <rc><c>Ni</c><c>   1</c></rc>
    <rc><c>Ni</c><c>   1</c></rc>
    <rc><c>Ni</c><c>   1</c></rc>
    <rc><c>Ni</c><c>   1</c></rc>
    <rc><c>Ni</c><c>   1</c></rc>
    <rc><c>Ni</c><c>   1</c></rc>
    <rc><c>Ni</c><c>   1</c></rc>
    <rc><c>Ni</c><c>   1</c></rc>
    <rc><c>Ni</c><c>   1</c></rc>
    <rc><c>Ni</c><c>   1</c></rc>
    <rc><c>Ni</c><c>   1</c></rc>
    <rc><c>Ni</c><c>   1</c></rc>
    <rc><c>Ni</c><c>   1</c></rc>
    <rc><c>Ni</c><c>   1</c></rc>
    <rc><c>Ni</c><c>   1</c></rc>
    <rc><c>Ni</c><c>   1</c></rc>
    <rc><c>Ni</c><c>   1</c></rc>
    <rc><c>Ni</c><c>   1</c></rc>
    <rc><c>Ni</c><c>   1</c></rc>
    <rc><c>Ni</c><c>   1</c></rc>
    <rc><c>Ni</c><c>   1</c></rc>
    <rc><c>Ni</c><c>   1</c></rc>
    <rc><c>Ni</c><c>   1</c></rc>
    <rc><c>Ni</c><c>   1</c></rc>
    <rc><c>Ni</c><c>   1</c></rc>
    <rc><c>Ni</c><c>   1</c></rc>
    <rc><c>Ni</c><c>   1</c></rc>
    <rc><c>Ni</c><c>   1</c></rc>
    <rc><c>Ni</c><c>   1</c></rc>
    <rc><c>Ni</c><c>   1</c></rc>
    <rc><c>Ni</c><c>   1</c></rc>
    <rc><c>Ni</c><c>   1</c></rc>
    <rc><c>Ni</c><c>   1</c></rc>
    <rc><c>Ni</c><c>   1</c></rc>
    <rc><c>Ni</c><c>   1</c></rc>
    <rc><c>Ni</c><c>   1</c></rc>
    <rc><c>Ni</c><c>   1</c></rc>
    <rc><c>Ni</c><c>   1</c></rc>
    <rc><c>Ni</c><c>   1</c></rc>
    <rc><c>Ni</c><c>   1</c></rc>
    <rc><c>Ni</c><c>   1</c></rc>
    <rc><c>Ni</c><c>   1</c></rc>
    <rc><c>Ni</c><c>   1</c></rc>
    <rc><c>Ni</c><c>   1</c></rc>
    <rc><c>Ni</c><c>   1</c></rc>
    <rc><c>Ni</c><c>   1</c></rc>
    <rc><c>Ni</c><c>   1</c></rc>
    <rc><c>Ni</c><c>   1</c></rc>
    <rc><c>Ni</c><c>   1</c></rc>
    <rc><c>Ni</c><c>   1</c></rc>
    <rc><c>Ni</c><c>   1</c></rc>
    <rc><c>Ni</c><c>   1</c></rc>
    <rc><c>Ni</c><c>   1</c></rc>
    <rc><c>Ni</c><c>   1</c></rc>
    <rc><c>Ni</c><c>   1</c></rc>
    <rc><c>Ni</c><c>   1</c></rc>
    <rc><c>Ni</c><c>   1</c></rc>
    <rc><c>Ni</c><c>   1</c></rc>
    <rc><c>Ni</c><c>   1</c></rc>
    <rc><c>Ni</c><c>   1</c></rc>
    <rc><c>Ni</c><c>   1</c></rc>
    <rc><c>Ni</c><c>   1</c></rc>
    <rc><c>Ni</c><c>   1</c></rc>
    <rc><c>Ni</c><c>   1</c></rc>
    <rc><c>Ni</c><c>   1</c></rc>
    <rc><c>Ni</c><c>   1</c></rc>
    <rc><c>Ni</c><c>   1</c></rc>
    <rc><c>Ni</c><c>   1</c></rc>
    <rc><c>Ni</c><c>   1</c></rc>
    <rc><c>Ni</c><c>   1</c></rc>
    <rc><c>Ni</c><c>   1</c></rc>
    <rc><c>Ni</c><c>   1</c></rc>
    <rc><c>Ni</c><c>   1</c></rc>
    <rc><c>Ni</c><c>   1</c></rc>
    <rc><c>Ni</c><c>   1</c></rc>
    <rc><c>Ni</c><c>   1</c></rc>
    <rc><c>Ni</c><c>   1</c></rc>
    <rc><c>Ni</c><c>   1</c></rc>
    <rc><c>Ni</c><c>   1</c></rc>
    <rc><c>Ni</c><c>   1</c></rc>
    <rc><c>Ni</c><c>   1</c></rc>
    <rc><c>Ni</c><c>   1</c></rc>
    <rc><c>Ni</c><c>   1</c></rc>
    <rc><c>Ni</c><c>   1</c></rc>
    <rc><c>Ni</c><c>   1</c></rc>
    <rc><c>Ni</c><c>   1</c></rc>
    <rc><c>Ni</c><c>   1</c></rc>
    <rc><c>Ni</c><c>   1</c></rc>
    <rc><c>Ni</c><c>   1</c></rc>
    <rc><c>Ni</c><c>   1</c></rc>
    <rc><c>Ni</c><c>   1</c></rc>
    <rc><c>Ni</c><c>   1</c></rc>
    <rc><c>Ni</c><c>   1</c></rc>
    <rc><c>Ni</c><c>   1</c></rc>
    <rc><c>Ni</c><c>   1</c></rc>
    <rc><c>Ni</c><c>   1</c></rc>
    <rc><c>Ni</c><c>   1</c></rc>
    <rc><c>Ni</c><c>   1</c></rc>
    <rc><c>Ni</c><c>   1</c></rc>
    <rc><c>Ni</c><c>   1</c></rc>
    <rc><c>Ni</c><c>   1</c></rc>
    <rc><c>Ni</c><c>   1</c></rc>
    <rc><c>Ni</c><c>   1</c></rc>
    <rc><c>Ni</c><c>   1</c></rc>
    <rc><c>Ni</c><c>   1</c></rc>
    <rc><c>Ni</c><c>   1</c></rc>
    <rc><c>Ni</c><c>   1</c></rc>
    <rc><c>Ni</c><c>   1</c></rc>
    <rc><c>Ni</c><c>   1</c></rc>
    <rc><c>Ni</c><c>   1</c></rc>
    <rc><c>Ni</c><c>   1</c></rc>
    <rc><c>Ni</c><c>   1</c></rc>
    <rc><c>Ni</c><c>   1</c></rc>
    <rc><c>Ni</c><c>   1</c></rc>
    <rc><c>Ni</c><c>   1</c></rc>
    <rc><c>Ni</c><c>   1</c></rc>
    <rc><c>Ni</c><c>   1</c></rc>
    <rc><c>Ni</c><c>   1</c></rc>
    <rc><c>Ni</c><c>   1</c></rc>
    <rc><c>Ni</c><c>   1</c></rc>
    <rc><c>Ni</c><c>   1</c></rc>
    <rc><c>Ni</c><c>   1</c></rc>
    <rc><c>Ni</c><c>   1</c></rc>
    <rc><c>Ni</c><c>   1</c></rc>
    <rc><c>Ni</c><c>   1</c></rc>
    <rc><c>Ni</c><c>   1</c></rc>
    <rc><c>Ni</c><c>   1</c></rc>
    <rc><c>Ni</c><c>   1</c></rc>
    <rc><c>Ni</c><c>   1</c></rc>
    <rc><c>Ni</c><c>   1</c></rc>
    <rc><c>Ni</c><c>   1</c></rc>
    <rc><c>Ni</c><c>   1</c></rc>
    <rc><c>Ni</c><c>   1</c></rc>
    <rc><c>Ni</c><c>   1</c></rc>
    <rc><c>Ni</c><c>   1</c></rc>
    <rc><c>Ni</c><c>   1</c></rc>
    <rc><c>Ni</c><c>   1</c></rc>
    <rc><c>Ni</c><c>   1</c></rc>
    <rc><c>Ni</c><c>   1</c></rc>
    <rc><c>Ni</c><c>   1</c></rc>
    <rc><c>Ni</c><c>   1</c></rc>
    <rc><c>Ni</c><c>   1</c></rc>
    <rc><c>Ni</c><c>   1</c></rc>
    <rc><c>Ni</c><c>   1</c></rc>
    <rc><c>Ni</c><c>   1</c></rc>
    <rc><c>Ni</c><c>   1</c></rc>
    <rc><c>Ni</c><c>   1</c></rc>
    <rc><c>Ni</c><c>   1</c></rc>
    <rc><c>Ni</c><c>   1</c></rc>
    <rc><c>Ni</c><c>   1</c></rc>
    <rc><c>Ni</c><c>   1</c></rc>
    <rc><c>Ni</c><c>   1</c></rc>
    <rc><c>Ni</c><c>   1</c></rc>
    <rc><c>Ni</c><c>   1</c></rc>
    <rc><c>Ni</c><c>   1</c></rc>
    <rc><c>Ni</c><c>   1</c></rc>
    <rc><c>Ni</c><c>   1</c></rc>
    <rc><c>Ni</c><c>   1</c></rc>
    <rc><c>Ni</c><c>   1</c></rc>
    <rc><c>Ni</c><c>   1</c></rc>
    <rc><c>Ni</c><c>   1</c></rc>
    <rc><c>Ni</c><c>   1</c></rc>
    <rc><c>Ni</c><c>   1</c></rc>
    <rc><c>Ni</c><c>   1</c></rc>
    <rc><c>Ni</c><c>   1</c></rc>
    <rc><c>Ni</c><c>   1</c></rc>
    <rc><c>Ni</c><c>   1</c></rc>
    <rc><c>Ni</c><c>   1</c></rc>
    <rc><c>Ni</c><c>   1</c></rc>
    <rc><c>Ni</c><c>   1</c></rc>
    <rc><c>Ni</c><c>   1</c></rc>
    <rc><c>Ni</c><c>   1</c></rc>
    <rc><c>Ni</c><c>   1</c></rc>
    <rc><c>Ni</c><c>   1</c></rc>
    <rc><c>Ni</c><c>   1</c></rc>
    <rc><c>Ni</c><c>   1</c></rc>
    <rc><c>Ni</c><c>   1</c></rc>
    <rc><c>Ni</c><c>   1</c></rc>
    <rc><c>Ni</c><c>   1</c></rc>
    <rc><c>Ni</c><c>   1</c></rc>
    <rc><c>Ni</c><c>   1</c></rc>
    <rc><c>Ni</c><c>   1</c></rc>
    <rc><c>Ni</c><c>   1</c></rc>
    <rc><c>Ni</c><c>   1</c></rc>
    <rc><c>Ni</c><c>   1</c></rc>
    <rc><c>Ni</c><c>   1</c></rc>
    <rc><c>Ni</c><c>   1</c></rc>
    <rc><c>Ni</c><c>   1</c></rc>
    <rc><c>Ni</c><c>   1</c></rc>
    <rc><c>Ni</c><c>   1</c></rc>
    <rc><c>Ni</c><c>   1</c></rc>
    <rc><c>Ni</c><c>   1</c></rc>
    <rc><c>Ni</c><c>   1</c></rc>
    <rc><c>Ni</c><c>   1</c></rc>
    <rc><c>Ni</c><c>   1</c></rc>
    <rc><c>Ni</c><c>   1</c></rc>
    <rc><c>Ni</c><c>   1</c></rc>
    <rc><c>Ni</c><c>   1</c></rc>
    <rc><c>Ni</c><c>   1</c></rc>
    <rc><c>Ni</c><c>   1</c></rc>
    <rc><c>Ni</c><c>   1</c></rc>
    <rc><c>Ni</c><c>   1</c></rc>
    <rc><c>Ni</c><c>   1</c></rc>
    <rc><c>Ni</c><c>   1</c></rc>
    <rc><c>Ni</c><c>   1</c></rc>
    <rc><c>Ni</c><c>   1</c></rc>
    <rc><c>Ni</c><c>   1</c></rc>
    <rc><c>Ni</c><c>   1</c></rc>
    <rc><c>Ni</c><c>   1</c></rc>
    <rc><c>Ni</c><c>   1</c></rc>
    <rc><c>Ni</c><c>   1</c></rc>
    <rc><c>Ni</c><c>   1</c></rc>
    <rc><c>Ni</c><c>   1</c></rc>
    <rc><c>Ni</c><c>   1</c></rc>
    <rc><c>Ni</c><c>   1</c></rc>
    <rc><c>O </c><c>   2</c></rc>
    <rc><c>O </c><c>   2</c></rc>
   </set>
  </array>
  <array name="atomtypes" >
   <dimension dim="1">type</dimension>
   <field type="int">atomspertype</field>
   <field type="string">element</field>
   <field>mass</field>
   <field>valence</field>
   <field type="string">pseudopotential</field>
   <set>
    <rc><c> 252</c><c>Ni</c><c>     58.69000000</c><c>     10.00000000</c><c>  PAW Ni_GW 31Mar2010                   </c></rc>
    <rc><c>   2</c><c>O </c><c>     16.00000000</c><c>      6.00000000</c><c>  PAW O_GW 19Mar2012                    </c></rc>
   </set>
  </array>
 </atominfo>
 <structure name="initialpos" >
  <crystal>
   <varray name="basis" >
    <v>       0.00000000     -15.14622176       0.00000000 </v>
    <v>       0.00000000      -7.57311088     -13.11701281 </v>
    <v>      29.00000000       0.00000000       0.00000000 </v>
   </varray>
   <i name="volume">   5761.52236213 </i>
   <varray name="rec_basis" >
    <v>       0.00000000      -0.06602307       0.03811843 </v>
    <v>       0.00000000       0.00000000      -0.07623687 </v>
    <v>       0.03448276       0.00000000       0.00000000 </v>
   </varray>
  </crystal>
  <varray name="positions" >
   <v>       0.44444450       0.44444418       0.10434517 </v>
   <v>       0.44444439       0.77777770       0.10434517 </v>
   <v>       0.44444423       0.11111143       0.10434517 </v>
   <v>       0.77777779       0.44444418       0.10434517 </v>
   <v>       0.77777768       0.77777770       0.10434517 </v>
   <v>       0.77777752       0.11111143       0.10434517 </v>
   <v>       0.11111120       0.44444418       0.10434517 </v>
   <v>       0.11111109       0.77777770       0.10434517 </v>
   <v>       0.11111093       0.11111143       0.10434517 </v>
   <v>       0.55555543       0.55555561       0.17318552 </v>
   <v>       0.55555532       0.88888912       0.17318552 </v>
   <v>       0.55555554       0.22222209       0.17318552 </v>
   <v>       0.88888873       0.55555561       0.17318552 </v>
   <v>       0.88888862       0.88888912       0.17318552 </v>
   <v>       0.88888884       0.22222209       0.17318552 </v>
   <v>       0.22222214       0.55555561       0.17318552 </v>
   <v>       0.22222203       0.88888912       0.17318552 </v>
   <v>       0.22222225       0.22222209       0.17318552 </v>
   <v>       0.66666637       0.66666703       0.24249897 </v>
   <v>       0.66666659       0.00000000       0.24249897 </v>
   <v>       0.66666648       0.33333352       0.24249897 </v>
   <v>       0.99999978       0.66666703       0.24249897 </v>
   <v>       0.00000000       0.00000000       0.24249897 </v>
   <v>       0.99999989       0.33333352       0.24249897 </v>
   <v>       0.33333307       0.66666703       0.24249897 </v>
   <v>       0.33333329       0.00000000       0.24249897 </v>
   <v>       0.33333318       0.33333352       0.24249897 </v>
   <v>       0.77777768       0.77777770       0.31173069 </v>
   <v>       0.77777752       0.11111143       0.31173069 </v>
   <v>       0.77777779       0.44444418       0.31173069 </v>
   <v>       0.11111109       0.77777770       0.31173069 </v>
   <v>       0.11111093       0.11111143       0.31173069 </v>
   <v>       0.11111120       0.44444418       0.31173069 </v>
   <v>       0.44444439       0.77777770       0.31173069 </v>
   <v>       0.44444423       0.11111143       0.31173069 </v>
   <v>       0.44444450       0.44444418       0.31173069 </v>
   <v>       0.88888862       0.88888912       0.38096241 </v>
   <v>       0.88888884       0.22222209       0.38096241 </v>
   <v>       0.88888873       0.55555561       0.38096241 </v>
   <v>       0.22222203       0.88888912       0.38096241 </v>
   <v>       0.22222225       0.22222209       0.38096241 </v>
   <v>       0.22222214       0.55555561       0.38096241 </v>
   <v>       0.55555532       0.88888912       0.38096241 </v>
   <v>       0.55555554       0.22222209       0.38096241 </v>
   <v>       0.55555543       0.55555561       0.38096241 </v>
   <v>       0.00000000       0.00000000       0.45027586 </v>
   <v>       0.99999989       0.33333352       0.45027586 </v>
   <v>       0.99999978       0.66666703       0.45027586 </v>
   <v>       0.33333329       0.00000000       0.45027586 </v>
   <v>       0.33333318       0.33333352       0.45027586 </v>
   <v>       0.33333307       0.66666703       0.45027586 </v>
   <v>       0.66666659       0.00000000       0.45027586 </v>
   <v>       0.66666648       0.33333352       0.45027586 </v>
   <v>       0.66666637       0.66666703       0.45027586 </v>
   <v>       0.11111093       0.11111143       0.51911621 </v>
   <v>       0.11111120       0.44444418       0.51911621 </v>
   <v>       0.11111109       0.77777770       0.51911621 </v>
   <v>       0.44444423       0.11111143       0.51911621 </v>
   <v>       0.44444450       0.44444418       0.51911621 </v>
   <v>       0.44444439       0.77777770       0.51911621 </v>
   <v>       0.77777752       0.11111143       0.51911621 </v>
   <v>       0.77777779       0.44444418       0.51911621 </v>
   <v>       0.77777768       0.77777770       0.51911621 </v>
   <v>       0.27777824       0.27777742       0.10434517 </v>
   <v>       0.27777813       0.61111094       0.10434517 </v>
   <v>       0.27777802       0.94444445       0.10434517 </v>
   <v>       0.61111153       0.27777742       0.10434517 </v>
   <v>       0.61111142       0.61111094       0.10434517 </v>
   <v>       0.61111131       0.94444445       0.10434517 </v>
   <v>       0.94444483       0.27777742       0.10434517 </v>
   <v>       0.94444472       0.61111094       0.10434517 </v>
   <v>       0.94444461       0.94444445       0.10434517 </v>
   <v>       0.38888917       0.38888885       0.17318552 </v>
   <v>       0.38888906       0.72222236       0.17318552 </v>
   <v>       0.38888928       0.05555533       0.17318552 </v>
   <v>       0.72222247       0.38888885       0.17318552 </v>
   <v>       0.72222236       0.72222236       0.17318552 </v>
   <v>       0.72222258       0.05555533       0.17318552 </v>
   <v>       0.05555588       0.38888885       0.17318552 </v>
   <v>       0.05555577       0.72222236       0.17318552 </v>
   <v>       0.05555599       0.05555533       0.17318552 </v>
   <v>       0.50000011       0.50000027       0.24249897 </v>
   <v>       0.50000038       0.83333303       0.24249897 </v>
   <v>       0.50000022       0.16666676       0.24249897 </v>
   <v>       0.83333340       0.50000027       0.24249897 </v>
   <v>       0.83333367       0.83333303       0.24249897 </v>
   <v>       0.83333351       0.16666676       0.24249897 </v>
   <v>       0.16666681       0.50000027       0.24249897 </v>
   <v>       0.16666708       0.83333303       0.24249897 </v>
   <v>       0.16666692       0.16666676       0.24249897 </v>
   <v>       0.61111142       0.61111094       0.31173069 </v>
   <v>       0.61111131       0.94444445       0.31173069 </v>
   <v>       0.61111153       0.27777742       0.31173069 </v>
   <v>       0.94444472       0.61111094       0.31173069 </v>
   <v>       0.94444461       0.94444445       0.31173069 </v>
   <v>       0.94444483       0.27777742       0.31173069 </v>
   <v>       0.27777813       0.61111094       0.31173069 </v>
   <v>       0.27777802       0.94444445       0.31173069 </v>
   <v>       0.27777824       0.27777742       0.31173069 </v>
   <v>       0.72222236       0.72222236       0.38096241 </v>
   <v>       0.72222258       0.05555533       0.38096241 </v>
   <v>       0.72222247       0.38888885       0.38096241 </v>
   <v>       0.05555577       0.72222236       0.38096241 </v>
   <v>       0.05555599       0.05555533       0.38096241 </v>
   <v>       0.05555588       0.38888885       0.38096241 </v>
   <v>       0.38888906       0.72222236       0.38096241 </v>
   <v>       0.38888928       0.05555533       0.38096241 </v>
   <v>       0.38888917       0.38888885       0.38096241 </v>
   <v>       0.83333367       0.83333303       0.45027586 </v>
   <v>       0.83333351       0.16666676       0.45027586 </v>
   <v>       0.83333340       0.50000027       0.45027586 </v>
   <v>       0.16666708       0.83333303       0.45027586 </v>
   <v>       0.16666692       0.16666676       0.45027586 </v>
   <v>       0.16666681       0.50000027       0.45027586 </v>
   <v>       0.50000038       0.83333303       0.45027586 </v>
   <v>       0.50000022       0.16666676       0.45027586 </v>
   <v>       0.50000011       0.50000027       0.45027586 </v>
   <v>       0.94444461       0.94444445       0.51911621 </v>
   <v>       0.94444483       0.27777742       0.51911621 </v>
   <v>       0.94444472       0.61111094       0.51911621 </v>
   <v>       0.27777802       0.94444445       0.51911621 </v>
   <v>       0.27777824       0.27777742       0.51911621 </v>
   <v>       0.27777813       0.61111094       0.51911621 </v>
   <v>       0.61111131       0.94444445       0.51911621 </v>
   <v>       0.61111153       0.27777742       0.51911621 </v>
   <v>       0.61111142       0.61111094       0.51911621 </v>
   <v>       0.27777785       0.44444418       0.10434517 </v>
   <v>       0.27777774       0.77777770       0.10434517 </v>
   <v>       0.27777758       0.11111143       0.10434517 </v>
   <v>       0.61111115       0.44444418       0.10434517 </v>
   <v>       0.61111104       0.77777770       0.10434517 </v>
   <v>       0.61111088       0.11111143       0.10434517 </v>
   <v>       0.94444444       0.44444418       0.10434517 </v>
   <v>       0.94444433       0.77777770       0.10434517 </v>
   <v>       0.94444417       0.11111143       0.10434517 </v>
   <v>       0.38888879       0.55555561       0.17318552 </v>
   <v>       0.38888868       0.88888912       0.17318552 </v>
   <v>       0.38888890       0.22222209       0.17318552 </v>
   <v>       0.72222208       0.55555561       0.17318552 </v>
   <v>       0.72222197       0.88888912       0.17318552 </v>
   <v>       0.72222219       0.22222209       0.17318552 </v>
   <v>       0.05555549       0.55555561       0.17318552 </v>
   <v>       0.05555538       0.88888912       0.17318552 </v>
   <v>       0.05555560       0.22222209       0.17318552 </v>
   <v>       0.49999972       0.66666703       0.24249897 </v>
   <v>       0.49999994       0.00000000       0.24249897 </v>
   <v>       0.49999983       0.33333352       0.24249897 </v>
   <v>       0.83333302       0.66666703       0.24249897 </v>
   <v>       0.83333324       0.00000000       0.24249897 </v>
   <v>       0.83333313       0.33333352       0.24249897 </v>
   <v>       0.16666643       0.66666703       0.24249897 </v>
   <v>       0.16666665       0.00000000       0.24249897 </v>
   <v>       0.16666654       0.33333352       0.24249897 </v>
   <v>       0.61111104       0.77777770       0.31173069 </v>
   <v>       0.61111088       0.11111143       0.31173069 </v>
   <v>       0.61111115       0.44444418       0.31173069 </v>
   <v>       0.94444433       0.77777770       0.31173069 </v>
   <v>       0.94444417       0.11111143       0.31173069 </v>
   <v>       0.94444444       0.44444418       0.31173069 </v>
   <v>       0.27777774       0.77777770       0.31173069 </v>
   <v>       0.27777758       0.11111143       0.31173069 </v>
   <v>       0.27777785       0.44444418       0.31173069 </v>
   <v>       0.72222197       0.88888912       0.38096241 </v>
   <v>       0.72222219       0.22222209       0.38096241 </v>
   <v>       0.72222208       0.55555561       0.38096241 </v>
   <v>       0.05555538       0.88888912       0.38096241 </v>
   <v>       0.05555560       0.22222209       0.38096241 </v>
   <v>       0.05555549       0.55555561       0.38096241 </v>
   <v>       0.38888868       0.88888912       0.38096241 </v>
   <v>       0.38888890       0.22222209       0.38096241 </v>
   <v>       0.38888879       0.55555561       0.38096241 </v>
   <v>       0.83333324       0.00000000       0.45027586 </v>
   <v>       0.83333313       0.33333352       0.45027586 </v>
   <v>       0.83333302       0.66666703       0.45027586 </v>
   <v>       0.16666665       0.00000000       0.45027586 </v>
   <v>       0.16666654       0.33333352       0.45027586 </v>
   <v>       0.16666643       0.66666703       0.45027586 </v>
   <v>       0.49999994       0.00000000       0.45027586 </v>
   <v>       0.49999983       0.33333352       0.45027586 </v>
   <v>       0.49999972       0.66666703       0.45027586 </v>
   <v>       0.94444417       0.11111143       0.51911621 </v>
   <v>       0.94444444       0.44444418       0.51911621 </v>
   <v>       0.94444433       0.77777770       0.51911621 </v>
   <v>       0.27777758       0.11111143       0.51911621 </v>
   <v>       0.27777785       0.44444418       0.51911621 </v>
   <v>       0.27777774       0.77777770       0.51911621 </v>
   <v>       0.61111088       0.11111143       0.51911621 </v>
   <v>       0.61111115       0.44444418       0.51911621 </v>
   <v>       0.61111104       0.77777770       0.51911621 </v>
   <v>       0.44444488       0.27777742       0.10434517 </v>
   <v>       0.44444477       0.61111094       0.10434517 </v>
   <v>       0.44444466       0.94444445       0.10434517 </v>
   <v>       0.77777818       0.27777742       0.10434517 </v>
   <v>       0.77777807       0.61111094       0.10434517 </v>
   <v>       0.77777796       0.94444445       0.10434517 </v>
   <v>       0.11111159       0.27777742       0.10434517 </v>
   <v>       0.11111148       0.61111094       0.10434517 </v>
   <v>       0.11111137       0.94444445       0.10434517 </v>
   <v>       0.55555582       0.38888885       0.17318552 </v>
   <v>       0.55555571       0.72222236       0.17318552 </v>
   <v>       0.55555593       0.05555533       0.17318552 </v>
   <v>       0.88888911       0.38888885       0.17318552 </v>
   <v>       0.88888900       0.72222236       0.17318552 </v>
   <v>       0.88888922       0.05555533       0.17318552 </v>
   <v>       0.22222252       0.38888885       0.17318552 </v>
   <v>       0.22222241       0.72222236       0.17318552 </v>
   <v>       0.22222264       0.05555533       0.17318552 </v>
   <v>       0.66666675       0.50000027       0.24249897 </v>
   <v>       0.66666702       0.83333303       0.24249897 </v>
   <v>       0.66666686       0.16666676       0.24249897 </v>
   <v>       0.00000016       0.50000027       0.24249897 </v>
   <v>       0.00000043       0.83333303       0.24249897 </v>
   <v>       0.00000027       0.16666676       0.24249897 </v>
   <v>       0.33333346       0.50000027       0.24249897 </v>
   <v>       0.33333373       0.83333303       0.24249897 </v>
   <v>       0.33333357       0.16666676       0.24249897 </v>
   <v>       0.77777807       0.61111094       0.31173069 </v>
   <v>       0.77777796       0.94444445       0.31173069 </v>
   <v>       0.77777818       0.27777742       0.31173069 </v>
   <v>       0.11111148       0.61111094       0.31173069 </v>
   <v>       0.11111137       0.94444445       0.31173069 </v>
   <v>       0.11111159       0.27777742       0.31173069 </v>
   <v>       0.44444477       0.61111094       0.31173069 </v>
   <v>       0.44444466       0.94444445       0.31173069 </v>
   <v>       0.44444488       0.27777742       0.31173069 </v>
   <v>       0.88888900       0.72222236       0.38096241 </v>
   <v>       0.88888922       0.05555533       0.38096241 </v>
   <v>       0.88888911       0.38888885       0.38096241 </v>
   <v>       0.22222241       0.72222236       0.38096241 </v>
   <v>       0.22222264       0.05555533       0.38096241 </v>
   <v>       0.22222252       0.38888885       0.38096241 </v>
   <v>       0.55555571       0.72222236       0.38096241 </v>
   <v>       0.55555593       0.05555533       0.38096241 </v>
   <v>       0.55555582       0.38888885       0.38096241 </v>
   <v>       0.00000043       0.83333303       0.45027586 </v>
   <v>       0.00000027       0.16666676       0.45027586 </v>
   <v>       0.00000016       0.50000027       0.45027586 </v>
   <v>       0.33333373       0.83333303       0.45027586 </v>
   <v>       0.33333357       0.16666676       0.45027586 </v>
   <v>       0.33333346       0.50000027       0.45027586 </v>
   <v>       0.66666702       0.83333303       0.45027586 </v>
   <v>       0.66666686       0.16666676       0.45027586 </v>
   <v>       0.66666675       0.50000027       0.45027586 </v>
   <v>       0.11111137       0.94444445       0.51911621 </v>
   <v>       0.11111159       0.27777742       0.51911621 </v>
   <v>       0.11111148       0.61111094       0.51911621 </v>
   <v>       0.44444466       0.94444445       0.51911621 </v>
   <v>       0.44444488       0.27777742       0.51911621 </v>
   <v>       0.44444477       0.61111094       0.51911621 </v>
   <v>       0.77777796       0.94444445       0.51911621 </v>
   <v>       0.77777818       0.27777742       0.51911621 </v>
   <v>       0.77777807       0.61111094       0.51911621 </v>
   <v>       0.55561801       0.38880804       0.58793103 </v>
   <v>       0.49996510       0.50011387       0.58793103 </v>
  </varray>
 </structure>
 <calculation>
  <scstep>
   <time name="dav">   32.87   32.89</time>
   <time name="total">   33.51   33.54</time>
   <energy>
    <i name="alphaZ">  11989.56231627 </i>
    <i name="ewald">1654429.09515370 </i>
    <i name="hartreedc">**************** </i>
    <i name="XCdc">   2948.01037394 </i>
    <i name="pawpsdc"> 240645.55203634 </i>
    <i name="pawaedc">-260205.15184403 </i>
    <i name="eentropy">     -0.17697560 </i>
    <i name="bandstr">  18976.55655615 </i>
    <i name="atom"> 272423.81458302 </i>
    <i name="e_fr_energy">  22353.24766740 </i>
    <i name="e_wo_entrp">  22353.42464300 </i>
    <i name="e_0_energy">  22353.33615520 </i>
   </energy>
  </scstep>
  <scstep>
   <time name="dav">   32.76   32.77</time>
   <time name="total">   32.77   32.78</time>
   <energy>
    <i name="e_fr_energy">     99.03506917 </i>
    <i name="e_wo_entrp">     99.24197223 </i>
    <i name="e_0_energy">     99.13852070 </i>
   </energy>
  </scstep>
  <scstep>
   <time name="dav">   35.65   35.66</time>
   <time name="total">   35.66   35.67</time>
   <energy>
    <i name="e_fr_energy">  -1332.58758704 </i>
    <i name="e_wo_entrp">  -1331.76331419 </i>
    <i name="e_0_energy">  -1332.17545061 </i>
   </energy>
  </scstep>
  <scstep>
   <time name="dav">   53.33   53.35</time>
   <time name="total">   53.34   53.35</time>
   <energy>
    <i name="e_fr_energy">  -1559.05563634 </i>
    <i name="e_wo_entrp">  -1557.88168850 </i>
    <i name="e_0_energy">  -1558.46866242 </i>
   </energy>
  </scstep>
  <scstep>
   <time name="dav">   48.48   48.49</time>
   <time name="total">   50.28   50.29</time>
   <energy>
    <i name="e_fr_energy">  -1570.96921377 </i>
    <i name="e_wo_entrp">  -1569.77628084 </i>
    <i name="e_0_energy">  -1570.37274730 </i>
   </energy>
  </scstep>
  <scstep>
   <time name="dav">   40.99   40.99</time>
   <time name="total">   43.38   43.39</time>
   <energy>
    <i name="e_fr_energy">  -1941.73249204 </i>
    <i name="e_wo_entrp">  -1941.35492936 </i>
    <i name="e_0_energy">  -1941.54371070 </i>
   </energy>
  </scstep>
  <scstep>
   <time name="dav">   35.11   35.11</time>
   <time name="total">   37.51   37.52</time>
   <energy>
    <i name="e_fr_energy">  -1737.56985266 </i>
    <i name="e_wo_entrp">  -1736.70703909 </i>
    <i name="e_0_energy">  -1737.13844588 </i>
   </energy>
  </scstep>
  <scstep>
   <time name="dav">   40.89   40.90</time>
   <time name="total">   43.27   43.28</time>
   <energy>
    <i name="e_fr_energy">  -1979.79185630 </i>
    <i name="e_wo_entrp">  -1979.34064803 </i>
    <i name="e_0_energy">  -1979.56625217 </i>
   </energy>
  </scstep>
  <scstep>
   <time name="dav">   34.63   34.64</time>
   <time name="total">   37.03   37.04</time>
   <energy>
    <i name="e_fr_energy">  -1953.61393350 </i>
    <i name="e_wo_entrp">  -1953.27976207 </i>
    <i name="e_0_energy">  -1953.44684779 </i>
   </energy>
  </scstep>
  <scstep>
   <time name="dav">   44.02   44.03</time>
   <time name="total">   46.43   46.44</time>
   <energy>
    <i name="e_fr_energy">  -1677.53579842 </i>
    <i name="e_wo_entrp">  -1677.07050284 </i>
    <i name="e_0_energy">  -1677.30315063 </i>
   </energy>
  </scstep>
  <scstep>
   <time name="dav">   36.08   36.09</time>
   <time name="total">   38.49   38.50</time>
   <energy>
    <i name="e_fr_energy">  -1532.24775685 </i>
    <i name="e_wo_entrp">  -1531.87927820 </i>
    <i name="e_0_energy">  -1532.06351752 </i>
   </energy>
  </scstep>
  <scstep>
   <time name="dav">   40.66   40.67</time>
   <time name="total">   43.09   43.10</time>
   <energy>
    <i name="e_fr_energy">  -1586.48049132 </i>
    <i name="e_wo_entrp">  -1585.82817192 </i>
    <i name="e_0_energy">  -1586.15433162 </i>
   </energy>
  </scstep>
  <scstep>
   <time name="dav">   36.46   36.47</time>
   <time name="total">   38.91   38.92</time>
   <energy>
    <i name="e_fr_energy">  -1532.44293427 </i>
    <i name="e_wo_entrp">  -1531.87410255 </i>
    <i name="e_0_energy">  -1532.15851841 </i>
   </energy>
  </scstep>
  <scstep>
   <time name="dav">   34.35   34.35</time>
   <time name="total">   36.81   36.82</time>
   <energy>
    <i name="e_fr_energy">  -1448.57655154 </i>
    <i name="e_wo_entrp">  -1448.08363768 </i>
    <i name="e_0_energy">  -1448.33009461 </i>
   </energy>
  </scstep>
  <scstep>
   <time name="dav">   35.01   35.02</time>
   <time name="total">   37.45   37.46</time>
   <energy>
    <i name="e_fr_energy">  -1512.32369177 </i>
    <i name="e_wo_entrp">  -1511.89861735 </i>
    <i name="e_0_energy">  -1512.11115456 </i>
   </energy>
  </scstep>
  <scstep>
   <time name="dav">   33.81   33.82</time>
   <time name="total">   36.26   36.27</time>
   <energy>
    <i name="e_fr_energy">  -1444.24028481 </i>
    <i name="e_wo_entrp">  -1443.76633858 </i>
    <i name="e_0_energy">  -1444.00331169 </i>
   </energy>
  </scstep>
  <scstep>
   <time name="dav">   34.27   34.28</time>
   <time name="total">   36.74   36.75</time>
   <energy>
    <i name="e_fr_energy">  -1399.44282954 </i>
    <i name="e_wo_entrp">  -1398.90978790 </i>
    <i name="e_0_energy">  -1399.17630872 </i>
   </energy>
  </scstep>
  <scstep>
   <time name="dav">   34.15   34.16</time>
   <time name="total">   36.64   36.65</time>
   <energy>
    <i name="e_fr_energy">  -1386.20763846 </i>
    <i name="e_wo_entrp">  -1385.64936467 </i>
    <i name="e_0_energy">  -1385.92850157 </i>
   </energy>
  </scstep>
  <scstep>
   <time name="dav">   34.30   34.30</time>
   <time name="total">   36.80   36.81</time>
   <energy>
    <i name="e_fr_energy">  -1365.20183069 </i>
    <i name="e_wo_entrp">  -1364.52661150 </i>
    <i name="e_0_energy">  -1364.86422109 </i>
   </energy>
  </scstep>
  <scstep>
   <time name="dav">   34.57   34.58</time>
   <time name="total">   37.10   37.10</time>
   <energy>
    <i name="e_fr_energy">  -1358.77545706 </i>
    <i name="e_wo_entrp">  -1358.02195502 </i>
    <i name="e_0_energy">  -1358.39870604 </i>
   </energy>
  </scstep>
  <scstep>
   <time name="dav">   34.52   34.53</time>
   <time name="total">   37.06   37.07</time>
   <energy>
    <i name="e_fr_energy">  -1345.48161755 </i>
    <i name="e_wo_entrp">  -1344.50023193 </i>
    <i name="e_0_energy">  -1344.99092474 </i>
   </energy>
  </scstep>
  <scstep>
   <time name="dav">   34.66   34.66</time>
   <time name="total">   37.21   37.21</time>
   <energy>
    <i name="e_fr_energy">  -1340.93888609 </i>
    <i name="e_wo_entrp">  -1339.91436551 </i>
    <i name="e_0_energy">  -1340.42662580 </i>
   </energy>
  </scstep>
  <scstep>
   <time name="dav">   34.82   34.83</time>
   <time name="total">   37.38   37.39</time>
   <energy>
    <i name="e_fr_energy">  -1341.40625283 </i>
    <i name="e_wo_entrp">  -1340.43016766 </i>
    <i name="e_0_energy">  -1340.91821025 </i>
   </energy>
  </scstep>
  <scstep>
   <time name="dav">   34.98   34.99</time>
   <time name="total">   37.55   37.56</time>
   <energy>
    <i name="e_fr_energy">  -1336.09641773 </i>
    <i name="e_wo_entrp">  -1334.99077134 </i>
    <i name="e_0_energy">  -1335.54359454 </i>
   </energy>
  </scstep>
  <scstep>
   <time name="dav">   34.80   34.80</time>
   <time name="total">   37.39   37.39</time>
   <energy>
    <i name="e_fr_energy">  -1331.88295138 </i>
    <i name="e_wo_entrp">  -1330.65387713 </i>
    <i name="e_0_energy">  -1331.26841425 </i>
   </energy>
  </scstep>
  <scstep>
   <time name="dav">   34.80   34.81</time>
   <time name="total">   37.41   37.42</time>
   <energy>
    <i name="e_fr_energy">  -1331.02976563 </i>
    <i name="e_wo_entrp">  -1329.79578653 </i>
    <i name="e_0_energy">  -1330.41277608 </i>
   </energy>
  </scstep>
  <scstep>
   <time name="dav">   34.90   34.91</time>
   <time name="total">   37.53   37.53</time>
   <energy>
    <i name="e_fr_energy">  -1330.20036618 </i>
    <i name="e_wo_entrp">  -1328.88621701 </i>
    <i name="e_0_energy">  -1329.54329160 </i>
   </energy>
  </scstep>
  <scstep>
   <time name="dav">   34.87   34.88</time>
   <time name="total">   37.53   37.53</time>
   <energy>
    <i name="e_fr_energy">  -1328.53045467 </i>
    <i name="e_wo_entrp">  -1327.18746202 </i>
    <i name="e_0_energy">  -1327.85895835 </i>
   </energy>
  </scstep>
  <scstep>
   <time name="dav">   34.93   34.94</time>
   <time name="total">   37.59   37.59</time>
   <energy>
    <i name="e_fr_energy">  -1327.38223202 </i>
    <i name="e_wo_entrp">  -1325.99201913 </i>
    <i name="e_0_energy">  -1326.68712558 </i>
   </energy>
  </scstep>
  <scstep>
   <time name="dav">   34.94   34.95</time>
   <time name="total">   37.61   37.62</time>
   <energy>
    <i name="e_fr_energy">  -1327.12037511 </i>
    <i name="e_wo_entrp">  -1325.72080430 </i>
    <i name="e_0_energy">  -1326.42058971 </i>
   </energy>
  </scstep>
  <scstep>
   <time name="dav">   35.03   35.04</time>
   <time name="total">   37.71   37.72</time>
   <energy>
    <i name="e_fr_energy">  -1326.76261620 </i>
    <i name="e_wo_entrp">  -1325.32349824 </i>
    <i name="e_0_energy">  -1326.04305722 </i>
   </energy>
  </scstep>
  <scstep>
   <time name="dav">   35.08   35.09</time>
   <time name="total">   37.80   37.81</time>
   <energy>
    <i name="e_fr_energy">  -1326.63905605 </i>
    <i name="e_wo_entrp">  -1325.17921923 </i>
[...]
       <r>    -0.5038  1088.3260  2602.0786 </r>
       <r>    -0.4051   493.1077  2650.7369 </r>
       <r>    -0.3065   170.8481  2667.5957 </r>
       <r>    -0.2078   122.4352  2679.6772 </r>
       <r>    -0.1091   168.8123  2696.3350 </r>
       <r>    -0.0104   156.3709  2711.7652 </r>
       <r>     0.0882    78.2989  2719.4915 </r>
       <r>     0.1869    52.7308  2724.6948 </r>
       <r>     0.2856    38.4970  2728.4936 </r>
       <r>     0.3843    64.4870  2734.8569 </r>
       <r>     0.4830   117.6760  2746.4688 </r>
       <r>     0.5816    91.4234  2755.4902 </r>
       <r>     0.6803    91.2107  2764.4906 </r>
       <r>     0.7790    77.7581  2772.1635 </r>
       <r>     0.8777   126.4649  2784.6427 </r>
       <r>     0.9763   140.9041  2798.5466 </r>
       <r>     1.0750    35.2083  2802.0209 </r>
       <r>     1.1737    21.3551  2804.1281 </r>
       <r>     1.2724   119.4956  2815.9196 </r>
       <r>     1.3710    70.9143  2822.9171 </r>
       <r>     1.4697    30.4493  2825.9218 </r>
       <r>     1.5684    82.0140  2834.0147 </r>
       <r>     1.6671   109.9218  2844.8614 </r>
       <r>     1.7658    75.9708  2852.3580 </r>
       <r>     1.8644    83.3853  2860.5861 </r>
       <r>     1.9631    97.6827  2870.2252 </r>
       <r>     2.0618    45.7811  2874.7427 </r>
       <r>     2.1605    67.2680  2881.3805 </r>
       <r>     2.2591   110.9070  2892.3244 </r>
       <r>     2.3578   107.2239  2902.9049 </r>
       <r>     2.4565    31.9393  2906.0566 </r>
       <r>     2.5552    69.0429  2912.8695 </r>
       <r>     2.6538    33.6338  2916.1884 </r>
       <r>     2.7525    16.8498  2917.8511 </r>
       <r>     2.8512    37.3309  2921.5348 </r>
       <r>     2.9499    78.7422  2929.3048 </r>
       <r>     3.0485   212.8244  2950.3056 </r>
       <r>     3.1472   125.4569  2962.6853 </r>
       <r>     3.2459    28.8348  2965.5307 </r>
       <r>     3.3446    27.5418  2968.2484 </r>
       <r>     3.4433    87.9107  2976.9231 </r>
       <r>     3.5419    57.5937  2982.6063 </r>
       <r>     3.6406    40.1955  2986.5727 </r>
       <r>     3.7393    76.1164  2994.0836 </r>
       <r>     3.8380    17.4225  2995.8028 </r>
       <r>     3.9366    19.3966  2997.7168 </r>
       <r>     4.0353    17.6225  2999.4557 </r>
       <r>     4.1340    59.8534  3005.3618 </r>
       <r>     4.2327    43.2448  3009.6291 </r>
       <r>     4.3313    48.5718  3014.4220 </r>
       <r>     4.4300    82.3795  3022.5509 </r>
       <r>     4.5287    60.4832  3028.5192 </r>
       <r>     4.6274    66.1038  3035.0421 </r>
       <r>     4.7261    29.4925  3037.9524 </r>
       <r>     4.8247     0.4826  3038.0000 </r>
       <r>     4.9234     0.0000  3038.0000 </r>
       <r>     5.0221     0.0000  3038.0000 </r>
       <r>     5.1208     0.0000  3038.0000 </r>
       <r>     5.2194     0.0000  3038.0000 </r>
       <r>     5.3181     0.0000  3038.0000 </r>
       <r>     5.4168     0.0000  3038.0000 </r>
       <r>     5.5155     0.0000  3038.0000 </r>
       <r>     5.6141     0.0000  3038.0000 </r>
       <r>     5.7128     0.0000  3038.0000 </r>
       <r>     5.8115     0.0000  3038.0000 </r>
       <r>     5.9102     0.0000  3038.0000 </r>
       <r>     6.0089     0.0000  3038.0000 </r>
      </set>
     </set>
    </array>
   </total>
  </dos>
 </calculation>
 <structure name="finalpos" >
  <crystal>
   <varray name="basis" >
    <v>       0.00000000     -15.14622176       0.00000000 </v>
    <v>       0.00000000      -7.57311088     -13.11701281 </v>
    <v>      29.00000000       0.00000000       0.00000000 </v>
   </varray>
   <i name="volume">   5761.52236213 </i>
   <varray name="rec_basis" >
    <v>       0.00000000      -0.06602307       0.03811843 </v>
    <v>       0.00000000       0.00000000      -0.07623687 </v>
    <v>       0.03448276       0.00000000       0.00000000 </v>
   </varray>
  </crystal>
  <varray name="positions" >
   <v>       0.44444450       0.44444418       0.10434517 </v>
   <v>       0.44444439       0.77777770       0.10434517 </v>
   <v>       0.44444423       0.11111143       0.10434517 </v>
   <v>       0.77777779       0.44444418       0.10434517 </v>
   <v>       0.77777768       0.77777770       0.10434517 </v>
   <v>       0.77777752       0.11111143       0.10434517 </v>
   <v>       0.11111120       0.44444418       0.10434517 </v>
   <v>       0.11111109       0.77777770       0.10434517 </v>
   <v>       0.11111093       0.11111143       0.10434517 </v>
   <v>       0.55555543       0.55555561       0.17318552 </v>
   <v>       0.55555532       0.88888912       0.17318552 </v>
   <v>       0.55555554       0.22222209       0.17318552 </v>
   <v>       0.88888873       0.55555561       0.17318552 </v>
   <v>       0.88888862       0.88888912       0.17318552 </v>
   <v>       0.88888884       0.22222209       0.17318552 </v>
   <v>       0.22222214       0.55555561       0.17318552 </v>
   <v>       0.22222203       0.88888912       0.17318552 </v>
   <v>       0.22222225       0.22222209       0.17318552 </v>
   <v>       0.66666637       0.66666703       0.24249897 </v>
   <v>       0.66666659       0.00000000       0.24249897 </v>
   <v>       0.66666648       0.33333352       0.24249897 </v>
   <v>       0.99999978       0.66666703       0.24249897 </v>
   <v>       0.00000000       0.00000000       0.24249897 </v>
   <v>       0.99999989       0.33333352       0.24249897 </v>
   <v>       0.33333307       0.66666703       0.24249897 </v>
   <v>       0.33333329       0.00000000       0.24249897 </v>
   <v>       0.33333318       0.33333352       0.24249897 </v>
   <v>       0.77777768       0.77777770       0.31173069 </v>
   <v>       0.77777752       0.11111143       0.31173069 </v>
   <v>       0.77777779       0.44444418       0.31173069 </v>
   <v>       0.11111109       0.77777770       0.31173069 </v>
   <v>       0.11111093       0.11111143       0.31173069 </v>
   <v>       0.11111120       0.44444418       0.31173069 </v>
   <v>       0.44444439       0.77777770       0.31173069 </v>
   <v>       0.44444423       0.11111143       0.31173069 </v>
   <v>       0.44444450       0.44444418       0.31173069 </v>
   <v>       0.88888862       0.88888912       0.38096241 </v>
   <v>       0.88888884       0.22222209       0.38096241 </v>
   <v>       0.88888873       0.55555561       0.38096241 </v>
   <v>       0.22222203       0.88888912       0.38096241 </v>
   <v>       0.22222225       0.22222209       0.38096241 </v>
   <v>       0.22222214       0.55555561       0.38096241 </v>
   <v>       0.55555532       0.88888912       0.38096241 </v>
   <v>       0.55555554       0.22222209       0.38096241 </v>
   <v>       0.55555543       0.55555561       0.38096241 </v>
   <v>       0.00000000       0.00000000       0.45027586 </v>
   <v>       0.99999989       0.33333352       0.45027586 </v>
   <v>       0.99999978       0.66666703       0.45027586 </v>
   <v>       0.33333329       0.00000000       0.45027586 </v>
   <v>       0.33333318       0.33333352       0.45027586 </v>
   <v>       0.33333307       0.66666703       0.45027586 </v>
   <v>       0.66666659       0.00000000       0.45027586 </v>
   <v>       0.66666648       0.33333352       0.45027586 </v>
   <v>       0.66666637       0.66666703       0.45027586 </v>
   <v>       0.11111093       0.11111143       0.51911621 </v>
   <v>       0.11111120       0.44444418       0.51911621 </v>
   <v>       0.11111109       0.77777770       0.51911621 </v>
   <v>       0.44444423       0.11111143       0.51911621 </v>
   <v>       0.44444450       0.44444418       0.51911621 </v>
   <v>       0.44444439       0.77777770       0.51911621 </v>
   <v>       0.77777752       0.11111143       0.51911621 </v>
   <v>       0.77777779       0.44444418       0.51911621 </v>
   <v>       0.77777768       0.77777770       0.51911621 </v>
   <v>       0.27777824       0.27777742       0.10434517 </v>
   <v>       0.27777813       0.61111094       0.10434517 </v>
   <v>       0.27777802       0.94444445       0.10434517 </v>
   <v>       0.61111153       0.27777742       0.10434517 </v>
   <v>       0.61111142       0.61111094       0.10434517 </v>
   <v>       0.61111131       0.94444445       0.10434517 </v>
   <v>       0.94444483       0.27777742       0.10434517 </v>
   <v>       0.94444472       0.61111094       0.10434517 </v>
   <v>       0.94444461       0.94444445       0.10434517 </v>
   <v>       0.38888917       0.38888885       0.17318552 </v>
   <v>       0.38888906       0.72222236       0.17318552 </v>
   <v>       0.38888928       0.05555533       0.17318552 </v>
   <v>       0.72222247       0.38888885       0.17318552 </v>
   <v>       0.72222236       0.72222236       0.17318552 </v>
   <v>       0.72222258       0.05555533       0.17318552 </v>
   <v>       0.05555588       0.38888885       0.17318552 </v>
   <v>       0.05555577       0.72222236       0.17318552 </v>
   <v>       0.05555599       0.05555533       0.17318552 </v>
   <v>       0.50000011       0.50000027       0.24249897 </v>
   <v>       0.50000038       0.83333303       0.24249897 </v>
   <v>       0.50000022       0.16666676       0.24249897 </v>
   <v>       0.83333340       0.50000027       0.24249897 </v>
   <v>       0.83333367       0.83333303       0.24249897 </v>
   <v>       0.83333351       0.16666676       0.24249897 </v>
   <v>       0.16666681       0.50000027       0.24249897 </v>
   <v>       0.16666708       0.83333303       0.24249897 </v>
   <v>       0.16666692       0.16666676       0.24249897 </v>
   <v>       0.61111142       0.61111094       0.31173069 </v>
   <v>       0.61111131       0.94444445       0.31173069 </v>
   <v>       0.61111153       0.27777742       0.31173069 </v>
   <v>       0.94444472       0.61111094       0.31173069 </v>
   <v>       0.94444461       0.94444445       0.31173069 </v>
   <v>       0.94444483       0.27777742       0.31173069 </v>
   <v>       0.27777813       0.61111094       0.31173069 </v>
   <v>       0.27777802       0.94444445       0.31173069 </v>
   <v>       0.27777824       0.27777742       0.31173069 </v>
   <v>       0.72222236       0.72222236       0.38096241 </v>
   <v>       0.72222258       0.05555533       0.38096241 </v>
   <v>       0.72222247       0.38888885       0.38096241 </v>
   <v>       0.05555577       0.72222236       0.38096241 </v>
   <v>       0.05555599       0.05555533       0.38096241 </v>
   <v>       0.05555588       0.38888885       0.38096241 </v>
   <v>       0.38888906       0.72222236       0.38096241 </v>
   <v>       0.38888928       0.05555533       0.38096241 </v>
   <v>       0.38888917       0.38888885       0.38096241 </v>
   <v>       0.83333367       0.83333303       0.45027586 </v>
   <v>       0.83333351       0.16666676       0.45027586 </v>
   <v>       0.83333340       0.50000027       0.45027586 </v>
   <v>       0.16666708       0.83333303       0.45027586 </v>
   <v>       0.16666692       0.16666676       0.45027586 </v>
   <v>       0.16666681       0.50000027       0.45027586 </v>
   <v>       0.50000038       0.83333303       0.45027586 </v>
   <v>       0.50000022       0.16666676       0.45027586 </v>
   <v>       0.50000011       0.50000027       0.45027586 </v>
   <v>       0.94444461       0.94444445       0.51911621 </v>
   <v>       0.94444483       0.27777742       0.51911621 </v>
   <v>       0.94444472       0.61111094       0.51911621 </v>
   <v>       0.27777802       0.94444445       0.51911621 </v>
   <v>       0.27777824       0.27777742       0.51911621 </v>
   <v>       0.27777813       0.61111094       0.51911621 </v>
   <v>       0.61111131       0.94444445       0.51911621 </v>
   <v>       0.61111153       0.27777742       0.51911621 </v>
   <v>       0.61111142       0.61111094       0.51911621 </v>
   <v>       0.27777785       0.44444418       0.10434517 </v>
   <v>       0.27777774       0.77777770       0.10434517 </v>
   <v>       0.27777758       0.11111143       0.10434517 </v>
   <v>       0.61111115       0.44444418       0.10434517 </v>
   <v>       0.61111104       0.77777770       0.10434517 </v>
   <v>       0.61111088       0.11111143       0.10434517 </v>
   <v>       0.94444444       0.44444418       0.10434517 </v>
   <v>       0.94444433       0.77777770       0.10434517 </v>
   <v>       0.94444417       0.11111143       0.10434517 </v>
   <v>       0.38888879       0.55555561       0.17318552 </v>
   <v>       0.38888868       0.88888912       0.17318552 </v>
   <v>       0.38888890       0.22222209       0.17318552 </v>
   <v>       0.72222208       0.55555561       0.17318552 </v>
   <v>       0.72222197       0.88888912       0.17318552 </v>
   <v>       0.72222219       0.22222209       0.17318552 </v>
   <v>       0.05555549       0.55555561       0.17318552 </v>
   <v>       0.05555538       0.88888912       0.17318552 </v>
   <v>       0.05555560       0.22222209       0.17318552 </v>
   <v>       0.49999972       0.66666703       0.24249897 </v>
   <v>       0.49999994       0.00000000       0.24249897 </v>
   <v>       0.49999983       0.33333352       0.24249897 </v>
   <v>       0.83333302       0.66666703       0.24249897 </v>
   <v>       0.83333324       0.00000000       0.24249897 </v>
   <v>       0.83333313       0.33333352       0.24249897 </v>
   <v>       0.16666643       0.66666703       0.24249897 </v>
   <v>       0.16666665       0.00000000       0.24249897 </v>
   <v>       0.16666654       0.33333352       0.24249897 </v>
   <v>       0.61111104       0.77777770       0.31173069 </v>
   <v>       0.61111088       0.11111143       0.31173069 </v>
   <v>       0.61111115       0.44444418       0.31173069 </v>
   <v>       0.94444433       0.77777770       0.31173069 </v>
   <v>       0.94444417       0.11111143       0.31173069 </v>
   <v>       0.94444444       0.44444418       0.31173069 </v>
   <v>       0.27777774       0.77777770       0.31173069 </v>
   <v>       0.27777758       0.11111143       0.31173069 </v>
   <v>       0.27777785       0.44444418       0.31173069 </v>
   <v>       0.72222197       0.88888912       0.38096241 </v>
   <v>       0.72222219       0.22222209       0.38096241 </v>
   <v>       0.72222208       0.55555561       0.38096241 </v>
   <v>       0.05555538       0.88888912       0.38096241 </v>
   <v>       0.05555560       0.22222209       0.38096241 </v>
   <v>       0.05555549       0.55555561       0.38096241 </v>
   <v>       0.38888868       0.88888912       0.38096241 </v>
   <v>       0.38888890       0.22222209       0.38096241 </v>
   <v>       0.38888879       0.55555561       0.38096241 </v>
   <v>       0.83333324       0.00000000       0.45027586 </v>
   <v>       0.83333313       0.33333352       0.45027586 </v>
   <v>       0.83333302       0.66666703       0.45027586 </v>
   <v>       0.16666665       0.00000000       0.45027586 </v>
   <v>       0.16666654       0.33333352       0.45027586 </v>
   <v>       0.16666643       0.66666703       0.45027586 </v>
   <v>       0.49999994       0.00000000       0.45027586 </v>
   <v>       0.49999983       0.33333352       0.45027586 </v>
   <v>       0.49999972       0.66666703       0.45027586 </v>
   <v>       0.94444417       0.11111143       0.51911621 </v>
   <v>       0.94444444       0.44444418       0.51911621 </v>
   <v>       0.94444433       0.77777770       0.51911621 </v>
   <v>       0.27777758       0.11111143       0.51911621 </v>
   <v>       0.27777785       0.44444418       0.51911621 </v>
   <v>       0.27777774       0.77777770       0.51911621 </v>
   <v>       0.61111088       0.11111143       0.51911621 </v>
   <v>       0.61111115       0.44444418       0.51911621 </v>
   <v>       0.61111104       0.77777770       0.51911621 </v>
   <v>       0.44444488       0.27777742       0.10434517 </v>
   <v>       0.44444477       0.61111094       0.10434517 </v>
   <v>       0.44444466       0.94444445       0.10434517 </v>
   <v>       0.77777818       0.27777742       0.10434517 </v>
   <v>       0.77777807       0.61111094       0.10434517 </v>
   <v>       0.77777796       0.94444445       0.10434517 </v>
   <v>       0.11111159       0.27777742       0.10434517 </v>
   <v>       0.11111148       0.61111094       0.10434517 </v>
   <v>       0.11111137       0.94444445       0.10434517 </v>
   <v>       0.55555582       0.38888885       0.17318552 </v>
   <v>       0.55555571       0.72222236       0.17318552 </v>
   <v>       0.55555593       0.05555533       0.17318552 </v>
   <v>       0.88888911       0.38888885       0.17318552 </v>
   <v>       0.88888900       0.72222236       0.17318552 </v>
   <v>       0.88888922       0.05555533       0.17318552 </v>
   <v>       0.22222252       0.38888885       0.17318552 </v>
   <v>       0.22222241       0.72222236       0.17318552 </v>
   <v>       0.22222264       0.05555533       0.17318552 </v>
   <v>       0.66666675       0.50000027       0.24249897 </v>
   <v>       0.66666702       0.83333303       0.24249897 </v>
   <v>       0.66666686       0.16666676       0.24249897 </v>
   <v>       0.00000016       0.50000027       0.24249897 </v>
   <v>       0.00000043       0.83333303       0.24249897 </v>
   <v>       0.00000027       0.16666676       0.24249897 </v>
   <v>       0.33333346       0.50000027       0.24249897 </v>
   <v>       0.33333373       0.83333303       0.24249897 </v>
   <v>       0.33333357       0.16666676       0.24249897 </v>
   <v>       0.77777807       0.61111094       0.31173069 </v>
   <v>       0.77777796       0.94444445       0.31173069 </v>
   <v>       0.77777818       0.27777742       0.31173069 </v>
   <v>       0.11111148       0.61111094       0.31173069 </v>
   <v>       0.11111137       0.94444445       0.31173069 </v>
   <v>       0.11111159       0.27777742       0.31173069 </v>
   <v>       0.44444477       0.61111094       0.31173069 </v>
   <v>       0.44444466       0.94444445       0.31173069 </v>
   <v>       0.44444488       0.27777742       0.31173069 </v>
   <v>       0.88888900       0.72222236       0.38096241 </v>
   <v>       0.88888922       0.05555533       0.38096241 </v>
   <v>       0.88888911       0.38888885       0.38096241 </v>
   <v>       0.22222241       0.72222236       0.38096241 </v>
   <v>       0.22222264       0.05555533       0.38096241 </v>
   <v>       0.22222252       0.38888885       0.38096241 </v>
   <v>       0.55555571       0.72222236       0.38096241 </v>
   <v>       0.55555593       0.05555533       0.38096241 </v>
   <v>       0.55555582       0.38888885       0.38096241 </v>
   <v>       0.00000043       0.83333303       0.45027586 </v>
   <v>       0.00000027       0.16666676       0.45027586 </v>
   <v>       0.00000016       0.50000027       0.45027586 </v>
   <v>       0.33333373       0.83333303       0.45027586 </v>
   <v>       0.33333357       0.16666676       0.45027586 </v>
   <v>       0.33333346       0.50000027       0.45027586 </v>
   <v>       0.66666702       0.83333303       0.45027586 </v>
   <v>       0.66666686       0.16666676       0.45027586 </v>
   <v>       0.66666675       0.50000027       0.45027586 </v>
   <v>       0.11111137       0.94444445       0.51911621 </v>
   <v>       0.11111159       0.27777742       0.51911621 </v>
   <v>       0.11111148       0.61111094       0.51911621 </v>
   <v>       0.44444466       0.94444445       0.51911621 </v>
   <v>       0.44444488       0.27777742       0.51911621 </v>
   <v>       0.44444477       0.61111094       0.51911621 </v>
   <v>       0.77777796       0.94444445       0.51911621 </v>
   <v>       0.77777818       0.27777742       0.51911621 </v>
   <v>       0.77777807       0.61111094       0.51911621 </v>
   <v>       0.55561801       0.38880804       0.58793103 </v>
   <v>       0.49996510       0.50011387       0.58793103 </v>
  </varray>
 </structure>
</modeling>
