       N       E                     dE             d eps       ncg     rms          rms(c)
DAV:   1     0.238010380067E+04    0.23801E+04   -0.20432E+05  3072   0.854E+02
DAV:   2    -0.701318504626E+03   -0.30814E+04   -0.29122E+04  4192   0.202E+02
DAV:   3    -0.939076289493E+03   -0.23776E+03   -0.22677E+03  4360   0.436E+01
DAV:   4    -0.954178791517E+03   -0.15103E+02   -0.11499E+02  4496   0.959E+00
DAV:   5    -0.956015329910E+03   -0.18365E+01   -0.17930E+01  4792   0.288E+00    0.227E+01
DAV:   6    -0.966437014272E+03   -0.10422E+02   -0.18206E+02  4400   0.165E+01    0.244E+01
DAV:   7    -0.932809966703E+03    0.33627E+02   -0.12794E+02  3920   0.156E+01    0.124E+01
DAV:   8    -0.955576466544E+03   -0.22766E+02   -0.42823E+01  4952   0.135E+01    0.183E+01
DAV:   9    -0.929836242865E+03    0.25740E+02   -0.15427E+01  4056   0.995E+00    0.817E+00
DAV:  10    -0.929084807241E+03    0.75144E+00   -0.13460E+01  4168   0.484E+00    0.113E+01
DAV:  11    -0.928162831429E+03    0.92198E+00   -0.61825E+00  3976   0.299E+00    0.574E+00
DAV:  12    -0.927950129145E+03    0.21270E+00   -0.10295E+00  4120   0.123E+00    0.483E+00
DAV:  13    -0.927682526603E+03    0.26760E+00   -0.45432E-01  4520   0.952E-01    0.299E+00
DAV:  14    -0.927696143188E+03   -0.13617E-01   -0.25981E-01  3632   0.464E-01    0.139E+00
DAV:  15    -0.927680908822E+03    0.15234E-01   -0.30475E-02  3880   0.230E-01    0.161E+00
DAV:  16    -0.927687144631E+03   -0.62358E-02   -0.98799E-02  3968   0.256E-01    0.418E+00
DAV:  17    -0.927628945528E+03    0.58199E-01   -0.18865E-02  3536   0.181E-01    0.356E+00
DAV:  18    -0.927611929347E+03    0.17016E-01   -0.83987E-02  3808   0.126E-01    0.722E-01
DAV:  19    -0.927686550187E+03   -0.74621E-01   -0.22411E-02  3552   0.157E-01    0.149E+00
DAV:  20    -0.927686425125E+03    0.12506E-03   -0.76608E-03  3624   0.951E-02    0.167E+00
DAV:  21    -0.927679493193E+03    0.69319E-02   -0.67610E-03  3640   0.709E-02    0.388E-01
DAV:  22    -0.927701398601E+03   -0.21905E-01   -0.88980E-03  3536   0.799E-02    0.143E+00
DAV:  23    -0.927691358759E+03    0.10040E-01   -0.63556E-03  3424   0.597E-02    0.204E-01
DAV:  24    -0.927701246030E+03   -0.98873E-02   -0.67529E-04  3232   0.319E-02    0.115E-01
DAV:  25    -0.927703638758E+03   -0.23927E-02   -0.22548E-04  3384   0.171E-02    0.169E-01
DAV:  26    -0.927704547696E+03   -0.90894E-03   -0.11076E-04  3248   0.118E-02    0.265E-02
DAV:  27    -0.927705489122E+03   -0.94143E-03   -0.14787E-04  2928   0.856E-03    0.725E-03
DAV:  28    -0.927706398805E+03   -0.90968E-03   -0.53433E-05  2800   0.497E-03    0.261E-02
DAV:  29    -0.927706860968E+03   -0.46216E-03   -0.25145E-05  2856   0.387E-03    0.106E-02
DAV:  30    -0.927707244833E+03   -0.38387E-03   -0.27008E-05  2632   0.327E-03    0.292E-02
DAV:  31    -0.927707385542E+03   -0.14071E-03   -0.90106E-06  2568   0.265E-03    0.900E-03
DAV:  32    -0.927707440354E+03   -0.54813E-04   -0.26348E-06  2160   0.144E-03    0.131E-02
DAV:  33    -0.927707463429E+03   -0.23075E-04   -0.15247E-06  2048   0.124E-03    0.105E-02
DAV:  34    -0.927707473576E+03   -0.10147E-04   -0.92298E-07  1880   0.104E-03    0.759E-03
DAV:  35    -0.927707477126E+03   -0.35494E-05   -0.35560E-07  1760   0.681E-04
   1 F= -.10004252E+04 E0= -.10003815E+04  d E =-.874931E-01
