ITEM: TIMESTEP
0
ITEM: NUMBER OF ATOMS
4
ITEM: BOX BOUNDS pp pp pp
0.0000000000000000e+00 1.4500000000000000e+01
0.0000000000000000e+00 1.4500000000000000e+01
0.0000000000000000e+00 1.4500000000000000e+01
ITEM: ATOMS id type xs ys zs
1 1 0 0 0
2 1 0.0832414 0 0
3 1 0 0 0.137931
4 1 0.0832414 0 0.137931
ITEM: TIMESTEP
10
ITEM: NUMBER OF ATOMS
4
ITEM: BOX BOUNDS pp pp pp
0.0000000000000000e+00 1.4500000000000000e+01
0.0000000000000000e+00 1.4500000000000000e+01
0.0000000000000000e+00 1.4500000000000000e+01
ITEM: ATOMS id type xs ys zs
1 1 -0.00317915 -0.00129821 0.00119394
2 1 0.0852073 0.000431801 3.00995e-05
3 1 -0.00271836 0.00106627 0.138117
4 1 0.087173 -0.000199861 0.136521
ITEM: TIMESTEP
20
ITEM: NUMBER OF ATOMS
4
ITEM: BOX BOUNDS pp pp pp
0.0000000000000000e+00 1.4500000000000000e+01
0.0000000000000000e+00 1.4500000000000000e+01
0.0000000000000000e+00 1.4500000000000000e+01
ITEM: ATOMS id type xs ys zs
1 1 -0.00775373 -0.00252062 0.00216549
2 1 0.0882757 0.000811889 -0.000265497
3 1 -0.00576807 0.0020394 0.138067
4 1 0.0917289 -0.000330666 0.135895
ITEM: TIMESTEP
30
ITEM: NUMBER OF ATOMS
4
ITEM: BOX BOUNDS pp pp pp
0.0000000000000000e+00 1.4500000000000000e+01
0.0000000000000000e+00 1.4500000000000000e+01
0.0000000000000000e+00 1.4500000000000000e+01
ITEM: ATOMS id type xs ys zs
1 1 -0.0103961 -0.00360528 0.00170983
2 1 0.0892057 0.00100042 -0.000924255
3 1 -0.00598224 0.00288145 0.139103
4 1 0.0936555 -0.000276597 0.135973
ITEM: TIMESTEP
40
ITEM: NUMBER OF ATOMS
4
ITEM: BOX BOUNDS pp pp pp
0.0000000000000000e+00 1.4500000000000000e+01
0.0000000000000000e+00 1.4500000000000000e+01
0.0000000000000000e+00 1.4500000000000000e+01
ITEM: ATOMS id type xs ys zs
1 1 -0.00928451 -0.00432479 0.00246886
2 1 0.0865527 0.000873612 -0.00138143
3 1 -0.00263659 0.00341587 0.138908
4 1 0.0918511 3.53111e-05 0.135866
ITEM: TIMESTEP
50
ITEM: NUMBER OF ATOMS
4
ITEM: BOX BOUNDS pp pp pp
0.0000000000000000e+00 1.4500000000000000e+01
0.0000000000000000e+00 1.4500000000000000e+01
0.0000000000000000e+00 1.4500000000000000e+01
ITEM: ATOMS id type xs ys zs
1 1 -0.00586724 -0.00475281 0.00320491
2 1 0.081962 0.000459214 -0.00117653
3 1 0.0019657 0.00373139 0.139075
4 1 0.0884223 0.000562204 0.134759
ITEM: TIMESTEP
60
ITEM: NUMBER OF ATOMS
4
ITEM: BOX BOUNDS pp pp pp
0.0000000000000000e+00 1.4500000000000000e+01
0.0000000000000000e+00 1.4500000000000000e+01
0.0000000000000000e+00 1.4500000000000000e+01
ITEM: ATOMS id type xs ys zs
1 1 -0.00370541 -0.00508548 0.00347082
2 1 0.0786583 -8.8077e-05 -0.00255473
3 1 0.00448721 0.00395045 0.140096
4 1 0.0870427 0.00122311 0.13485
ITEM: TIMESTEP
70
ITEM: NUMBER OF ATOMS
4
ITEM: BOX BOUNDS pp pp pp
0.0000000000000000e+00 1.4500000000000000e+01
0.0000000000000000e+00 1.4500000000000000e+01
0.0000000000000000e+00 1.4500000000000000e+01
ITEM: ATOMS id type xs ys zs
1 1 -0.00544695 -0.00545708 0.00376558
2 1 0.0788945 -0.00060726 -0.00314687
3 1 0.00350835 0.00408132 0.140956
4 1 0.0895268 0.00198303 0.134288
ITEM: TIMESTEP
80
ITEM: NUMBER OF ATOMS
4
ITEM: BOX BOUNDS pp pp pp
0.0000000000000000e+00 1.4500000000000000e+01
0.0000000000000000e+00 1.4500000000000000e+01
0.0000000000000000e+00 1.4500000000000000e+01
ITEM: ATOMS id type xs ys zs
1 1 -0.0101989 -0.00577994 0.00491232
2 1 0.0819068 -0.00108912 -0.00267379
3 1 0.000620648 0.00402802 0.140726
4 1 0.0941542 0.00284104 0.132898
ITEM: TIMESTEP
90
ITEM: NUMBER OF ATOMS
4
ITEM: BOX BOUNDS pp pp pp
0.0000000000000000e+00 1.4500000000000000e+01
0.0000000000000000e+00 1.4500000000000000e+01
0.0000000000000000e+00 1.4500000000000000e+01
ITEM: ATOMS id type xs ys zs
1 1 -0.0143594 -0.00596119 0.00575586
2 1 0.08436 -0.00175183 -0.00314105
3 1 -0.00111029 0.00385762 0.140808
4 1 0.0975925 0.0038554 0.13244
ITEM: TIMESTEP
100
ITEM: NUMBER OF ATOMS
4
ITEM: BOX BOUNDS pp pp pp
0.0000000000000000e+00 1.4500000000000000e+01
0.0000000000000000e+00 1.4500000000000000e+01
0.0000000000000000e+00 1.4500000000000000e+01
ITEM: ATOMS id type xs ys zs
1 1 -0.0150302 -0.00597533 0.00549261
2 1 0.0836201 -0.00267415 -0.00393068
3 1 0.000405087 0.00369875 0.142042
4 1 0.0974878 0.00495073 0.132258
ITEM: TIMESTEP
110
ITEM: NUMBER OF ATOMS
4
ITEM: BOX BOUNDS pp pp pp
0.0000000000000000e+00 1.4500000000000000e+01
0.0000000000000000e+00 1.4500000000000000e+01
0.0000000000000000e+00 1.4500000000000000e+01
ITEM: ATOMS id type xs ys zs
1 1 -0.0118753 -0.00571957 0.00649028
2 1 0.0796522 -0.00374841 -0.00434644
3 1 0.00430151 0.00345351 0.141995
4 1 0.0944044 0.00601448 0.131723
ITEM: TIMESTEP
120
ITEM: NUMBER OF ATOMS
4
ITEM: BOX BOUNDS pp pp pp
0.0000000000000000e+00 1.4500000000000000e+01
0.0000000000000000e+00 1.4500000000000000e+01
0.0000000000000000e+00 1.4500000000000000e+01
ITEM: ATOMS id type xs ys zs
1 1 -0.00830017 -0.00548821 0.00706483
2 1 0.0752518 -0.0047672 -0.00407112
3 1 0.00801543 0.00322793 0.142274
4 1 0.0915157 0.00702748 0.130595
ITEM: TIMESTEP
130
ITEM: NUMBER OF ATOMS
4
ITEM: BOX BOUNDS pp pp pp
0.0000000000000000e+00 1.4500000000000000e+01
0.0000000000000000e+00 1.4500000000000000e+01
0.0000000000000000e+00 1.4500000000000000e+01
ITEM: ATOMS id type xs ys zs
1 1 -0.00822775 -0.00545046 0.00694557
2 1 0.0734217 -0.00575979 -0.00488884
3 1 0.00914141 0.00294832 0.142914
4 1 0.0921474 0.00826193 0.130891
ITEM: TIMESTEP
140
ITEM: NUMBER OF ATOMS
4
ITEM: BOX BOUNDS pp pp pp
0.0000000000000000e+00 1.4500000000000000e+01
0.0000000000000000e+00 1.4500000000000000e+01
0.0000000000000000e+00 1.4500000000000000e+01
ITEM: ATOMS id type xs ys zs
1 1 -0.012267 -0.00556197 0.00732464
2 1 0.0753527 -0.00653185 -0.00497903
3 1 0.00742658 0.00257679 0.143263
4 1 0.0959705 0.00951703 0.130253
ITEM: TIMESTEP
150
ITEM: NUMBER OF ATOMS
4
ITEM: BOX BOUNDS pp pp pp
0.0000000000000000e+00 1.4500000000000000e+01
0.0000000000000000e+00 1.4500000000000000e+01
0.0000000000000000e+00 1.4500000000000000e+01
ITEM: ATOMS id type xs ys zs
1 1 -0.0171696 -0.00576074 0.0089063
2 1 0.0787527 -0.00703644 -0.00464692
3 1 0.00492882 0.00231074 0.143154
4 1 0.0999708 0.0104864 0.128449
ITEM: TIMESTEP
160
ITEM: NUMBER OF ATOMS
4
ITEM: BOX BOUNDS pp pp pp
0.0000000000000000e+00 1.4500000000000000e+01
0.0000000000000000e+00 1.4500000000000000e+01
0.0000000000000000e+00 1.4500000000000000e+01
ITEM: ATOMS id type xs ys zs
1 1 -0.0193307 -0.00616613 0.00999652
2 1 0.0798409 -0.0075035 -0.00578372
3 1 0.00443591 0.00250705 0.143852
4 1 0.101537 0.0111626 0.127797
ITEM: TIMESTEP
170
ITEM: NUMBER OF ATOMS
4
ITEM: BOX BOUNDS pp pp pp
0.0000000000000000e+00 1.4500000000000000e+01
0.0000000000000000e+00 1.4500000000000000e+01
0.0000000000000000e+00 1.4500000000000000e+01
ITEM: ATOMS id type xs ys zs
1 1 -0.0175139 -0.00684588 0.00986819
2 1 0.0772069 -0.00775045 -0.00664297
3 1 0.00706972 0.00326679 0.145222
4 1 0.09972 0.0113295 0.127415
ITEM: TIMESTEP
180
ITEM: NUMBER OF ATOMS
4
ITEM: BOX BOUNDS pp pp pp
0.0000000000000000e+00 1.4500000000000000e+01
0.0000000000000000e+00 1.4500000000000000e+01
0.0000000000000000e+00 1.4500000000000000e+01
ITEM: ATOMS id type xs ys zs
1 1 -0.0133941 -0.00763967 0.0106905
2 1 0.0723971 -0.00772677 -0.00657489
3 1 0.0109621 0.00421414 0.144702
4 1 0.0965176 0.0111523 0.127045
ITEM: TIMESTEP
190
ITEM: NUMBER OF ATOMS
4
ITEM: BOX BOUNDS pp pp pp
0.0000000000000000e+00 1.4500000000000000e+01
0.0000000000000000e+00 1.4500000000000000e+01
0.0000000000000000e+00 1.4500000000000000e+01
ITEM: ATOMS id type xs ys zs
1 1 -0.0114987 -0.00873168 0.010716
2 1 0.0689488 -0.00742445 -0.0057803
3 1 0.0137349 0.00518275 0.144306
4 1 0.0952978 0.0109734 0.12662
ITEM: TIMESTEP
200
ITEM: NUMBER OF ATOMS
4
ITEM: BOX BOUNDS pp pp pp
0.0000000000000000e+00 1.4500000000000000e+01
0.0000000000000000e+00 1.4500000000000000e+01
0.0000000000000000e+00 1.4500000000000000e+01
ITEM: ATOMS id type xs ys zs
1 1 -0.0140439 -0.010135 0.0107768
2 1 0.0690519 -0.00705378 -0.00647539
3 1 0.0136332 0.00605881 0.144445
4 1 0.0978416 0.0111299 0.127116
ITEM: TIMESTEP
210
ITEM: NUMBER OF ATOMS
4
ITEM: BOX BOUNDS pp pp pp
0.0000000000000000e+00 1.4500000000000000e+01
0.0000000000000000e+00 1.4500000000000000e+01
0.0000000000000000e+00 1.4500000000000000e+01
ITEM: ATOMS id type xs ys zs
1 1 -0.0188887 -0.0115547 0.012262
2 1 0.0722438 -0.00644934 -0.00719381
3 1 0.0111842 0.00683058 0.144925
4 1 0.101943 0.0111735 0.125869
ITEM: TIMESTEP
220
ITEM: NUMBER OF ATOMS
4
ITEM: BOX BOUNDS pp pp pp
0.0000000000000000e+00 1.4500000000000000e+01
0.0000000000000000e+00 1.4500000000000000e+01
0.0000000000000000e+00 1.4500000000000000e+01
ITEM: ATOMS id type xs ys zs
1 1 -0.0221141 -0.0127114 0.0146042
2 1 0.0749507 -0.00589626 -0.00773917
3 1 0.00901552 0.00759556 0.145427
4 1 0.104631 0.0110121 0.12357
ITEM: TIMESTEP
230
ITEM: NUMBER OF ATOMS
4
ITEM: BOX BOUNDS pp pp pp
0.0000000000000000e+00 1.4500000000000000e+01
0.0000000000000000e+00 1.4500000000000000e+01
0.0000000000000000e+00 1.4500000000000000e+01
ITEM: ATOMS id type xs ys zs
1 1 -0.0217182 -0.0136202 0.0155079
2 1 0.0738996 -0.0058774 -0.00923161
3 1 0.00973466 0.00853848 0.146429
4 1 0.104567 0.0109592 0.123157
ITEM: TIMESTEP
240
ITEM: NUMBER OF ATOMS
4
ITEM: BOX BOUNDS pp pp pp
0.0000000000000000e+00 1.4500000000000000e+01
0.0000000000000000e+00 1.4500000000000000e+01
0.0000000000000000e+00 1.4500000000000000e+01
ITEM: ATOMS id type xs ys zs
1 1 -0.0184028 -0.0143108 0.0148443
2 1 0.0695521 -0.00615196 -0.00921414
3 1 0.0133606 0.00952423 0.147051
4 1 0.101973 0.0109385 0.123181
ITEM: TIMESTEP
250
ITEM: NUMBER OF ATOMS
4
ITEM: BOX BOUNDS pp pp pp
0.0000000000000000e+00 1.4500000000000000e+01
0.0000000000000000e+00 1.4500000000000000e+01
0.0000000000000000e+00 1.4500000000000000e+01
ITEM: ATOMS id type xs ys zs
1 1 -0.0151817 -0.0147148 0.0150512
2 1 0.0649142 -0.00644023 -0.00796851
3 1 0.0171934 0.0100433 0.145448
4 1 0.0995569 0.0111117 0.123332
ITEM: TIMESTEP
260
ITEM: NUMBER OF ATOMS
4
ITEM: BOX BOUNDS pp pp pp
0.0000000000000000e+00 1.4500000000000000e+01
0.0000000000000000e+00 1.4500000000000000e+01
0.0000000000000000e+00 1.4500000000000000e+01
ITEM: ATOMS id type xs ys zs
1 1 -0.0157642 -0.0154918 0.0149874
2 1 0.0633731 -0.00651214 -0.00701908
3 1 0.0189701 0.0104276 0.144787
4 1 0.0999038 0.0115763 0.123107
ITEM: TIMESTEP
270
ITEM: NUMBER OF ATOMS
4
ITEM: BOX BOUNDS pp pp pp
0.0000000000000000e+00 1.4500000000000000e+01
0.0000000000000000e+00 1.4500000000000000e+01
0.0000000000000000e+00 1.4500000000000000e+01
ITEM: ATOMS id type xs ys zs
1 1 -0.0197207 -0.0164271 0.0161016
2 1 0.0653995 -0.00658156 -0.0085931
3 1 0.0176132 0.0106683 0.145699
4 1 0.103191 0.0123403 0.122654
ITEM: TIMESTEP
280
ITEM: NUMBER OF ATOMS
4
ITEM: BOX BOUNDS pp pp pp
0.0000000000000000e+00 1.4500000000000000e+01
0.0000000000000000e+00 1.4500000000000000e+01
0.0000000000000000e+00 1.4500000000000000e+01
ITEM: ATOMS id type xs ys zs
1 1 -0.0237138 -0.0169989 0.0186086
2 1 0.0688006 -0.00667517 -0.0100854
3 1 0.014764 0.0106594 0.147032
4 1 0.106632 0.0130147 0.120307
ITEM: TIMESTEP
290
ITEM: NUMBER OF ATOMS
4
ITEM: BOX BOUNDS pp pp pp
0.0000000000000000e+00 1.4500000000000000e+01
0.0000000000000000e+00 1.4500000000000000e+01
0.0000000000000000e+00 1.4500000000000000e+01
ITEM: ATOMS id type xs ys zs
1 1 -0.0248957 -0.0170485 0.0205774
2 1 0.069842 -0.00716557 -0.0105864
3 1 0.0136292 0.0105346 0.147962
4 1 0.107907 0.0136795 0.117909
ITEM: TIMESTEP
300
ITEM: NUMBER OF ATOMS
4
ITEM: BOX BOUNDS pp pp pp
0.0000000000000000e+00 1.4500000000000000e+01
0.0000000000000000e+00 1.4500000000000000e+01
0.0000000000000000e+00 1.4500000000000000e+01
ITEM: ATOMS id type xs ys zs
1 1 -0.0230369 -0.0168439 0.0202648
2 1 0.0667271 -0.00838316 -0.0111092
3 1 0.0159948 0.0105319 0.14847
4 1 0.106798 0.0146951 0.118237
ITEM: TIMESTEP
310
ITEM: NUMBER OF ATOMS
4
ITEM: BOX BOUNDS pp pp pp
0.0000000000000000e+00 1.4500000000000000e+01
0.0000000000000000e+00 1.4500000000000000e+01
0.0000000000000000e+00 1.4500000000000000e+01
ITEM: ATOMS id type xs ys zs
1 1 -0.0200596 -0.0165503 0.0187551
2 1 0.0619388 -0.00964508 -0.00953527
3 1 0.0205351 0.0104833 0.147905
4 1 0.104068 0.0157121 0.118737
ITEM: TIMESTEP
320
ITEM: NUMBER OF ATOMS
4
ITEM: BOX BOUNDS pp pp pp
0.0000000000000000e+00 1.4500000000000000e+01
0.0000000000000000e+00 1.4500000000000000e+01
0.0000000000000000e+00 1.4500000000000000e+01
ITEM: ATOMS id type xs ys zs
1 1 -0.0187339 -0.0161595 0.0189541
2 1 0.0589332 -0.0106763 -0.00784782
3 1 0.023808 0.009999 0.145942
4 1 0.102475 0.0168368 0.118814
ITEM: TIMESTEP
330
ITEM: NUMBER OF ATOMS
4
ITEM: BOX BOUNDS pp pp pp
0.0000000000000000e+00 1.4500000000000000e+01
0.0000000000000000e+00 1.4500000000000000e+01
0.0000000000000000e+00 1.4500000000000000e+01
ITEM: ATOMS id type xs ys zs
1 1 -0.0210745 -0.0161656 0.0197655
2 1 0.0597139 -0.0115008 -0.0080775
3 1 0.0241629 0.00953965 0.146508
4 1 0.10368 0.0181268 0.117666
ITEM: TIMESTEP
340
ITEM: NUMBER OF ATOMS
4
ITEM: BOX BOUNDS pp pp pp
0.0000000000000000e+00 1.4500000000000000e+01
0.0000000000000000e+00 1.4500000000000000e+01
0.0000000000000000e+00 1.4500000000000000e+01
ITEM: ATOMS id type xs ys zs
1 1 -0.0251388 -0.016246 0.0218745
2 1 0.0626978 -0.0123588 -0.0105533
3 1 0.0218037 0.00900575 0.148667
4 1 0.10712 0.019599 0.115874
ITEM: TIMESTEP
350
ITEM: NUMBER OF ATOMS
4
ITEM: BOX BOUNDS pp pp pp
0.0000000000000000e+00 1.4500000000000000e+01
0.0000000000000000e+00 1.4500000000000000e+01
0.0000000000000000e+00 1.4500000000000000e+01
ITEM: ATOMS id type xs ys zs
1 1 -0.0277168 -0.0162497 0.0243853
2 1 0.0649459 -0.0129028 -0.0117809
3 1 0.0194216 0.0085319 0.150103
4 1 0.109832 0.0206206 0.113154
ITEM: TIMESTEP
360
ITEM: NUMBER OF ATOMS
4
ITEM: BOX BOUNDS pp pp pp
0.0000000000000000e+00 1.4500000000000000e+01
0.0000000000000000e+00 1.4500000000000000e+01
0.0000000000000000e+00 1.4500000000000000e+01
ITEM: ATOMS id type xs ys zs
1 1 -0.0273213 -0.0164228 0.025216
2 1 0.0638227 -0.0132968 -0.0112647
3 1 0.019995 0.00860348 0.150248
4 1 0.109986 0.0211161 0.111663
ITEM: TIMESTEP
370
ITEM: NUMBER OF ATOMS
4
ITEM: BOX BOUNDS pp pp pp
0.0000000000000000e+00 1.4500000000000000e+01
0.0000000000000000e+00 1.4500000000000000e+01
0.0000000000000000e+00 1.4500000000000000e+01
ITEM: ATOMS id type xs ys zs
1 1 -0.0248539 -0.0169596 0.0239826
2 1 0.0592709 -0.0139278 -0.0106437
3 1 0.0238407 0.00935813 0.149405
4 1 0.108225 0.0215293 0.113118
ITEM: TIMESTEP
380
ITEM: NUMBER OF ATOMS
4
ITEM: BOX BOUNDS pp pp pp
0.0000000000000000e+00 1.4500000000000000e+01
0.0000000000000000e+00 1.4500000000000000e+01
0.0000000000000000e+00 1.4500000000000000e+01
ITEM: ATOMS id type xs ys zs
1 1 -0.0226026 -0.0177359 0.0228049
2 1 0.0551534 -0.0140289 -0.00883562
3 1 0.0283453 0.0103622 0.147971
4 1 0.105587 0.0214026 0.113922
ITEM: TIMESTEP
390
ITEM: NUMBER OF ATOMS
4
ITEM: BOX BOUNDS pp pp pp
0.0000000000000000e+00 1.4500000000000000e+01
0.0000000000000000e+00 1.4500000000000000e+01
0.0000000000000000e+00 1.4500000000000000e+01
ITEM: ATOMS id type xs ys zs
1 1 -0.022441 -0.0184538 0.0243126
2 1 0.0540863 -0.0138142 -0.00846156
3 1 0.0299006 0.0109791 0.146669
4 1 0.104937 0.0212888 0.113342
ITEM: TIMESTEP
400
ITEM: NUMBER OF ATOMS
4
ITEM: BOX BOUNDS pp pp pp
0.0000000000000000e+00 1.4500000000000000e+01
0.0000000000000000e+00 1.4500000000000000e+01
0.0000000000000000e+00 1.4500000000000000e+01
ITEM: ATOMS id type xs ys zs
1 1 -0.0254325 -0.0196466 0.0263305
2 1 0.0560499 -0.0134398 -0.0103042
3 1 0.0284308 0.0116329 0.148509
4 1 0.107434 0.0214534 0.111326
ITEM: TIMESTEP
410
ITEM: NUMBER OF ATOMS
4
ITEM: BOX BOUNDS pp pp pp
0.0000000000000000e+00 1.4500000000000000e+01
0.0000000000000000e+00 1.4500000000000000e+01
0.0000000000000000e+00 1.4500000000000000e+01
ITEM: ATOMS id type xs ys zs
1 1 -0.0289096 -0.0209294 0.0288448
2 1 0.0583687 -0.0130676 -0.0128441
3 1 0.0254931 0.0121568 0.1507
4 1 0.111531 0.0218402 0.109161
ITEM: TIMESTEP
420
ITEM: NUMBER OF ATOMS
4
ITEM: BOX BOUNDS pp pp pp
0.0000000000000000e+00 1.4500000000000000e+01
0.0000000000000000e+00 1.4500000000000000e+01
0.0000000000000000e+00 1.4500000000000000e+01
ITEM: ATOMS id type xs ys zs
1 1 -0.0299999 -0.0219082 0.0308496
2 1 0.0586861 -0.0125756 -0.0131132
3 1 0.0241311 0.0126701 0.150952
4 1 0.113666 0.0218137 0.107174
ITEM: TIMESTEP
430
ITEM: NUMBER OF ATOMS
4
ITEM: BOX BOUNDS pp pp pp
0.0000000000000000e+00 1.4500000000000000e+01
0.0000000000000000e+00 1.4500000000000000e+01
0.0000000000000000e+00 1.4500000000000000e+01
ITEM: ATOMS id type xs ys zs
1 1 -0.0284353 -0.0227663 0.0306489
2 1 0.055847 -0.0124046 -0.011709
3 1 0.0264514 0.0136395 0.149888
4 1 0.11262 0.0215313 0.107034
ITEM: TIMESTEP
440
ITEM: NUMBER OF ATOMS
4
ITEM: BOX BOUNDS pp pp pp
0.0000000000000000e+00 1.4500000000000000e+01
0.0000000000000000e+00 1.4500000000000000e+01
0.0000000000000000e+00 1.4500000000000000e+01
ITEM: ATOMS id type xs ys zs
1 1 -0.0256979 -0.0235403 0.0293235
2 1 0.051066 -0.0128023 -0.0108535
3 1 0.0310732 0.0148971 0.148287
4 1 0.110042 0.0214456 0.109105
ITEM: TIMESTEP
450
ITEM: NUMBER OF ATOMS
4
ITEM: BOX BOUNDS pp pp pp
0.0000000000000000e+00 1.4500000000000000e+01
0.0000000000000000e+00 1.4500000000000000e+01
0.0000000000000000e+00 1.4500000000000000e+01
ITEM: ATOMS id type xs ys zs
1 1 -0.0241356 -0.0242832 0.0291431
2 1 0.0484246 -0.0127936 -0.00984853
3 1 0.034573 0.0159603 0.147269
4 1 0.107621 0.0211165 0.109299
ITEM: TIMESTEP
460
ITEM: NUMBER OF ATOMS
4
ITEM: BOX BOUNDS pp pp pp
0.0000000000000000e+00 1.4500000000000000e+01
0.0000000000000000e+00 1.4500000000000000e+01
0.0000000000000000e+00 1.4500000000000000e+01
ITEM: ATOMS id type xs ys zs
1 1 -0.0249728 -0.0249476 0.0316551
2 1 0.0488789 -0.0124706 -0.0105323
3 1 0.0341593 0.0162968 0.14718
4 1 0.108417 0.0211215 0.107559
ITEM: TIMESTEP
470
ITEM: NUMBER OF ATOMS
4
ITEM: BOX BOUNDS pp pp pp
0.0000000000000000e+00 1.4500000000000000e+01
0.0000000000000000e+00 1.4500000000000000e+01
0.0000000000000000e+00 1.4500000000000000e+01
ITEM: ATOMS id type xs ys zs
1 1 -0.0285436 -0.0262098 0.033919
2 1 0.0510195 -0.012118 -0.0124803
3 1 0.0316673 0.0166195 0.149521
4 1 0.11234 0.0217083 0.104903
ITEM: TIMESTEP
480
ITEM: NUMBER OF ATOMS
4
ITEM: BOX BOUNDS pp pp pp
0.0000000000000000e+00 1.4500000000000000e+01
0.0000000000000000e+00 1.4500000000000000e+01
0.0000000000000000e+00 1.4500000000000000e+01
ITEM: ATOMS id type xs ys zs
1 1 -0.0314111 -0.027101 0.0359348
2 1 0.0523013 -0.012115 -0.0139339
3 1 0.0294718 0.0166368 0.151149
4 1 0.116121 0.0225792 0.102712
ITEM: TIMESTEP
490
ITEM: NUMBER OF ATOMS
4
ITEM: BOX BOUNDS pp pp pp
0.0000000000000000e+00 1.4500000000000000e+01
0.0000000000000000e+00 1.4500000000000000e+01
0.0000000000000000e+00 1.4500000000000000e+01
ITEM: ATOMS id type xs ys zs
1 1 -0.031221 -0.0270606 0.0370267
2 1 0.0513335 -0.0125619 -0.0130976
3 1 0.0300329 0.016442 0.150439
4 1 0.116337 0.0231805 0.101494
ITEM: TIMESTEP
500
ITEM: NUMBER OF ATOMS
4
ITEM: BOX BOUNDS pp pp pp
0.0000000000000000e+00 1.4500000000000000e+01
0.0000000000000000e+00 1.4500000000000000e+01
0.0000000000000000e+00 1.4500000000000000e+01
ITEM: ATOMS id type xs ys zs
1 1 -0.0289834 -0.0266831 0.0359974
2 1 0.0480184 -0.0136872 -0.0113769
3 1 0.0340807 0.0166763 0.149096
4 1 0.113367 0.023694 0.102145
ITEM: TIMESTEP
510
ITEM: NUMBER OF ATOMS
4
ITEM: BOX BOUNDS pp pp pp
0.0000000000000000e+00 1.4500000000000000e+01
0.0000000000000000e+00 1.4500000000000000e+01
0.0000000000000000e+00 1.4500000000000000e+01
ITEM: ATOMS id type xs ys zs
1 1 -0.0266436 -0.0261461 0.0348703
2 1 0.0441888 -0.0153237 -0.0107783
3 1 0.0387329 0.0169138 0.147888
4 1 0.110205 0.024556 0.103882
ITEM: TIMESTEP
520
ITEM: NUMBER OF ATOMS
4
ITEM: BOX BOUNDS pp pp pp
0.0000000000000000e+00 1.4500000000000000e+01
0.0000000000000000e+00 1.4500000000000000e+01
0.0000000000000000e+00 1.4500000000000000e+01
ITEM: ATOMS id type xs ys zs
1 1 -0.0265497 -0.0258181 0.0353662
2 1 0.0433165 -0.0162256 -0.010112
3 1 0.0406804 0.0166338 0.147783
4 1 0.109036 0.0254098 0.102824
ITEM: TIMESTEP
530
ITEM: NUMBER OF ATOMS
4
ITEM: BOX BOUNDS pp pp pp
0.0000000000000000e+00 1.4500000000000000e+01
0.0000000000000000e+00 1.4500000000000000e+01
0.0000000000000000e+00 1.4500000000000000e+01
ITEM: ATOMS id type xs ys zs
1 1 -0.0289591 -0.0256937 0.038101
2 1 0.0449578 -0.0166984 -0.010709
3 1 0.0388316 0.0155161 0.148573
4 1 0.111652 0.026876 0.0998974
ITEM: TIMESTEP
540
ITEM: NUMBER OF ATOMS
4
ITEM: BOX BOUNDS pp pp pp
0.0000000000000000e+00 1.4500000000000000e+01
0.0000000000000000e+00 1.4500000000000000e+01
0.0000000000000000e+00 1.4500000000000000e+01
ITEM: ATOMS id type xs ys zs
1 1 -0.0328973 -0.0261908 0.0401325
2 1 0.0470291 -0.0171953 -0.0122005
3 1 0.0366171 0.0147182 0.151118
4 1 0.115734 0.0286679 0.0968122
ITEM: TIMESTEP
550
ITEM: NUMBER OF ATOMS
4
ITEM: BOX BOUNDS pp pp pp
0.0000000000000000e+00 1.4500000000000000e+01
0.0000000000000000e+00 1.4500000000000000e+01
0.0000000000000000e+00 1.4500000000000000e+01
ITEM: ATOMS id type xs ys zs
1 1 -0.0345797 -0.026337 0.0415925
2 1 0.0474201 -0.017845 -0.0129122
3 1 0.0361508 0.0143018 0.152195
4 1 0.117492 0.0298801 0.094987
ITEM: TIMESTEP
560
ITEM: NUMBER OF ATOMS
4
ITEM: BOX BOUNDS pp pp pp
0.0000000000000000e+00 1.4500000000000000e+01
0.0000000000000000e+00 1.4500000000000000e+01
0.0000000000000000e+00 1.4500000000000000e+01
ITEM: ATOMS id type xs ys zs
1 1 -0.0327175 -0.0259412 0.0421074
2 1 0.0454397 -0.0185134 -0.0118182
3 1 0.0384647 0.0144733 0.150683
4 1 0.115296 0.0299813 0.0948901
ITEM: TIMESTEP
570
ITEM: NUMBER OF ATOMS
4
ITEM: BOX BOUNDS pp pp pp
0.0000000000000000e+00 1.4500000000000000e+01
0.0000000000000000e+00 1.4500000000000000e+01
0.0000000000000000e+00 1.4500000000000000e+01
ITEM: ATOMS id type xs ys zs
1 1 -0.0298647 -0.0258686 0.0408026
2 1 0.0418067 -0.0193268 -0.0103074
3 1 0.0430524 0.0155391 0.149031
4 1 0.111488 0.0296562 0.0963355
ITEM: TIMESTEP
580
ITEM: NUMBER OF ATOMS
4
ITEM: BOX BOUNDS pp pp pp
0.0000000000000000e+00 1.4500000000000000e+01
0.0000000000000000e+00 1.4500000000000000e+01
0.0000000000000000e+00 1.4500000000000000e+01
ITEM: ATOMS id type xs ys zs
1 1 -0.0282829 -0.0262003 0.0402161
2 1 0.0386439 -0.0200907 -0.0098124
3 1 0.0462341 0.016392 0.147746
4 1 0.109888 0.029899 0.0977123
ITEM: TIMESTEP
590
ITEM: NUMBER OF ATOMS
4
ITEM: BOX BOUNDS pp pp pp
0.0000000000000000e+00 1.4500000000000000e+01
0.0000000000000000e+00 1.4500000000000000e+01
0.0000000000000000e+00 1.4500000000000000e+01
ITEM: ATOMS id type xs ys zs
1 1 -0.0295543 -0.0270648 0.0416177
2 1 0.0388114 -0.0196919 -0.00925085
3 1 0.0459386 0.0164676 0.147891
4 1 0.111287 0.0302891 0.0956044
ITEM: TIMESTEP
600
ITEM: NUMBER OF ATOMS
4
ITEM: BOX BOUNDS pp pp pp
0.0000000000000000e+00 1.4500000000000000e+01
0.0000000000000000e+00 1.4500000000000000e+01
0.0000000000000000e+00 1.4500000000000000e+01
ITEM: ATOMS id type xs ys zs
1 1 -0.0323452 -0.0280844 0.0450097
2 1 0.0406887 -0.0190385 -0.0104122
3 1 0.0430214 0.0160103 0.149142
4 1 0.115118 0.0311126 0.092123
ITEM: TIMESTEP
610
ITEM: NUMBER OF ATOMS
4
ITEM: BOX BOUNDS pp pp pp
0.0000000000000000e+00 1.4500000000000000e+01
0.0000000000000000e+00 1.4500000000000000e+01
0.0000000000000000e+00 1.4500000000000000e+01
ITEM: ATOMS id type xs ys zs
1 1 -0.0350709 -0.0294461 0.047279
2 1 0.0418769 -0.0186631 -0.0124695
3 1 0.0415306 0.016424 0.151564
4 1 0.118146 0.0316852 0.0894887
ITEM: TIMESTEP
620
ITEM: NUMBER OF ATOMS
4
ITEM: BOX BOUNDS pp pp pp
0.0000000000000000e+00 1.4500000000000000e+01
0.0000000000000000e+00 1.4500000000000000e+01
0.0000000000000000e+00 1.4500000000000000e+01
ITEM: ATOMS id type xs ys zs
1 1 -0.0346673 -0.0301736 0.0484554
2 1 0.0409215 -0.018545 -0.013133
3 1 0.0424856 0.0173913 0.151693
4 1 0.117743 0.0313274 0.088847
ITEM: TIMESTEP
630
ITEM: NUMBER OF ATOMS
4
ITEM: BOX BOUNDS pp pp pp
0.0000000000000000e+00 1.4500000000000000e+01
0.0000000000000000e+00 1.4500000000000000e+01
0.0000000000000000e+00 1.4500000000000000e+01
ITEM: ATOMS id type xs ys zs
1 1 -0.0314105 -0.0302714 0.0483593
2 1 0.0378874 -0.0186033 -0.0117177
3 1 0.04555 0.0186178 0.149211
4 1 0.114456 0.0302569 0.0900091
ITEM: TIMESTEP
640
ITEM: NUMBER OF ATOMS
4
ITEM: BOX BOUNDS pp pp pp
0.0000000000000000e+00 1.4500000000000000e+01
0.0000000000000000e+00 1.4500000000000000e+01
0.0000000000000000e+00 1.4500000000000000e+01
ITEM: ATOMS id type xs ys zs
1 1 -0.028982 -0.0309907 0.0467644
2 1 0.0341492 -0.0187962 -0.00978686
3 1 0.0494232 0.0202091 0.147088
4 1 0.111892 0.0295779 0.0917968
ITEM: TIMESTEP
650
ITEM: NUMBER OF ATOMS
4
ITEM: BOX BOUNDS pp pp pp
0.0000000000000000e+00 1.4500000000000000e+01
0.0000000000000000e+00 1.4500000000000000e+01
0.0000000000000000e+00 1.4500000000000000e+01
ITEM: ATOMS id type xs ys zs
1 1 -0.0287575 -0.0321321 0.0468414
2 1 0.0318741 -0.0187171 -0.00899924
3 1 0.0505279 0.0209945 0.145924
4 1 0.112838 0.0298547 0.0920964
ITEM: TIMESTEP
660
ITEM: NUMBER OF ATOMS
4
ITEM: BOX BOUNDS pp pp pp
0.0000000000000000e+00 1.4500000000000000e+01
0.0000000000000000e+00 1.4500000000000000e+01
0.0000000000000000e+00 1.4500000000000000e+01
ITEM: ATOMS id type xs ys zs
1 1 -0.0307355 -0.0335293 0.0493869
2 1 0.033019 -0.0176362 -0.00917337
3 1 0.0486624 0.0211134 0.146905
4 1 0.115537 0.030052 0.0887431
ITEM: TIMESTEP
670
ITEM: NUMBER OF ATOMS
4
ITEM: BOX BOUNDS pp pp pp
0.0000000000000000e+00 1.4500000000000000e+01
0.0000000000000000e+00 1.4500000000000000e+01
0.0000000000000000e+00 1.4500000000000000e+01
ITEM: ATOMS id type xs ys zs
1 1 0.967141 0.965471 0.0533187
2 1 0.0348051 0.983109 0.988485
3 1 0.0460389 0.0209971 0.148974
4 1 0.118497 0.0304229 0.0850838
ITEM: TIMESTEP
680
ITEM: NUMBER OF ATOMS
4
ITEM: BOX BOUNDS pp pp pp
0.0000000000000000e+00 1.4500000000000000e+01
0.0000000000000000e+00 1.4500000000000000e+01
0.0000000000000000e+00 1.4500000000000000e+01
ITEM: ATOMS id type xs ys zs
1 1 0.965885 0.964637 0.0552012
2 1 0.0350301 0.983001 0.986331
3 1 0.0461988 0.021643 0.150965
4 1 0.119369 0.0307192 0.0833647
ITEM: TIMESTEP
690
ITEM: NUMBER OF ATOMS
4
ITEM: BOX BOUNDS pp pp pp
0.0000000000000000e+00 1.4500000000000000e+01
0.0000000000000000e+00 1.4500000000000000e+01
0.0000000000000000e+00 1.4500000000000000e+01
ITEM: ATOMS id type xs ys zs
1 1 0.967379 0.96491 0.0551767
2 1 0.0332265 0.982256 0.986968
3 1 0.0487709 0.0221584 0.149902
4 1 0.117106 0.0306751 0.0838159
ITEM: TIMESTEP
700
ITEM: NUMBER OF ATOMS
4
ITEM: BOX BOUNDS pp pp pp
0.0000000000000000e+00 1.4500000000000000e+01
0.0000000000000000e+00 1.4500000000000000e+01
0.0000000000000000e+00 1.4500000000000000e+01
ITEM: ATOMS id type xs ys zs
1 1 0.970235 0.965807 0.0538792
2 1 0.0301269 0.981154 0.98994
3 1 0.0522197 0.0222393 0.146624
4 1 0.113901 0.0307997 0.0854193
ITEM: TIMESTEP
710
ITEM: NUMBER OF ATOMS
4
ITEM: BOX BOUNDS pp pp pp
0.0000000000000000e+00 1.4500000000000000e+01
0.0000000000000000e+00 1.4500000000000000e+01
0.0000000000000000e+00 1.4500000000000000e+01
ITEM: ATOMS id type xs ys zs
1 1 0.970824 0.9658 0.0520961
2 1 0.0274535 0.98003 0.992619
3 1 0.0552203 0.0223491 0.144814
4 1 0.112985 0.0318208 0.0863333
ITEM: TIMESTEP
720
ITEM: NUMBER OF ATOMS
4
ITEM: BOX BOUNDS pp pp pp
0.0000000000000000e+00 1.4500000000000000e+01
0.0000000000000000e+00 1.4500000000000000e+01
0.0000000000000000e+00 1.4500000000000000e+01
ITEM: ATOMS id type xs ys zs
1 1 0.969574 0.965672 0.0532564
2 1 0.0269558 0.979252 0.992721
3 1 0.0552025 0.021604 0.145167
4 1 0.11475 0.0334719 0.0847177
ITEM: TIMESTEP
730
ITEM: NUMBER OF ATOMS
4
ITEM: BOX BOUNDS pp pp pp
0.0000000000000000e+00 1.4500000000000000e+01
0.0000000000000000e+00 1.4500000000000000e+01
0.0000000000000000e+00 1.4500000000000000e+01
ITEM: ATOMS id type xs ys zs
1 1 0.967284 0.965624 0.0569458
2 1 0.0293865 0.979326 0.991002
3 1 0.0534677 0.0205476 0.147698
4 1 0.116345 0.0345014 0.0802162
ITEM: TIMESTEP
740
ITEM: NUMBER OF ATOMS
4
ITEM: BOX BOUNDS pp pp pp
0.0000000000000000e+00 1.4500000000000000e+01
0.0000000000000000e+00 1.4500000000000000e+01
0.0000000000000000e+00 1.4500000000000000e+01
ITEM: ATOMS id type xs ys zs
1 1 0.965593 0.965818 0.0606141
2 1 0.0309756 0.978832 0.988131
3 1 0.0524629 0.0197999 0.15009
4 1 0.117451 0.0355505 0.0770266
ITEM: TIMESTEP
750
ITEM: NUMBER OF ATOMS
4
ITEM: BOX BOUNDS pp pp pp
0.0000000000000000e+00 1.4500000000000000e+01
0.0000000000000000e+00 1.4500000000000000e+01
0.0000000000000000e+00 1.4500000000000000e+01
ITEM: ATOMS id type xs ys zs
1 1 0.965113 0.965858 0.0612649
2 1 0.0302651 0.977824 0.987336
3 1 0.0543609 0.0200695 0.150669
4 1 0.116744 0.0362477 0.076592
ITEM: TIMESTEP
760
ITEM: NUMBER OF ATOMS
4
ITEM: BOX BOUNDS pp pp pp
0.0000000000000000e+00 1.4500000000000000e+01
0.0000000000000000e+00 1.4500000000000000e+01
0.0000000000000000e+00 1.4500000000000000e+01
ITEM: ATOMS id type xs ys zs
1 1 0.967013 0.966351 0.0598634
2 1 0.0277571 0.976918 0.990115
3 1 0.0574835 0.0204289 0.147886
4 1 0.114229 0.0363016 0.077997
ITEM: TIMESTEP
770
ITEM: NUMBER OF ATOMS
4
ITEM: BOX BOUNDS pp pp pp
0.0000000000000000e+00 1.4500000000000000e+01
0.0000000000000000e+00 1.4500000000000000e+01
0.0000000000000000e+00 1.4500000000000000e+01
ITEM: ATOMS id type xs ys zs
1 1 0.969347 0.96677 0.0580836
2 1 0.0247183 0.976188 0.994088
3 1 0.0601047 0.0205404 0.144151
4 1 0.112312 0.0365018 0.0795391
ITEM: TIMESTEP
780
ITEM: NUMBER OF ATOMS
4
ITEM: BOX BOUNDS pp pp pp
0.0000000000000000e+00 1.4500000000000000e+01
0.0000000000000000e+00 1.4500000000000000e+01
0.0000000000000000e+00 1.4500000000000000e+01
ITEM: ATOMS id type xs ys zs
1 1 0.969159 0.966193 0.0574352
2 1 0.0229198 0.975651 0.99565
3 1 0.0617959 0.0208384 0.143538
4 1 0.112608 0.0373179 0.0792395
ITEM: TIMESTEP
790
ITEM: NUMBER OF ATOMS
4
ITEM: BOX BOUNDS pp pp pp
0.0000000000000000e+00 1.4500000000000000e+01
0.0000000000000000e+00 1.4500000000000000e+01
0.0000000000000000e+00 1.4500000000000000e+01
ITEM: ATOMS id type xs ys zs
1 1 0.967867 0.965729 0.0605015
2 1 0.0233867 0.975517 0.993562
3 1 0.0609134 0.0204777 0.145451
4 1 0.114315 0.0382763 0.0763477
ITEM: TIMESTEP
800
ITEM: NUMBER OF ATOMS
4
ITEM: BOX BOUNDS pp pp pp
0.0000000000000000e+00 1.4500000000000000e+01
0.0000000000000000e+00 1.4500000000000000e+01