   4   4   0   0
  0.7621563E+03  0.1450000E-08  0.1450000E-08  0.1450000E-08  0.5000000E-15
   1.0000000000000000E-004
  CAR 
 NiAl                                    
      2.24519752    -36.82684135  301     -6.85533154      1.00000000
    -36.827  0.0000E+00  0.0000E+00
    -36.697  0.0000E+00  0.0000E+00
    -36.566  0.0000E+00  0.0000E+00
    -36.436  0.0000E+00  0.0000E+00
    -36.306  0.0000E+00  0.0000E+00
    -36.176  0.0000E+00  0.0000E+00
    -36.045  0.0000E+00  0.0000E+00
    -35.915  0.0000E+00  0.0000E+00
    -35.785  0.0000E+00  0.0000E+00
    -35.655  0.0000E+00  0.0000E+00
    -35.524  0.0000E+00  0.0000E+00
    -35.394  0.0000E+00  0.0000E+00
    -35.264  0.1275E-07  0.1661E-08
    -35.134  0.1464E+00  0.1907E-01
    -35.003  0.1382E+02  0.1820E+01
    -34.873  0.1385E+01  0.2000E+01
    -34.743  0.3900E-05  0.2000E+01
    -34.613  0.0000E+00  0.2000E+01
    -34.483  0.0000E+00  0.2000E+01
    -34.352  0.0000E+00  0.2000E+01
    -34.222  0.0000E+00  0.2000E+01
    -34.092  0.0000E+00  0.2000E+01
    -33.962  0.0000E+00  0.2000E+01
    -33.831  0.0000E+00  0.2000E+01
    -33.701  0.0000E+00  0.2000E+01
    -33.571  0.0000E+00  0.2000E+01
    -33.441  0.0000E+00  0.2000E+01
    -33.310  0.0000E+00  0.2000E+01
    -33.180  0.0000E+00  0.2000E+01
    -33.050  0.0000E+00  0.2000E+01
    -32.920  0.0000E+00  0.2000E+01
    -32.789  0.0000E+00  0.2000E+01
    -32.659  0.0000E+00  0.2000E+01
    -32.529  0.0000E+00  0.2000E+01
    -32.399  0.0000E+00  0.2000E+01
    -32.268  0.0000E+00  0.2000E+01
    -32.138  0.0000E+00  0.2000E+01
    -32.008  0.0000E+00  0.2000E+01
    -31.878  0.0000E+00  0.2000E+01
    -31.747  0.0000E+00  0.2000E+01
    -31.617  0.0000E+00  0.2000E+01
    -31.487  0.2257E-07  0.2000E+01
    -31.357  0.1871E+00  0.2024E+01
    -31.227  0.1400E+02  0.3848E+01
    -31.096  0.1167E+01  0.4000E+01
    -30.966  0.2393E-05  0.4000E+01
    -30.836  0.0000E+00  0.4000E+01
    -30.706  0.0000E+00  0.4000E+01
    -30.575  0.0000E+00  0.4000E+01
    -30.445  0.0000E+00  0.4000E+01
    -30.315  0.0000E+00  0.4000E+01
    -30.185  0.0000E+00  0.4000E+01
    -30.054  0.0000E+00  0.4000E+01
    -29.924  0.0000E+00  0.4000E+01
    -29.794  0.0000E+00  0.4000E+01
    -29.664  0.0000E+00  0.4000E+01
    -29.533  0.0000E+00  0.4000E+01
    -29.403  0.0000E+00  0.4000E+01
    -29.273  0.0000E+00  0.4000E+01
    -29.143  0.0000E+00  0.4000E+01
    -29.012  0.0000E+00  0.4000E+01
    -28.882  0.0000E+00  0.4000E+01
    -28.752  0.0000E+00  0.4000E+01
    -28.622  0.0000E+00  0.4000E+01
    -28.491  0.0000E+00  0.4000E+01
    -28.361  0.0000E+00  0.4000E+01
    -28.231  0.0000E+00  0.4000E+01
    -28.101  0.0000E+00  0.4000E+01
    -27.971  0.0000E+00  0.4000E+01
    -27.840  0.0000E+00  0.4000E+01
    -27.710  0.0000E+00  0.4000E+01
    -27.580  0.0000E+00  0.4000E+01
    -27.450  0.0000E+00  0.4000E+01
    -27.319  0.0000E+00  0.4000E+01
    -27.189  0.0000E+00  0.4000E+01
    -27.059  0.0000E+00  0.4000E+01
    -26.929  0.0000E+00  0.4000E+01
    -26.798  0.0000E+00  0.4000E+01
    -26.668  0.0000E+00  0.4000E+01
    -26.538  0.0000E+00  0.4000E+01
    -26.408  0.0000E+00  0.4000E+01
    -26.277  0.0000E+00  0.4000E+01
    -26.147  0.0000E+00  0.4000E+01
    -26.017  0.0000E+00  0.4000E+01
    -25.887  0.0000E+00  0.4000E+01
    -25.756  0.0000E+00  0.4000E+01
    -25.626  0.0000E+00  0.4000E+01
    -25.496  0.0000E+00  0.4000E+01
    -25.366  0.0000E+00  0.4000E+01
    -25.235  0.0000E+00  0.4000E+01
    -25.105  0.0000E+00  0.4000E+01
    -24.975  0.0000E+00  0.4000E+01
    -24.845  0.0000E+00  0.4000E+01
    -24.715  0.0000E+00  0.4000E+01
    -24.584  0.0000E+00  0.4000E+01
    -24.454  0.0000E+00  0.4000E+01
    -24.324  0.0000E+00  0.4000E+01
    -24.194  0.0000E+00  0.4000E+01
    -24.063  0.0000E+00  0.4000E+01
    -23.933  0.0000E+00  0.4000E+01
    -23.803  0.0000E+00  0.4000E+01
    -23.673  0.0000E+00  0.4000E+01
    -23.542  0.0000E+00  0.4000E+01
    -23.412  0.0000E+00  0.4000E+01
    -23.282  0.0000E+00  0.4000E+01
    -23.152  0.0000E+00  0.4000E+01
    -23.021  0.0000E+00  0.4000E+01
    -22.891  0.0000E+00  0.4000E+01
    -22.761  0.4587E-08  0.4000E+01
    -22.631  0.9340E-01  0.4012E+01
    -22.500  0.1342E+02  0.5761E+01
    -22.370  0.1838E+01  0.6000E+01
    -22.240  0.9006E-05  0.6000E+01
    -22.110  0.0000E+00  0.6000E+01
    -21.979  0.0000E+00  0.6000E+01
    -21.849  0.0000E+00  0.6000E+01
    -21.719  0.0000E+00  0.6000E+01
    -21.589  0.0000E+00  0.6000E+01
    -21.459  0.0000E+00  0.6000E+01
    -21.328  0.0000E+00  0.6000E+01
    -21.198  0.0000E+00  0.6000E+01
    -21.068  0.0000E+00  0.6000E+01
    -20.938  0.0000E+00  0.6000E+01
    -20.807  0.0000E+00  0.6000E+01
    -20.677  0.0000E+00  0.6000E+01
    -20.547  0.0000E+00  0.6000E+01
    -20.417  0.0000E+00  0.6000E+01
    -20.286  0.0000E+00  0.6000E+01
    -20.156  0.0000E+00  0.6000E+01
    -20.026  0.0000E+00  0.6000E+01
    -19.896  0.0000E+00  0.6000E+01
    -19.765  0.0000E+00  0.6000E+01
    -19.635  0.0000E+00  0.6000E+01
    -19.505  0.0000E+00  0.6000E+01
    -19.375  0.0000E+00  0.6000E+01
    -19.244  0.0000E+00  0.6000E+01
    -19.114  0.0000E+00  0.6000E+01
    -18.984  0.0000E+00  0.6000E+01
    -18.854  0.0000E+00  0.6000E+01
    -18.723  0.0000E+00  0.6000E+01
    -18.593  0.0000E+00  0.6000E+01
    -18.463  0.0000E+00  0.6000E+01
    -18.333  0.1353E-07  0.6000E+01
    -18.203  0.1502E+00  0.6020E+01
    -18.072  0.1384E+02  0.7823E+01
    -17.942  0.1361E+01  0.8000E+01
    -17.812  0.3709E-05  0.8000E+01
    -17.682  0.0000E+00  0.8000E+01
    -17.551  0.0000E+00  0.8000E+01
    -17.421  0.0000E+00  0.8000E+01
    -17.291  0.0000E+00  0.8000E+01
    -17.161  0.0000E+00  0.8000E+01
    -17.030  0.0000E+00  0.8000E+01
    -16.900  0.0000E+00  0.8000E+01
    -16.770  0.2216E-13  0.8000E+01
    -16.640  0.1958E-03  0.8000E+01
    -16.509  0.4595E+01  0.8598E+01
    -16.379  0.1075E+02  0.9998E+01
    -16.249  0.1223E-01  0.1000E+02
    -16.119  0.6043E-10  0.1000E+02
    -15.988  0.0000E+00  0.1000E+02
    -15.858  0.0000E+00  0.1000E+02
    -15.728  0.0000E+00  0.1000E+02
    -15.598  0.0000E+00  0.1000E+02
    -15.467  0.0000E+00  0.1000E+02
    -15.337  0.0000E+00  0.1000E+02
    -15.207  0.0000E+00  0.1000E+02
    -15.077  0.0000E+00  0.1000E+02
    -14.946  0.0000E+00  0.1000E+02
    -14.816  0.0000E+00  0.1000E+02
    -14.686  0.0000E+00  0.1000E+02
    -14.556  0.9047E-05  0.1000E+02
    -14.426  0.1841E+01  0.1024E+02
    -14.295  0.1342E+02  0.1199E+02
    -14.165  0.3269E+00  0.1203E+02
    -14.035  0.1413E+02  0.1387E+02
    -13.905  0.9878E+00  0.1400E+02
    -13.774  0.1504E-05  0.1400E+02
    -13.644  0.0000E+00  0.1400E+02
    -13.514  0.0000E+00  0.1400E+02
    -13.384  0.0000E+00  0.1400E+02
    -13.253  0.0000E+00  0.1400E+02
    -13.123  0.0000E+00  0.1400E+02
    -12.993  0.0000E+00  0.1400E+02
    -12.863  0.0000E+00  0.1400E+02
    -12.732  0.0000E+00  0.1400E+02
    -12.602  0.0000E+00  0.1400E+02
    -12.472  0.3596E-11  0.1400E+02
    -12.342  0.2953E-02  0.1400E+02
    -12.211  0.8490E+01  0.1511E+02
    -12.081  0.6863E+01  0.1600E+02
    -11.951  0.1037E-02  0.1600E+02
    -11.821  0.1427E-06  0.1600E+02
    -11.690  0.4013E+00  0.1605E+02
    -11.560  0.1433E+02  0.1792E+02
    -11.430  0.6247E+00  0.1800E+02
    -11.300  0.4411E-06  0.1800E+02
    -11.170  0.0000E+00  0.1800E+02
    -11.039  0.0000E+00  0.1800E+02
    -10.909  0.0000E+00  0.1800E+02
    -10.779  0.0000E+00  0.1800E+02
    -10.649  0.0000E+00  0.1800E+02
    -10.518  0.0000E+00  0.1800E+02
    -10.388  0.0000E+00  0.1800E+02
    -10.258  0.0000E+00  0.1800E+02
    -10.128  0.0000E+00  0.1800E+02
     -9.997  0.0000E+00  0.1800E+02
     -9.867  0.0000E+00  0.1800E+02
     -9.737  0.0000E+00  0.1800E+02
     -9.607  0.0000E+00  0.1800E+02
     -9.476  0.0000E+00  0.1800E+02
     -9.346  0.0000E+00  0.1800E+02
     -9.216  0.0000E+00  0.1800E+02
     -9.086  0.0000E+00  0.1800E+02
     -8.955  0.0000E+00  0.1800E+02
     -8.825  0.8524E-15  0.1800E+02
     -8.695  0.2664E-04  0.1800E+02
     -8.565  0.2599E+01  0.1834E+02
     -8.434  0.1271E+02  0.1999E+02
     -8.304  0.4912E-01  0.2000E+02
     -8.174  0.1114E-08  0.2000E+02
     -8.044  0.0000E+00  0.2000E+02
     -7.914  0.0000E+00  0.2000E+02
     -7.783  0.0000E+00  0.2000E+02
     -7.653  0.0000E+00  0.2000E+02
     -7.523  0.5916E-06  0.2000E+02
     -7.393  0.6987E+00  0.2009E+02
     -7.262  0.1431E+02  0.2195E+02
     -7.132  0.8855E+01  0.2311E+02
     -7.002  0.6852E+01  0.2400E+02
     -6.872  0.1029E-02  0.2400E+02
     -6.741  0.4808E-12  0.2400E+02
     -6.611  0.0000E+00  0.2400E+02
     -6.481  0.0000E+00  0.2400E+02
     -6.351  0.0000E+00  0.2400E+02
     -6.220  0.0000E+00  0.2400E+02
     -6.090  0.0000E+00  0.2400E+02
     -5.960  0.0000E+00  0.2400E+02
     -5.830  0.0000E+00  0.2400E+02
     -5.699  0.0000E+00  0.2400E+02
     -5.569  0.0000E+00  0.2400E+02
     -5.439  0.0000E+00  0.2400E+02
     -5.309  0.0000E+00  0.2400E+02
     -5.178  0.0000E+00  0.2400E+02
     -5.048  0.3030E-11  0.2400E+02
     -4.918  0.2703E-02  0.2400E+02
     -4.788  0.8349E+01  0.2509E+02
     -4.658  0.7004E+01  0.2600E+02
     -4.527  0.1139E-02  0.2600E+02
     -4.397  0.5814E-12  0.2600E+02
     -4.267  0.0000E+00  0.2600E+02
     -4.137  0.0000E+00  0.2600E+02
     -4.006  0.0000E+00  0.2600E+02
     -3.876  0.0000E+00  0.2600E+02
     -3.746  0.0000E+00  0.2600E+02
     -3.616  0.0000E+00  0.2600E+02
     -3.485  0.0000E+00  0.2600E+02
     -3.355  0.0000E+00  0.2600E+02
     -3.225  0.0000E+00  0.2600E+02
     -3.095  0.0000E+00  0.2600E+02
     -2.964  0.0000E+00  0.2600E+02
     -2.834  0.0000E+00  0.2600E+02
     -2.704  0.0000E+00  0.2600E+02
     -2.574  0.0000E+00  0.2600E+02
     -2.443  0.0000E+00  0.2600E+02
     -2.313  0.0000E+00  0.2600E+02
     -2.183  0.0000E+00  0.2600E+02
     -2.053  0.0000E+00  0.2600E+02
     -1.922  0.0000E+00  0.2600E+02
     -1.792  0.0000E+00  0.2600E+02
     -1.662  0.0000E+00  0.2600E+02
     -1.532  0.1470E-11  0.2600E+02
     -1.402  0.1856E-02  0.2600E+02
     -1.271  0.7755E+01  0.2701E+02
     -1.141  0.7598E+01  0.2800E+02
     -1.011  0.1678E-02  0.2800E+02
     -0.881  0.1212E-11  0.2800E+02
     -0.750  0.0000E+00  0.2800E+02
     -0.620  0.0000E+00  0.2800E+02
     -0.490  0.4153E-10  0.2800E+02
     -0.360  0.1017E-01  0.2800E+02
     -0.229  0.1046E+02  0.2936E+02
     -0.099  0.4884E+01  0.3000E+02
      0.031  0.2478E-03  0.3000E+02
      0.161  0.1452E-02  0.3000E+02
      0.292  0.7397E+01  0.3096E+02
      0.422  0.2104E+02  0.3370E+02
      0.552  0.1749E+02  0.3598E+02
      0.682  0.1465E+00  0.3600E+02
      0.813  0.1275E-07  0.3600E+02
      0.943  0.0000E+00  0.3600E+02
      1.073  0.0000E+00  0.3600E+02
      1.203  0.0000E+00  0.3600E+02
      1.334  0.0000E+00  0.3600E+02
      1.464  0.0000E+00  0.3600E+02
      1.594  0.0000E+00  0.3600E+02
      1.724  0.0000E+00  0.3600E+02
      1.854  0.0000E+00  0.3600E+02
      1.985  0.0000E+00  0.3600E+02
      2.115  0.0000E+00  0.3600E+02
      2.245  0.0000E+00  0.3600E+02
