    4    4    1    1
  0.7621563E+03  0.1450000E-08  0.1450000E-08  0.1450000E-08  0.5000000E-15
   1.0000000000000000E-004
  CAR 
 NiAl                                    
     24      1     18
 
  0.1262379E-14  0.1262379E-14  0.1262379E-14  0.1000000E+01
      1        -35.050840   1.000000
      2        -31.277163   1.000000
      3        -22.542019   1.000000
      4        -18.119963   1.000000
      5        -16.490763   1.000000
      6        -14.383979   1.000000
      7        -14.088540   1.000000
      8        -12.216171   1.000000
      9        -11.621874   1.000000
     10         -8.530895   1.000000
     11         -7.332816   1.000000
     12         -7.136868   1.000000
     13         -4.791663   0.000000
     14         -1.271739   0.000000
     15         -0.246091   0.000000
     16          0.293341   0.000000
     17          0.396663   0.000000
     18          0.469196   0.000000
