       N       E                     dE             d eps       ncg     rms          rms(c)
DAV:   1     0.176299108193E+03    0.17630E+03   -0.48886E+03    60   0.515E+02
DAV:   2     0.368647075705E+02   -0.13943E+03   -0.13772E+03    66   0.166E+02
DAV:   3    -0.137573055346E+02   -0.50622E+02   -0.49664E+02    72   0.844E+01
DAV:   4    -0.172464583615E+02   -0.34892E+01   -0.34851E+01    48   0.208E+01
DAV:   5    -0.174667488757E+02   -0.22029E+00   -0.21944E+00    60   0.744E+00    0.725E+01
DAV:   6    -0.169019929022E+02    0.56476E+00   -0.67183E-01    48   0.780E+00    0.445E+01
DAV:   7    -0.168773967983E+02    0.24596E-01   -0.10379E+00    48   0.911E+00    0.150E+00
DAV:   8    -0.168556248066E+02    0.21772E-01   -0.14847E-01    48   0.366E+00    0.433E-01
DAV:   9    -0.168566120817E+02   -0.98728E-03   -0.47938E-03    36   0.540E-01    0.201E-01
DAV:  10    -0.168572211909E+02   -0.60911E-03   -0.80792E-04    36   0.274E-01    0.459E-02
DAV:  11    -0.168576600945E+02   -0.43890E-03   -0.11525E-04    60   0.677E-02    0.214E-02
DAV:  12    -0.168580078853E+02   -0.34779E-03   -0.18564E-05    60   0.192E-02    0.862E-03
DAV:  13    -0.168582574832E+02   -0.24960E-03   -0.20301E-05    60   0.224E-02    0.100E-02
DAV:  14    -0.168584946677E+02   -0.23718E-03   -0.23201E-05    54   0.244E-02    0.282E-02
DAV:  15    -0.168584980785E+02   -0.34108E-05   -0.16970E-06    72   0.995E-03    0.414E-03
DAV:  16    -0.168585428937E+02   -0.44815E-04   -0.74637E-07    54   0.412E-03    0.353E-03
DAV:  17    -0.168585729378E+02   -0.30044E-04   -0.48201E-07    48   0.411E-03    0.139E-03
DAV:  18    -0.168585827338E+02   -0.97961E-05   -0.88637E-08    42   0.194E-03    0.297E-04
DAV:  19    -0.168585861843E+02   -0.34505E-05   -0.19402E-08    30   0.125E-03    0.234E-04
DAV:  20    -0.168585869149E+02   -0.73056E-06   -0.95270E-09    30   0.997E-04    0.180E-04
DAV:  21    -0.168585874553E+02   -0.54045E-06   -0.12521E-08    30   0.824E-04    0.455E-05
DAV:  22    -0.168585875239E+02   -0.68604E-07   -0.58460E-09    36   0.721E-04
   1 F= -.16894278E+02 E0= -.16894278E+02  d E =-.479745E-15
