<?xml version="1.0" encoding="ISO-8859-1"?>
<modeling>
 <generator>
  <i name="program" type="string">vasp </i>
  <i name="version" type="string">6.3.1  </i>
  <i name="subversion" type="string">04May22 (build Jun 29 2022 13:52:15) complex                          parallel </i>
  <i name="platform" type="string">LinuxNV </i>
  <i name="date" type="string">2022 10 05 </i>
  <i name="time" type="string">18:33:11 </i>
 </generator>
 <incar>
  <i type="string" name="SYSTEM">NiAl</i>
  <i type="int" name="ISTART">     0</i>
  <i type="int" name="NELMIN">     6</i>
  <i name="EDIFF">      0.00000010</i>
  <i name="ENCUT">    360.00000000</i>
  <i type="string" name="LREAL">Auto</i>
  <i type="logical" name="LPLANE"> T  </i>
  <i type="int" name="ISMEAR">     0</i>
  <i name="SIGMA">      0.05000000</i>
  <i type="logical" name="LWAVE"> F  </i>
  <i type="logical" name="LCHARG"> F  </i>
  <i type="int" name="IVDW">    12</i>
 </incar>
 <primitive_cell>
  <structure name="primitive_cell" >
   <crystal>
    <varray name="basis" >
     <v>      14.50000000       0.00000000       0.00000000 </v>
     <v>       0.00000000      14.50000000       0.00000000 </v>
     <v>       0.00000000       0.00000000      14.50000000 </v>
    </varray>
    <i name="volume">   3048.62500000 </i>
    <varray name="rec_basis" >
     <v>       0.06896552       0.00000000       0.00000000 </v>
     <v>       0.00000000       0.06896552       0.00000000 </v>
     <v>       0.00000000       0.00000000       0.06896552 </v>
    </varray>
   </crystal>
   <varray name="positions" >
    <v>       0.00000000       0.00000000       0.00000000 </v>
    <v>       0.08324138       0.00000000       0.00000000 </v>
    <v>       0.00000000       0.00000000       0.11034483 </v>
    <v>       0.08324138       0.00000000       0.11034483 </v>
   </varray>
  </structure>
  <varray name="primitive_index" >
   <v type="int" >        1 </v>
   <v type="int" >        2 </v>
   <v type="int" >        3 </v>
   <v type="int" >        4 </v>
  </varray>
 </primitive_cell>
 <kpoints>
  <generation param="Gamma">
   <v type="int" name="divisions">       1        1        1 </v>
   <v name="usershift">      0.00000000       0.00000000       0.00000000 </v>
   <v name="genvec1">      1.00000000       0.00000000       0.00000000 </v>
   <v name="genvec2">      0.00000000       1.00000000       0.00000000 </v>
   <v name="genvec3">      0.00000000       0.00000000       1.00000000 </v>
   <v name="shift">      0.00000000       0.00000000       0.00000000 </v>
  </generation>
  <varray name="kpointlist" >
   <v>       0.00000000       0.00000000       0.00000000 </v>
  </varray>
  <varray name="weights" >
   <v>       1.00000000 </v>
  </varray>
 </kpoints>
 <parameters>
  <separator name="general" >
   <i type="string" name="SYSTEM">NiAl</i>
   <i type="logical" name="LCOMPAT"> F  </i>
  </separator>
  <separator name="electronic" >
   <i type="string" name="PREC">normal</i>
   <i name="ENMAX">    360.00000000</i>
   <i name="ENAUG">   1139.60900000</i>
   <i name="EDIFF">      0.00000010</i>
   <i type="int" name="IALGO">    38</i>
   <i type="int" name="IWAVPR">    10</i>
   <i type="int" name="NBANDS">    18</i>
   <i type="int" name="NBANDSLOW">    -1</i>
   <i type="int" name="NBANDSHIGH">    -1</i>
   <i name="NELECT">     24.00000000</i>
   <i type="int" name="TURBO">     0</i>
   <i type="int" name="IRESTART">     0</i>
   <i type="int" name="NREBOOT">     0</i>
   <i type="int" name="NMIN">     0</i>
   <i name="EREF">      0.00000000</i>
   <separator name="electronic smearing" >
    <i type="int" name="ISMEAR">     0</i>
    <i name="SIGMA">      0.05000000</i>
    <i name="KSPACING">      0.50000000</i>
    <i type="logical" name="KGAMMA"> T  </i>
    <i type="logical" name="KBLOWUP"> T  </i>
   </separator>
   <separator name="electronic projectors" >
    <i type="logical" name="LREAL"> T  </i>
    <v name="ROPT">     -0.00050000</v>
    <i type="int" name="LMAXPAW">  -100</i>
    <i type="int" name="LMAXMIX">     2</i>
    <i type="logical" name="NLSPLINE"> F  </i>
   </separator>
   <separator name="electronic startup" >
    <i type="int" name="ISTART">     0</i>
    <i type="int" name="ICHARG">     2</i>
    <i type="int" name="INIWAV">     1</i>
   </separator>
   <separator name="electronic spin" >
    <i type="int" name="ISPIN">     1</i>
    <i type="logical" name="LNONCOLLINEAR"> F  </i>
    <v name="MAGMOM">      1.00000000      1.00000000      1.00000000      1.00000000</v>
    <i name="NUPDOWN">     -1.00000000</i>
    <i type="logical" name="LSORBIT"> F  </i>
    <v name="SAXIS">      0.00000000      0.00000000      1.00000000</v>
    <i type="logical" name="LSPIRAL"> F  </i>
    <v name="QSPIRAL">      0.00000000      0.00000000      0.00000000</v>
    <i type="logical" name="LZEROZ"> F  </i>
   </separator>
   <separator name="electronic exchange-correlation" >
    <i type="logical" name="LASPH"> F  </i>
    <i type="logical" name="LMETAGGA"> F  </i>
   </separator>
   <separator name="electronic convergence" >
    <i type="int" name="NELM">    60</i>
    <i type="int" name="NELMDL">    -5</i>
    <i type="int" name="NELMIN">     6</i>
    <i name="ENINI">    360.00000000</i>
    <separator name="electronic convergence detail" >
     <i type="logical" name="LDIAG"> T  </i>
     <i type="logical" name="LSUBROT"> F  </i>
     <i name="WEIMIN">      0.00000000</i>
     <i name="EBREAK">      0.00000000</i>
     <i name="DEPER">      0.30000000</i>
     <i type="int" name="NRMM">     4</i>
     <i name="TIME">      0.40000000</i>
    </separator>
   </separator>
   <separator name="electronic mixer" >
    <i name="AMIX">      0.40000000</i>
    <i name="BMIX">      1.00000000</i>
    <i name="AMIN">      0.10000000</i>
    <i name="AMIX_MAG">      1.60000000</i>
    <i name="BMIX_MAG">      1.00000000</i>
    <separator name="electronic mixer details" >
     <i type="int" name="IMIX">     4</i>
     <i type="logical" name="MIXFIRST"> F  </i>
     <i type="int" name="MAXMIX">   -45</i>
     <i name="WC">    100.00000000</i>
     <i type="int" name="INIMIX">     1</i>
     <i type="int" name="MIXPRE">     1</i>
     <i type="int" name="MREMOVE">     5</i>
    </separator>
   </separator>
   <separator name="electronic dipolcorrection" >
    <i type="logical" name="LDIPOL"> F  </i>
    <i type="logical" name="LMONO"> F  </i>
    <i type="int" name="IDIPOL">     0</i>
    <i name="EPSILON">      1.00000000</i>
    <v name="DIPOL">   -100.00000000   -100.00000000   -100.00000000</v>
    <i name="EFIELD">      0.00000000</i>
   </separator>
  </separator>
  <separator name="grids" >
   <i type="int" name="NGX">    70</i>
   <i type="int" name="NGY">    70</i>
   <i type="int" name="NGZ">    70</i>
   <i type="int" name="NGXF">   140</i>
   <i type="int" name="NGYF">   140</i>
   <i type="int" name="NGZF">   140</i>
   <i type="logical" name="ADDGRID"> F  </i>
  </separator>
  <separator name="ionic" >
   <i type="int" name="NSW">     0</i>
   <i type="int" name="IBRION">    -1</i>
   <i type="int" name="MDALGO">     0</i>
   <i type="int" name="ISIF">     2</i>
   <i name="PSTRESS">      0.00000000</i>
   <i name="EDIFFG">      0.00000100</i>
   <i type="int" name="NFREE">     0</i>
   <i name="POTIM">      0.50000000</i>
   <i name="SMASS">     -3.00000000</i>
   <i name="SCALEE">      1.00000000</i>
  </separator>
  <separator name="ionic md" >
   <i name="TEBEG">      0.00010000</i>
   <i name="TEEND">      0.00010000</i>
   <i type="int" name="NBLOCK">     1</i>
   <i type="int" name="KBLOCK">     1</i>
   <i type="int" name="NPACO">   256</i>
   <i name="APACO">     10.00000000</i>
  </separator>
  <separator name="symmetry" >
   <i type="int" name="ISYM">     2</i>
   <i name="SYMPREC">      0.00001000</i>
  </separator>
  <separator name="dos" >
   <i type="int" name="LORBIT">     0</i>
   <v name="RWIGS">     -1.00000000</v>
   <i type="int" name="NEDOS">   301</i>
   <i name="EMIN">     10.00000000</i>
   <i name="EMAX">    -10.00000000</i>
   <i name="EFERMI">      0.00000000</i>
  </separator>
  <separator name="writing" >
   <i type="int" name="NWRITE">     2</i>
   <i type="logical" name="LWAVE"> F  </i>
   <i type="logical" name="LDOWNSAMPLE"> F  </i>
   <i type="logical" name="LCHARG"> F  </i>
   <i type="logical" name="LPARD"> F  </i>
   <i type="logical" name="LVTOT"> F  </i>
   <i type="logical" name="LVHAR"> F  </i>
   <i type="logical" name="LELF"> F  </i>
   <i type="logical" name="LOPTICS"> F  </i>
   <v name="STM">      0.00000000      0.00000000      0.00000000      0.00000000      0.00000000      0.00000000      0.00000000</v>
  </separator>
  <separator name="performance" >
   <i type="int" name="NPAR">     6</i>
   <i type="int" name="NSIM">     4</i>
   <i type="int" name="NBLK">    -1</i>
   <i type="logical" name="LPLANE"> T  </i>
   <i type="logical" name="LSCALAPACK"> T  </i>
   <i type="logical" name="LSCAAWARE"> F  </i>
   <i type="logical" name="LSCALU"> F  </i>
   <i type="logical" name="LASYNC"> F  </i>
   <i type="logical" name="LORBITALREAL"> F  </i>
  </separator>
  <separator name="miscellaneous" >
   <i type="int" name="IDIOT">     3</i>
   <i type="int" name="PHON_NSTRUCT">    -1</i>
   <i type="logical" name="LMUSIC"> F  </i>
   <v name="POMASS">     16.00000000</v>
   <v name="DARWINR">      0.00000000</v>
   <v name="DARWINV">      1.00000000</v>
   <i type="logical" name="LCORR"> T  </i>
  </separator>
  <i type="logical" name="GGA_COMPAT"> T  </i>
  <i type="logical" name="LBERRY"> F  </i>
  <i type="int" name="ICORELEVEL">     0</i>
  <i type="logical" name="LDAU"> F  </i>
  <i type="int" name="I_CONSTRAINED_M">     0</i>
  <separator name="electronic exchange-correlation" >
   <i type="string" name="GGA">--</i>
   <i type="int" name="VOSKOWN">     0</i>
   <i type="logical" name="LHFCALC"> F  </i>
   <i type="string" name="PRECFOCK"></i>
   <i type="logical" name="LSYMGRAD"> F  </i>
   <i type="logical" name="LHFONE"> F  </i>
   <i type="logical" name="LRHFCALC"> F  </i>
   <i type="logical" name="LTHOMAS"> F  </i>
   <i type="logical" name="LMODELHF"> F  </i>
   <i type="logical" name="LFOCKACE"> F  </i>
   <i name="ENCUT4O">     -1.00000000</i>
   <i type="int" name="EXXOEP">     0</i>
   <i type="int" name="FOURORBIT">     0</i>
   <i name="AEXX">      0.00000000</i>
   <i name="HFALPHA">      0.00000000</i>
   <i name="MCALPHA">      0.00000000</i>
   <i name="ALDAX">      1.00000000</i>
   <i name="AGGAX">      1.00000000</i>
   <i name="ALDAC">      1.00000000</i>
   <i name="AGGAC">      1.00000000</i>
   <i type="int" name="NKREDX">     1</i>
   <i type="int" name="NKREDY">     1</i>
   <i type="int" name="NKREDZ">     1</i>
   <i type="logical" name="SHIFTRED"> F  </i>
   <i type="logical" name="ODDONLY"> F  </i>
   <i type="logical" name="EVENONLY"> F  </i>
   <i type="int" name="LMAXFOCK">     0</i>
   <i type="int" name="NMAXFOCKAE">     0</i>
   <i type="logical" name="LFOCKAEDFT"> F  </i>
   <i name="HFSCREEN">      0.00000000</i>
   <i name="HFSCREENC">      0.00000000</i>
   <i type="int" name="NBANDSGWLOW">     0</i>
  </separator>
  <separator name="vdW DFT" >
   <i type="logical" name="LUSE_VDW"> F  </i>
   <i name="Zab_VDW">     -0.84910000</i>
   <i name="PARAM1">      0.12340000</i>
   <i name="PARAM2">      1.00000000</i>
   <i name="PARAM3">      0.00000000</i>
  </separator>
  <separator name="model GW" >
   <i type="int" name="MODEL_GW">     0</i>
   <i name="MODEL_EPS0">    457.29375000</i>
   <i name="MODEL_ALPHA">      1.00000000</i>
  </separator>
  <separator name="linear response parameters" >
   <i type="logical" name="LEPSILON"> F  </i>
   <i type="logical" name="LRPA"> F  </i>
   <i type="logical" name="LNABLA"> F  </i>
   <i type="logical" name="LVEL"> F  </i>
   <i name="CSHIFT">      0.10000000</i>
   <i name="OMEGAMAX">     -1.00000000</i>
   <i name="DEG_THRESHOLD">      0.00200000</i>
   <i name="RTIME">     -0.10000000</i>
   <i name="WPLASMAI">      0.00000000</i>
   <v name="DFIELD">      0.00000000      0.00000000      0.00000000</v>
   <v name="WPLASMA">      0.00000000      0.00000000      0.00000000      0.00000000      0.00000000      0.00000000      0.00000000      0.00000000      0.00000000</v>
  </separator>
  <separator name="orbital magnetization" >
   <i type="logical" name="NUCIND"> F  </i>
   <v name="MAGPOS">      0.00000000      0.00000000      0.00000000</v>
   <i type="logical" name="LNICSALL"> T  </i>
   <i type="logical" name="ORBITALMAG"> F  </i>
   <i type="logical" name="LMAGBLOCH"> F  </i>
   <i type="logical" name="LCHIMAG"> F  </i>
   <i type="logical" name="LGAUGE"> T  </i>
   <i type="int" name="MAGATOM">     0</i>
   <v name="MAGDIPOL">      0.00000000      0.00000000      0.00000000</v>
   <v name="AVECCONST">      0.00000000      0.00000000      0.00000000</v>
  </separator>
  <separator name="response functions" >
   <i type="logical" name="LFINITE_TEMPERATURE"> F  </i>
   <i type="logical" name="LADDER"> F  </i>
   <i type="logical" name="LRPAFORCE"> F  </i>
   <i type="logical" name="LFXC"> F  </i>
   <i type="logical" name="LHARTREE"> T  </i>
   <i type="int" name="IBSE">     0</i>
   <v type="int" name="KPOINT">    -1     0     0     0</v>
   <i type="logical" name="LTCTC"> F  </i>
   <i type="logical" name="LTCTE"> F  </i>
   <i type="logical" name="LTETE"> F  </i>
   <i type="logical" name="LTRIPLET"> F  </i>
   <i type="logical" name="LFXCEPS"> F  </i>
   <i type="logical" name="LFXHEG"> F  </i>
   <i type="int" name="NATURALO">     2</i>
   <i type="logical" name="LHOLEGF"> F  </i>
   <i type="logical" name="L2ORDER"> F  </i>
   <i type="logical" name="LDMP1"> F  </i>
   <i type="logical" name="LMP2LT"> F  </i>
   <i type="logical" name="LSMP2LT"> F  </i>
   <i type="logical" name="LGWLF"> F  </i>
   <i name="ENCUTGW">     -2.00000000</i>
   <i name="ENCUTGWSOFT">     -2.00000000</i>
   <i name="ENCUTLF">     -1.00000000</i>
   <i type="logical" name="LESF_SPLINES"> F  </i>
   <i type="int" name="LMAXMP2">    -1</i>
   <i name="SCISSOR">      0.00000000</i>
   <i type="int" name="NOMEGA">     0</i>
   <i type="int" name="NOMEGAR">     0</i>
   <i type="int" name="NBANDSGW">    -1</i>
   <i type="int" name="NBANDSO">    -1</i>
   <i type="int" name="NBANDSV">    -1</i>
   <i type="int" name="NELMGW">     1</i>
   <i type="int" name="NELMHF">     1</i>
   <i type="int" name="DIM">     3</i>
   <i type="int" name="IESPILON">     4</i>
   <i type="int" name="ANTIRES">     0</i>
   <i name="OMEGAMAX">    -30.00000000</i>
   <i name="OMEGAMIN">    -30.00000000</i>
   <i name="OMEGATL">   -200.00000000</i>
   <i type="int" name="OMEGAGRID">     0</i>
   <i name="CSHIFT">     -0.10000000</i>
   <i type="logical" name="LSELFENERGY"> F  </i>
   <i type="logical" name="LSPECTRAL"> F  </i>
   <i type="logical" name="LSPECTRALGW"> F  </i>
   <i type="logical" name="LSINGLES"> F  </i>
   <i type="logical" name="LFERMIGW"> F  </i>
   <i type="logical" name="ODDONLYGW"> F  </i>
   <i type="logical" name="EVENONLYGW"> F  </i>
   <i type="int" name="NKREDLFX">     1</i>
   <i type="int" name="NKREDLFY">     1</i>
   <i type="int" name="NKREDLFZ">     1</i>
   <i type="int" name="MAXMEM">  2800</i>
   <i type="int" name="TELESCOPE">     0</i>
   <i type="int" name="NTAUPAR">    -1</i>
   <i type="int" name="NOMEGAPAR">    -1</i>
   <i name="DAMP_NEWTON">      0.80000001</i>
   <i name="LAMBDA">      1.00000000</i>
  </separator>
  <separator name="External order field" >
   <i name="OFIELD_KAPPA">      0.00000000</i>
   <v name="OFIELD_K">      0.00000000      0.00000000      0.00000000</v>
   <i name="OFIELD_Q6_NEAR">      0.00000000</i>
   <i name="OFIELD_Q6_FAR">      0.00000000</i>
   <i name="OFIELD_A">      0.00000000</i>
  </separator>
  <separator name="optional k-points parameters" >
   <i type="int" name="KPOINTS_OPT_MODE">     1</i>
   <i type="logical" name="LKPOINTS_OPT"> F  </i>
  </separator>
 </parameters>
 <atominfo>
  <atoms>       4 </atoms>
  <types>       1 </types>
  <array name="atoms" >
   <dimension dim="1">ion</dimension>
   <field type="string">element</field>
   <field type="int">atomtype</field>
   <set>
    <rc><c>O </c><c>   1</c></rc>
    <rc><c>O </c><c>   1</c></rc>
    <rc><c>O </c><c>   1</c></rc>
    <rc><c>O </c><c>   1</c></rc>
   </set>
  </array>
  <array name="atomtypes" >
   <dimension dim="1">type</dimension>
   <field type="int">atomspertype</field>
   <field type="string">element</field>
   <field>mass</field>
   <field>valence</field>
   <field type="string">pseudopotential</field>
   <set>
    <rc><c>   4</c><c>O </c><c>     16.00000000</c><c>      6.00000000</c><c>  PAW O_GW 19Mar2012                    </c></rc>
   </set>
  </array>
 </atominfo>
 <structure name="initialpos" >
  <crystal>
   <varray name="basis" >
    <v>      14.50000000       0.00000000       0.00000000 </v>
    <v>       0.00000000      14.50000000       0.00000000 </v>
    <v>       0.00000000       0.00000000      14.50000000 </v>
   </varray>
   <i name="volume">   3048.62500000 </i>
   <varray name="rec_basis" >
    <v>       0.06896552       0.00000000       0.00000000 </v>
    <v>       0.00000000       0.06896552       0.00000000 </v>
    <v>       0.00000000       0.00000000       0.06896552 </v>
   </varray>
  </crystal>
  <varray name="positions" >
   <v>       0.00000000       0.00000000       0.00000000 </v>
   <v>       0.08324138       0.00000000       0.00000000 </v>
   <v>       0.00000000       0.00000000       0.11034483 </v>
   <v>       0.08324138       0.00000000       0.11034483 </v>
  </varray>
 </structure>
 <calculation>
  <scstep>
   <time name="dav">   14.90    6.75</time>
   <time name="total">   18.48    8.60</time>
   <energy>
    <i name="alphaZ">      0.35861207 </i>
    <i name="ewald">   1218.52952296 </i>
    <i name="hartreedc">  -2662.04350851 </i>
    <i name="XCdc">    104.40378042 </i>
    <i name="pawpsdc">   1396.60603497 </i>
    <i name="pawaedc">  -1393.39258355 </i>
    <i name="eentropy">     -0.00000000 </i>
    <i name="bandstr">   -216.11279246 </i>
    <i name="atom">   1727.95004229 </i>
    <i name="e_fr_energy">    176.29910819 </i>
    <i name="e_wo_entrp">    176.29910819 </i>
    <i name="e_0_energy">    176.29910819 </i>
   </energy>
  </scstep>
  <scstep>
   <time name="dav">   14.08    6.95</time>
   <time name="total">   14.08    6.95</time>
   <energy>
    <i name="e_fr_energy">     36.86470757 </i>
    <i name="e_wo_entrp">     36.86470757 </i>
    <i name="e_0_energy">     36.86470757 </i>
   </energy>
  </scstep>
  <scstep>
   <time name="dav">   17.29    8.13</time>
   <time name="total">   17.29    8.13</time>
   <energy>
    <i name="e_fr_energy">    -13.75730553 </i>
    <i name="e_wo_entrp">    -13.75730553 </i>
    <i name="e_0_energy">    -13.75730553 </i>
   </energy>
  </scstep>
  <scstep>
   <time name="dav">   11.30    5.63</time>
   <time name="total">   11.30    5.63</time>
   <energy>
    <i name="e_fr_energy">    -17.24645836 </i>
    <i name="e_wo_entrp">    -17.24645836 </i>
    <i name="e_0_energy">    -17.24645836 </i>
   </energy>
  </scstep>
  <scstep>
   <time name="dav">   13.88    6.79</time>
   <time name="total">   15.20    7.68</time>
   <energy>
    <i name="e_fr_energy">    -17.46674888 </i>
    <i name="e_wo_entrp">    -17.46674888 </i>
    <i name="e_0_energy">    -17.46674888 </i>
   </energy>
  </scstep>
  <scstep>
   <time name="dav">   11.21    5.43</time>
   <time name="total">   17.45    8.42</time>
   <energy>
    <i name="e_fr_energy">    -16.90199290 </i>
    <i name="e_wo_entrp">    -16.90199290 </i>
    <i name="e_0_energy">    -16.90199290 </i>
   </energy>
  </scstep>
  <scstep>
   <time name="dav">   11.93    5.87</time>
   <time name="total">   17.29    8.64</time>
   <energy>
    <i name="e_fr_energy">    -16.87739680 </i>
    <i name="e_wo_entrp">    -16.87739680 </i>
    <i name="e_0_energy">    -16.87739680 </i>
   </energy>
  </scstep>
  <scstep>
   <time name="dav">   12.42    5.69</time>
   <time name="total">   18.04    8.60</time>
   <energy>
    <i name="e_fr_energy">    -16.85562481 </i>
    <i name="e_wo_entrp">    -16.85562481 </i>
    <i name="e_0_energy">    -16.85562481 </i>
   </energy>
  </scstep>
  <scstep>
   <time name="dav">    8.81    4.48</time>
   <time name="total">   14.61    7.52</time>
   <energy>
    <i name="e_fr_energy">    -16.85661208 </i>
    <i name="e_wo_entrp">    -16.85661208 </i>
    <i name="e_0_energy">    -16.85661208 </i>
   </energy>
  </scstep>
  <scstep>
   <time name="dav">    8.99    4.53</time>
   <time name="total">   15.48    7.58</time>
   <energy>
    <i name="e_fr_energy">    -16.85722119 </i>
    <i name="e_wo_entrp">    -16.85722119 </i>
    <i name="e_0_energy">    -16.85722119 </i>
   </energy>
  </scstep>
  <scstep>
   <time name="dav">   14.01    6.81</time>
   <time name="total">   19.66    9.75</time>
   <energy>
    <i name="e_fr_energy">    -16.85766009 </i>
    <i name="e_wo_entrp">    -16.85766009 </i>
    <i name="e_0_energy">    -16.85766009 </i>
   </energy>
  </scstep>
  <scstep>
   <time name="dav">   13.29    6.99</time>
   <time name="total">   19.26   10.15</time>
   <energy>
    <i name="e_fr_energy">    -16.85800789 </i>
    <i name="e_wo_entrp">    -16.85800789 </i>
    <i name="e_0_energy">    -16.85800789 </i>
   </energy>
  </scstep>
  <scstep>
   <time name="dav">   13.61    7.01</time>
   <time name="total">   19.45   10.05</time>
   <energy>
    <i name="e_fr_energy">    -16.85825748 </i>
    <i name="e_wo_entrp">    -16.85825748 </i>
    <i name="e_0_energy">    -16.85825748 </i>
   </energy>
  </scstep>
  <scstep>
   <time name="dav">   12.39    6.45</time>
   <time name="total">   18.04    9.26</time>
   <energy>
    <i name="e_fr_energy">    -16.85849467 </i>
    <i name="e_wo_entrp">    -16.85849467 </i>
    <i name="e_0_energy">    -16.85849467 </i>
   </energy>
  </scstep>
  <scstep>
   <time name="dav">   16.04    7.90</time>
   <time name="total">   22.24   11.24</time>
   <energy>
    <i name="e_fr_energy">    -16.85849808 </i>
    <i name="e_wo_entrp">    -16.85849808 </i>
    <i name="e_0_energy">    -16.85849808 </i>
   </energy>
  </scstep>
  <scstep>
   <time name="dav">   12.15    6.51</time>
   <time name="total">   18.03    9.88</time>
   <energy>
    <i name="e_fr_energy">    -16.85854289 </i>
    <i name="e_wo_entrp">    -16.85854289 </i>
    <i name="e_0_energy">    -16.85854289 </i>
   </energy>
  </scstep>
  <scstep>
   <time name="dav">   11.60    5.51</time>
   <time name="total">   16.76    8.39</time>
   <energy>
    <i name="e_fr_energy">    -16.85857294 </i>
    <i name="e_wo_entrp">    -16.85857294 </i>
    <i name="e_0_energy">    -16.85857294 </i>
   </energy>
  </scstep>
  <scstep>
   <time name="dav">   10.29    5.04</time>
   <time name="total">   16.13    7.85</time>
   <energy>
    <i name="e_fr_energy">    -16.85858273 </i>
    <i name="e_wo_entrp">    -16.85858273 </i>
    <i name="e_0_energy">    -16.85858273 </i>
   </energy>
  </scstep>
  <scstep>
   <time name="dav">    9.06    4.21</time>
   <time name="total">   15.19    7.30</time>
   <energy>
    <i name="e_fr_energy">    -16.85858618 </i>
    <i name="e_wo_entrp">    -16.85858618 </i>
    <i name="e_0_energy">    -16.85858618 </i>
   </energy>
  </scstep>
  <scstep>
   <time name="dav">    8.04    4.25</time>
   <time name="total">   14.11    7.30</time>
   <energy>
    <i name="e_fr_energy">    -16.85858691 </i>
    <i name="e_wo_entrp">    -16.85858691 </i>
    <i name="e_0_energy">    -16.85858691 </i>
   </energy>
  </scstep>
  <scstep>
   <time name="dav">    8.30    4.41</time>
   <time name="total">   14.69    7.99</time>
   <energy>
    <i name="e_fr_energy">    -16.85858746 </i>
    <i name="e_wo_entrp">    -16.85858746 </i>
    <i name="e_0_energy">    -16.85858746 </i>
   </energy>
  </scstep>
  <scstep>
   <time name="dav">   10.94    5.31</time>
   <time name="total">   15.23    7.51</time>
   <energy>
    <i name="alphaZ">      0.35861207 </i>
    <i name="ewald">   1218.52952296 </i>
    <i name="hartreedc">  -2674.66487214 </i>
    <i name="XCdc">    105.71596142 </i>
    <i name="pawpsdc">   5919.77840014 </i>
    <i name="pawaedc">  -5916.94247403 </i>
    <i name="eentropy">     -0.00000000 </i>
    <i name="bandstr">   -397.58378024 </i>
    <i name="atom">   1727.95004229 </i>
    <i name="e_fr_energy">    -16.85858752 </i>
    <i name="e_wo_entrp">    -16.85858752 </i>
    <i name="e_0_energy">    -16.85858752 </i>
   </energy>
  </scstep>
  <structure>
   <crystal>
    <varray name="basis" >
     <v>      14.50000000       0.00000000       0.00000000 </v>
     <v>       0.00000000      14.50000000       0.00000000 </v>
     <v>       0.00000000       0.00000000      14.50000000 </v>
    </varray>
    <i name="volume">   3048.62500000 </i>
    <varray name="rec_basis" >
     <v>       0.06896552       0.00000000       0.00000000 </v>
     <v>       0.00000000       0.06896552       0.00000000 </v>
     <v>       0.00000000       0.00000000       0.06896552 </v>
    </varray>
   </crystal>
   <varray name="positions" >
    <v>       0.00000000       0.00000000       0.00000000 </v>
    <v>       0.08324138       0.00000000       0.00000000 </v>
    <v>       0.00000000       0.00000000       0.11034483 </v>
    <v>       0.08324138       0.00000000       0.11034483 </v>
   </varray>
  </structure>
  <varray name="forces" >
   <v>      -3.52213077       0.00000000      -6.49114670 </v>
   <v>       3.52213077       0.00000000      -6.49114670 </v>
   <v>      -3.52213077      -0.00000000       6.49114670 </v>
   <v>       3.52213077       0.00000000       6.49114670 </v>
  </varray>
  <varray name="stress" >
   <v>      -3.83412669      -0.00000000      -0.00000000 </v>
   <v>       0.00000000      -7.43341189       0.00000000 </v>
   <v>      -0.00000000       0.00000000       3.22823148 </v>
  </varray>
  <energy>
   <i name="e_fr_energy">    -16.89427838 </i>
   <i name="e_wo_entrp">    -16.89427838 </i>
   <i name="e_0_energy">    -16.89427838 </i>
  </energy>
  <time name="totalsc">  383.91  192.79</time>
  <eigenvalues>
   <array>
    <dimension dim="1">band</dimension>
    <dimension dim="2">kpoint</dimension>
    <dimension dim="3">spin</dimension>
    <field>eigene</field>
    <field>occ</field>
    <set>
     <set comment="spin 1">
      <set comment="kpoint 1">
       <r>  -35.0508    1.0000 </r>
       <r>  -31.2772    1.0000 </r>
       <r>  -22.5420    1.0000 </r>
       <r>  -18.1200    1.0000 </r>
       <r>  -16.4908    1.0000 </r>
       <r>  -14.3840    1.0000 </r>
       <r>  -14.0885    1.0000 </r>
       <r>  -12.2162    1.0000 </r>
       <r>  -11.6219    1.0000 </r>
       <r>   -8.5309    1.0000 </r>
       <r>   -7.3328    1.0000 </r>
       <r>   -7.1369    1.0000 </r>
       <r>   -4.7917    0.0000 </r>
       <r>   -1.2717    0.0000 </r>
       <r>   -0.2461    0.0000 </r>
       <r>    0.2933    0.0000 </r>
       <r>    0.3967    0.0000 </r>
       <r>    0.4692    0.0000 </r>
      </set>
     </set>
    </set>
   </array>
  </eigenvalues>
  <separator name="orbital magnetization" >
   <v name="MAGDIPOLOUT">      0.00000000      0.00000000      0.00000000</v>
  </separator>
  <dos>
   <i name="efermi">     -6.85533154 </i>
   <total>
    <array>
     <dimension dim="1">gridpoints</dimension>
     <dimension dim="2">spin</dimension>
     <field>energy</field>
     <field>total</field>
     <field>integrated</field>
     <set>
      <set comment="spin 1">
       <r>   -36.8268     0.0000     0.0000 </r>
       <r>   -36.6966     0.0000     0.0000 </r>
       <r>   -36.5664     0.0000     0.0000 </r>
       <r>   -36.4361     0.0000     0.0000 </r>
       <r>   -36.3059     0.0000     0.0000 </r>
       <r>   -36.1756     0.0000     0.0000 </r>
       <r>   -36.0454     0.0000     0.0000 </r>
       <r>   -35.9152     0.0000     0.0000 </r>
       <r>   -35.7849     0.0000     0.0000 </r>
       <r>   -35.6547     0.0000     0.0000 </r>
       <r>   -35.5244     0.0000     0.0000 </r>
       <r>   -35.3942     0.0000     0.0000 </r>
       <r>   -35.2640     0.0000     0.0000 </r>
       <r>   -35.1337     0.1464     0.0191 </r>
       <r>   -35.0035    13.8248     1.8196 </r>
       <r>   -34.8732     1.3851     2.0000 </r>
       <r>   -34.7430     0.0000     2.0000 </r>
       <r>   -34.6128     0.0000     2.0000 </r>
       <r>   -34.4825     0.0000     2.0000 </r>
       <r>   -34.3523     0.0000     2.0000 </r>
       <r>   -34.2220     0.0000     2.0000 </r>
       <r>   -34.0918     0.0000     2.0000 </r>
       <r>   -33.9616     0.0000     2.0000 </r>
       <r>   -33.8313     0.0000     2.0000 </r>
       <r>   -33.7011     0.0000     2.0000 </r>
       <r>   -33.5708     0.0000     2.0000 </r>
       <r>   -33.4406     0.0000     2.0000 </r>
       <r>   -33.3104     0.0000     2.0000 </r>
       <r>   -33.1801     0.0000     2.0000 </r>
       <r>   -33.0499     0.0000     2.0000 </r>
       <r>   -32.9196     0.0000     2.0000 </r>
       <r>   -32.7894     0.0000     2.0000 </r>
       <r>   -32.6592     0.0000     2.0000 </r>
       <r>   -32.5289     0.0000     2.0000 </r>
       <r>   -32.3987     0.0000     2.0000 </r>
       <r>   -32.2684     0.0000     2.0000 </r>
       <r>   -32.1382     0.0000     2.0000 </r>
       <r>   -32.0080     0.0000     2.0000 </r>
       <r>   -31.8777     0.0000     2.0000 </r>
       <r>   -31.7475     0.0000     2.0000 </r>
       <r>   -31.6172     0.0000     2.0000 </r>
       <r>   -31.4870     0.0000     2.0000 </r>
       <r>   -31.3568     0.1871     2.0244 </r>
       <r>   -31.2265    14.0021     3.8480 </r>
       <r>   -31.0963     1.1670     4.0000 </r>
       <r>   -30.9660     0.0000     4.0000 </r>
       <r>   -30.8358     0.0000     4.0000 </r>
       <r>   -30.7056     0.0000     4.0000 </r>
       <r>   -30.5753     0.0000     4.0000 </r>
       <r>   -30.4451     0.0000     4.0000 </r>
       <r>   -30.3148     0.0000     4.0000 </r>
       <r>   -30.1846     0.0000     4.0000 </r>
       <r>   -30.0544     0.0000     4.0000 </r>
       <r>   -29.9241     0.0000     4.0000 </r>
       <r>   -29.7939     0.0000     4.0000 </r>
       <r>   -29.6636     0.0000     4.0000 </r>
       <r>   -29.5334     0.0000     4.0000 </r>
       <r>   -29.4032     0.0000     4.0000 </r>
       <r>   -29.2729     0.0000     4.0000 </r>
       <r>   -29.1427     0.0000     4.0000 </r>
       <r>   -29.0124     0.0000     4.0000 </r>
       <r>   -28.8822     0.0000     4.0000 </r>
       <r>   -28.7520     0.0000     4.0000 </r>
       <r>   -28.6217     0.0000     4.0000 </r>
       <r>   -28.4915     0.0000     4.0000 </r>
       <r>   -28.3612     0.0000     4.0000 </r>
       <r>   -28.2310     0.0000     4.0000 </r>
       <r>   -28.1008     0.0000     4.0000 </r>
       <r>   -27.9705     0.0000     4.0000 </r>
       <r>   -27.8403     0.0000     4.0000 </r>
       <r>   -27.7100     0.0000     4.0000 </r>
       <r>   -27.5798     0.0000     4.0000 </r>
       <r>   -27.4496     0.0000     4.0000 </r>
       <r>   -27.3193     0.0000     4.0000 </r>
       <r>   -27.1891     0.0000     4.0000 </r>
       <r>   -27.0588     0.0000     4.0000 </r>
       <r>   -26.9286     0.0000     4.0000 </r>
       <r>   -26.7984     0.0000     4.0000 </r>
       <r>   -26.6681     0.0000     4.0000 </r>
       <r>   -26.5379     0.0000     4.0000 </r>
       <r>   -26.4076     0.0000     4.0000 </r>
       <r>   -26.2774     0.0000     4.0000 </r>
       <r>   -26.1472     0.0000     4.0000 </r>
       <r>   -26.0169     0.0000     4.0000 </r>
       <r>   -25.8867     0.0000     4.0000 </r>
       <r>   -25.7564     0.0000     4.0000 </r>
       <r>   -25.6262     0.0000     4.0000 </r>
       <r>   -25.4960     0.0000     4.0000 </r>
       <r>   -25.3657     0.0000     4.0000 </r>
       <r>   -25.2355     0.0000     4.0000 </r>
       <r>   -25.1052     0.0000     4.0000 </r>
       <r>   -24.9750     0.0000     4.0000 </r>
       <r>   -24.8447     0.0000     4.0000 </r>
       <r>   -24.7145     0.0000     4.0000 </r>
       <r>   -24.5843     0.0000     4.0000 </r>
       <r>   -24.4540     0.0000     4.0000 </r>
       <r>   -24.3238     0.0000     4.0000 </r>
       <r>   -24.1935     0.0000     4.0000 </r>
       <r>   -24.0633     0.0000     4.0000 </r>
       <r>   -23.9331     0.0000     4.0000 </r>
       <r>   -23.8028     0.0000     4.0000 </r>
       <r>   -23.6726     0.0000     4.0000 </r>
       <r>   -23.5423     0.0000     4.0000 </r>
       <r>   -23.4121     0.0000     4.0000 </r>
       <r>   -23.2819     0.0000     4.0000 </r>
       <r>   -23.1516     0.0000     4.0000 </r>
       <r>   -23.0214     0.0000     4.0000 </r>
       <r>   -22.8911     0.0000     4.0000 </r>
       <r>   -22.7609     0.0000     4.0000 </r>
       <r>   -22.6307     0.0934     4.0122 </r>
       <r>   -22.5004    13.4244     5.7606 </r>
       <r>   -22.3702     1.8384     6.0000 </r>
       <r>   -22.2399     0.0000     6.0000 </r>
       <r>   -22.1097     0.0000     6.0000 </r>
       <r>   -21.9795     0.0000     6.0000 </r>
       <r>   -21.8492     0.0000     6.0000 </r>
       <r>   -21.7190     0.0000     6.0000 </r>
       <r>   -21.5887     0.0000     6.0000 </r>
       <r>   -21.4585     0.0000     6.0000 </r>
       <r>   -21.3283     0.0000     6.0000 </r>
       <r>   -21.1980     0.0000     6.0000 </r>
       <r>   -21.0678     0.0000     6.0000 </r>
       <r>   -20.9375     0.0000     6.0000 </r>
       <r>   -20.8073     0.0000     6.0000 </r>
       <r>   -20.6771     0.0000     6.0000 </r>
       <r>   -20.5468     0.0000     6.0000 </r>
       <r>   -20.4166     0.0000     6.0000 </r>
       <r>   -20.2863     0.0000     6.0000 </r>
       <r>   -20.1561     0.0000     6.0000 </r>
       <r>   -20.0259     0.0000     6.0000 </r>
       <r>   -19.8956     0.0000     6.0000 </r>
       <r>   -19.7654     0.0000     6.0000 </r>
       <r>   -19.6351     0.0000     6.0000 </r>
       <r>   -19.5049     0.0000     6.0000 </r>
       <r>   -19.3747     0.0000     6.0000 </r>
       <r>   -19.2444     0.0000     6.0000 </r>
       <r>   -19.1142     0.0000     6.0000 </r>
       <r>   -18.9839     0.0000     6.0000 </r>
       <r>   -18.8537     0.0000     6.0000 </r>
       <r>   -18.7235     0.0000     6.0000 </r>
       <r>   -18.5932     0.0000     6.0000 </r>
       <r>   -18.4630     0.0000     6.0000 </r>
       <r>   -18.3327     0.0000     6.0000 </r>
       <r>   -18.2025     0.1502     6.0196 </r>
       <r>   -18.0723    13.8448     7.8227 </r>
       <r>   -17.9420     1.3612     8.0000 </r>
       <r>   -17.8118     0.0000     8.0000 </r>
       <r>   -17.6815     0.0000     8.0000 </r>
       <r>   -17.5513     0.0000     8.0000 </r>
       <r>   -17.4211     0.0000     8.0000 </r>
       <r>   -17.2908     0.0000     8.0000 </r>
       <r>   -17.1606     0.0000     8.0000 </r>
       <r>   -17.0303     0.0000     8.0000 </r>
       <r>   -16.9001     0.0000     8.0000 </r>
       <r>   -16.7699     0.0000     8.0000 </r>
       <r>   -16.6396     0.0002     8.0000 </r>
       <r>   -16.5094     4.5949     8.5985 </r>
       <r>   -16.3791    10.7489     9.9984 </r>
       <r>   -16.2489     0.0122    10.0000 </r>
       <r>   -16.1187     0.0000    10.0000 </r>
       <r>   -15.9884     0.0000    10.0000 </r>
       <r>   -15.8582     0.0000    10.0000 </r>
       <r>   -15.7279     0.0000    10.0000 </r>
       <r>   -15.5977     0.0000    10.0000 </r>
       <r>   -15.4675     0.0000    10.0000 </r>
       <r>   -15.3372     0.0000    10.0000 </r>
       <r>   -15.2070     0.0000    10.0000 </r>
       <r>   -15.0767     0.0000    10.0000 </r>
       <r>   -14.9465     0.0000    10.0000 </r>
       <r>   -14.8163     0.0000    10.0000 </r>
       <r>   -14.6860     0.0000    10.0000 </r>
       <r>   -14.5558     0.0000    10.0000 </r>
       <r>   -14.4255     1.8412    10.2398 </r>
       <r>   -14.2953    13.4219    11.9879 </r>
       <r>   -14.1651     0.3269    12.0304 </r>
       <r>   -14.0348    14.1348    13.8714 </r>
       <r>   -13.9046     0.9878    14.0000 </r>
       <r>   -13.7743     0.0000    14.0000 </r>
       <r>   -13.6441     0.0000    14.0000 </r>
       <r>   -13.5139     0.0000    14.0000 </r>
       <r>   -13.3836     0.0000    14.0000 </r>
       <r>   -13.2534     0.0000    14.0000 </r>
       <r>   -13.1231     0.0000    14.0000 </r>
       <r>   -12.9929     0.0000    14.0000 </r>
       <r>   -12.8627     0.0000    14.0000 </r>
       <r>   -12.7324     0.0000    14.0000 </r>
       <r>   -12.6022     0.0000    14.0000 </r>
       <r>   -12.4719     0.0000    14.0000 </r>
       <r>   -12.3417     0.0030    14.0004 </r>
       <r>   -12.2115     8.4895    15.1061 </r>
       <r>   -12.0812     6.8627    15.9999 </r>
       <r>   -11.9510     0.0010    16.0000 </r>
       <r>   -11.8207     0.0000    16.0000 </r>
       <r>   -11.6905     0.4013    16.0523 </r>
       <r>   -11.5603    14.3302    17.9186 </r>
       <r>   -11.4300     0.6247    18.0000 </r>
       <r>   -11.2998     0.0000    18.0000 </r>
       <r>   -11.1695     0.0000    18.0000 </r>
       <r>   -11.0393     0.0000    18.0000 </r>
       <r>   -10.9091     0.0000    18.0000 </r>
       <r>   -10.7788     0.0000    18.0000 </r>
       <r>   -10.6486     0.0000    18.0000 </r>
       <r>   -10.5183     0.0000    18.0000 </r>
       <r>   -10.3881     0.0000    18.0000 </r>
       <r>   -10.2579     0.0000    18.0000 </r>
       <r>   -10.1276     0.0000    18.0000 </r>
       <r>    -9.9974     0.0000    18.0000 </r>
       <r>    -9.8671     0.0000    18.0000 </r>
       <r>    -9.7369     0.0000    18.0000 </r>
       <r>    -9.6067     0.0000    18.0000 </r>
       <r>    -9.4764     0.0000    18.0000 </r>
       <r>    -9.3462     0.0000    18.0000 </r>
       <r>    -9.2159     0.0000    18.0000 </r>
       <r>    -9.0857     0.0000    18.0000 </r>
       <r>    -8.9555     0.0000    18.0000 </r>
       <r>    -8.8252     0.0000    18.0000 </r>
       <r>    -8.6950     0.0000    18.0000 </r>
       <r>    -8.5647     2.5992    18.3385 </r>
       <r>    -8.4345    12.7079    19.9936 </r>
       <r>    -8.3043     0.0491    20.0000 </r>
       <r>    -8.1740     0.0000    20.0000 </r>
       <r>    -8.0438     0.0000    20.0000 </r>
       <r>    -7.9135     0.0000    20.0000 </r>
       <r>    -7.7833     0.0000    20.0000 </r>
       <r>    -7.6531     0.0000    20.0000 </r>
       <r>    -7.5228     0.0000    20.0000 </r>
       <r>    -7.3926     0.6987    20.0910 </r>
       <r>    -7.2623    14.3058    21.9542 </r>
       <r>    -7.1321     8.8550    23.1075 </r>
       <r>    -7.0019     6.8520    23.9999 </r>
       <r>    -6.8716     0.0010    24.0000 </r>
       <r>    -6.7414     0.0000    24.0000 </r>
       <r>    -6.6111     0.0000    24.0000 </r>
       <r>    -6.4809     0.0000    24.0000 </r>
       <r>    -6.3507     0.0000    24.0000 </r>
       <r>    -6.2204     0.0000    24.0000 </r>
       <r>    -6.0902     0.0000    24.0000 </r>
       <r>    -5.9599     0.0000    24.0000 </r>
       <r>    -5.8297     0.0000    24.0000 </r>
       <r>    -5.6995     0.0000    24.0000 </r>
       <r>    -5.5692     0.0000    24.0000 </r>
       <r>    -5.4390     0.0000    24.0000 </r>
       <r>    -5.3087     0.0000    24.0000 </r>
       <r>    -5.1785     0.0000    24.0000 </r>
       <r>    -5.0482     0.0000    24.0000 </r>
       <r>    -4.9180     0.0027    24.0004 </r>
       <r>    -4.7878     8.3486    25.0877 </r>
       <r>    -4.6575     7.0038    25.9999 </r>
       <r>    -4.5273     0.0011    26.0000 </r>
       <r>    -4.3970     0.0000    26.0000 </r>
       <r>    -4.2668     0.0000    26.0000 </r>
       <r>    -4.1366     0.0000    26.0000 </r>
       <r>    -4.0063     0.0000    26.0000 </r>
       <r>    -3.8761     0.0000    26.0000 </r>
       <r>    -3.7458     0.0000    26.0000 </r>
       <r>    -3.6156     0.0000    26.0000 </r>
       <r>    -3.4854     0.0000    26.0000 </r>
       <r>    -3.3551     0.0000    26.0000 </r>
       <r>    -3.2249     0.0000    26.0000 </r>
       <r>    -3.0946     0.0000    26.0000 </r>
       <r>    -2.9644     0.0000    26.0000 </r>
       <r>    -2.8342     0.0000    26.0000 </r>
       <r>    -2.7039     0.0000    26.0000 </r>
       <r>    -2.5737     0.0000    26.0000 </r>
       <r>    -2.4434     0.0000    26.0000 </r>
       <r>    -2.3132     0.0000    26.0000 </r>
       <r>    -2.1830     0.0000    26.0000 </r>
       <r>    -2.0527     0.0000    26.0000 </r>
       <r>    -1.9225     0.0000    26.0000 </r>
       <r>    -1.7922     0.0000    26.0000 </r>
       <r>    -1.6620     0.0000    26.0000 </r>
       <r>    -1.5318     0.0000    26.0000 </r>
       <r>    -1.4015     0.0019    26.0002 </r>
       <r>    -1.2713     7.7548    27.0102 </r>
       <r>    -1.1410     7.5980    27.9998 </r>
       <r>    -1.0108     0.0017    28.0000 </r>
       <r>    -0.8806     0.0000    28.0000 </r>
       <r>    -0.7503     0.0000    28.0000 </r>
       <r>    -0.6201     0.0000    28.0000 </r>
       <r>    -0.4898     0.0000    28.0000 </r>
       <r>    -0.3596     0.0102    28.0013 </r>
       <r>    -0.2294    10.4617    29.3639 </r>
       <r>    -0.0991     4.8842    30.0000 </r>
       <r>     0.0311     0.0002    30.0000 </r>
       <r>     0.1614     0.0015    30.0002 </r>
       <r>     0.2916     7.3971    30.9636 </r>
       <r>     0.4218    21.0385    33.7036 </r>
       <r>     0.5521    17.4853    35.9809 </r>
       <r>     0.6823     0.1465    36.0000 </r>
       <r>     0.8126     0.0000    36.0000 </r>
       <r>     0.9428     0.0000    36.0000 </r>
       <r>     1.0730     0.0000    36.0000 </r>
       <r>     1.2033     0.0000    36.0000 </r>
       <r>     1.3335     0.0000    36.0000 </r>
       <r>     1.4638     0.0000    36.0000 </r>
       <r>     1.5940     0.0000    36.0000 </r>
       <r>     1.7242     0.0000    36.0000 </r>
       <r>     1.8545     0.0000    36.0000 </r>
       <r>     1.9847     0.0000    36.0000 </r>
       <r>     2.1150     0.0000    36.0000 </r>
       <r>     2.2452     0.0000    36.0000 </r>
      </set>
     </set>
    </array>
   </total>
  </dos>
 </calculation>
 <structure name="finalpos" >
  <crystal>
   <varray name="basis" >
    <v>      14.50000000       0.00000000       0.00000000 </v>
    <v>       0.00000000      14.50000000       0.00000000 </v>
    <v>       0.00000000       0.00000000      14.50000000 </v>
   </varray>
   <i name="volume">   3048.62500000 </i>
   <varray name="rec_basis" >
    <v>       0.06896552       0.00000000       0.00000000 </v>
    <v>       0.00000000       0.06896552       0.00000000 </v>
    <v>       0.00000000       0.00000000       0.06896552 </v>
   </varray>
  </crystal>
  <varray name="positions" >
   <v>       0.00000000       0.00000000       0.00000000 </v>
   <v>       0.08324138       0.00000000       0.00000000 </v>
   <v>       0.00000000       0.00000000       0.11034483 </v>
   <v>       0.08324138       0.00000000       0.11034483 </v>
  </varray>
 </structure>
</modeling>
