         324
 Energy:  -1276.1518438000001      en  -1195.2112138000000      edisp  -80.940629999999999     
 X   0.00000000       0.00000000       0.00000000    
 X   17.1805725       0.00000000       0.00000000    
 X   8.59028721       14.8788118       0.00000000    
 X   0.00000000       0.00000000       36.4000015    
 X   25.7708588       14.8788118       0.00000000    
 X   17.1805725       0.00000000       36.4000015    
 X   8.59028721       14.8788118       36.4000015    
 X   25.7708588       14.8788118       36.4000015    
 Al   11.4537201       6.61281013       2.33798003    
 Al   14.3171396       11.5724096       2.33798003    
 Al   8.59029007       1.65320003       2.33798003    
 Al   17.1805706       6.61281013       2.33798003    
 Al   20.0440006       11.5724096       2.33798003    
 Al   14.3171396       1.65320003       2.33798003    
 Al   5.72686005       6.61281013       2.33798003    
 Al   8.59029007       11.5724096       2.33798003    
 Al   2.86343002       1.65320003       2.33798003    
 Al   14.3171396       8.26601028       4.67596006    
 Al   17.1805706       13.2256098       4.67596006    
 Al   11.4537201       3.30640006       4.67596006    
 Al   20.0440006       8.26601028       4.67596006    
 Al   22.9074306       13.2256098       4.67596006    
 Al   17.1805706       3.30640006       4.67596006    
 Al   8.59029007       8.26601028       4.67596006    
 Al   11.4537201       13.2256098       4.67596006    
 Al   5.72686005       3.30640006       4.67596006    
 Al   17.1805706       9.91921043       7.01393986    
 Al   11.4537201       0.00000000       7.01393986    
 Al   14.3171396       4.95959997       7.01393986    
 Al   5.72686005       9.91921043       7.01393986    
 Al   0.00000000       0.00000000       7.01393986    
 Al   2.86343002       4.95959997       7.01393986    
 Al   11.4537201       9.91921043       7.01393986    
 Al   5.72686005       0.00000000       7.01393986    
 Al   8.59027958       4.95959997       7.01393986    
 Al   20.0440006       11.5724096       9.35192013    
 Al   14.3171396       1.65320003       9.35192013    
 Al   17.1805706       6.61280012       9.35192013    
 Al   8.59029007       11.5724096       9.35192013    
 Al   2.86343002       1.65320003       9.35192013    
 Al   5.72686005       6.61280012       9.35192013    
 Al   14.3171396       11.5724096       9.35192013    
 Al   8.59027958       1.65320003       9.35192013    
 Al   11.4537096       6.61280012       9.35192013    
 Al   22.9074306       13.2256098       11.6899004    
 Al   17.1805706       3.30640006       11.6899004    
 Al   20.0440006       8.26601028       11.6899004    
 Al   11.4537201       13.2256098       11.6899004    
 Al   5.72686005       3.30640006       11.6899004    
 Al   8.59027958       8.26601028       11.6899004    
 Al   17.1805706       13.2256098       11.6899004    
 Al   11.4537096       3.30640006       11.6899004    
 Al   14.3171396       8.26601028       11.6899004    
 Al   0.00000000       0.00000000       14.0278797    
 Al   2.86343002       4.95959997       14.0278797    
 Al   5.72686005       9.91921043       14.0278797    
 Al   5.72686005       0.00000000       14.0278797    
 Al   8.59027958       4.95959997       14.0278797    
 Al   11.4537096       9.91921043       14.0278797    
 Al   11.4537096       0.00000000       14.0278797    
 Al   14.3171396       4.95959997       14.0278797    
 Al   17.1805706       9.91921043       14.0278797    
 Al   2.86343002       1.65320003       16.3658600    
 Al   5.72686005       6.61280012       16.3658600    
 Al   8.59029007       11.5724096       16.3658600    
 Al   8.59027958       1.65320003       16.3658600    
 Al   11.4537096       6.61280012       16.3658600    
 Al   14.3171396       11.5724096       16.3658600    
 Al   14.3171396       1.65320003       16.3658600    
 Al   17.1805706       6.61280012       16.3658600    
 Al   20.0440006       11.5724096       16.3658600    
 Al   7.15856981       4.13299990       2.33798003    
 Al   10.0220003       9.09261036       2.33798003    
 Al   12.8854303       14.0522099       2.33798003    
 Al   12.8854303       4.13299990       2.33798003    
 Al   15.7488604       9.09261036       2.33798003    
 Al   18.6122894       14.0522099       2.33798003    
 Al   18.6122894       4.13299990       2.33798003    
 Al   21.4757195       9.09261036       2.33798003    
 Al   24.3391495       14.0522099       2.33798003    
 Al   10.0220003       5.78620005       4.67596006    
 Al   12.8854303       10.7458096       4.67596006    
 Al   7.15856981      0.826600015       4.67596006    
 Al   15.7488604       5.78620005       4.67596006    
 Al   18.6122894       10.7458096       4.67596006    
 Al   12.8854303      0.826600015       4.67596006    
 Al   4.29513979       5.78620005       4.67596006    
 Al   7.15856981       10.7458096       4.67596006    
 Al   1.43171000      0.826600015       4.67596006    
 Al   12.8854303       7.43941021       7.01393986    
 Al   15.7488604       12.3990097       7.01393986    
 Al   10.0220003       2.47979999       7.01393986    
 Al   18.6122894       7.43941021       7.01393986    
 Al   21.4757195       12.3990097       7.01393986    
 Al   15.7488604       2.47979999       7.01393986    
 Al   7.15856981       7.43941021       7.01393986    
 Al   10.0220003       12.3990097       7.01393986    
 Al   4.29513979       2.47979999       7.01393986    
 Al   15.7488604       9.09261036       9.35192013    
 Al   18.6122894       14.0522099       9.35192013    
 Al   12.8854303       4.13299990       9.35192013    
 Al   21.4757195       9.09261036       9.35192013    
 Al   24.3391495       14.0522099       9.35192013    
 Al   18.6122894       4.13299990       9.35192013    
 Al   10.0220003       9.09261036       9.35192013    
 Al   12.8854303       14.0522099       9.35192013    
 Al   7.15856981       4.13299990       9.35192013    
 Al   18.6122894       10.7458096       11.6899004    
 Al   12.8854303      0.826600015       11.6899004    
 Al   15.7488604       5.78620005       11.6899004    
 Al   7.15856981       10.7458096       11.6899004    
 Al   1.43171000      0.826600015       11.6899004    
 Al   4.29513979       5.78620005       11.6899004    
 Al   12.8854303       10.7458096       11.6899004    
 Al   7.15856981      0.826600015       11.6899004    
 Al   10.0220003       5.78620005       11.6899004    
 Al   21.4757195       12.3990097       14.0278797    
 Al   15.7488604       2.47979999       14.0278797    
 Al   18.6122894       7.43941021       14.0278797    
 Al   10.0220003       12.3990097       14.0278797    
 Al   4.29513979       2.47979999       14.0278797    
 Al   7.15856981       7.43941021       14.0278797    
 Al   15.7488604       12.3990097       14.0278797    
 Al   10.0220003       2.47979999       14.0278797    
 Al   12.8854303       7.43941021       14.0278797    
 Al   24.3391495       14.0522099       16.3658600    
 Al   18.6122894       4.13299990       16.3658600    
 Al   21.4757195       9.09261036       16.3658600    
 Al   12.8854303       14.0522099       16.3658600    
 Al   7.15856981       4.13299990       16.3658600    
 Al   10.0220003       9.09261036       16.3658600    
 Al   18.6122894       14.0522099       16.3658600    
 Al   12.8854303       4.13299990       16.3658600    
 Al   15.7488604       9.09261036       16.3658600    
 Al   8.59029007       6.61281013       2.33798003    
 Al   11.4537201       11.5724096       2.33798003    
 Al   5.72686005       1.65320003       2.33798003    
 Al   14.3171396       6.61281013       2.33798003    
 Al   17.1805706       11.5724096       2.33798003    
 Al   11.4537201       1.65320003       2.33798003    
 Al   20.0440006       6.61281013       2.33798003    
 Al   22.9074306       11.5724096       2.33798003    
 Al   17.1805706       1.65320003       2.33798003    
 Al   11.4537201       8.26601028       4.67596006    
 Al   14.3171396       13.2256098       4.67596006    
 Al   8.59029007       3.30640006       4.67596006    
 Al   17.1805706       8.26601028       4.67596006    
 Al   20.0440006       13.2256098       4.67596006    
 Al   14.3171396       3.30640006       4.67596006    
 Al   5.72686005       8.26601028       4.67596006    
 Al   8.59029007       13.2256098       4.67596006    
 Al   2.86343002       3.30640006       4.67596006    
 Al   14.3171396       9.91921043       7.01393986    
 Al   8.59029007       0.00000000       7.01393986    
 Al   11.4537096       4.95959997       7.01393986    
 Al   20.0440006       9.91921043       7.01393986    
 Al   14.3171396       0.00000000       7.01393986    
 Al   17.1805706       4.95959997       7.01393986    
 Al   8.59029007       9.91921043       7.01393986    
 Al   2.86343002       0.00000000       7.01393986    
 Al   5.72686005       4.95959997       7.01393986    
 Al   17.1805706       11.5724096       9.35192013    
 Al   11.4537201       1.65320003       9.35192013    
 Al   14.3171396       6.61280012       9.35192013    
 Al   22.9074306       11.5724096       9.35192013    
 Al   17.1805706       1.65320003       9.35192013    
 Al   20.0440006       6.61280012       9.35192013    
 Al   11.4537201       11.5724096       9.35192013    
 Al   5.72686005       1.65320003       9.35192013    
 Al   8.59027958       6.61280012       9.35192013    
 Al   20.0440006       13.2256098       11.6899004    
 Al   14.3171396       3.30640006       11.6899004    
 Al   17.1805706       8.26601028       11.6899004    
 Al   8.59029007       13.2256098       11.6899004    
 Al   2.86343002       3.30640006       11.6899004    
 Al   5.72686005       8.26601028       11.6899004    
 Al   14.3171501       13.2256098       11.6899004    
 Al   8.59027958       3.30640006       11.6899004    
 Al   11.4537096       8.26601028       11.6899004    
 Al   14.3171396       0.00000000       14.0278797    
 Al   17.1805706       4.95959997       14.0278797    
 Al   20.0440006       9.91921043       14.0278797    
 Al   2.86343002       0.00000000       14.0278797    
 Al   5.72686005       4.95959997       14.0278797    
 Al   8.59029007       9.91921043       14.0278797    
 Al   8.59027958       0.00000000       14.0278797    
 Al   11.4537096       4.95959997       14.0278797    
 Al   14.3171396       9.91921043       14.0278797    
 Al   17.1805706       1.65320003       16.3658600    
 Al   20.0440006       6.61280012       16.3658600    
 Al   22.9074306       11.5724096       16.3658600    
 Al   5.72686005       1.65320003       16.3658600    
 Al   8.59027958       6.61280012       16.3658600    
 Al   11.4537096       11.5724096       16.3658600    
 Al   11.4537096       1.65320003       16.3658600    
 Al   14.3171396       6.61280012       16.3658600    
 Al   17.1805706       11.5724096       16.3658600    
 Al   10.0220003       4.13299990       2.33798003    
 Al   12.8854303       9.09261036       2.33798003    
 Al   15.7488604       14.0522099       2.33798003    
 Al   15.7488604       4.13299990       2.33798003    
 Al   18.6122894       9.09261036       2.33798003    
 Al   21.4757195       14.0522099       2.33798003    
 Al   4.29513979       4.13299990       2.33798003    
 Al   7.15856981       9.09261036       2.33798003    
 Al   10.0220003       14.0522099       2.33798003    
 Al   12.8854303       5.78620005       4.67596006    
 Al   15.7488604       10.7458096       4.67596006    
 Al   10.0220003      0.826600015       4.67596006    
 Al   18.6122894       5.78620005       4.67596006    
 Al   21.4757195       10.7458096       4.67596006    
 Al   15.7488604      0.826600015       4.67596006    
 Al   7.15856981       5.78620005       4.67596006    
 Al   10.0220003       10.7458096       4.67596006    
 Al   4.29513979      0.826600015       4.67596006    
 Al   15.7488604       7.43941021       7.01393986    
 Al   18.6122894       12.3990097       7.01393986    
 Al   12.8854303       2.47979999       7.01393986    
 Al   4.29513979       7.43941021       7.01393986    
 Al   7.15856981       12.3990097       7.01393986    
 Al   1.43172002       2.47979999       7.01393986    
 Al   10.0220003       7.43941021       7.01393986    
 Al   12.8854303       12.3990097       7.01393986    
 Al   7.15856981       2.47979999       7.01393986    
 Al   18.6122894       9.09261036       9.35192013    
 Al   21.4757195       14.0522099       9.35192013    
 Al   15.7488604       4.13299990       9.35192013    
 Al   7.15856981       9.09261036       9.35192013    
 Al   10.0220003       14.0522099       9.35192013    
 Al   4.29513979       4.13299990       9.35192013    
 Al   12.8854303       9.09261036       9.35192013    
 Al   15.7488604       14.0522099       9.35192013    
 Al   10.0220003       4.13299990       9.35192013    
 Al   21.4757195       10.7458096       11.6899004    
 Al   15.7488604      0.826600015       11.6899004    
 Al   18.6122894       5.78620005       11.6899004    
 Al   10.0220003       10.7458096       11.6899004    
 Al   4.29513979      0.826600015       11.6899004    
 Al   7.15856981       5.78620005       11.6899004    
 Al   15.7488604       10.7458096       11.6899004    
 Al   10.0220003      0.826600015       11.6899004    
 Al   12.8854303       5.78620005       11.6899004    
 Al   7.15856981       12.3990097       14.0278797    
 Al   1.43172002       2.47979999       14.0278797    
 Al   4.29513979       7.43941021       14.0278797    
 Al   12.8854303       12.3990097       14.0278797    
 Al   7.15856981       2.47979999       14.0278797    
 Al   10.0220003       7.43941021       14.0278797    
 Al   18.6122894       12.3990097       14.0278797    
 Al   12.8854303       2.47979999       14.0278797    
 Al   15.7488604       7.43941021       14.0278797    
 Al   10.0220003       14.0522099       16.3658600    
 Al   4.29513979       4.13299990       16.3658600    
 Al   7.15856981       9.09261036       16.3658600    
 Al   15.7488604       14.0522099       16.3658600    
 Al   10.0220003       4.13299990       16.3658600    
 Al   12.8854303       9.09261036       16.3658600    
 Al   21.4757195       14.0522099       16.3658600    
 Al   15.7488604       4.13299990       16.3658600    
 Al   18.6122894       9.09261036       16.3658600    
 O    0.00000000       0.00000000       17.7658596    
 O    1.07378995       1.85985005       17.7658596    
 O    2.14756989       3.71970010       17.7658596    
 O    3.22135997       5.57954979       17.7658596    
 O    4.29513979       7.43941021       17.7658596    
 O    5.36892986       9.29926014       17.7658596    
 O    6.44271994       11.1591101       17.7658596    
 O    7.51650000       13.0189600       17.7658596    
 O    2.14756989       0.00000000       17.7658596    
 O    3.22135997       1.85985005       17.7658596    
 O    4.29513979       3.71970010       17.7658596    
 O    5.36892986       5.57954979       17.7658596    
 O    6.44271994       7.43941021       17.7658596    
 O    7.51650000       9.29926014       17.7658596    
 O    8.59029007       11.1591101       17.7658596    
 O    9.66407013       13.0189600       17.7658596    
 O    4.29513979       0.00000000       17.7658596    
 O    5.36892986       1.85985005       17.7658596    
 O    6.44270992       3.71970010       17.7658596    
 O    7.51650000       5.57954979       17.7658596    
 O    8.59029007       7.43941021       17.7658596    
 O    9.66407013       9.29926014       17.7658596    
 O    10.7378597       11.1591101       17.7658596    
 O    11.8116398       13.0189600       17.7658596    
 O    6.44270992       0.00000000       17.7658596    
 O    7.51650000       1.85985005       17.7658596    
 O    8.59029007       3.71970010       17.7658596    
 O    9.66407013       5.57954979       17.7658596    
 O    10.7378597       7.43941021       17.7658596    
 O    11.8116398       9.29926014       17.7658596    
 O    12.8854303       11.1591101       17.7658596    
 O    13.9592199       13.0189600       17.7658596    
 O    8.59029007       0.00000000       17.7658596    
 O    9.66407013       1.85985005       17.7658596    
 O    10.7378597       3.71970010       17.7658596    
 O    11.8116398       5.57954979       17.7658596    
 O    12.8854303       7.43941021       17.7658596    
 O    13.9592199       9.29926014       17.7658596    
 O    15.0330000       11.1591101       17.7658596    
 O    16.1067905       13.0189600       17.7658596    
 O    10.7378597       0.00000000       17.7658596    
 O    11.8116398       1.85985005       17.7658596    
 O    12.8854303       3.71970010       17.7658596    
 O    13.9592199       5.57954979       17.7658596    
 O    15.0330000       7.43941021       17.7658596    
 O    16.1067905       9.29926014       17.7658596    
 O    17.1805706       11.1591101       17.7658596    
 O    18.2543602       13.0189600       17.7658596    
 O    12.8854303       0.00000000       17.7658596    
 O    13.9592199       1.85985005       17.7658596    
 O    15.0330000       3.71970010       17.7658596    
 O    16.1067905       5.57954979       17.7658596    
 O    17.1805706       7.43941021       17.7658596    
 O    18.2543602       9.29926014       17.7658596    
 O    19.3281403       11.1591101       17.7658596    
 O    20.4019299       13.0189600       17.7658596    
 O    15.0330000       0.00000000       17.7658596    
 O    16.1067905       1.85985005       17.7658596    
 O    17.1805706       3.71970010       17.7658596    
 O    18.2543602       5.57954979       17.7658596    
 O    19.3281403       7.43941021       17.7658596    
 O    20.4019299       9.29926014       17.7658596    
 O    21.4757195       11.1591101       17.7658596    
 O    22.5494995       13.0189600       17.7658596    
         324
 Energy:  -1297.2711329000001      en  -1216.1344329000001      edisp  -81.136700000000005     
 X   0.00000000       0.00000000       0.00000000    
 X   17.1805725       0.00000000       0.00000000    
 X   8.59028721       14.8788118       0.00000000    
 X   0.00000000       0.00000000       36.4000015    
 X   25.7708588       14.8788118       0.00000000    
 X   17.1805725       0.00000000       36.4000015    
 X   8.59028721       14.8788118       36.4000015    
 X   25.7708588       14.8788118       36.4000015    
 Al   11.4535198       6.61268997       2.33932996    
 Al   14.3173304       11.5723000       2.33909988    
 Al   8.59029007       1.65341997       2.33932996    
 Al   17.1805706       6.61301994       2.33909988    
 Al   20.0438099       11.5723000       2.33909988    
 Al   14.3171396       1.65320003       2.33894992    
 Al   5.72704983       6.61268997       2.33932996    
 Al   8.59029007       11.5724096       2.33894992    
 Al   2.86343002       1.65320003       2.33894992    
 Al   14.3171997       8.26603985       4.67835999    
 Al   17.1805706       13.2255402       4.67835999    
 Al   11.4537601       3.30638003       4.67820978    
 Al   20.0439396       8.26603985       4.67835999    
 Al   22.9074993       13.2256498       4.67845011    
 Al   17.1805706       3.30632997       4.67845011    
 Al   8.59029007       8.26605988       4.67820978    
 Al   11.4536505       13.2256498       4.67845011    
 Al   5.72680998       3.30638003       4.67820978    
 Al   17.1805706       9.91921043       7.01415014    
 Al   11.4537697       3.99999990E-05   7.01392984    
 Al   14.3171301       4.95952988       7.01392984    
 Al   5.72692013       9.91923046       7.01392984    
 Al   0.00000000       0.00000000       7.01398993    
 Al   2.86344004       4.95952988       7.01392984    
 Al   11.4536505       9.91923046       7.01392984    
 Al   5.72679996       3.99999990E-05   7.01392984    
 Al   8.59027958       4.95959997       7.01418018    
 Al   20.0440998       11.5724697       9.35179996    
 Al   14.3170605       1.65324998       9.35190964    
 Al   17.1805706       6.61268997       9.35179996    
 Al   8.59029007       11.5723104       9.35190964    
 Al   2.86350989       1.65324998       9.35190964    
 Al   5.72685003       6.61281013       9.35179996    
 Al   14.3170500       11.5724697       9.35179996    
 Al   8.59027958       1.65319002       9.35179996    
 Al   11.4537296       6.61281013       9.35179996    
 Al   22.9074097       13.2256002       11.6900196    
 Al   17.1805706       3.30642009       11.6900196    
 Al   20.0439091       8.26605988       11.6898499    
 Al   11.4537296       13.2256002       11.6900196    
 Al   5.72661018       3.30626011       11.6899595    
 Al   8.59027958       8.26630020       11.6899595    
 Al   17.1805706       13.2255096       11.6898499    
 Al   11.4539604       3.30626011       11.6899595    
 Al   14.3172302       8.26605988       11.6898499    
 Al   0.00000000       0.00000000       14.0290499    
 Al   2.86363006       4.95978022       14.0294199    
 Al   5.72679996       9.91893959       14.0294199    
 Al   5.72710991       7.99999980E-05   14.0294199    
 Al   8.59027958       4.95959997       14.0288696    
 Al   11.4537697       9.91893959       14.0294199    
 Al   11.4534597       7.99999980E-05   14.0294199    
 Al   14.3169498       4.95978022       14.0294199    
 Al   17.1805706       9.91921043       14.0299397    
 Al   2.78084993       1.60553002       16.1354294    
 Al   5.71849012       6.61764002       16.3716202    
 Al   8.59029007       11.6677599       16.1354294    
 Al   8.59027958       1.64354002       16.3716202    
 Al   11.4620800       6.61764002       16.3716202    
 Al   14.2635098       11.6033697       16.3311806    
 Al   14.3997202       1.60553002       16.1354294    
 Al   17.1805706       6.55087996       16.3311806    
 Al   20.0976295       11.6033697       16.3311806    
 Al   7.15838003       4.13289022       2.33909988    
 Al   10.0220003       9.09261036       2.33894992    
 Al   12.8854303       14.0524302       2.33909988    
 Al   12.8854303       4.13299990       2.33894992    
 Al   15.7488604       9.09261036       2.33894992    
 Al   18.6124802       14.0521002       2.33932996    
 Al   18.6124802       4.13289022       2.33909988    
 Al   21.4757195       9.09282970       2.33932996    
 Al   24.3389492       14.0521002       2.33932996    
 Al   10.0220699       5.78624010       4.67845011    
 Al   12.8854303       10.7457304       4.67845011    
 Al   7.15852022      0.826629996       4.67835999    
 Al   15.7487898       5.78624010       4.67845011    
 Al   18.6122398       10.7457800       4.67820978    
 Al   12.8854303      0.826650023       4.67820978    
 Al   4.29513979       5.78613997       4.67835999    
 Al   7.15861988       10.7457800       4.67820978    
 Al   1.43176997      0.826629996       4.67835999    
 Al   12.8854303       7.43941021       7.01398993    
 Al   15.7488699       12.3989401       7.01392984    
 Al   10.0220699       2.47983003       7.01392984    
 Al   18.6122303       7.43944979       7.01392984    
 Al   21.4757195       12.3990097       7.01418018    
 Al   15.7487898       2.47983003       7.01392984    
 Al   7.15862989       7.43944979       7.01392984    
 Al   10.0219898       12.3989401       7.01392984    
 Al   4.29513979       2.47979999       7.01415014    
 Al   15.7489405       9.09265995       9.35190964    
 Al   18.6122799       14.0522203       9.35179996    
 Al   12.8854303       4.13290977       9.35190964    
 Al   21.4757195       9.09259033       9.35179996    
 Al   24.3391609       14.0522203       9.35179996    
 Al   18.6121902       4.13305998       9.35179996    
 Al   10.0219202       9.09265995       9.35190964    
 Al   12.8854303       14.0521002       9.35179996    
 Al   7.15866995       4.13305998       9.35179996    
 Al   18.6120396       10.7456598       11.6899595    
 Al   12.8854303      0.826889992       11.6899595    
 Al   15.7488699       5.78619003       11.6900196    
 Al   7.15882015       10.7456598       11.6899595    
 Al   1.43180001      0.826650023       11.6898499    
 Al   4.29513979       5.78609991       11.6898499    
 Al   12.8854303       10.7458296       11.6900196    
 Al   7.15848017      0.826650023       11.6898499    
 Al   10.0219898       5.78619003       11.6900196    
 Al   21.4757195       12.3990097       14.0288696    
 Al   15.7489204       2.47954011       14.0294199    
 Al   18.6125393       7.43948984       14.0294199    
 Al   10.0218000       12.3991899       14.0294199    
 Al   4.29513979       2.47979999       14.0299397    
 Al   7.15831995       7.43948984       14.0294199    
 Al   15.7490597       12.3991899       14.0294199    
 Al   10.0219402       2.47954011       14.0294199    
 Al   12.8854303       7.43941021       14.0290499    
 Al   24.3475094       14.0570402       16.3716202    
 Al   18.5586491       4.16396999       16.3311806    
 Al   21.4757195       9.08294010       16.3716202    
 Al   12.8854303       13.9902802       16.3311806    
 Al   7.21220016       4.16396999       16.3311806    
 Al   10.1045799       9.04493046       16.1354294    
 Al   18.6039200       14.0570402       16.3716202    
 Al   12.8854303       4.22836018       16.1354294    
 Al   15.6662798       9.04493046       16.1354294    
 Al   8.59029007       6.61301994       2.33909988    
 Al   11.4535303       11.5723000       2.33909988    
 Al   5.72686005       1.65320003       2.33894992    
 Al   14.3173399       6.61268997       2.33932996    
 Al   17.1805706       11.5724096       2.33894992    
 Al   11.4537201       1.65320003       2.33894992    
 Al   20.0438099       6.61268997       2.33932996    
 Al   22.9076195       11.5723000       2.33909988    
 Al   17.1805706       1.65341997       2.33932996    
 Al   11.4536600       8.26603985       4.67835999    
 Al   14.3172102       13.2256498       4.67845011    
 Al   8.59029007       3.30632997       4.67845011    
 Al   17.1805706       8.26605988       4.67820978    
 Al   20.0439396       13.2256498       4.67845011    
 Al   14.3170996       3.30638003       4.67820978    
 Al   5.72691011       8.26603985       4.67835999    
 Al   8.59029007       13.2255402       4.67835999    
 Al   2.86347008       3.30638003       4.67820978    
 Al   14.3172102       9.91923046       7.01392984    
 Al   8.59029007       0.00000000       7.01398993    
 Al   11.4537201       4.95952988       7.01392984    
 Al   20.0439396       9.91923046       7.01392984    
 Al   14.3170900       3.99999990E-05   7.01392984    
 Al   17.1805706       4.95959997       7.01418018    
 Al   8.59029007       9.91921043       7.01415014    
 Al   2.86348009       3.99999990E-05   7.01392984    
 Al   5.72685003       4.95952988       7.01392984    
 Al   17.1805706       11.5723104       9.35190964    
 Al   11.4538002       1.65324998       9.35190964    
 Al   14.3171301       6.61281013       9.35179996    
 Al   22.9073296       11.5724697       9.35179996    
 Al   17.1805706       1.65319002       9.35179996    
 Al   20.0440102       6.61281013       9.35179996    
 Al   11.4538097       11.5724697       9.35179996    
 Al   5.72676992       1.65324998       9.35190964    
 Al   8.59027958       6.61268997       9.35179996    
 Al   20.0440197       13.2256002       11.6900196    
 Al   14.3168898       3.30626011       11.6899595    
 Al   17.1805706       8.26630020       11.6899595    
 Al   8.59029007       13.2255096       11.6898499    
 Al   2.86367989       3.30626011       11.6899595    
 Al   5.72695017       8.26605988       11.6898499    
 Al   14.3171301       13.2256002       11.6900196    
 Al   8.59027958       3.30642009       11.6900196    
 Al   11.4536304       8.26605988       11.6898499    
 Al   14.3174000       7.99999980E-05   14.0294199    
 Al   17.1805706       4.95959997       14.0288696    
 Al   20.0440598       9.91893959       14.0294199    
 Al   2.86316991       7.99999980E-05   14.0294199    
 Al   5.72665977       4.95978022       14.0294199    
 Al   8.59029007       9.91921043       14.0299397    
 Al   8.59027958       0.00000000       14.0290499    
 Al   11.4539099       4.95978022       14.0294199    
 Al   14.3170900       9.91893959       14.0294199    
 Al   17.1805706       1.64354002       16.3716202    
 Al   20.0523701       6.61764002       16.3716202    
 Al   22.8537998       11.6033697       16.3311806    
 Al   5.80944014       1.60553002       16.1354294    
 Al   8.59027958       6.55087996       16.3311806    
 Al   11.5073500       11.6033697       16.3311806    
 Al   11.3711395       1.60553002       16.1354294    
 Al   14.3087797       6.61764002       16.3716202    
 Al   17.1805706       11.6677599       16.1354294    
 Al   10.0221901       4.13289022       2.33909988    
 Al   12.8854303       9.09282970       2.33932996    
 Al   15.7486696       14.0521002       2.33932996    
 Al   15.7486696       4.13289022       2.33909988    
 Al   18.6122799       9.09261036       2.33894992    
 Al   21.4757195       14.0524302       2.33909988    
 Al   4.29513979       4.13299990       2.33894992    
 Al   7.15856981       9.09261036       2.33894992    
 Al   10.0221901       14.0521002       2.33932996    
 Al   12.8854303       5.78613997       4.67835999    
 Al   15.7489004       10.7457800       4.67820978    
 Al   10.0220604      0.826629996       4.67835999    
 Al   18.6123505       5.78624010       4.67845011    
 Al   21.4757195       10.7457304       4.67845011    
 Al   15.7488003      0.826629996       4.67835999    
 Al   7.15851021       5.78624010       4.67845011    
 Al   10.0219603       10.7457800       4.67820978    
 Al   4.29513979      0.826650023       4.67820978    
 Al   15.7489100       7.43944979       7.01392984    
 Al   18.6122799       12.3989401       7.01392984    