<?xml version="1.0" encoding="ISO-8859-1"?>
<modeling>
 <generator>
  <i name="program" type="string">vasp </i>
  <i name="version" type="string">6.2.1  </i>
  <i name="subversion" type="string">16May21 (build May 12 2022 08:28:04) complex                          parallel </i>
  <i name="platform" type="string">LinuxPGI </i>
  <i name="date" type="string">2022 07 12 </i>
  <i name="time" type="string">04:43:04 </i>
 </generator>
 <incar>
  <i type="string" name="SYSTEM">NiAl</i>
  <i type="int" name="ISTART">     0</i>
  <i type="int" name="NELMIN">     6</i>
  <i type="int" name="IBRION">     2</i>
  <i name="EDIFF">      0.00000500</i>
  <i type="int" name="NSW">    40</i>
  <i type="int" name="ISIF">     0</i>
  <i name="ENCUT">    360.00000000</i>
  <i name="POTIM">      0.20000000</i>
  <i type="string" name="LREAL">Auto</i>
  <i type="logical" name="LPLANE"> T  </i>
  <i type="int" name="ISMEAR">     0</i>
  <i name="SIGMA">      0.05000000</i>
  <i type="logical" name="LWAVE"> F  </i>
  <i type="logical" name="LCHARG"> F  </i>
  <i type="int" name="IVDW">    12</i>
 </incar>
 <primitive_cell>
  <structure name="primitive_cell" >
   <crystal>
    <varray name="basis" >
     <v>      -4.29514362      -7.43940584       0.00000000 </v>
     <v>       8.59028625       0.00000000       0.00000000 </v>
     <v>       0.00000000       0.00000000      36.40000000 </v>
    </varray>
    <i name="volume">   2326.20117557 </i>
    <varray name="rec_basis" >
     <v>       0.00000000      -0.13441934       0.00000000 </v>
     <v>       0.11641056      -0.06720968       0.00000000 </v>
     <v>      -0.00000000       0.00000000       0.02747253 </v>
    </varray>
   </crystal>
   <varray name="positions" >
    <v>       0.11111110       0.88888884       0.06423022 </v>
    <v>       0.44444442       0.88888890       0.06423022 </v>
    <v>       0.77777767       0.88888890       0.06423022 </v>
    <v>       0.11111110       0.55555552       0.06423022 </v>
    <v>       0.44444442       0.55555552       0.06423022 </v>
    <v>       0.77777767       0.55555552       0.06423022 </v>
    <v>       0.11111110       0.22222221       0.06423022 </v>
    <v>       0.44444442       0.22222221       0.06423022 </v>
    <v>       0.77777767       0.22222221       0.06423022 </v>
    <v>       0.88888884       0.11111104       0.12846045 </v>
    <v>       0.22222221       0.11111116       0.12846045 </v>
    <v>       0.55555534       0.11111104       0.12846045 </v>
    <v>       0.88888884       0.77777773       0.12846045 </v>
    <v>       0.22222221       0.77777779       0.12846045 </v>
    <v>       0.55555534       0.77777761       0.12846045 </v>
    <v>       0.88888884       0.44444442       0.12846045 </v>
    <v>       0.22222221       0.44444442       0.12846045 </v>
    <v>       0.55555534       0.44444442       0.12846045 </v>
    <v>       0.66666675       0.33333325       0.19269066 </v>
    <v>      -0.00000000       0.33333337       0.19269066 </v>
    <v>       0.33333349       0.33333325       0.19269066 </v>
    <v>       0.66666675       0.00000000       0.19269066 </v>
    <v>      -0.00000000       0.00000000       0.19269066 </v>
    <v>       0.33333349       0.00000000       0.19269066 </v>
    <v>       0.66666675       0.66666675       0.19269066 </v>
    <v>      -0.00000000       0.66666651       0.19269066 </v>
    <v>       0.33333349       0.66666651       0.19269066 </v>
    <v>       0.44444442       0.55555558       0.25692089 </v>
    <v>       0.77777767       0.55555534       0.25692089 </v>
    <v>       0.11111116       0.55555534       0.25692089 </v>
    <v>       0.44444442       0.22222233       0.25692089 </v>
    <v>       0.77777767       0.22222221       0.25692089 </v>
    <v>       0.11111116       0.22222209       0.25692089 </v>
    <v>       0.44444442       0.88888907       0.25692089 </v>
    <v>       0.77777767       0.88888884       0.25692089 </v>
    <v>       0.11111116       0.88888884       0.25692089 </v>
    <v>       0.22222233       0.77777791       0.32115108 </v>
    <v>       0.55555534       0.77777743       0.32115108 </v>
    <v>       0.88888884       0.77777767       0.32115108 </v>
    <v>       0.22222233       0.44444442       0.32115108 </v>
    <v>       0.55555534       0.44444442       0.32115108 </v>
    <v>       0.88888884       0.44444418       0.32115108 </v>
    <v>       0.22222233       0.11111140       0.32115108 </v>
    <v>       0.55555534       0.11111093       0.32115108 </v>
    <v>       0.88888884       0.11111116       0.32115108 </v>
    <v>      -0.00000000       0.00000024       0.38538131 </v>
    <v>       0.33333349       0.00000000       0.38538131 </v>
    <v>       0.66666675       0.00000000       0.38538131 </v>
    <v>      -0.00000000       0.66666675       0.38538131 </v>
    <v>       0.33333349       0.66666651       0.38538131 </v>
    <v>       0.66666675       0.66666651       0.38538131 </v>
    <v>      -0.00000000       0.33333325       0.38538131 </v>
    <v>       0.33333349       0.33333349       0.38538131 </v>
    <v>       0.66666675       0.33333349       0.38538131 </v>
    <v>       0.77777791       0.22222209       0.44961152 </v>
    <v>       0.11111116       0.22222233       0.44961152 </v>
    <v>       0.44444442       0.22222257       0.44961152 </v>
    <v>       0.77777791       0.88888907       0.44961152 </v>
    <v>       0.11111116       0.88888884       0.44961152 </v>
    <v>       0.44444442       0.88888907       0.44961152 </v>
    <v>       0.77777791       0.55555558       0.44961152 </v>
    <v>       0.11111116       0.55555534       0.44961152 </v>
    <v>       0.44444442       0.55555558       0.44961152 </v>
    <v>      -0.00000000       0.00000000       0.48807306 </v>
    <v>       0.75000000       0.00000000       0.48807306 </v>
    <v>       0.50000000       0.00000000       0.48807306 </v>
    <v>       0.25000000       0.00000000       0.48807306 </v>
    <v>      -0.00000000       0.25000000       0.48807306 </v>
    <v>       0.75000000       0.25000000       0.48807306 </v>
    <v>       0.50000000       0.25000000       0.48807306 </v>
    <v>       0.25000000       0.25000000       0.48807306 </v>
    <v>      -0.00000000       0.50000000       0.48807306 </v>
    <v>       0.75000000       0.50000000       0.48807306 </v>
    <v>       0.50000000       0.50000000       0.48807306 </v>
    <v>       0.25000000       0.50000000       0.48807306 </v>
    <v>      -0.00000000       0.75000000       0.48807306 </v>
    <v>       0.75000000       0.75000000       0.48807306 </v>
    <v>       0.50000000       0.75000000       0.48807306 </v>
    <v>       0.25000000       0.75000000       0.48807306 </v>
   </varray>
  </structure>
  <varray name="primitive_index" >
   <v type="int" >        1 </v>
   <v type="int" >      190 </v>
   <v type="int" >      191 </v>
   <v type="int" >      127 </v>
   <v type="int" >       64 </v>
   <v type="int" >       65 </v>
   <v type="int" >      130 </v>
   <v type="int" >       67 </v>
   <v type="int" >       68 </v>
   <v type="int" >       10 </v>
   <v type="int" >      199 </v>
   <v type="int" >       12 </v>
   <v type="int" >      136 </v>
   <v type="int" >       73 </v>
   <v type="int" >      138 </v>
   <v type="int" >       16 </v>
   <v type="int" >      205 </v>
   <v type="int" >       18 </v>
   <v type="int" >       19 </v>
   <v type="int" >      208 </v>
   <v type="int" >       21 </v>
   <v type="int" >      145 </v>
   <v type="int" >       82 </v>
   <v type="int" >      147 </v>
   <v type="int" >       25 </v>
   <v type="int" >      214 </v>
   <v type="int" >       27 </v>
   <v type="int" >       99 </v>
   <v type="int" >       97 </v>
   <v type="int" >      162 </v>
   <v type="int" >       93 </v>
   <v type="int" >       91 </v>
   <v type="int" >      156 </v>
   <v type="int" >      225 </v>
   <v type="int" >      223 </v>
   <v type="int" >       36 </v>
   <v type="int" >      108 </v>
   <v type="int" >      170 </v>
   <v type="int" >      171 </v>
   <v type="int" >      231 </v>
   <v type="int" >       41 </v>
   <v type="int" >       42 </v>
   <v type="int" >      234 </v>
   <v type="int" >       44 </v>
   <v type="int" >       45 </v>
   <v type="int" >      117 </v>
   <v type="int" >      179 </v>
   <v type="int" >      180 </v>
   <v type="int" >      240 </v>
   <v type="int" >       50 </v>
   <v type="int" >       51 </v>
   <v type="int" >      243 </v>
   <v type="int" >       53 </v>
   <v type="int" >       54 </v>
   <v type="int" >      126 </v>
   <v type="int" >      188 </v>
   <v type="int" >      125 </v>
   <v type="int" >      249 </v>
   <v type="int" >       59 </v>
   <v type="int" >      248 </v>
   <v type="int" >      123 </v>
   <v type="int" >      185 </v>
   <v type="int" >      122 </v>
   <v type="int" >      289 </v>
   <v type="int" >      290 </v>
   <v type="int" >      287 </v>
   <v type="int" >      288 </v>
   <v type="int" >      297 </v>
   <v type="int" >      298 </v>
   <v type="int" >      295 </v>
   <v type="int" >      296 </v>
   <v type="int" >      273 </v>
   <v type="int" >      274 </v>
   <v type="int" >      271 </v>
   <v type="int" >      272 </v>
   <v type="int" >      281 </v>
   <v type="int" >      282 </v>
   <v type="int" >      279 </v>
   <v type="int" >      280 </v>
  </varray>
 </primitive_cell>
 <kpoints>
  <generation param="Gamma">
   <v type="int" name="divisions">       2        2        1 </v>
   <v name="usershift">      0.00000000       0.00000000       0.00000000 </v>
   <v name="genvec1">      0.50000000      -0.00000000       0.00000000 </v>
   <v name="genvec2">      0.00000000       0.50000000       0.00000000 </v>
   <v name="genvec3">      0.00000000       0.00000000       1.00000000 </v>
   <v name="shift">      0.00000000       0.00000000       0.00000000 </v>
  </generation>
  <varray name="kpointlist" >
   <v>       0.00000000       0.00000000       0.00000000 </v>
   <v>       0.50000000       0.00000000       0.00000000 </v>
  </varray>
  <varray name="weights" >
   <v>       0.25000000 </v>
   <v>       0.75000000 </v>
  </varray>
 </kpoints>
 <parameters>
  <separator name="general" >
   <i type="string" name="SYSTEM">NiAl</i>
   <i type="logical" name="LCOMPAT"> F  </i>
  </separator>
  <separator name="electronic" >
   <i type="string" name="PREC">normal</i>
   <i name="ENMAX">    360.00000000</i>
   <i name="ENAUG">   1139.60900000</i>
   <i name="EDIFF">      0.00000500</i>
   <i type="int" name="IALGO">    38</i>
   <i type="int" name="IWAVPR">    11</i>
   <i type="int" name="NBANDS">   729</i>
   <i type="int" name="NBANDSLOW">    -1</i>
   <i type="int" name="NBANDSHIGH">    -1</i>
   <i name="NELECT">   1140.00000000</i>
   <i type="int" name="TURBO">     0</i>
   <i type="int" name="IRESTART">     0</i>
   <i type="int" name="NREBOOT">     0</i>
   <i type="int" name="NMIN">     0</i>
   <i name="EREF">      0.00000000</i>
   <separator name="electronic smearing" >
    <i type="int" name="ISMEAR">     0</i>
    <i name="SIGMA">      0.05000000</i>
    <i name="KSPACING">      0.50000000</i>
    <i type="logical" name="KGAMMA"> T  </i>
    <i type="logical" name="KBLOWUP"> T  </i>
   </separator>
   <separator name="electronic projectors" >
    <i type="logical" name="LREAL"> T  </i>
    <v name="ROPT">     -0.00050000     -0.00050000</v>
    <i type="int" name="LMAXPAW">  -100</i>
    <i type="int" name="LMAXMIX">     2</i>
    <i type="logical" name="NLSPLINE"> F  </i>
   </separator>
   <separator name="electronic startup" >
    <i type="int" name="ISTART">     0</i>
    <i type="int" name="ICHARG">     2</i>
    <i type="int" name="INIWAV">     1</i>
   </separator>
   <separator name="electronic spin" >
    <i type="int" name="ISPIN">     1</i>
    <i type="logical" name="LNONCOLLINEAR"> F  </i>
    <v name="MAGMOM">      1.00000000      1.00000000      1.00000000      1.00000000      1.00000000      1.00000000      1.00000000      1.00000000      1.00000000      1.00000000      1.00000000      1.00000000      1.00000000      1.00000000      1.00000000      1.00000000      1.00000000      1.00000000      1.00000000      1.00000000
      1.00000000      1.00000000      1.00000000      1.00000000      1.00000000      1.00000000      1.00000000      1.00000000      1.00000000      1.00000000      1.00000000      1.00000000      1.00000000      1.00000000      1.00000000      1.00000000      1.00000000      1.00000000      1.00000000      1.00000000
      1.00000000      1.00000000      1.00000000      1.00000000      1.00000000      1.00000000      1.00000000      1.00000000      1.00000000      1.00000000      1.00000000      1.00000000      1.00000000      1.00000000      1.00000000      1.00000000      1.00000000      1.00000000      1.00000000      1.00000000
      1.00000000      1.00000000      1.00000000      1.00000000      1.00000000      1.00000000      1.00000000      1.00000000      1.00000000      1.00000000      1.00000000      1.00000000      1.00000000      1.00000000      1.00000000      1.00000000      1.00000000      1.00000000      1.00000000      1.00000000
      1.00000000      1.00000000      1.00000000      1.00000000      1.00000000      1.00000000      1.00000000      1.00000000      1.00000000      1.00000000      1.00000000      1.00000000      1.00000000      1.00000000      1.00000000      1.00000000      1.00000000      1.00000000      1.00000000      1.00000000
      1.00000000      1.00000000      1.00000000      1.00000000      1.00000000      1.00000000      1.00000000      1.00000000      1.00000000      1.00000000      1.00000000      1.00000000      1.00000000      1.00000000      1.00000000      1.00000000      1.00000000      1.00000000      1.00000000      1.00000000
      1.00000000      1.00000000      1.00000000      1.00000000      1.00000000      1.00000000      1.00000000      1.00000000      1.00000000      1.00000000      1.00000000      1.00000000      1.00000000      1.00000000      1.00000000      1.00000000      1.00000000      1.00000000      1.00000000      1.00000000
      1.00000000      1.00000000      1.00000000      1.00000000      1.00000000      1.00000000      1.00000000      1.00000000      1.00000000      1.00000000      1.00000000      1.00000000      1.00000000      1.00000000      1.00000000      1.00000000      1.00000000      1.00000000      1.00000000      1.00000000
      1.00000000      1.00000000      1.00000000      1.00000000      1.00000000      1.00000000      1.00000000      1.00000000      1.00000000      1.00000000      1.00000000      1.00000000      1.00000000      1.00000000      1.00000000      1.00000000      1.00000000      1.00000000      1.00000000      1.00000000
      1.00000000      1.00000000      1.00000000      1.00000000      1.00000000      1.00000000      1.00000000      1.00000000      1.00000000      1.00000000      1.00000000      1.00000000      1.00000000      1.00000000      1.00000000      1.00000000      1.00000000      1.00000000      1.00000000      1.00000000
      1.00000000      1.00000000      1.00000000      1.00000000      1.00000000      1.00000000      1.00000000      1.00000000      1.00000000      1.00000000      1.00000000      1.00000000      1.00000000      1.00000000      1.00000000      1.00000000      1.00000000      1.00000000      1.00000000      1.00000000
      1.00000000      1.00000000      1.00000000      1.00000000      1.00000000      1.00000000      1.00000000      1.00000000      1.00000000      1.00000000      1.00000000      1.00000000      1.00000000      1.00000000      1.00000000      1.00000000      1.00000000      1.00000000      1.00000000      1.00000000
      1.00000000      1.00000000      1.00000000      1.00000000      1.00000000      1.00000000      1.00000000      1.00000000      1.00000000      1.00000000      1.00000000      1.00000000      1.00000000      1.00000000      1.00000000      1.00000000      1.00000000      1.00000000      1.00000000      1.00000000
      1.00000000      1.00000000      1.00000000      1.00000000      1.00000000      1.00000000      1.00000000      1.00000000      1.00000000      1.00000000      1.00000000      1.00000000      1.00000000      1.00000000      1.00000000      1.00000000      1.00000000      1.00000000      1.00000000      1.00000000
      1.00000000      1.00000000      1.00000000      1.00000000      1.00000000      1.00000000      1.00000000      1.00000000      1.00000000      1.00000000      1.00000000      1.00000000      1.00000000      1.00000000      1.00000000      1.00000000      1.00000000      1.00000000      1.00000000      1.00000000
      1.00000000      1.00000000      1.00000000      1.00000000      1.00000000      1.00000000      1.00000000      1.00000000      1.00000000      1.00000000      1.00000000      1.00000000      1.00000000      1.00000000      1.00000000      1.00000000</v>
    <i name="NUPDOWN">     -1.00000000</i>
    <i type="logical" name="LSORBIT"> F  </i>
    <v name="SAXIS">      0.00000000      0.00000000      1.00000000</v>
    <i type="logical" name="LSPIRAL"> F  </i>
    <v name="QSPIRAL">      0.00000000      0.00000000      0.00000000</v>
    <i type="logical" name="LZEROZ"> F  </i>
   </separator>
   <separator name="electronic exchange-correlation" >
    <i type="logical" name="LASPH"> F  </i>
    <i type="logical" name="LMETAGGA"> F  </i>
   </separator>
   <separator name="electronic convergence" >
    <i type="int" name="NELM">    60</i>
    <i type="int" name="NELMDL">    -5</i>
    <i type="int" name="NELMIN">     6</i>
    <i name="ENINI">    360.00000000</i>
    <separator name="electronic convergence detail" >
     <i type="logical" name="LDIAG"> T  </i>
     <i type="logical" name="LSUBROT"> F  </i>
     <i name="WEIMIN">      0.00100000</i>
     <i name="EBREAK">      0.00000000</i>
     <i name="DEPER">      0.30000000</i>
     <i type="int" name="NRMM">     4</i>
     <i name="TIME">      0.40000000</i>
    </separator>
   </separator>
   <separator name="electronic mixer" >
    <i name="AMIX">      0.40000000</i>
    <i name="BMIX">      1.00000000</i>
    <i name="AMIN">      0.10000000</i>
    <i name="AMIX_MAG">      1.60000000</i>
    <i name="BMIX_MAG">      1.00000000</i>
    <separator name="electronic mixer details" >
     <i type="int" name="IMIX">     4</i>
     <i type="logical" name="MIXFIRST"> F  </i>
     <i type="int" name="MAXMIX">   -45</i>
     <i name="WC">    100.00000000</i>
     <i type="int" name="INIMIX">     1</i>
     <i type="int" name="MIXPRE">     1</i>
     <i type="int" name="MREMOVE">     5</i>
    </separator>
   </separator>
   <separator name="electronic dipolcorrection" >
    <i type="logical" name="LDIPOL"> F  </i>
    <i type="logical" name="LMONO"> F  </i>
    <i type="int" name="IDIPOL">     0</i>
    <i name="EPSILON">      1.00000000</i>
    <v name="DIPOL">   -100.00000000   -100.00000000   -100.00000000</v>
    <i name="EFIELD">      0.00000000</i>
   </separator>
  </separator>
  <separator name="grids" >
   <i type="int" name="NGX">    80</i>
   <i type="int" name="NGY">    80</i>
   <i type="int" name="NGZ">   180</i>
   <i type="int" name="NGXF">   160</i>
   <i type="int" name="NGYF">   160</i>
   <i type="int" name="NGZF">   360</i>
   <i type="logical" name="ADDGRID"> F  </i>
  </separator>
  <separator name="ionic" >
   <i type="int" name="NSW">    40</i>
   <i type="int" name="IBRION">     2</i>
   <i type="int" name="MDALGO">     0</i>
   <i type="int" name="ISIF">     0</i>
   <i name="PSTRESS">      0.00000000</i>
   <i name="EDIFFG">      0.00005000</i>
   <i type="int" name="NFREE">     1</i>
   <i name="POTIM">      0.20000000</i>
   <i name="SMASS">     -3.00000000</i>
   <i name="SCALEE">      1.00000000</i>
  </separator>
  <separator name="ionic md" >
   <i name="TEBEG">      0.00010000</i>
   <i name="TEEND">      0.00010000</i>
   <i type="int" name="NBLOCK">     1</i>
   <i type="int" name="KBLOCK">    40</i>
   <i type="int" name="NPACO">   256</i>
   <i name="APACO">     16.00000000</i>
  </separator>
  <separator name="symmetry" >
   <i type="int" name="ISYM">     2</i>
   <i name="SYMPREC">      0.00001000</i>
  </separator>
  <separator name="dos" >
   <i type="int" name="LORBIT">     0</i>
   <v name="RWIGS">     -1.00000000     -1.00000000</v>
   <i type="int" name="NEDOS">   301</i>
   <i name="EMIN">     10.00000000</i>
   <i name="EMAX">    -10.00000000</i>
   <i name="EFERMI">      0.00000000</i>
  </separator>
  <separator name="writing" >
   <i type="int" name="NWRITE">     2</i>
   <i type="logical" name="LWAVE"> F  </i>
   <i type="logical" name="LDOWNSAMPLE"> F  </i>
   <i type="logical" name="LCHARG"> F  </i>
   <i type="logical" name="LPARD"> F  </i>
   <i type="logical" name="LVTOT"> F  </i>
   <i type="logical" name="LVHAR"> F  </i>
   <i type="logical" name="LELF"> F  </i>
   <i type="logical" name="LOPTICS"> F  </i>
   <v name="STM">      0.00000000      0.00000000      0.00000000      0.00000000      0.00000000      0.00000000      0.00000000</v>
  </separator>
  <separator name="performance" >
   <i type="int" name="NPAR">     1</i>
   <i type="int" name="NSIM">     4</i>
   <i type="int" name="NBLK">    -1</i>
   <i type="logical" name="LPLANE"> T  </i>
   <i type="logical" name="LSCALAPACK"> T  </i>
   <i type="logical" name="LSCAAWARE"> F  </i>
   <i type="logical" name="LSCALU"> F  </i>
   <i type="logical" name="LASYNC"> F  </i>
   <i type="logical" name="LORBITALREAL"> F  </i>
  </separator>
  <separator name="miscellaneous" >
   <i type="int" name="IDIOT">     3</i>
   <i type="int" name="PHON_NSTRUCT">    -1</i>
   <i type="logical" name="LMUSIC"> F  </i>
   <v name="POMASS">     26.98200000     16.00000000</v>
   <v name="DARWINR">      0.00000000      0.00000000</v>
   <v name="DARWINV">      1.00000000      1.00000000</v>
   <i type="logical" name="LCORR"> T  </i>
  </separator>
  <i type="logical" name="GGA_COMPAT"> T  </i>
  <i type="logical" name="LBERRY"> F  </i>
  <i type="int" name="ICORELEVEL">     0</i>
  <i type="logical" name="LDAU"> F  </i>
  <i type="int" name="I_CONSTRAINED_M">     0</i>
  <separator name="electronic exchange-correlation" >
   <i type="string" name="GGA">--</i>
   <i type="int" name="VOSKOWN">     0</i>
   <i type="logical" name="LHFCALC"> F  </i>
   <i type="string" name="PRECFOCK"></i>
   <i type="logical" name="LSYMGRAD"> F  </i>
   <i type="logical" name="LHFONE"> F  </i>
   <i type="logical" name="LRHFCALC"> F  </i>
   <i type="logical" name="LTHOMAS"> F  </i>
   <i type="logical" name="LMODELHF"> F  </i>
   <i type="logical" name="LFOCKACE"> F  </i>
   <i name="ENCUT4O">     -1.00000000</i>
   <i type="int" name="EXXOEP">     0</i>
   <i type="int" name="FOURORBIT">     0</i>
   <i name="AEXX">      0.00000000</i>
   <i name="HFALPHA">      0.00000000</i>
   <i name="MCALPHA">      0.00000000</i>
   <i name="ALDAX">      1.00000000</i>
   <i name="AGGAX">      1.00000000</i>
   <i name="ALDAC">      1.00000000</i>
   <i name="AGGAC">      1.00000000</i>
   <i type="int" name="NKREDX">     1</i>
   <i type="int" name="NKREDY">     1</i>
   <i type="int" name="NKREDZ">     1</i>
   <i type="logical" name="SHIFTRED"> F  </i>
   <i type="logical" name="ODDONLY"> F  </i>
   <i type="logical" name="EVENONLY"> F  </i>
   <i type="int" name="LMAXFOCK">     0</i>
   <i type="int" name="NMAXFOCKAE">     0</i>
   <i type="logical" name="LFOCKAEDFT"> F  </i>
   <i name="HFSCREEN">      0.00000000</i>
   <i name="HFSCREENC">      0.00000000</i>
   <i type="int" name="NBANDSGWLOW">     0</i>
  </separator>
  <separator name="vdW DFT" >
   <i type="logical" name="LUSE_VDW"> F  </i>
   <i name="Zab_VDW">     -0.84910000</i>
   <i name="PARAM1">      0.12340000</i>
   <i name="PARAM2">      1.00000000</i>
   <i name="PARAM3">      0.00000000</i>
  </separator>
  <separator name="model GW" >
   <i type="int" name="MODEL_GW">     0</i>
   <i name="MODEL_EPS0">     17.66735070</i>
   <i name="MODEL_ALPHA">      1.00000000</i>
  </separator>
  <separator name="linear response parameters" >
   <i type="logical" name="LEPSILON"> F  </i>
   <i type="logical" name="LRPA"> F  </i>
   <i type="logical" name="LNABLA"> F  </i>
   <i type="logical" name="LVEL"> F  </i>
   <i type="int" name="KINTER">     0</i>
   <i name="CSHIFT">      0.10000000</i>
   <i name="OMEGAMAX">     -1.00000000</i>
   <i name="DEG_THRESHOLD">      0.00200000</i>
   <i name="RTIME">     -0.10000000</i>
   <i name="WPLASMAI">      0.00000000</i>
   <v name="DFIELD">      0.00000000      0.00000000      0.00000000</v>
   <v name="WPLASMA">      0.00000000      0.00000000      0.00000000      0.00000000      0.00000000      0.00000000      0.00000000      0.00000000      0.00000000</v>
  </separator>
  <separator name="orbital magnetization" >
   <i type="logical" name="NUCIND"> F  </i>
   <v name="MAGPOS">      0.00000000      0.00000000      0.00000000</v>
   <i type="logical" name="LNICSALL"> T  </i>
   <i type="logical" name="ORBITALMAG"> F  </i>
   <i type="logical" name="LMAGBLOCH"> F  </i>
   <i type="logical" name="LCHIMAG"> F  </i>
   <i type="logical" name="LGAUGE"> T  </i>
   <i type="int" name="MAGATOM">     0</i>
   <v name="MAGDIPOL">      0.00000000      0.00000000      0.00000000</v>
   <v name="AVECCONST">      0.00000000      0.00000000      0.00000000</v>
  </separator>
  <separator name="response functions" >
   <i type="logical" name="LFINITE_TEMPERATURE"> F  </i>
   <i type="logical" name="LADDER"> F  </i>
   <i type="logical" name="LRPAFORCE"> F  </i>
   <i type="logical" name="LFXC"> F  </i>
   <i type="logical" name="LHARTREE"> T  </i>
   <i type="int" name="IBSE">     0</i>
   <v type="int" name="KPOINT">    -1     0     0     0</v>
   <i type="logical" name="LTCTC"> F  </i>
   <i type="logical" name="LTCTE"> F  </i>
   <i type="logical" name="LTETE"> F  </i>
   <i type="logical" name="LTRIPLET"> F  </i>
   <i type="logical" name="LFXCEPS"> F  </i>
   <i type="logical" name="LFXHEG"> F  </i>
   <i type="int" name="NATURALO">     2</i>
   <i type="logical" name="LHOLEGF"> F  </i>
   <i type="logical" name="L2ORDER"> F  </i>
   <i type="logical" name="LDMP1"> F  </i>
   <i type="logical" name="LMP2LT"> F  </i>
   <i type="logical" name="LSMP2LT"> F  </i>
   <i type="logical" name="LGWLF"> F  </i>
   <i name="ENCUTGW">     -2.00000000</i>
   <i name="ENCUTGWSOFT">     -2.00000000</i>
   <i name="ENCUTLF">     -1.00000000</i>
   <i type="logical" name="LESF_SPLINES"> F  </i>
   <i type="int" name="LMAXMP2">    -1</i>
   <i name="SCISSOR">      0.00000000</i>
   <i type="int" name="NOMEGA">     0</i>
   <i type="int" name="NOMEGAR">     0</i>
   <i type="int" name="NBANDSGW">    -1</i>
   <i type="int" name="NBANDSO">    -1</i>
   <i type="int" name="NBANDSV">    -1</i>
   <i type="int" name="NELM">     1</i>
   <i type="int" name="NELMHF">     1</i>
   <i type="int" name="DIM">     3</i>
   <i type="int" name="IESPILON">     4</i>
   <i type="int" name="ANTIRES">     0</i>
   <i name="OMEGAMAX">    -30.00000000</i>
   <i name="OMEGAMIN">    -30.00000000</i>
   <i name="OMEGATL">   -200.00000000</i>
   <i type="int" name="OMEGAGRID">     0</i>
   <i name="CSHIFT">     -0.10000000</i>
   <i type="logical" name="LSELFENERGY"> F  </i>
   <i type="logical" name="LSPECTRAL"> F  </i>
   <i type="logical" name="LSPECTRALGW"> F  </i>
   <i type="logical" name="LSINGLES"> F  </i>
   <i type="logical" name="LFERMIGW"> F  </i>
   <i type="logical" name="ODDONLYGW"> F  </i>
   <i type="logical" name="EVENONLYGW"> F  </i>
   <i type="int" name="NKREDLFX">     1</i>
   <i type="int" name="NKREDLFY">     1</i>
   <i type="int" name="NKREDLFZ">     1</i>
   <i type="int" name="MAXMEM">  2800</i>
   <i type="int" name="TELESCOPE">     0</i>
   <i type="int" name="NTAUPAR">    -1</i>
   <i type="int" name="NOMEGAPAR">    -1</i>
   <i name="DAMP_NEWTON">      0.80000001</i>
   <i name="LAMBDA">      1.00000000</i>
  </separator>
  <separator name="External order field" >
   <i name="OFIELD_KAPPA">      0.00000000</i>
   <v name="OFIELD_K">      0.00000000      0.00000000      0.00000000</v>
   <i name="OFIELD_Q6_NEAR">      0.00000000</i>
   <i name="OFIELD_Q6_FAR">      0.00000000</i>
   <i name="OFIELD_A">      0.00000000</i>
  </separator>
 </parameters>
 <atominfo>
  <atoms>     316 </atoms>
  <types>       2 </types>
  <array name="atoms" >
   <dimension dim="1">ion</dimension>
   <field type="string">element</field>
   <field type="int">atomtype</field>
   <set>
    <rc><c>Al</c><c>   1</c></rc>
    <rc><c>Al</c><c>   1</c></rc>
    <rc><c>Al</c><c>   1</c></rc>
    <rc><c>Al</c><c>   1</c></rc>
    <rc><c>Al</c><c>   1</c></rc>
    <rc><c>Al</c><c>   1</c></rc>
    <rc><c>Al</c><c>   1</c></rc>
    <rc><c>Al</c><c>   1</c></rc>
    <rc><c>Al</c><c>   1</c></rc>
    <rc><c>Al</c><c>   1</c></rc>
    <rc><c>Al</c><c>   1</c></rc>
    <rc><c>Al</c><c>   1</c></rc>
    <rc><c>Al</c><c>   1</c></rc>
    <rc><c>Al</c><c>   1</c></rc>
    <rc><c>Al</c><c>   1</c></rc>
    <rc><c>Al</c><c>   1</c></rc>
    <rc><c>Al</c><c>   1</c></rc>
    <rc><c>Al</c><c>   1</c></rc>
    <rc><c>Al</c><c>   1</c></rc>
    <rc><c>Al</c><c>   1</c></rc>
    <rc><c>Al</c><c>   1</c></rc>
    <rc><c>Al</c><c>   1</c></rc>
    <rc><c>Al</c><c>   1</c></rc>
    <rc><c>Al</c><c>   1</c></rc>
    <rc><c>Al</c><c>   1</c></rc>
    <rc><c>Al</c><c>   1</c></rc>
    <rc><c>Al</c><c>   1</c></rc>
    <rc><c>Al</c><c>   1</c></rc>
    <rc><c>Al</c><c>   1</c></rc>
    <rc><c>Al</c><c>   1</c></rc>
    <rc><c>Al</c><c>   1</c></rc>
    <rc><c>Al</c><c>   1</c></rc>
    <rc><c>Al</c><c>   1</c></rc>
    <rc><c>Al</c><c>   1</c></rc>
    <rc><c>Al</c><c>   1</c></rc>
    <rc><c>Al</c><c>   1</c></rc>
    <rc><c>Al</c><c>   1</c></rc>
    <rc><c>Al</c><c>   1</c></rc>
    <rc><c>Al</c><c>   1</c></rc>
    <rc><c>Al</c><c>   1</c></rc>
    <rc><c>Al</c><c>   1</c></rc>
    <rc><c>Al</c><c>   1</c></rc>
    <rc><c>Al</c><c>   1</c></rc>
    <rc><c>Al</c><c>   1</c></rc>
    <rc><c>Al</c><c>   1</c></rc>
    <rc><c>Al</c><c>   1</c></rc>
    <rc><c>Al</c><c>   1</c></rc>
    <rc><c>Al</c><c>   1</c></rc>
    <rc><c>Al</c><c>   1</c></rc>
    <rc><c>Al</c><c>   1</c></rc>
    <rc><c>Al</c><c>   1</c></rc>
    <rc><c>Al</c><c>   1</c></rc>
    <rc><c>Al</c><c>   1</c></rc>
    <rc><c>Al</c><c>   1</c></rc>
    <rc><c>Al</c><c>   1</c></rc>
    <rc><c>Al</c><c>   1</c></rc>
    <rc><c>Al</c><c>   1</c></rc>
    <rc><c>Al</c><c>   1</c></rc>
    <rc><c>Al</c><c>   1</c></rc>
    <rc><c>Al</c><c>   1</c></rc>
    <rc><c>Al</c><c>   1</c></rc>
    <rc><c>Al</c><c>   1</c></rc>
    <rc><c>Al</c><c>   1</c></rc>
    <rc><c>Al</c><c>   1</c></rc>
    <rc><c>Al</c><c>   1</c></rc>
    <rc><c>Al</c><c>   1</c></rc>
    <rc><c>Al</c><c>   1</c></rc>
    <rc><c>Al</c><c>   1</c></rc>
    <rc><c>Al</c><c>   1</c></rc>
    <rc><c>Al</c><c>   1</c></rc>
    <rc><c>Al</c><c>   1</c></rc>
    <rc><c>Al</c><c>   1</c></rc>
    <rc><c>Al</c><c>   1</c></rc>
    <rc><c>Al</c><c>   1</c></rc>
    <rc><c>Al</c><c>   1</c></rc>
    <rc><c>Al</c><c>   1</c></rc>
    <rc><c>Al</c><c>   1</c></rc>
    <rc><c>Al</c><c>   1</c></rc>
    <rc><c>Al</c><c>   1</c></rc>
    <rc><c>Al</c><c>   1</c></rc>
    <rc><c>Al</c><c>   1</c></rc>
    <rc><c>Al</c><c>   1</c></rc>
    <rc><c>Al</c><c>   1</c></rc>
    <rc><c>Al</c><c>   1</c></rc>
    <rc><c>Al</c><c>   1</c></rc>
    <rc><c>Al</c><c>   1</c></rc>
    <rc><c>Al</c><c>   1</c></rc>
    <rc><c>Al</c><c>   1</c></rc>
    <rc><c>Al</c><c>   1</c></rc>
    <rc><c>Al</c><c>   1</c></rc>
    <rc><c>Al</c><c>   1</c></rc>
    <rc><c>Al</c><c>   1</c></rc>
    <rc><c>Al</c><c>   1</c></rc>
    <rc><c>Al</c><c>   1</c></rc>
    <rc><c>Al</c><c>   1</c></rc>
    <rc><c>Al</c><c>   1</c></rc>
    <rc><c>Al</c><c>   1</c></rc>
    <rc><c>Al</c><c>   1</c></rc>
    <rc><c>Al</c><c>   1</c></rc>
    <rc><c>Al</c><c>   1</c></rc>
    <rc><c>Al</c><c>   1</c></rc>
    <rc><c>Al</c><c>   1</c></rc>
    <rc><c>Al</c><c>   1</c></rc>
    <rc><c>Al</c><c>   1</c></rc>
    <rc><c>Al</c><c>   1</c></rc>
    <rc><c>Al</c><c>   1</c></rc>
    <rc><c>Al</c><c>   1</c></rc>
    <rc><c>Al</c><c>   1</c></rc>
    <rc><c>Al</c><c>   1</c></rc>
    <rc><c>Al</c><c>   1</c></rc>
    <rc><c>Al</c><c>   1</c></rc>
    <rc><c>Al</c><c>   1</c></rc>
    <rc><c>Al</c><c>   1</c></rc>
    <rc><c>Al</c><c>   1</c></rc>
    <rc><c>Al</c><c>   1</c></rc>
    <rc><c>Al</c><c>   1</c></rc>
    <rc><c>Al</c><c>   1</c></rc>
    <rc><c>Al</c><c>   1</c></rc>
    <rc><c>Al</c><c>   1</c></rc>
    <rc><c>Al</c><c>   1</c></rc>
    <rc><c>Al</c><c>   1</c></rc>
    <rc><c>Al</c><c>   1</c></rc>
    <rc><c>Al</c><c>   1</c></rc>
    <rc><c>Al</c><c>   1</c></rc>
    <rc><c>Al</c><c>   1</c></rc>
    <rc><c>Al</c><c>   1</c></rc>
    <rc><c>Al</c><c>   1</c></rc>
    <rc><c>Al</c><c>   1</c></rc>
    <rc><c>Al</c><c>   1</c></rc>
    <rc><c>Al</c><c>   1</c></rc>
    <rc><c>Al</c><c>   1</c></rc>
    <rc><c>Al</c><c>   1</c></rc>
    <rc><c>Al</c><c>   1</c></rc>
    <rc><c>Al</c><c>   1</c></rc>
    <rc><c>Al</c><c>   1</c></rc>
    <rc><c>Al</c><c>   1</c></rc>
    <rc><c>Al</c><c>   1</c></rc>
    <rc><c>Al</c><c>   1</c></rc>
    <rc><c>Al</c><c>   1</c></rc>
    <rc><c>Al</c><c>   1</c></rc>
    <rc><c>Al</c><c>   1</c></rc>
    <rc><c>Al</c><c>   1</c></rc>
    <rc><c>Al</c><c>   1</c></rc>
    <rc><c>Al</c><c>   1</c></rc>
    <rc><c>Al</c><c>   1</c></rc>
    <rc><c>Al</c><c>   1</c></rc>
    <rc><c>Al</c><c>   1</c></rc>
    <rc><c>Al</c><c>   1</c></rc>
    <rc><c>Al</c><c>   1</c></rc>
    <rc><c>Al</c><c>   1</c></rc>
    <rc><c>Al</c><c>   1</c></rc>
    <rc><c>Al</c><c>   1</c></rc>
    <rc><c>Al</c><c>   1</c></rc>
    <rc><c>Al</c><c>   1</c></rc>
    <rc><c>Al</c><c>   1</c></rc>
    <rc><c>Al</c><c>   1</c></rc>
    <rc><c>Al</c><c>   1</c></rc>
    <rc><c>Al</c><c>   1</c></rc>
    <rc><c>Al</c><c>   1</c></rc>
    <rc><c>Al</c><c>   1</c></rc>
    <rc><c>Al</c><c>   1</c></rc>
    <rc><c>Al</c><c>   1</c></rc>
    <rc><c>Al</c><c>   1</c></rc>
    <rc><c>Al</c><c>   1</c></rc>
    <rc><c>Al</c><c>   1</c></rc>
    <rc><c>Al</c><c>   1</c></rc>
    <rc><c>Al</c><c>   1</c></rc>
    <rc><c>Al</c><c>   1</c></rc>
    <rc><c>Al</c><c>   1</c></rc>
    <rc><c>Al</c><c>   1</c></rc>
    <rc><c>Al</c><c>   1</c></rc>
    <rc><c>Al</c><c>   1</c></rc>
    <rc><c>Al</c><c>   1</c></rc>
    <rc><c>Al</c><c>   1</c></rc>
    <rc><c>Al</c><c>   1</c></rc>
    <rc><c>Al</c><c>   1</c></rc>
    <rc><c>Al</c><c>   1</c></rc>
    <rc><c>Al</c><c>   1</c></rc>
    <rc><c>Al</c><c>   1</c></rc>
    <rc><c>Al</c><c>   1</c></rc>
    <rc><c>Al</c><c>   1</c></rc>
    <rc><c>Al</c><c>   1</c></rc>
    <rc><c>Al</c><c>   1</c></rc>
    <rc><c>Al</c><c>   1</c></rc>
    <rc><c>Al</c><c>   1</c></rc>
    <rc><c>Al</c><c>   1</c></rc>
    <rc><c>Al</c><c>   1</c></rc>
    <rc><c>Al</c><c>   1</c></rc>
    <rc><c>Al</c><c>   1</c></rc>
    <rc><c>Al</c><c>   1</c></rc>
    <rc><c>Al</c><c>   1</c></rc>
    <rc><c>Al</c><c>   1</c></rc>
    <rc><c>Al</c><c>   1</c></rc>
    <rc><c>Al</c><c>   1</c></rc>
    <rc><c>Al</c><c>   1</c></rc>
    <rc><c>Al</c><c>   1</c></rc>
    <rc><c>Al</c><c>   1</c></rc>
    <rc><c>Al</c><c>   1</c></rc>
    <rc><c>Al</c><c>   1</c></rc>
    <rc><c>Al</c><c>   1</c></rc>
    <rc><c>Al</c><c>   1</c></rc>
    <rc><c>Al</c><c>   1</c></rc>
    <rc><c>Al</c><c>   1</c></rc>
    <rc><c>Al</c><c>   1</c></rc>
    <rc><c>Al</c><c>   1</c></rc>
    <rc><c>Al</c><c>   1</c></rc>
    <rc><c>Al</c><c>   1</c></rc>
    <rc><c>Al</c><c>   1</c></rc>
    <rc><c>Al</c><c>   1</c></rc>
    <rc><c>Al</c><c>   1</c></rc>
    <rc><c>Al</c><c>   1</c></rc>
    <rc><c>Al</c><c>   1</c></rc>
    <rc><c>Al</c><c>   1</c></rc>
    <rc><c>Al</c><c>   1</c></rc>
    <rc><c>Al</c><c>   1</c></rc>
    <rc><c>Al</c><c>   1</c></rc>
    <rc><c>Al</c><c>   1</c></rc>
    <rc><c>Al</c><c>   1</c></rc>
    <rc><c>Al</c><c>   1</c></rc>
    <rc><c>Al</c><c>   1</c></rc>
    <rc><c>Al</c><c>   1</c></rc>
    <rc><c>Al</c><c>   1</c></rc>
    <rc><c>Al</c><c>   1</c></rc>
    <rc><c>Al</c><c>   1</c></rc>
    <rc><c>Al</c><c>   1</c></rc>
    <rc><c>Al</c><c>   1</c></rc>
    <rc><c>Al</c><c>   1</c></rc>
    <rc><c>Al</c><c>   1</c></rc>
    <rc><c>Al</c><c>   1</c></rc>
    <rc><c>Al</c><c>   1</c></rc>
    <rc><c>Al</c><c>   1</c></rc>
    <rc><c>Al</c><c>   1</c></rc>
    <rc><c>Al</c><c>   1</c></rc>
    <rc><c>Al</c><c>   1</c></rc>
    <rc><c>Al</c><c>   1</c></rc>
    <rc><c>Al</c><c>   1</c></rc>
    <rc><c>Al</c><c>   1</c></rc>
    <rc><c>Al</c><c>   1</c></rc>
    <rc><c>Al</c><c>   1</c></rc>
    <rc><c>Al</c><c>   1</c></rc>
    <rc><c>Al</c><c>   1</c></rc>
    <rc><c>Al</c><c>   1</c></rc>
    <rc><c>Al</c><c>   1</c></rc>
    <rc><c>Al</c><c>   1</c></rc>
    <rc><c>Al</c><c>   1</c></rc>
    <rc><c>Al</c><c>   1</c></rc>
    <rc><c>Al</c><c>   1</c></rc>
    <rc><c>Al</c><c>   1</c></rc>
    <rc><c>Al</c><c>   1</c></rc>
    <rc><c>Al</c><c>   1</c></rc>
    <rc><c>Al</c><c>   1</c></rc>
    <rc><c>Al</c><c>   1</c></rc>
    <rc><c>O </c><c>   2</c></rc>
    <rc><c>O </c><c>   2</c></rc>
    <rc><c>O </c><c>   2</c></rc>
    <rc><c>O </c><c>   2</c></rc>
    <rc><c>O </c><c>   2</c></rc>
    <rc><c>O </c><c>   2</c></rc>
    <rc><c>O </c><c>   2</c></rc>
    <rc><c>O </c><c>   2</c></rc>
    <rc><c>O </c><c>   2</c></rc>
    <rc><c>O </c><c>   2</c></rc>
    <rc><c>O </c><c>   2</c></rc>
    <rc><c>O </c><c>   2</c></rc>
    <rc><c>O </c><c>   2</c></rc>
    <rc><c>O </c><c>   2</c></rc>
    <rc><c>O </c><c>   2</c></rc>
    <rc><c>O </c><c>   2</c></rc>
    <rc><c>O </c><c>   2</c></rc>
    <rc><c>O </c><c>   2</c></rc>
    <rc><c>O </c><c>   2</c></rc>
    <rc><c>O </c><c>   2</c></rc>
    <rc><c>O </c><c>   2</c></rc>
    <rc><c>O </c><c>   2</c></rc>
    <rc><c>O </c><c>   2</c></rc>
    <rc><c>O </c><c>   2</c></rc>
    <rc><c>O </c><c>   2</c></rc>
    <rc><c>O </c><c>   2</c></rc>
    <rc><c>O </c><c>   2</c></rc>
    <rc><c>O </c><c>   2</c></rc>
    <rc><c>O </c><c>   2</c></rc>
    <rc><c>O </c><c>   2</c></rc>
    <rc><c>O </c><c>   2</c></rc>
    <rc><c>O </c><c>   2</c></rc>
    <rc><c>O </c><c>   2</c></rc>
    <rc><c>O </c><c>   2</c></rc>
    <rc><c>O </c><c>   2</c></rc>
    <rc><c>O </c><c>   2</c></rc>
    <rc><c>O </c><c>   2</c></rc>
    <rc><c>O </c><c>   2</c></rc>
    <rc><c>O </c><c>   2</c></rc>
    <rc><c>O </c><c>   2</c></rc>
    <rc><c>O </c><c>   2</c></rc>
    <rc><c>O </c><c>   2</c></rc>
    <rc><c>O </c><c>   2</c></rc>
    <rc><c>O </c><c>   2</c></rc>
    <rc><c>O </c><c>   2</c></rc>
    <rc><c>O </c><c>   2</c></rc>
    <rc><c>O </c><c>   2</c></rc>
    <rc><c>O </c><c>   2</c></rc>
    <rc><c>O </c><c>   2</c></rc>
    <rc><c>O </c><c>   2</c></rc>
    <rc><c>O </c><c>   2</c></rc>
    <rc><c>O </c><c>   2</c></rc>
    <rc><c>O </c><c>   2</c></rc>
    <rc><c>O </c><c>   2</c></rc>
    <rc><c>O </c><c>   2</c></rc>
    <rc><c>O </c><c>   2</c></rc>
    <rc><c>O </c><c>   2</c></rc>
    <rc><c>O </c><c>   2</c></rc>
    <rc><c>O </c><c>   2</c></rc>
    <rc><c>O </c><c>   2</c></rc>
    <rc><c>O </c><c>   2</c></rc>
    <rc><c>O </c><c>   2</c></rc>
    <rc><c>O </c><c>   2</c></rc>
    <rc><c>O </c><c>   2</c></rc>
   </set>
  </array>
  <array name="atomtypes" >
   <dimension dim="1">type</dimension>
   <field type="int">atomspertype</field>
   <field type="string">element</field>
   <field>mass</field>
   <field>valence</field>
   <field type="string">pseudopotential</field>
   <set>
    <rc><c> 252</c><c>Al</c><c>     26.98200000</c><c>      3.00000000</c><c>  PAW Al_GW 19Mar2012                   </c></rc>
    <rc><c>  64</c><c>O </c><c>     16.00000000</c><c>      6.00000000</c><c>  PAW O_GW 19Mar2012                    </c></rc>
   </set>
  </array>
 </atominfo>
 <structure name="initialpos" >
  <crystal>
   <varray name="basis" >
    <v>      17.18057251       0.00000000       0.00000000 </v>
    <v>       8.59028725      14.87881167       0.00000000 </v>
    <v>       0.00000000       0.00000000      36.40000000 </v>
   </varray>
   <i name="volume">   9304.80470226 </i>
   <varray name="rec_basis" >
    <v>       0.05820528      -0.03360484       0.00000000 </v>
    <v>       0.00000000       0.06720967       0.00000000 </v>
    <v>       0.00000000       0.00000000       0.02747253 </v>
   </varray>
  </crystal>
  <varray name="positions" >
   <v>       0.44444442       0.44444445       0.06423022 </v>
   <v>       0.44444442       0.77777779       0.06423022 </v>
   <v>       0.44444439       0.11111116       0.06423022 </v>
   <v>       0.77777773       0.44444445       0.06423022 </v>
   <v>       0.77777779       0.77777779       0.06423022 </v>
   <v>       0.77777773       0.11111116       0.06423022 </v>
   <v>       0.11111105       0.44444445       0.06423022 </v>
   <v>       0.11111116       0.77777779       0.06423022 </v>
   <v>       0.11111105       0.11111116       0.06423022 </v>
   <v>       0.55555552       0.55555558       0.12846045 </v>
   <v>       0.55555552       0.88888890       0.12846045 </v>
   <v>       0.55555552       0.22222233       0.12846045 </v>
   <v>       0.88888890       0.55555558       0.12846045 </v>
   <v>       0.88888884       0.88888890       0.12846045 </v>
   <v>       0.88888890       0.22222233       0.12846045 </v>
   <v>       0.22222221       0.55555558       0.12846045 </v>
   <v>       0.22222221       0.88888890       0.12846045 </v>
   <v>       0.22222221       0.22222233       0.12846045 </v>
   <v>       0.66666663       0.66666663       0.19269066 </v>
   <v>       0.66666669       0.00000000       0.19269066 </v>
   <v>       0.66666663       0.33333325       0.19269066 </v>
   <v>       0.00000000       0.66666663       0.19269066 </v>
   <v>       0.00000000       0.00000000       0.19269066 </v>
   <v>       0.00000000       0.33333325       0.19269066 </v>
   <v>       0.33333337       0.66666663       0.19269066 </v>
   <v>       0.33333337       0.00000000       0.19269066 </v>
   <v>       0.33333325       0.33333325       0.19269066 </v>
   <v>       0.77777779       0.77777779       0.25692089 </v>
   <v>       0.77777773       0.11111116       0.25692089 </v>
   <v>       0.77777779       0.44444442       0.25692089 </v>
   <v>       0.11111116       0.77777779       0.25692089 </v>
   <v>       0.11111105       0.11111116       0.25692089 </v>
   <v>       0.11111116       0.44444442       0.25692089 </v>
   <v>       0.44444442       0.77777779       0.25692089 </v>
   <v>       0.44444430       0.11111116       0.25692089 </v>
   <v>       0.44444442       0.44444442       0.25692089 </v>
   <v>       0.88888884       0.88888890       0.32115108 </v>
   <v>       0.88888890       0.22222233       0.32115108 </v>
   <v>       0.88888884       0.55555558       0.32115108 </v>
   <v>       0.22222221       0.88888890       0.32115108 </v>
   <v>       0.22222221       0.22222233       0.32115108 </v>
   <v>       0.22222209       0.55555558       0.32115108 </v>
   <v>       0.55555546       0.88888890       0.32115108 </v>
   <v>       0.55555546       0.22222233       0.32115108 </v>
   <v>       0.55555558       0.55555558       0.32115108 </v>
   <v>       0.00000000       0.00000000       0.38538131 </v>
   <v>       0.00000000       0.33333325       0.38538131 </v>
   <v>       0.00000000       0.66666663       0.38538131 </v>
   <v>       0.33333337       0.00000000       0.38538131 </v>
   <v>       0.33333325       0.33333325       0.38538131 </v>
   <v>       0.33333325       0.66666663       0.38538131 </v>
   <v>       0.66666663       0.00000000       0.38538131 </v>
   <v>       0.66666675       0.33333325       0.38538131 </v>
   <v>       0.66666675       0.66666663       0.38538131 </v>
   <v>       0.11111105       0.11111116       0.44961152 </v>
   <v>       0.11111116       0.44444442       0.44961152 </v>
   <v>       0.11111105       0.77777779       0.44961152 </v>
   <v>       0.44444430       0.11111116       0.44961152 </v>
   <v>       0.44444442       0.44444442       0.44961152 </v>
   <v>       0.44444442       0.77777779       0.44961152 </v>
   <v>       0.77777779       0.11111116       0.44961152 </v>
   <v>       0.77777791       0.44444442       0.44961152 </v>
   <v>       0.77777767       0.77777779       0.44961152 </v>
   <v>       0.27777776       0.27777779       0.06423022 </v>
   <v>       0.27777776       0.61111116       0.06423022 </v>
   <v>       0.27777779       0.94444448       0.06423022 </v>
   <v>       0.61111110       0.27777779       0.06423022 </v>
   <v>       0.61111110       0.61111116       0.06423022 </v>
   <v>       0.61111110       0.94444448       0.06423022 </v>
   <v>       0.94444442       0.27777779       0.06423022 </v>
   <v>       0.94444448       0.61111116       0.06423022 </v>
   <v>       0.94444442       0.94444448       0.06423022 </v>
   <v>       0.38888890       0.38888890       0.12846045 </v>
   <v>       0.38888890       0.72222221       0.12846045 </v>
   <v>       0.38888893       0.05555558       0.12846045 </v>
   <v>       0.72222221       0.38888890       0.12846045 </v>
   <v>       0.72222221       0.72222221       0.12846045 </v>
   <v>       0.72222227       0.05555558       0.12846045 </v>
   <v>       0.05555558       0.38888890       0.12846045 </v>
   <v>       0.05555558       0.72222221       0.12846045 </v>
   <v>       0.05555546       0.05555558       0.12846045 </v>
   <v>       0.50000000       0.50000000       0.19269066 </v>
   <v>       0.50000006       0.83333331       0.19269066 </v>
   <v>       0.49999997       0.16666675       0.19269066 </v>
   <v>       0.83333331       0.50000000       0.19269066 </v>
   <v>       0.83333337       0.83333331       0.19269066 </v>
   <v>       0.83333331       0.16666675       0.19269066 </v>
   <v>       0.16666663       0.50000000       0.19269066 </v>
   <v>       0.16666663       0.83333331       0.19269066 </v>
   <v>       0.16666663       0.16666675       0.19269066 </v>
   <v>       0.61111110       0.61111116       0.25692089 </v>
   <v>       0.61111110       0.94444448       0.25692089 </v>
   <v>       0.61111116       0.27777779       0.25692089 </v>
   <v>       0.94444448       0.61111116       0.25692089 </v>
   <v>       0.94444442       0.94444448       0.25692089 </v>
   <v>       0.94444442       0.27777779       0.25692089 </v>
   <v>       0.27777767       0.61111116       0.25692089 </v>
   <v>       0.27777779       0.94444448       0.25692089 </v>
   <v>       0.27777779       0.27777779       0.25692089 </v>
   <v>       0.72222221       0.72222221       0.32115108 </v>
   <v>       0.72222227       0.05555558       0.32115108 </v>
   <v>       0.72222221       0.38888884       0.32115108 </v>
   <v>       0.05555558       0.72222221       0.32115108 </v>
   <v>       0.05555546       0.05555558       0.32115108 </v>
   <v>       0.05555558       0.38888884       0.32115108 </v>
   <v>       0.38888895       0.72222221       0.32115108 </v>
   <v>       0.38888884       0.05555558       0.32115108 </v>
   <v>       0.38888895       0.38888884       0.32115108 </v>
   <v>       0.83333337       0.83333331       0.38538131 </v>
   <v>       0.83333331       0.16666675       0.38538131 </v>
   <v>       0.83333325       0.50000000       0.38538131 </v>
   <v>       0.16666663       0.83333331       0.38538131 </v>
   <v>       0.16666663       0.16666675       0.38538131 </v>
   <v>       0.16666663       0.50000000       0.38538131 </v>
   <v>       0.50000000       0.83333331       0.38538131 </v>
   <v>       0.50000000       0.16666675       0.38538131 </v>
   <v>       0.50000012       0.50000000       0.38538131 </v>
   <v>       0.94444442       0.94444448       0.44961152 </v>
   <v>       0.94444442       0.27777779       0.44961152 </v>
   <v>       0.94444448       0.61111105       0.44961152 </v>
   <v>       0.27777779       0.94444448       0.44961152 </v>
   <v>       0.27777779       0.27777779       0.44961152 </v>
   <v>       0.27777779       0.61111105       0.44961152 </v>
   <v>       0.61111116       0.94444448       0.44961152 </v>
   <v>       0.61111128       0.27777779       0.44961152 </v>
   <v>       0.61111105       0.61111105       0.44961152 </v>
   <v>       0.27777776       0.44444445       0.06423022 </v>
   <v>       0.27777773       0.77777779       0.06423022 </v>
   <v>       0.27777776       0.11111116       0.06423022 </v>
   <v>       0.61111110       0.44444445       0.06423022 </v>
   <v>       0.61111105       0.77777779       0.06423022 </v>
   <v>       0.61111110       0.11111116       0.06423022 </v>
   <v>       0.94444448       0.44444445       0.06423022 </v>
   <v>       0.94444442       0.77777779       0.06423022 </v>
   <v>       0.94444448       0.11111116       0.06423022 </v>
   <v>       0.38888887       0.55555558       0.12846045 </v>
   <v>       0.38888887       0.88888890       0.12846045 </v>
   <v>       0.38888881       0.22222233       0.12846045 </v>
   <v>       0.72222215       0.55555558       0.12846045 </v>
   <v>       0.72222221       0.88888890       0.12846045 </v>
   <v>       0.72222215       0.22222233       0.12846045 </v>
   <v>       0.05555546       0.55555558       0.12846045 </v>
   <v>       0.05555558       0.88888890       0.12846045 </v>
   <v>       0.05555546       0.22222233       0.12846045 </v>
   <v>       0.50000000       0.66666663       0.19269066 </v>
   <v>       0.49999994       0.00000000       0.19269066 </v>
   <v>       0.50000000       0.33333325       0.19269066 </v>
   <v>       0.83333337       0.66666663       0.19269066 </v>
   <v>       0.83333331       0.00000000       0.19269066 </v>
   <v>       0.83333337       0.33333325       0.19269066 </v>
   <v>       0.16666675       0.66666663       0.19269066 </v>
   <v>       0.16666663       0.00000000       0.19269066 </v>
   <v>       0.16666675       0.33333325       0.19269066 </v>
   <v>       0.61111105       0.77777779       0.25692089 </v>
   <v>       0.61111110       0.11111116       0.25692089 </v>
   <v>       0.61111105       0.44444442       0.25692089 </v>
   <v>       0.94444442       0.77777779       0.25692089 </v>
   <v>       0.94444448       0.11111116       0.25692089 </v>
   <v>       0.94444442       0.44444442       0.25692089 </v>
   <v>       0.27777779       0.77777779       0.25692089 </v>
   <v>       0.27777779       0.11111116       0.25692089 </v>
   <v>       0.27777767       0.44444442       0.25692089 </v>
   <v>       0.72222221       0.88888890       0.32115108 </v>
   <v>       0.72222215       0.22222233       0.32115108 </v>
   <v>       0.72222221       0.55555558       0.32115108 </v>
   <v>       0.05555558       0.88888890       0.32115108 </v>
   <v>       0.05555546       0.22222233       0.32115108 </v>
   <v>       0.05555558       0.55555558       0.32115108 </v>
   <v>       0.38888895       0.88888890       0.32115108 </v>
   <v>       0.38888872       0.22222233       0.32115108 </v>
   <v>       0.38888884       0.55555558       0.32115108 </v>
   <v>       0.83333331       0.00000000       0.38538131 </v>
   <v>       0.83333337       0.33333325       0.38538131 </v>
   <v>       0.83333331       0.66666663       0.38538131 </v>
   <v>       0.16666663       0.00000000       0.38538131 </v>
   <v>       0.16666675       0.33333325       0.38538131 </v>
   <v>       0.16666663       0.66666663       0.38538131 </v>
   <v>       0.49999988       0.00000000       0.38538131 </v>
   <v>       0.50000000       0.33333325       0.38538131 </v>
   <v>       0.50000000       0.66666663       0.38538131 </v>
   <v>       0.94444448       0.11111116       0.44961152 </v>
   <v>       0.94444442       0.44444442       0.44961152 </v>
   <v>       0.94444448       0.77777779       0.44961152 </v>
   <v>       0.27777779       0.11111116       0.44961152 </v>
   <v>       0.27777767       0.44444442       0.44961152 </v>
   <v>       0.27777767       0.77777779       0.44961152 </v>
   <v>       0.61111105       0.11111116       0.44961152 </v>
   <v>       0.61111116       0.44444442       0.44961152 </v>
   <v>       0.61111116       0.77777779       0.44961152 </v>
   <v>       0.44444445       0.27777779       0.06423022 </v>
   <v>       0.44444445       0.61111116       0.06423022 </v>
   <v>       0.44444445       0.94444448       0.06423022 </v>
   <v>       0.77777779       0.27777779       0.06423022 </v>
   <v>       0.77777773       0.61111116       0.06423022 </v>
   <v>       0.77777779       0.94444448       0.06423022 </v>
   <v>       0.11111116       0.27777779       0.06423022 </v>
   <v>       0.11111105       0.61111116       0.06423022 </v>
   <v>       0.11111105       0.94444448       0.06423022 </v>
   <v>       0.55555558       0.38888890       0.12846045 </v>
   <v>       0.55555558       0.72222221       0.12846045 </v>
   <v>       0.55555552       0.05555558       0.12846045 </v>
   <v>       0.88888884       0.38888890       0.12846045 </v>
   <v>       0.88888895       0.72222221       0.12846045 </v>
   <v>       0.88888890       0.05555558       0.12846045 </v>
   <v>       0.22222221       0.38888890       0.12846045 </v>
   <v>       0.22222221       0.72222221       0.12846045 </v>
   <v>       0.22222221       0.05555558       0.12846045 </v>
   <v>       0.66666669       0.50000000       0.19269066 </v>
   <v>       0.66666663       0.83333331       0.19269066 </v>
   <v>       0.66666669       0.16666675       0.19269066 </v>
   <v>       0.00000000       0.50000000       0.19269066 </v>
   <v>       0.00000000       0.83333331       0.19269066 </v>
   <v>       0.00000000       0.16666675       0.19269066 </v>
   <v>       0.33333325       0.50000000       0.19269066 </v>
   <v>       0.33333337       0.83333331       0.19269066 </v>
   <v>       0.33333325       0.16666675       0.19269066 </v>
   <v>       0.77777773       0.61111116       0.25692089 </v>
   <v>       0.77777779       0.94444448       0.25692089 </v>
   <v>       0.77777779       0.27777779       0.25692089 </v>
   <v>       0.11111105       0.61111116       0.25692089 </v>
   <v>       0.11111105       0.94444448       0.25692089 </v>
   <v>       0.11111116       0.27777779       0.25692089 </v>
   <v>       0.44444442       0.61111116       0.25692089 </v>
   <v>       0.44444442       0.94444448       0.25692089 </v>
   <v>       0.44444454       0.27777779       0.25692089 </v>
   <v>       0.88888895       0.72222221       0.32115108 </v>
   <v>       0.88888890       0.05555558       0.32115108 </v>
   <v>       0.88888884       0.38888884       0.32115108 </v>
   <v>       0.22222221       0.72222221       0.32115108 </v>
   <v>       0.22222221       0.05555558       0.32115108 </v>
   <v>       0.22222221       0.38888884       0.32115108 </v>
   <v>       0.55555546       0.72222221       0.32115108 </v>
   <v>       0.55555558       0.05555558       0.32115108 </v>
   <v>       0.55555570       0.38888884       0.32115108 </v>
   <v>       0.00000000       0.83333331       0.38538131 </v>
   <v>       0.00000000       0.16666675       0.38538131 </v>
   <v>       0.00000000       0.50000000       0.38538131 </v>
   <v>       0.33333337       0.83333331       0.38538131 </v>
   <v>       0.33333325       0.16666675       0.38538131 </v>
   <v>       0.33333337       0.50000000       0.38538131 </v>
   <v>       0.66666675       0.83333331       0.38538131 </v>
   <v>       0.66666675       0.16666675       0.38538131 </v>
   <v>       0.66666663       0.50000000       0.38538131 </v>
   <v>       0.11111105       0.94444448       0.44961152 </v>
   <v>       0.11111116       0.27777779       0.44961152 </v>
   <v>       0.11111116       0.61111105       0.44961152 </v>
   <v>       0.44444442       0.94444448       0.44961152 </v>
   <v>       0.44444454       0.27777779       0.44961152 </v>
   <v>       0.44444454       0.61111105       0.44961152 </v>
   <v>       0.77777791       0.94444448       0.44961152 </v>
   <v>       0.77777779       0.27777779       0.44961152 </v>
   <v>       0.77777779       0.61111105       0.44961152 </v>
   <v>       0.00000000       0.00000000       0.48807306 </v>
   <v>       0.00000000       0.12500000       0.48807306 </v>
   <v>       0.00000000       0.25000000       0.48807306 </v>
   <v>       0.00000000       0.37500000       0.48807306 </v>
   <v>       0.00000000       0.50000000       0.48807306 </v>
   <v>       0.00000000       0.62500000       0.48807306 </v>
   <v>       0.00000000       0.75000000       0.48807306 </v>
   <v>       0.00000000       0.87500000       0.48807306 </v>
   <v>       0.12500000       0.00000000       0.48807306 </v>
   <v>       0.12500000       0.12500000       0.48807306 </v>
   <v>       0.12500000       0.25000000       0.48807306 </v>
   <v>       0.12500000       0.37500000       0.48807306 </v>
   <v>       0.12500000       0.50000000       0.48807306 </v>
   <v>       0.12500000       0.62500000       0.48807306 </v>
   <v>       0.12500000       0.75000000       0.48807306 </v>
   <v>       0.12500000       0.87500000       0.48807306 </v>
   <v>       0.25000000       0.00000000       0.48807306 </v>
   <v>       0.25000000       0.12500000       0.48807306 </v>
   <v>       0.25000000       0.25000000       0.48807306 </v>
   <v>       0.25000000       0.37500000       0.48807306 </v>
   <v>       0.25000000       0.50000000       0.48807306 </v>
   <v>       0.25000000       0.62500000       0.48807306 </v>
   <v>       0.25000000       0.75000000       0.48807306 </v>
   <v>       0.25000000       0.87500000       0.48807306 </v>
   <v>       0.37500000       0.00000000       0.48807306 </v>
   <v>       0.37500000       0.12500000       0.48807306 </v>
   <v>       0.37500000       0.25000000       0.48807306 </v>
   <v>       0.37500000       0.37500000       0.48807306 </v>
   <v>       0.37500000       0.50000000       0.48807306 </v>
   <v>       0.37500000       0.62500000       0.48807306 </v>
   <v>       0.37500000       0.75000000       0.48807306 </v>
   <v>       0.37500000       0.87500000       0.48807306 </v>
   <v>       0.50000000       0.00000000       0.48807306 </v>
   <v>       0.50000000       0.12500000       0.48807306 </v>
   <v>       0.50000000       0.25000000       0.48807306 </v>
   <v>       0.50000000       0.37500000       0.48807306 </v>
   <v>       0.50000000       0.50000000       0.48807306 </v>
   <v>       0.50000000       0.62500000       0.48807306 </v>
   <v>       0.50000000       0.75000000       0.48807306 </v>
   <v>       0.50000000       0.87500000       0.48807306 </v>
   <v>       0.62500000       0.00000000       0.48807306 </v>
   <v>       0.62500000       0.12500000       0.48807306 </v>
   <v>       0.62500000       0.25000000       0.48807306 </v>
   <v>       0.62500000       0.37500000       0.48807306 </v>
   <v>       0.62500000       0.50000000       0.48807306 </v>
   <v>       0.62500000       0.62500000       0.48807306 </v>
   <v>       0.62500000       0.75000000       0.48807306 </v>
   <v>       0.62500000       0.87500000       0.48807306 </v>
   <v>       0.75000000       0.00000000       0.48807306 </v>
   <v>       0.75000000       0.12500000       0.48807306 </v>
   <v>       0.75000000       0.25000000       0.48807306 </v>
   <v>       0.75000000       0.37500000       0.48807306 </v>
   <v>       0.75000000       0.50000000       0.48807306 </v>
   <v>       0.75000000       0.62500000       0.48807306 </v>
   <v>       0.75000000       0.75000000       0.48807306 </v>
   <v>       0.75000000       0.87500000       0.48807306 </v>
   <v>       0.87500000       0.00000000       0.48807306 </v>
   <v>       0.87500000       0.12500000       0.48807306 </v>
   <v>       0.87500000       0.25000000       0.48807306 </v>
   <v>       0.87500000       0.37500000       0.48807306 </v>
   <v>       0.87500000       0.50000000       0.48807306 </v>
   <v>       0.87500000       0.62500000       0.48807306 </v>
   <v>       0.87500000       0.75000000       0.48807306 </v>
   <v>       0.87500000       0.87500000       0.48807306 </v>
  </varray>
 </structure>
 <calculation>
  <scstep>
   <time name="dav">    8.84    8.90</time>
   <time name="total">    9.44    9.69</time>
   <energy>
    <i name="alphaZ">    703.72117880 </i>
    <i name="ewald"> 316644.99674164 </i>
    <i name="hartreedc">-354941.23299762 </i>
    <i name="XCdc">  -4959.38049468 </i>
    <i name="pawpsdc">  39028.13616808 </i>
    <i name="pawaedc"> -30924.17776778 </i>
    <i name="eentropy">     -0.08658102 </i>
    <i name="bandstr">    180.93499187 </i>
    <i name="atom">  41138.80300413 </i>
    <i name="e_fr_energy">   6871.71424342 </i>
    <i name="e_wo_entrp">   6871.80082444 </i>
    <i name="e_0_energy">   6871.75753393 </i>
   </energy>
  </scstep>
  <scstep>
   <time name="dav">   11.50   11.50</time>
   <time name="total">   11.50   11.50</time>
   <energy>
    <i name="e_fr_energy">    372.50408200 </i>
    <i name="e_wo_entrp">    372.64714873 </i>
    <i name="e_0_energy">    372.57561537 </i>
   </energy>
  </scstep>
  <scstep>
   <time name="dav">   12.82   12.82</time>
   <time name="total">   12.82   12.82</time>
   <energy>
    <i name="e_fr_energy">  -1016.65578484 </i>
    <i name="e_wo_entrp">  -1016.53439236 </i>
    <i name="e_0_energy">  -1016.59508860 </i>
   </energy>
  </scstep>
  <scstep>
   <time name="dav">   11.64   11.65</time>
   <time name="total">   11.65   11.65</time>
   <energy>
    <i name="e_fr_energy">  -1267.91037789 </i>
    <i name="e_wo_entrp">  -1267.70524008 </i>
    <i name="e_0_energy">  -1267.80780898 </i>
   </energy>
  </scstep>
  <scstep>
   <time name="dav">   12.85   12.86</time>
   <time name="total">   13.94   13.95</time>
   <energy>
    <i name="e_fr_energy">  -1340.06218036 </i>
    <i name="e_wo_entrp">  -1339.93847725 </i>
    <i name="e_0_energy">  -1340.00032881 </i>
   </energy>
  </scstep>
  <scstep>
   <time name="dav">   13.94   13.94</time>
   <time name="total">   15.58   15.59</time>
   <energy>
    <i name="e_fr_energy">  -5895.61238576 </i>
    <i name="e_wo_entrp">  -5895.55595133 </i>
    <i name="e_0_energy">  -5895.58416855 </i>
   </energy>
  </scstep>
  <scstep>
   <time name="dav">   13.87   13.87</time>
   <time name="total">   15.53   15.54</time>
   <energy>
    <i name="e_fr_energy">  -1328.32859217 </i>
    <i name="e_wo_entrp">  -1328.23539130 </i>
    <i name="e_0_energy">  -1328.28199174 </i>
   </energy>
  </scstep>
  <scstep>
   <time name="dav">   11.88   11.88</time>
   <time name="total">   13.50   13.50</time>
   <energy>
    <i name="e_fr_energy">  -1356.88143676 </i>
    <i name="e_wo_entrp">  -1356.80634215 </i>
    <i name="e_0_energy">  -1356.84388945 </i>
   </energy>
  </scstep>
  <scstep>
   <time name="dav">   12.14   12.14</time>
   <time name="total">   13.79   13.79</time>
   <energy>
    <i name="e_fr_energy">  -1282.65335632 </i>
    <i name="e_wo_entrp">  -1282.45149262 </i>
    <i name="e_0_energy">  -1282.55242447 </i>
   </energy>
  </scstep>
  <scstep>
   <time name="dav">   11.60   11.60</time>
   <time name="total">   13.27   13.27</time>
   <energy>
    <i name="e_fr_energy">  -1219.83444335 </i>
    <i name="e_wo_entrp">  -1219.60850012 </i>
    <i name="e_0_energy">  -1219.72147174 </i>
   </energy>
  </scstep>
  <scstep>
   <time name="dav">   11.08   11.08</time>
   <time name="total">   12.74   12.74</time>
   <energy>
    <i name="e_fr_energy">  -1223.60591673 </i>
    <i name="e_wo_entrp">  -1223.35291420 </i>
    <i name="e_0_energy">  -1223.47941546 </i>
   </energy>
  </scstep>
  <scstep>
   <time name="dav">   12.41   12.41</time>
   <time name="total">   14.06   14.06</time>
   <energy>
    <i name="e_fr_energy">  -1213.19683956 </i>
    <i name="e_wo_entrp">  -1213.08141205 </i>
    <i name="e_0_energy">  -1213.13912581 </i>
   </energy>
  </scstep>
  <scstep>
   <time name="dav">   11.04   11.05</time>
   <time name="total">   12.71   12.71</time>
   <energy>
    <i name="e_fr_energy">  -1209.02476135 </i>
    <i name="e_wo_entrp">  -1208.85917290 </i>
    <i name="e_0_energy">  -1208.94196713 </i>
   </energy>
  </scstep>
  <scstep>
   <time name="dav">   11.76   11.76</time>
   <time name="total">   13.45   13.45</time>
   <energy>
    <i name="e_fr_energy">  -1198.97257867 </i>
    <i name="e_wo_entrp">  -1198.73914773 </i>
    <i name="e_0_energy">  -1198.85586320 </i>
   </energy>
  </scstep>
  <scstep>
   <time name="dav">   10.22   10.22</time>
   <time name="total">   11.92   11.92</time>
   <energy>
    <i name="e_fr_energy">  -1197.17318513 </i>
    <i name="e_wo_entrp">  -1196.95964027 </i>
    <i name="e_0_energy">  -1197.06641270 </i>
   </energy>
  </scstep>
  <scstep>
   <time name="dav">   11.36   11.36</time>
   <time name="total">   13.07   13.07</time>
   <energy>
    <i name="e_fr_energy">  -1196.10122577 </i>
    <i name="e_wo_entrp">  -1195.91015425 </i>
    <i name="e_0_energy">  -1196.00569001 </i>
   </energy>
  </scstep>
  <scstep>
   <time name="dav">   11.58   11.58</time>
   <time name="total">   13.28   13.28</time>
   <energy>
    <i name="e_fr_energy">  -1195.82227872 </i>
    <i name="e_wo_entrp">  -1195.63850950 </i>
    <i name="e_0_energy">  -1195.73039411 </i>
   </energy>
  </scstep>
  <scstep>
   <time name="dav">   11.62   11.62</time>
   <time name="total">   13.37   13.37</time>
   <energy>
    <i name="e_fr_energy">  -1195.63137581 </i>
    <i name="e_wo_entrp">  -1195.45527967 </i>
    <i name="e_0_energy">  -1195.54332774 </i>
   </energy>
  </scstep>
  <scstep>
   <time name="dav">   10.63   10.63</time>
   <time name="total">   12.38   12.38</time>
   <energy>
    <i name="e_fr_energy">  -1195.35577485 </i>
    <i name="e_wo_entrp">  -1195.18168357 </i>
    <i name="e_0_energy">  -1195.26872921 </i>
   </energy>
  </scstep>
  <scstep>
   <time name="dav">   11.16   11.16</time>
   <time name="total">   12.90   12.90</time>
   <energy>
    <i name="e_fr_energy">  -1195.24698249 </i>
    <i name="e_wo_entrp">  -1195.07384608 </i>
    <i name="e_0_energy">  -1195.16041428 </i>
   </energy>
  </scstep>
  <scstep>
   <time name="dav">   11.89   11.89</time>
   <time name="total">   13.66   13.66</time>
   <energy>
    <i name="e_fr_energy">  -1195.22645392 </i>
    <i name="e_wo_entrp">  -1195.04937377 </i>
    <i name="e_0_energy">  -1195.13791385 </i>
   </energy>
  </scstep>
  <scstep>
   <time name="dav">   12.34   12.35</time>
   <time name="total">   14.14   14.14</time>
   <energy>
    <i name="e_fr_energy">  -1195.22807003 </i>
    <i name="e_wo_entrp">  -1195.04881514 </i>
    <i name="e_0_energy">  -1195.13844258 </i>
   </energy>
  </scstep>
  <scstep>
   <time name="dav">    9.91    9.91</time>
   <time name="total">   11.72   11.72</time>
   <energy>
    <i name="e_fr_energy">  -1195.19552364 </i>
    <i name="e_wo_entrp">  -1195.01502064 </i>
    <i name="e_0_energy">  -1195.10527214 </i>
   </energy>
  </scstep>
  <scstep>
   <time name="dav">   11.73   11.74</time>
   <time name="total">   13.57   13.57</time>
   <energy>
    <i name="e_fr_energy">  -1195.19827057 </i>
    <i name="e_wo_entrp">  -1195.01800660 </i>
    <i name="e_0_energy">  -1195.10813858 </i>
   </energy>
  </scstep>
  <scstep>
   <time name="dav">   11.15   11.16</time>
   <time name="total">   13.00   13.00</time>
   <energy>
    <i name="e_fr_energy">  -1195.20066980 </i>
    <i name="e_wo_entrp">  -1195.01992425 </i>
    <i name="e_0_energy">  -1195.11029702 </i>
   </energy>
  </scstep>
  <scstep>
   <time name="dav">   11.47   11.47</time>
   <time name="total">   13.30   13.31</time>
   <energy>
    <i name="e_fr_energy">  -1195.20489838 </i>
    <i name="e_wo_entrp">  -1195.02430004 </i>
    <i name="e_0_energy">  -1195.11459921 </i>
   </energy>
  </scstep>
  <scstep>
   <time name="dav">   10.89   10.89</time>
   <time name="total">   12.77   12.78</time>
   <energy>
    <i name="e_fr_energy">  -1195.20711894 </i>
    <i name="e_wo_entrp">  -1195.02660347 </i>
    <i name="e_0_energy">  -1195.11686120 </i>
   </energy>
  </scstep>
  <scstep>
   <time name="dav">   11.61   11.61</time>
   <time name="total">   13.52   13.52</time>
   <energy>
    <i name="e_fr_energy">  -1195.20860764 </i>
    <i name="e_wo_entrp">  -1195.02795005 </i>
    <i name="e_0_energy">  -1195.11827885 </i>
   </energy>
  </scstep>
  <scstep>
   <time name="dav">    9.44    9.44</time>
   <time name="total">   11.35   11.35</time>
   <energy>
    <i name="e_fr_energy">  -1195.21029276 </i>
    <i name="e_wo_entrp">  -1195.02971052 </i>
    <i name="e_0_energy">  -1195.12000164 </i>
   </energy>
  </scstep>
  <scstep>
   <time name="dav">    9.33    9.33</time>
   <time name="total">   11.30   11.30</time>
   <energy>
    <i name="e_fr_energy">  -1195.21077402 </i>
    <i name="e_wo_entrp">  -1195.03005010 </i>
    <i name="e_0_energy">  -1195.12041206 </i>
   </energy>
  </scstep>
  <scstep>
   <time name="dav">    8.69    8.69</time>
   <time name="total">   10.66   10.66</time>
   <energy>
    <i name="e_fr_energy">  -1195.21092935 </i>
    <i name="e_wo_entrp">  -1195.03026892 </i>
    <i name="e_0_energy">  -1195.12059913 </i>
   </energy>
  </scstep>
  <scstep>
   <time name="dav">    8.07    8.07</time>
   <time name="total">   10.08   10.08</time>
   <energy>
    <i name="e_fr_energy">  -1195.21106301 </i>
    <i name="e_wo_entrp">  -1195.03041733 </i>
    <i name="e_0_energy">  -1195.12074017 </i>
   </energy>
  </scstep>
  <scstep>
   <time name="dav">    7.18    7.18</time>
   <time name="total">    9.20    9.20</time>
   <energy>
    <i name="e_fr_energy">  -1195.21113108 </i>
    <i name="e_wo_entrp">  -1195.03050759 </i>
    <i name="e_0_energy">  -1195.12081934 </i>
   </energy>
  </scstep>
  <scstep>
   <time name="dav">    6.26    6.26</time>
   <time name="total">    8.33    8.33</time>
   <energy>
    <i name="e_fr_energy">  -1195.21116500 </i>
    <i name="e_wo_entrp">  -1195.03053019 </i>
    <i name="e_0_energy">  -1195.12084760 </i>
   </energy>
  </scstep>
  <scstep>
   <time name="dav">    6.39    6.39</time>
   <time name="total">    8.46    8.46</time>
   <energy>
    <i name="e_fr_energy">  -1195.21119355 </i>
    <i name="e_wo_entrp">  -1195.03056264 </i>
    <i name="e_0_energy">  -1195.12087809 </i>
   </energy>
  </scstep>
  <scstep>
   <time name="dav">    6.10    6.10</time>
   <time name="total">    8.16    8.16</time>
   <energy>
    <i name="e_fr_energy">  -1195.21121135 </i>
    <i name="e_wo_entrp">  -1195.03059206 </i>
    <i name="e_0_energy">  -1195.12090170 </i>
   </energy>
  </scstep>
  <scstep>
   <time name="dav">    6.04    6.04</time>
   <time name="total">    6.62    6.62</time>
   <energy>
    <i name="alphaZ">    703.72117880 </i>
    <i name="ewald"> 316644.99674164 </i>
    <i name="hartreedc">-356563.13436089 </i>
    <i name="XCdc">  -4893.47294426 </i>
    <i name="pawpsdc">  64475.63314237 </i>
    <i name="pawaedc"> -56379.57978202 </i>
    <i name="eentropy">     -0.18061674 </i>
    <i name="bandstr">  -6321.99757686 </i>
    <i name="atom">  41138.80300413 </i>
    <i name="e_fr_energy">  -1195.21121383 </i>
    <i name="e_wo_entrp">  -1195.03059709 </i>
    <i name="e_0_energy">  -1195.12090546 </i>
   </energy>
  </scstep>
  <structure>
   <crystal>
    <varray name="basis" >
     <v>      17.18057251       0.00000000       0.00000000 </v>
     <v>       8.59028725      14.87881167       0.00000000 </v>
     <v>       0.00000000       0.00000000      36.40000000 </v>
    </varray>
    <i name="volume">   9304.80470226 </i>
    <varray name="rec_basis" >
     <v>       0.05820528      -0.03360484       0.00000000 </v>
     <v>       0.00000000       0.06720967       0.00000000 </v>
     <v>       0.00000000       0.00000000       0.02747253 </v>
    </varray>
   </crystal>
   <varray name="positions" >
    <v>       0.44444442       0.44444445       0.06423022 </v>
    <v>       0.44444442       0.77777779       0.06423022 </v>
    <v>       0.44444439       0.11111116       0.06423022 </v>
    <v>       0.77777773       0.44444445       0.06423022 </v>
    <v>       0.77777779       0.77777779       0.06423022 </v>
    <v>       0.77777773       0.11111116       0.06423022 </v>
    <v>       0.11111105       0.44444445       0.06423022 </v>
    <v>       0.11111116       0.77777779       0.06423022 </v>
    <v>       0.11111105       0.11111116       0.06423022 </v>
    <v>       0.55555552       0.55555558       0.12846045 </v>
    <v>       0.55555552       0.88888890       0.12846045 </v>
    <v>       0.55555552       0.22222233       0.12846045 </v>
    <v>       0.88888890       0.55555558       0.12846045 </v>
    <v>       0.88888884       0.88888890       0.12846045 </v>
    <v>       0.88888890       0.22222233       0.12846045 </v>
    <v>       0.22222221       0.55555558       0.12846045 </v>
    <v>       0.22222221       0.88888890       0.12846045 </v>
    <v>       0.22222221       0.22222233       0.12846045 </v>
    <v>       0.66666663       0.66666663       0.19269066 </v>
    <v>       0.66666669       0.00000000       0.19269066 </v>
    <v>       0.66666663       0.33333325       0.19269066 </v>
    <v>       0.00000000       0.66666663       0.19269066 </v>
    <v>       0.00000000       0.00000000       0.19269066 </v>
    <v>       0.00000000       0.33333325       0.19269066 </v>
    <v>       0.33333337       0.66666663       0.19269066 </v>
    <v>       0.33333337       0.00000000       0.19269066 </v>
    <v>       0.33333325       0.33333325       0.19269066 </v>
    <v>       0.77777779       0.77777779       0.25692089 </v>
    <v>       0.77777773       0.11111116       0.25692089 </v>
    <v>       0.77777779       0.44444442       0.25692089 </v>
    <v>       0.11111116       0.77777779       0.25692089 </v>
    <v>       0.11111105       0.11111116       0.25692089 </v>
    <v>       0.11111116       0.44444442       0.25692089 </v>
    <v>       0.44444442       0.77777779       0.25692089 </v>
    <v>       0.44444430       0.11111116       0.25692089 </v>
    <v>       0.44444442       0.44444442       0.25692089 </v>
    <v>       0.88888884       0.88888890       0.32115108 </v>
    <v>       0.88888890       0.22222233       0.32115108 </v>
    <v>       0.88888884       0.55555558       0.32115108 </v>
    <v>       0.22222221       0.88888890       0.32115108 </v>
    <v>       0.22222221       0.22222233       0.32115108 </v>
    <v>       0.22222209       0.55555558       0.32115108 </v>
    <v>       0.55555546       0.88888890       0.32115108 </v>
    <v>       0.55555546       0.22222233       0.32115108 </v>
    <v>       0.55555558       0.55555558       0.32115108 </v>
    <v>       0.00000000       0.00000000       0.38538131 </v>
    <v>       0.00000000       0.33333325       0.38538131 </v>
    <v>       0.00000000       0.66666663       0.38538131 </v>
    <v>       0.33333337       0.00000000       0.38538131 </v>
    <v>       0.33333325       0.33333325       0.38538131 </v>
    <v>       0.33333325       0.66666663       0.38538131 </v>
    <v>       0.66666663       0.00000000       0.38538131 </v>
    <v>       0.66666675       0.33333325       0.38538131 </v>
    <v>       0.66666675       0.66666663       0.38538131 </v>
    <v>       0.11111105       0.11111116       0.44961152 </v>
    <v>       0.11111116       0.44444442       0.44961152 </v>
    <v>       0.11111105       0.77777779       0.44961152 </v>
    <v>       0.44444430       0.11111116       0.44961152 </v>
    <v>       0.44444442       0.44444442       0.44961152 </v>
    <v>       0.44444442       0.77777779       0.44961152 </v>
    <v>       0.77777779       0.11111116       0.44961152 </v>
    <v>       0.77777791       0.44444442       0.44961152 </v>
    <v>       0.77777767       0.77777779       0.44961152 </v>
    <v>       0.27777776       0.27777779       0.06423022 </v>
    <v>       0.27777776       0.61111116       0.06423022 </v>
    <v>       0.27777779       0.94444448       0.06423022 </v>
    <v>       0.61111110       0.27777779       0.06423022 </v>
    <v>       0.61111110       0.61111116       0.06423022 </v>
    <v>       0.61111110       0.94444448       0.06423022 </v>
    <v>       0.94444442       0.27777779       0.06423022 </v>
    <v>       0.94444448       0.61111116       0.06423022 </v>
    <v>       0.94444442       0.94444448       0.06423022 </v>
    <v>       0.38888890       0.38888890       0.12846045 </v>
    <v>       0.38888890       0.72222221       0.12846045 </v>
    <v>       0.38888893       0.05555558       0.12846045 </v>
    <v>       0.72222221       0.38888890       0.12846045 </v>
    <v>       0.72222221       0.72222221       0.12846045 </v>
    <v>       0.72222227       0.05555558       0.12846045 </v>
    <v>       0.05555558       0.38888890       0.12846045 </v>
    <v>       0.05555558       0.72222221       0.12846045 </v>
    <v>       0.05555546       0.05555558       0.12846045 </v>
    <v>       0.50000000       0.50000000       0.19269066 </v>
    <v>       0.50000006       0.83333331       0.19269066 </v>
    <v>       0.49999997       0.16666675       0.19269066 </v>
    <v>       0.83333331       0.50000000       0.19269066 </v>
    <v>       0.83333337       0.83333331       0.19269066 </v>
    <v>       0.83333331       0.16666675       0.19269066 </v>
    <v>       0.16666663       0.50000000       0.19269066 </v>
    <v>       0.16666663       0.83333331       0.19269066 </v>
    <v>       0.16666663       0.16666675       0.19269066 </v>
    <v>       0.61111110       0.61111116       0.25692089 </v>
    <v>       0.61111110       0.94444448       0.25692089 </v>
    <v>       0.61111116       0.27777779       0.25692089 </v>
    <v>       0.94444448       0.61111116       0.25692089 </v>
    <v>       0.94444442       0.94444448       0.25692089 </v>
    <v>       0.94444442       0.27777779       0.25692089 </v>
    <v>       0.27777767       0.61111116       0.25692089 </v>
    <v>       0.27777779       0.94444448       0.25692089 </v>
    <v>       0.27777779       0.27777779       0.25692089 </v>
    <v>       0.72222221       0.72222221       0.32115108 </v>
    <v>       0.72222227       0.05555558       0.32115108 </v>
    <v>       0.72222221       0.38888884       0.32115108 </v>
    <v>       0.05555558       0.72222221       0.32115108 </v>
    <v>       0.05555546       0.05555558       0.32115108 </v>
    <v>       0.05555558       0.38888884       0.32115108 </v>
    <v>       0.38888895       0.72222221       0.32115108 </v>
    <v>       0.38888884       0.05555558       0.32115108 </v>
    <v>       0.38888895       0.38888884       0.32115108 </v>
    <v>       0.83333337       0.83333331       0.38538131 </v>
    <v>       0.83333331       0.16666675       0.38538131 </v>
    <v>       0.83333325       0.50000000       0.38538131 </v>
    <v>       0.16666663       0.83333331       0.38538131 </v>
    <v>       0.16666663       0.16666675       0.38538131 </v>
    <v>       0.16666663       0.50000000       0.38538131 </v>
    <v>       0.50000000       0.83333331       0.38538131 </v>
    <v>       0.50000000       0.16666675       0.38538131 </v>
    <v>       0.50000012       0.50000000       0.38538131 </v>
    <v>       0.94444442       0.94444448       0.44961152 </v>
    <v>       0.94444442       0.27777779       0.44961152 </v>
    <v>       0.94444448       0.61111105       0.44961152 </v>
[...]
  </crystal>
  <varray name="positions" >
   <v>       0.44534249       0.44534252       0.06820835 </v>
   <v>       0.44535019       0.77732491       0.06876727 </v>
   <v>       0.44534246       0.10931502       0.06820835 </v>
   <v>       0.77732485       0.44535022       0.06876727 </v>
   <v>       0.77732491       0.77732491       0.06876727 </v>
   <v>       0.77760423       0.11119791       0.06791720 </v>
   <v>       0.10931490       0.44534252       0.06820835 </v>
   <v>       0.11119791       0.77760429       0.06791720 </v>
   <v>       0.11119780       0.11119791       0.06791720 </v>
   <v>       0.55538207       0.55538213       0.13198965 </v>
   <v>       0.55538207       0.88923581       0.13198965 </v>
   <v>       0.55645965       0.22177026       0.13195515 </v>
   <v>       0.88923581       0.55538213       0.13198965 </v>
   <v>       0.88925508       0.88925514       0.13231069 </v>
   <v>       0.88925514       0.22148983       0.13231069 </v>
   <v>       0.22177015       0.55645971       0.13195515 </v>
   <v>       0.22148971       0.88925514       0.13231069 </v>
   <v>       0.22177015       0.22177026       0.13195515 </v>
   <v>       0.66666663       0.66666663       0.19463793 </v>
   <v>       0.66560121       0.00086639       0.19438085 </v>
   <v>       0.66560115       0.33353234       0.19438085 </v>
   <v>       0.00086639       0.66560115       0.19438085 </v>
   <v>       0.00000000      -0.00000000       0.19425940 </v>
   <v>       0.00086639       0.33353234       0.19438085 </v>
   <v>       0.33353246       0.66560115       0.19438085 </v>
   <v>       0.33353246       0.00086639       0.19438085 </v>
   <v>       0.33333325       0.33333325       0.19439501 </v>
   <v>       0.77696240       0.77696240       0.25596214 </v>
   <v>       0.77733183       0.11133411       0.25651804 </v>
   <v>       0.77696240       0.44607519       0.25596214 </v>
   <v>       0.11133411       0.77733189       0.25651804 </v>
   <v>       0.11133399       0.11133411       0.25651804 </v>
   <v>       0.10989392       0.44505304       0.25526015 </v>
   <v>       0.44607519       0.77696240       0.25596214 </v>
   <v>       0.44505292       0.10989392       0.25526015 </v>
   <v>       0.44505304       0.44505304       0.25526015 </v>
   <v>       0.89272547       0.89272553       0.31511418 </v>
   <v>       0.89272553       0.21454905       0.31511418 </v>
   <v>       0.89240772       0.55379614       0.31612644 </v>
   <v>       0.21454894       0.89272553       0.31511418 </v>
   <v>       0.22065630       0.22065642       0.31655954 </v>
   <v>       0.22065618       0.55868740       0.31655954 </v>
   <v>       0.55379602       0.89240778       0.31612644 </v>
   <v>       0.55868728       0.22065642       0.31655954 </v>
   <v>       0.55379614       0.55379614       0.31612644 </v>
   <v>       0.00000000      -0.00000000       0.38109675 </v>
   <v>       0.00506712       0.32939314       0.37794691 </v>
   <v>       0.00506712       0.66553963       0.37794691 </v>
   <v>       0.32939326       0.00506712       0.37794691 </v>
   <v>       0.33333325       0.33333325       0.36783219 </v>
   <v>       0.32939314       0.66553963       0.37794691 </v>
   <v>       0.66553963       0.00506712       0.37794691 </v>
   <v>       0.66553975       0.32939314       0.37794691 </v>
   <v>       0.66666675       0.66666663       0.38761628 </v>
   <v>       0.11543871       0.11543883       0.48462806 </v>
   <v>       0.12154775       0.43922613       0.45819896 </v>
   <v>       0.11543871       0.76912245       0.48462806 </v>
   <v>       0.43922601       0.12154775       0.45819896 </v>
   <v>       0.43922613       0.43922613       0.45819896 </v>
   <v>       0.46292659       0.76853671       0.44018880 </v>
   <v>       0.76912245       0.11543883       0.48462806 </v>
   <v>       0.76853683       0.46292659       0.44018880 </v>
   <v>       0.76853659       0.76853671       0.44018880 </v>
   <v>       0.27732488       0.27732491       0.06876727 </v>
   <v>       0.27760426       0.61119791       0.06791720 </v>
   <v>       0.27732491       0.94535025       0.06876727 </v>
   <v>       0.61119785       0.27760429       0.06791720 </v>
   <v>       0.61119785       0.61119791       0.06791720 </v>
   <v>       0.60931496       0.94534255       0.06820835 </v>
   <v>       0.94535019       0.27732491       0.06876727 </v>
   <v>       0.94534255       0.60931502       0.06820835 </v>
   <v>       0.94534249       0.94534255       0.06820835 </v>
   <v>       0.38925514       0.38925514       0.13231069 </v>
   <v>       0.38925514       0.72148971       0.13231069 </v>
   <v>       0.38923584       0.05538213       0.13198965 </v>
   <v>       0.72148971       0.38925514       0.13231069 </v>
   <v>       0.72177015       0.72177015       0.13195515 </v>
   <v>       0.72177021       0.05645971       0.13195515 </v>
   <v>       0.05538213       0.38923581       0.13198965 </v>
   <v>       0.05645971       0.72177015       0.13195515 </v>
   <v>       0.05538201       0.05538213       0.13198965 </v>
   <v>       0.50000000       0.50000000       0.19425940 </v>
   <v>       0.50086645       0.83353240       0.19438085 </v>
   <v>       0.50086636       0.16560127       0.19438085 </v>
   <v>       0.83353240       0.50086639       0.19438085 </v>
   <v>       0.83333337       0.83333331       0.19439501 </v>
   <v>       0.83353240       0.16560127       0.19438085 </v>
   <v>       0.16560115       0.50086639       0.19438085 </v>
   <v>       0.16560115       0.83353240       0.19438085 </v>
   <v>       0.16666663       0.16666675       0.19463793 </v>
   <v>       0.61133405       0.61133411       0.25651804 </v>
   <v>       0.60989386       0.94505310       0.25526015 </v>
   <v>       0.61133411       0.27733189       0.25651804 </v>
   <v>       0.94505310       0.60989392       0.25526015 </v>
   <v>       0.94505304       0.94505310       0.25526015 </v>
   <v>       0.94607519       0.27696240       0.25596214 </v>
   <v>       0.27733178       0.61133411       0.25651804 </v>
   <v>       0.27696240       0.94607525       0.25596214 </v>
   <v>       0.27696240       0.27696240       0.25596214 </v>
   <v>       0.72065630       0.72065630       0.31655954 </v>
   <v>       0.72065636       0.05868740       0.31655954 </v>
   <v>       0.71454894       0.39272547       0.31511418 </v>
   <v>       0.05868740       0.72065630       0.31655954 </v>
   <v>       0.05379602       0.05379614       0.31612644 </v>
   <v>       0.05379614       0.39240772       0.31612644 </v>
   <v>       0.39272559       0.71454894       0.31511418 </v>
   <v>       0.39240772       0.05379614       0.31612644 </v>
   <v>       0.39272559       0.39272547       0.31511418 </v>
   <v>       0.83333337       0.83333331       0.36783219 </v>
   <v>       0.82939320       0.16553975       0.37794691 </v>
   <v>       0.82939314       0.50506712       0.37794691 </v>
   <v>       0.16553963       0.82939320       0.37794691 </v>
   <v>       0.16666663       0.16666675       0.38761628 </v>
   <v>       0.16553963       0.50506712       0.37794691 </v>
   <v>       0.50506712       0.82939320       0.37794691 </v>
   <v>       0.50506712       0.16553975       0.37794691 </v>
   <v>       0.50000012       0.50000000       0.38109675 </v>
   <v>       0.93922613       0.93922619       0.45819896 </v>
   <v>       0.96292659       0.26853671       0.44018880 </v>
   <v>       0.93922619       0.62154763       0.45819896 </v>
   <v>       0.26853671       0.96292665       0.44018880 </v>
   <v>       0.26853671       0.26853671       0.44018880 </v>
   <v>       0.26912245       0.61543871       0.48462806 </v>
   <v>       0.62154775       0.93922619       0.45819896 </v>
   <v>       0.61543895       0.26912245       0.48462806 </v>
   <v>       0.61543871       0.61543871       0.48462806 </v>
   <v>       0.27732488       0.44535022       0.06876727 </v>
   <v>       0.27732485       0.77732491       0.06876727 </v>
   <v>       0.27760426       0.11119791       0.06791720 </v>
   <v>       0.60931496       0.44534252       0.06820835 </v>
   <v>       0.61119780       0.77760429       0.06791720 </v>
   <v>       0.61119785       0.11119791       0.06791720 </v>
   <v>       0.94534255       0.44534252       0.06820835 </v>
   <v>       0.94535019       0.77732491       0.06876727 </v>
   <v>       0.94534255       0.10931502       0.06820835 </v>
   <v>       0.38923578       0.55538213       0.13198965 </v>
   <v>       0.38925511       0.88925514       0.13231069 </v>
   <v>       0.38925505       0.22148983       0.13231069 </v>
   <v>       0.72177009       0.55645971       0.13195515 </v>
   <v>       0.72148971       0.88925514       0.13231069 </v>
   <v>       0.72177009       0.22177026       0.13195515 </v>
   <v>       0.05538201       0.55538213       0.13198965 </v>
   <v>       0.05538213       0.88923581       0.13198965 </v>
   <v>       0.05645959       0.22177026       0.13195515 </v>
   <v>       0.50086639       0.66560115       0.19438085 </v>
   <v>       0.49999994      -0.00000000       0.19425940 </v>
   <v>       0.50086639       0.33353234       0.19438085 </v>
   <v>       0.83353246       0.66560115       0.19438085 </v>
   <v>       0.83353240       0.00086639       0.19438085 </v>
   <v>       0.83333337       0.33333325       0.19439501 </v>
   <v>       0.16666675       0.66666663       0.19463793 </v>
   <v>       0.16560115       0.00086639       0.19438085 </v>
   <v>       0.16560127       0.33353234       0.19438085 </v>
   <v>       0.61133399       0.77733189       0.25651804 </v>
   <v>       0.61133405       0.11133411       0.25651804 </v>
   <v>       0.60989380       0.44505304       0.25526015 </v>
   <v>       0.94607519       0.77696240       0.25596214 </v>
   <v>       0.94505310       0.10989392       0.25526015 </v>
   <v>       0.94505304       0.44505304       0.25526015 </v>
   <v>       0.27696240       0.77696240       0.25596214 </v>
   <v>       0.27733189       0.11133411       0.25651804 </v>
   <v>       0.27696228       0.44607519       0.25596214 </v>
   <v>       0.71454894       0.89272553       0.31511418 </v>
   <v>       0.72065624       0.22065642       0.31655954 </v>
   <v>       0.72065630       0.55868740       0.31655954 </v>
   <v>       0.05379614       0.89240778       0.31612644 </v>
   <v>       0.05868728       0.22065642       0.31655954 </v>
   <v>       0.05379614       0.55379614       0.31612644 </v>
   <v>       0.39272559       0.89272553       0.31511418 </v>
   <v>       0.39272535       0.21454905       0.31511418 </v>
   <v>       0.39240772       0.55379614       0.31612644 </v>
   <v>       0.82939320       0.00506712       0.37794691 </v>
   <v>       0.83333337       0.33333325       0.36783219 </v>
   <v>       0.82939320       0.66553963       0.37794691 </v>
   <v>       0.16553963       0.00506712       0.37794691 </v>
   <v>       0.16553975       0.32939314       0.37794691 </v>
   <v>       0.16666663       0.66666663       0.38761628 </v>
   <v>       0.49999988      -0.00000000       0.38109675 </v>
   <v>       0.50506712       0.32939314       0.37794691 </v>
   <v>       0.50506712       0.66553963       0.37794691 </v>
   <v>       0.93922619       0.12154775       0.45819896 </v>
   <v>       0.93922613       0.43922613       0.45819896 </v>
   <v>       0.96292665       0.76853671       0.44018880 </v>
   <v>       0.26912245       0.11543883       0.48462806 </v>
   <v>       0.26853659       0.46292659       0.44018880 </v>
   <v>       0.26853659       0.76853671       0.44018880 </v>
   <v>       0.61543871       0.11543883       0.48462806 </v>
   <v>       0.62154775       0.43922613       0.45819896 </v>
   <v>       0.61543883       0.76912245       0.48462806 </v>
   <v>       0.44535022       0.27732491       0.06876727 </v>
   <v>       0.44534252       0.60931502       0.06820835 </v>
   <v>       0.44534252       0.94534255       0.06820835 </v>
   <v>       0.77732491       0.27732491       0.06876727 </v>
   <v>       0.77760423       0.61119791       0.06791720 </v>
   <v>       0.77732491       0.94535025       0.06876727 </v>
   <v>       0.11119791       0.27760429       0.06791720 </v>
   <v>       0.11119780       0.61119791       0.06791720 </v>
   <v>       0.10931490       0.94534255       0.06820835 </v>
   <v>       0.55538213       0.38923581       0.13198965 </v>
   <v>       0.55645971       0.72177015       0.13195515 </v>
   <v>       0.55538207       0.05538213       0.13198965 </v>
   <v>       0.88925508       0.38925514       0.13231069 </v>
   <v>       0.88925520       0.72148971       0.13231069 </v>
   <v>       0.88923581       0.05538213       0.13198965 </v>
   <v>       0.22148971       0.38925514       0.13231069 </v>
   <v>       0.22177015       0.72177015       0.13195515 </v>
   <v>       0.22177015       0.05645971       0.13195515 </v>
   <v>       0.66560121       0.50086639       0.19438085 </v>
   <v>       0.66560115       0.83353240       0.19438085 </v>
   <v>       0.66666669       0.16666675       0.19463793 </v>
   <v>       0.00000000       0.50000000       0.19425940 </v>
   <v>       0.00086639       0.83353240       0.19438085 </v>
   <v>       0.00086639       0.16560127       0.19438085 </v>
   <v>       0.33353234       0.50086639       0.19438085 </v>
   <v>       0.33333337       0.83333331       0.19439501 </v>
   <v>       0.33353234       0.16560127       0.19438085 </v>
   <v>       0.77733183       0.61133411       0.25651804 </v>
   <v>       0.77696240       0.94607525       0.25596214 </v>
   <v>       0.77696240       0.27696240       0.25596214 </v>
   <v>       0.11133399       0.61133411       0.25651804 </v>
   <v>       0.10989380       0.94505310       0.25526015 </v>
   <v>       0.11133411       0.27733189       0.25651804 </v>
   <v>       0.44505304       0.60989392       0.25526015 </v>
   <v>       0.44505304       0.94505310       0.25526015 </v>
   <v>       0.44607531       0.27696240       0.25596214 </v>
   <v>       0.89272559       0.71454894       0.31511418 </v>
   <v>       0.89240778       0.05379614       0.31612644 </v>
   <v>       0.89272547       0.39272547       0.31511418 </v>
   <v>       0.22065630       0.72065630       0.31655954 </v>
   <v>       0.22065630       0.05868740       0.31655954 </v>
   <v>       0.21454894       0.39272547       0.31511418 </v>
   <v>       0.55868728       0.72065630       0.31655954 </v>
   <v>       0.55379614       0.05379614       0.31612644 </v>
   <v>       0.55379626       0.39240772       0.31612644 </v>
   <v>       0.00506712       0.82939320       0.37794691 </v>
   <v>       0.00506712       0.16553975       0.37794691 </v>
   <v>       0.00000000       0.50000000       0.38109675 </v>
   <v>       0.33333337       0.83333331       0.36783219 </v>
   <v>       0.32939314       0.16553975       0.37794691 </v>
   <v>       0.32939326       0.50506712       0.37794691 </v>
   <v>       0.66553975       0.82939320       0.37794691 </v>
   <v>       0.66666675       0.16666675       0.38761628 </v>
   <v>       0.66553963       0.50506712       0.37794691 </v>
   <v>       0.12154763       0.93922619       0.45819896 </v>
   <v>       0.11543883       0.26912245       0.48462806 </v>
   <v>       0.11543883       0.61543871       0.48462806 </v>
   <v>       0.43922613       0.93922619       0.45819896 </v>
   <v>       0.46292671       0.26853671       0.44018880 </v>
   <v>       0.43922624       0.62154763       0.45819896 </v>
   <v>       0.76853683       0.96292665       0.44018880 </v>
   <v>       0.76853671       0.26853671       0.44018880 </v>
   <v>       0.76912245       0.61543871       0.48462806 </v>
   <v>       0.00000000      -0.00000000       0.45273297 </v>
   <v>       0.00501456       0.13961512       0.48727632 </v>
   <v>      -0.01262193       0.25631096       0.48807881 </v>
   <v>       0.00501456       0.35537032       0.48727632 </v>
   <v>       0.00000000       0.50000000       0.45273297 </v>
   <v>       0.00501456       0.63961512       0.48727632 </v>
   <v>      -0.01262193       0.75631096       0.48807881 </v>
   <v>       0.00501456       0.85537032       0.48727632 </v>
   <v>       0.13961512       0.00501456       0.48727632 </v>
   <v>       0.13383728       0.13383728       0.52864536 </v>
   <v>       0.13383728       0.23232543       0.52864536 </v>
   <v>       0.13961512       0.35537032       0.48727632 </v>
   <v>       0.13961512       0.50501456       0.48727632 </v>
   <v>       0.13383728       0.63383728       0.52864536 </v>
   <v>       0.13383728       0.73232543       0.52864536 </v>
   <v>       0.13961512       0.85537032       0.48727632 </v>
   <v>       0.25631096      -0.01262193       0.48807881 </v>
   <v>       0.23232543       0.13383728       0.52864536 </v>
   <v>       0.25631096       0.25631096       0.48807881 </v>
   <v>       0.23355727       0.38322137       0.43856760 </v>
   <v>       0.25631096       0.48737807       0.48807881 </v>
   <v>       0.23232543       0.63383728       0.52864536 </v>
   <v>       0.25631096       0.75631096       0.48807881 </v>
   <v>       0.23355727       0.88322137       0.43856760 </v>
   <v>       0.35537032       0.00501456       0.48727632 </v>
   <v>       0.35537032       0.13961512       0.48727632 </v>
   <v>       0.38322137       0.23355727       0.43856760 </v>
   <v>       0.38322137       0.38322137       0.43856760 </v>
   <v>       0.35537032       0.50501456       0.48727632 </v>
   <v>       0.35537032       0.63961512       0.48727632 </v>
   <v>       0.38322137       0.73355727       0.43856760 </v>
   <v>       0.38322137       0.88322137       0.43856760 </v>
   <v>       0.50000000      -0.00000000       0.45273297 </v>
   <v>       0.50501456       0.13961512       0.48727632 </v>
   <v>       0.48737807       0.25631096       0.48807881 </v>
   <v>       0.50501456       0.35537032       0.48727632 </v>
   <v>       0.50000000       0.50000000       0.45273297 </v>
   <v>       0.50501456       0.63961512       0.48727632 </v>
   <v>       0.48737807       0.75631096       0.48807881 </v>
   <v>       0.50501456       0.85537032       0.48727632 </v>
   <v>       0.63961512       0.00501456       0.48727632 </v>
   <v>       0.63383728       0.13383728       0.52864536 </v>
   <v>       0.63383728       0.23232543       0.52864536 </v>
   <v>       0.63961512       0.35537032       0.48727632 </v>
   <v>       0.63961512       0.50501456       0.48727632 </v>
   <v>       0.63383728       0.63383728       0.52864536 </v>
   <v>       0.63383728       0.73232543       0.52864536 </v>
   <v>       0.63961512       0.85537032       0.48727632 </v>
   <v>       0.75631096      -0.01262193       0.48807881 </v>
   <v>       0.73232543       0.13383728       0.52864536 </v>
   <v>       0.75631096       0.25631096       0.48807881 </v>
   <v>       0.73355727       0.38322137       0.43856760 </v>
   <v>       0.75631096       0.48737807       0.48807881 </v>
   <v>       0.73232543       0.63383728       0.52864536 </v>
   <v>       0.75631096       0.75631096       0.48807881 </v>
   <v>       0.73355727       0.88322137       0.43856760 </v>
   <v>       0.85537032       0.00501456       0.48727632 </v>
   <v>       0.85537032       0.13961512       0.48727632 </v>
   <v>       0.88322137       0.23355727       0.43856760 </v>
   <v>       0.88322137       0.38322137       0.43856760 </v>
   <v>       0.85537032       0.50501456       0.48727632 </v>
   <v>       0.85537032       0.63961512       0.48727632 </v>
   <v>       0.88322137       0.73355727       0.43856760 </v>
   <v>       0.88322137       0.88322137       0.43856760 </v>
  </varray>
 </structure>
</modeling>
