         388
 Energy:  -1493.1410343000000      en  -1402.0717543000001      edisp  -91.069280000000006     
 X   0.00000000       0.00000000       0.00000000    
 X   17.1805725       0.00000000       0.00000000    
 X   8.59028721       14.8788118       0.00000000    
 X   0.00000000       0.00000000       37.5999985    
 X   25.7708588       14.8788118       0.00000000    
 X   17.1805725       0.00000000       37.5999985    
 X   8.59028721       14.8788118       37.5999985    
 X   25.7708588       14.8788118       37.5999985    
 Al   11.4537201       6.61281013       2.33798003    
 Al   14.3171396       11.5724096       2.33798003    
 Al   8.59029007       1.65320003       2.33798003    
 Al   17.1805706       6.61281013       2.33798003    
 Al   20.0440006       11.5724096       2.33798003    
 Al   14.3171396       1.65320003       2.33798003    
 Al   5.72686005       6.61281013       2.33798003    
 Al   8.59029007       11.5724096       2.33798003    
 Al   2.86343002       1.65320003       2.33798003    
 Al   14.3171396       8.26601028       4.67596006    
 Al   17.1805706       13.2256098       4.67596006    
 Al   11.4537201       3.30640006       4.67596006    
 Al   20.0440006       8.26601028       4.67596006    
 Al   22.9074306       13.2256098       4.67596006    
 Al   17.1805706       3.30640006       4.67596006    
 Al   8.59029007       8.26601028       4.67596006    
 Al   11.4537201       13.2256098       4.67596006    
 Al   5.72686005       3.30640006       4.67596006    
 Al   17.1805706       9.91921043       7.01393986    
 Al   11.4537201       0.00000000       7.01393986    
 Al   14.3171396       4.95959997       7.01393986    
 Al   5.72686005       9.91921043       7.01393986    
 Al   0.00000000       0.00000000       7.01393986    
 Al   2.86343002       4.95959997       7.01393986    
 Al   11.4537201       9.91921043       7.01393986    
 Al   5.72686005       0.00000000       7.01393986    
 Al   8.59027958       4.95959997       7.01393986    
 Al   20.0440006       11.5724096       9.35192013    
 Al   14.3171396       1.65320003       9.35192013    
 Al   17.1805706       6.61280012       9.35192013    
 Al   8.59029007       11.5724096       9.35192013    
 Al   2.86343002       1.65320003       9.35192013    
 Al   5.72686005       6.61280012       9.35192013    
 Al   14.3171396       11.5724096       9.35192013    
 Al   8.59027958       1.65320003       9.35192013    
 Al   11.4537096       6.61280012       9.35192013    
 Al   22.9074306       13.2256098       11.6899004    
 Al   17.1805706       3.30640006       11.6899004    
 Al   20.0440006       8.26601028       11.6899004    
 Al   11.4537201       13.2256098       11.6899004    
 Al   5.72686005       3.30640006       11.6899004    
 Al   8.59027958       8.26601028       11.6899004    
 Al   17.1805706       13.2256098       11.6899004    
 Al   11.4537096       3.30640006       11.6899004    
 Al   14.3171396       8.26601028       11.6899004    
 Al   0.00000000       0.00000000       14.0278797    
 Al   2.86343002       4.95959997       14.0278797    
 Al   5.72686005       9.91921043       14.0278797    
 Al   5.72686005       0.00000000       14.0278797    
 Al   8.59027958       4.95959997       14.0278797    
 Al   11.4537096       9.91921043       14.0278797    
 Al   11.4537096       0.00000000       14.0278797    
 Al   14.3171396       4.95959997       14.0278797    
 Al   17.1805706       9.91921043       14.0278797    
 Al   2.86343002       1.65320003       16.3658600    
 Al   5.72686005       6.61280012       16.3658600    
 Al   8.59029007       11.5724096       16.3658600    
 Al   8.59027958       1.65320003       16.3658600    
 Al   11.4537096       6.61280012       16.3658600    
 Al   14.3171396       11.5724096       16.3658600    
 Al   14.3171396       1.65320003       16.3658600    
 Al   17.1805706       6.61280012       16.3658600    
 Al   20.0440006       11.5724096       16.3658600    
 Al   7.15856981       4.13299990       2.33798003    
 Al   10.0220003       9.09261036       2.33798003    
 Al   12.8854303       14.0522099       2.33798003    
 Al   12.8854303       4.13299990       2.33798003    
 Al   15.7488604       9.09261036       2.33798003    
 Al   18.6122894       14.0522099       2.33798003    
 Al   18.6122894       4.13299990       2.33798003    
 Al   21.4757195       9.09261036       2.33798003    
 Al   24.3391495       14.0522099       2.33798003    
 Al   10.0220003       5.78620005       4.67596006    
 Al   12.8854303       10.7458096       4.67596006    
 Al   7.15856981      0.826600015       4.67596006    
 Al   15.7488604       5.78620005       4.67596006    
 Al   18.6122894       10.7458096       4.67596006    
 Al   12.8854303      0.826600015       4.67596006    
 Al   4.29513979       5.78620005       4.67596006    
 Al   7.15856981       10.7458096       4.67596006    
 Al   1.43171000      0.826600015       4.67596006    
 Al   12.8854303       7.43941021       7.01393986    
 Al   15.7488604       12.3990097       7.01393986    
 Al   10.0220003       2.47979999       7.01393986    
 Al   18.6122894       7.43941021       7.01393986    
 Al   21.4757195       12.3990097       7.01393986    
 Al   15.7488604       2.47979999       7.01393986    
 Al   7.15856981       7.43941021       7.01393986    
 Al   10.0220003       12.3990097       7.01393986    
 Al   4.29513979       2.47979999       7.01393986    
 Al   15.7488604       9.09261036       9.35192013    
 Al   18.6122894       14.0522099       9.35192013    
 Al   12.8854303       4.13299990       9.35192013    
 Al   21.4757195       9.09261036       9.35192013    
 Al   24.3391495       14.0522099       9.35192013    
 Al   18.6122894       4.13299990       9.35192013    
 Al   10.0220003       9.09261036       9.35192013    
 Al   12.8854303       14.0522099       9.35192013    
 Al   7.15856981       4.13299990       9.35192013    
 Al   18.6122894       10.7458096       11.6899004    
 Al   12.8854303      0.826600015       11.6899004    
 Al   15.7488604       5.78620005       11.6899004    
 Al   7.15856981       10.7458096       11.6899004    
 Al   1.43171000      0.826600015       11.6899004    
 Al   4.29513979       5.78620005       11.6899004    
 Al   12.8854303       10.7458096       11.6899004    
 Al   7.15856981      0.826600015       11.6899004    
 Al   10.0220003       5.78620005       11.6899004    
 Al   21.4757195       12.3990097       14.0278797    
 Al   15.7488604       2.47979999       14.0278797    
 Al   18.6122894       7.43941021       14.0278797    
 Al   10.0220003       12.3990097       14.0278797    
 Al   4.29513979       2.47979999       14.0278797    
 Al   7.15856981       7.43941021       14.0278797    
 Al   15.7488604       12.3990097       14.0278797    
 Al   10.0220003       2.47979999       14.0278797    
 Al   12.8854303       7.43941021       14.0278797    
 Al   24.3391495       14.0522099       16.3658600    
 Al   18.6122894       4.13299990       16.3658600    
 Al   21.4757195       9.09261036       16.3658600    
 Al   12.8854303       14.0522099       16.3658600    
 Al   7.15856981       4.13299990       16.3658600    
 Al   10.0220003       9.09261036       16.3658600    
 Al   18.6122894       14.0522099       16.3658600    
 Al   12.8854303       4.13299990       16.3658600    
 Al   15.7488604       9.09261036       16.3658600    
 Al   8.59029007       6.61281013       2.33798003    
 Al   11.4537201       11.5724096       2.33798003    
 Al   5.72686005       1.65320003       2.33798003    
 Al   14.3171396       6.61281013       2.33798003    
 Al   17.1805706       11.5724096       2.33798003    
 Al   11.4537201       1.65320003       2.33798003    
 Al   20.0440006       6.61281013       2.33798003    
 Al   22.9074306       11.5724096       2.33798003    
 Al   17.1805706       1.65320003       2.33798003    
 Al   11.4537201       8.26601028       4.67596006    
 Al   14.3171396       13.2256098       4.67596006    
 Al   8.59029007       3.30640006       4.67596006    
 Al   17.1805706       8.26601028       4.67596006    
 Al   20.0440006       13.2256098       4.67596006    
 Al   14.3171396       3.30640006       4.67596006    
 Al   5.72686005       8.26601028       4.67596006    
 Al   8.59029007       13.2256098       4.67596006    
 Al   2.86343002       3.30640006       4.67596006    
 Al   14.3171396       9.91921043       7.01393986    
 Al   8.59029007       0.00000000       7.01393986    
 Al   11.4537096       4.95959997       7.01393986    
 Al   20.0440006       9.91921043       7.01393986    
 Al   14.3171396       0.00000000       7.01393986    
 Al   17.1805706       4.95959997       7.01393986    
 Al   8.59029007       9.91921043       7.01393986    
 Al   2.86343002       0.00000000       7.01393986    
 Al   5.72686005       4.95959997       7.01393986    
 Al   17.1805706       11.5724096       9.35192013    
 Al   11.4537201       1.65320003       9.35192013    
 Al   14.3171396       6.61280012       9.35192013    
 Al   22.9074306       11.5724096       9.35192013    
 Al   17.1805706       1.65320003       9.35192013    
 Al   20.0440006       6.61280012       9.35192013    
 Al   11.4537201       11.5724096       9.35192013    
 Al   5.72686005       1.65320003       9.35192013    
 Al   8.59027958       6.61280012       9.35192013    
 Al   20.0440006       13.2256098       11.6899004    
 Al   14.3171396       3.30640006       11.6899004    
 Al   17.1805706       8.26601028       11.6899004    
 Al   8.59029007       13.2256098       11.6899004    
 Al   2.86343002       3.30640006       11.6899004    
 Al   5.72686005       8.26601028       11.6899004    
 Al   14.3171501       13.2256098       11.6899004    
 Al   8.59027958       3.30640006       11.6899004    
 Al   11.4537096       8.26601028       11.6899004    
 Al   14.3171396       0.00000000       14.0278797    
 Al   17.1805706       4.95959997       14.0278797    
 Al   20.0440006       9.91921043       14.0278797    
 Al   2.86343002       0.00000000       14.0278797    
 Al   5.72686005       4.95959997       14.0278797    
 Al   8.59029007       9.91921043       14.0278797    
 Al   8.59027958       0.00000000       14.0278797    
 Al   11.4537096       4.95959997       14.0278797    
 Al   14.3171396       9.91921043       14.0278797    
 Al   17.1805706       1.65320003       16.3658600    
 Al   20.0440006       6.61280012       16.3658600    
 Al   22.9074306       11.5724096       16.3658600    
 Al   5.72686005       1.65320003       16.3658600    
 Al   8.59027958       6.61280012       16.3658600    
 Al   11.4537096       11.5724096       16.3658600    
 Al   11.4537096       1.65320003       16.3658600    
 Al   14.3171396       6.61280012       16.3658600    
 Al   17.1805706       11.5724096       16.3658600    
 Al   10.0220003       4.13299990       2.33798003    
 Al   12.8854303       9.09261036       2.33798003    
 Al   15.7488604       14.0522099       2.33798003    
 Al   15.7488604       4.13299990       2.33798003    
 Al   18.6122894       9.09261036       2.33798003    
 Al   21.4757195       14.0522099       2.33798003    
 Al   4.29513979       4.13299990       2.33798003    
 Al   7.15856981       9.09261036       2.33798003    
 Al   10.0220003       14.0522099       2.33798003    
 Al   12.8854303       5.78620005       4.67596006    
 Al   15.7488604       10.7458096       4.67596006    
 Al   10.0220003      0.826600015       4.67596006    
 Al   18.6122894       5.78620005       4.67596006    
 Al   21.4757195       10.7458096       4.67596006    
 Al   15.7488604      0.826600015       4.67596006    
 Al   7.15856981       5.78620005       4.67596006    
 Al   10.0220003       10.7458096       4.67596006    
 Al   4.29513979      0.826600015       4.67596006    
 Al   15.7488604       7.43941021       7.01393986    
 Al   18.6122894       12.3990097       7.01393986    
 Al   12.8854303       2.47979999       7.01393986    
 Al   4.29513979       7.43941021       7.01393986    
 Al   7.15856981       12.3990097       7.01393986    
 Al   1.43172002       2.47979999       7.01393986    
 Al   10.0220003       7.43941021       7.01393986    
 Al   12.8854303       12.3990097       7.01393986    
 Al   7.15856981       2.47979999       7.01393986    
 Al   18.6122894       9.09261036       9.35192013    
 Al   21.4757195       14.0522099       9.35192013    
 Al   15.7488604       4.13299990       9.35192013    
 Al   7.15856981       9.09261036       9.35192013    
 Al   10.0220003       14.0522099       9.35192013    
 Al   4.29513979       4.13299990       9.35192013    
 Al   12.8854303       9.09261036       9.35192013    
 Al   15.7488604       14.0522099       9.35192013    
 Al   10.0220003       4.13299990       9.35192013    
 Al   21.4757195       10.7458096       11.6899004    
 Al   15.7488604      0.826600015       11.6899004    
 Al   18.6122894       5.78620005       11.6899004    
 Al   10.0220003       10.7458096       11.6899004    
 Al   4.29513979      0.826600015       11.6899004    
 Al   7.15856981       5.78620005       11.6899004    
 Al   15.7488604       10.7458096       11.6899004    
 Al   10.0220003      0.826600015       11.6899004    
 Al   12.8854303       5.78620005       11.6899004    
 Al   7.15856981       12.3990097       14.0278797    
 Al   1.43172002       2.47979999       14.0278797    
 Al   4.29513979       7.43941021       14.0278797    
 Al   12.8854303       12.3990097       14.0278797    
 Al   7.15856981       2.47979999       14.0278797    
 Al   10.0220003       7.43941021       14.0278797    
 Al   18.6122894       12.3990097       14.0278797    
 Al   12.8854303       2.47979999       14.0278797    
 Al   15.7488604       7.43941021       14.0278797    
 Al   10.0220003       14.0522099       16.3658600    
 Al   4.29513979       4.13299990       16.3658600    
 Al   7.15856981       9.09261036       16.3658600    
 Al   15.7488604       14.0522099       16.3658600    
 Al   10.0220003       4.13299990       16.3658600    
 Al   12.8854303       9.09261036       16.3658600    
 Al   21.4757195       14.0522099       16.3658600    
 Al   15.7488604       4.13299990       16.3658600    
 Al   18.6122894       9.09261036       16.3658600    
 O    0.00000000       0.00000000       17.7658596    
 O    0.00000000       0.00000000       18.9658604    
 O    1.07378995       1.85985005       17.7658596    
 O    1.07378995       1.85985005       18.9658604    
 O    2.14756989       3.71970010       17.7658596    
 O    2.14756989       3.71970010       18.9658604    
 O    3.22135997       5.57954979       17.7658596    
 O    3.22135997       5.57954979       18.9658604    
 O    4.29513979       7.43941021       17.7658596    
 O    4.29513979       7.43941021       18.9658604    
 O    5.36892986       9.29926014       17.7658596    
 O    5.36892986       9.29926014       18.9658604    
 O    6.44271994       11.1591101       17.7658596    
 O    6.44271994       11.1591101       18.9658604    
 O    7.51650000       13.0189600       17.7658596    
 O    7.51650000       13.0189600       18.9658604    
 O    2.14756989       0.00000000       17.7658596    
 O    2.14756989       0.00000000       18.9658604    
 O    3.22135997       1.85985005       17.7658596    
 O    3.22135997       1.85985005       18.9658604    
 O    4.29513979       3.71970010       17.7658596    
 O    4.29513979       3.71970010       18.9658604    
 O    5.36892986       5.57954979       17.7658596    
 O    5.36892986       5.57954979       18.9658604    
 O    6.44271994       7.43941021       17.7658596    
 O    6.44271994       7.43941021       18.9658604    
 O    7.51650000       9.29926014       17.7658596    
 O    7.51650000       9.29926014       18.9658604    
 O    8.59029007       11.1591101       17.7658596    
 O    8.59029007       11.1591101       18.9658604    
 O    9.66407013       13.0189600       17.7658596    
 O    9.66407013       13.0189600       18.9658604    
 O    4.29513979       0.00000000       17.7658596    
 O    4.29513979       0.00000000       18.9658604    
 O    5.36892986       1.85985005       17.7658596    
 O    5.36892986       1.85985005       18.9658604    
 O    6.44270992       3.71970010       17.7658596    
 O    6.44270992       3.71970010       18.9658604    
 O    7.51650000       5.57954979       17.7658596    
 O    7.51650000       5.57954979       18.9658604    
 O    8.59029007       7.43941021       17.7658596    
 O    8.59029007       7.43941021       18.9658604    
 O    9.66407013       9.29926014       17.7658596    
 O    9.66407013       9.29926014       18.9658604    
 O    10.7378597       11.1591101       17.7658596    
 O    10.7378597       11.1591101       18.9658604    
 O    11.8116398       13.0189600       17.7658596    
 O    11.8116398       13.0189600       18.9658604    
 O    6.44270992       0.00000000       17.7658596    
 O    6.44270992       0.00000000       18.9658604    
 O    7.51650000       1.85985005       17.7658596    
 O    7.51650000       1.85985005       18.9658604    
 O    8.59029007       3.71970010       17.7658596    
 O    8.59029007       3.71970010       18.9658604    
 O    9.66407013       5.57954979       17.7658596    
 O    9.66407013       5.57954979       18.9658604    
 O    10.7378597       7.43941021       17.7658596    
 O    10.7378597       7.43941021       18.9658604    
 O    11.8116398       9.29926014       17.7658596    
 O    11.8116398       9.29926014       18.9658604    
 O    12.8854303       11.1591101       17.7658596    
 O    12.8854303       11.1591101       18.9658604    
 O    13.9592199       13.0189600       17.7658596    
 O    13.9592199       13.0189600       18.9658604    
 O    8.59029007       0.00000000       17.7658596    
 O    8.59029007       0.00000000       18.9658604    
 O    9.66407013       1.85985005       17.7658596    
 O    9.66407013       1.85985005       18.9658604    
 O    10.7378597       3.71970010       17.7658596    
 O    10.7378597       3.71970010       18.9658604    
 O    11.8116398       5.57954979       17.7658596    
 O    11.8116398       5.57954979       18.9658604    
 O    12.8854303       7.43941021       17.7658596    
 O    12.8854303       7.43941021       18.9658604    
 O    13.9592199       9.29926014       17.7658596    
 O    13.9592199       9.29926014       18.9658604    
 O    15.0330000       11.1591101       17.7658596    
 O    15.0330000       11.1591101       18.9658604    
 O    16.1067905       13.0189600       17.7658596    
 O    16.1067905       13.0189600       18.9658604    
 O    10.7378597       0.00000000       17.7658596    
 O    10.7378597       0.00000000       18.9658604    
 O    11.8116398       1.85985005       17.7658596    
 O    11.8116398       1.85985005       18.9658604    
 O    12.8854303       3.71970010       17.7658596    
 O    12.8854303       3.71970010       18.9658604    
 O    13.9592199       5.57954979       17.7658596    
 O    13.9592199       5.57954979       18.9658604    
 O    15.0330000       7.43941021       17.7658596    
 O    15.0330000       7.43941021       18.9658604    
 O    16.1067905       9.29926014       17.7658596    
 O    16.1067905       9.29926014       18.9658604    
 O    17.1805706       11.1591101       17.7658596    
 O    17.1805706       11.1591101       18.9658604    
 O    18.2543602       13.0189600       17.7658596    
 O    18.2543602       13.0189600       18.9658604    
 O    12.8854303       0.00000000       17.7658596    
 O    12.8854303       0.00000000       18.9658604    
 O    13.9592199       1.85985005       17.7658596    
 O    13.9592199       1.85985005       18.9658604    
 O    15.0330000       3.71970010       17.7658596    
 O    15.0330000       3.71970010       18.9658604    
 O    16.1067905       5.57954979       17.7658596    
 O    16.1067905       5.57954979       18.9658604    
 O    17.1805706       7.43941021       17.7658596    
 O    17.1805706       7.43941021       18.9658604    
 O    18.2543602       9.29926014       17.7658596    
 O    18.2543602       9.29926014       18.9658604    
 O    19.3281403       11.1591101       17.7658596    
 O    19.3281403       11.1591101       18.9658604    
 O    20.4019299       13.0189600       17.7658596    
 O    20.4019299       13.0189600       18.9658604    
 O    15.0330000       0.00000000       17.7658596    
 O    15.0330000       0.00000000       18.9658604    
 O    16.1067905       1.85985005       17.7658596    
 O    16.1067905       1.85985005       18.9658604    
 O    17.1805706       3.71970010       17.7658596    
 O    17.1805706       3.71970010       18.9658604    
 O    18.2543602       5.57954979       17.7658596    
 O    18.2543602       5.57954979       18.9658604    
 O    19.3281403       7.43941021       17.7658596    
 O    19.3281403       7.43941021       18.9658604    
 O    20.4019299       9.29926014       17.7658596    
 O    20.4019299       9.29926014       18.9658604    
 O    21.4757195       11.1591101       17.7658596    
 O    21.4757195       11.1591101       18.9658604    
 O    22.5494995       13.0189600       17.7658596    
 O    22.5494995       13.0189600       18.9658604    
         388
 Energy:  -1515.1413094000000      en  -1424.1323494000001      edisp  -91.008960000000002     
 X   0.00000000       0.00000000       0.00000000    
 X   17.1805725       0.00000000       0.00000000    
 X   8.59028721       14.8788118       0.00000000    
 X   0.00000000       0.00000000       37.5999985    
 X   25.7708588       14.8788118       0.00000000    
 X   17.1805725       0.00000000       37.5999985    
 X   8.59028721       14.8788118       37.5999985    
 X   25.7708588       14.8788118       37.5999985    
 Al   11.4537296       6.61281013       2.33855009    
 Al   14.3169804       11.5725002       2.33860993    
 Al   8.59029007       1.65319002       2.33855009    
 Al   17.1805706       6.61261988       2.33860993    
 Al   20.0441608       11.5725002       2.33860993    
 Al   14.3172598       1.65313005       2.33871007    
 Al   5.72685003       6.61281013       2.33855009    
 Al   8.59029007       11.5725498       2.33871007    
 Al   2.86331010       1.65313005       2.33871007    
 Al   14.3170700       8.26597023       4.67823982    
 Al   17.1805706       13.2256899       4.67823982    
 Al   11.4536104       3.30646992       4.67825985    
 Al   20.0440693       8.26597023       4.67823982    
 Al   22.9074001       13.2255898       4.67811012    
 Al   17.1805706       3.30644011       4.67811012    
 Al   8.59029007       8.26587963       4.67825985    
 Al   11.4537497       13.2255898       4.67811012    
 Al   5.72697020       3.30646992       4.67825985    
 Al   17.1805706       9.91921043       7.01422977    
 Al   11.4536800      -1.30000000E-04   7.01438999    
 Al   14.3172302       4.95970011       7.01438999    
 Al   5.72672987       9.91924000       7.01438999    
 Al  -0.00000000       0.00000000       7.01453018    
 Al   2.86333990       4.95970011       7.01438999    
 Al   11.4538403       9.91924000       7.01438999    
 Al   5.72690010      -1.30000000E-04   7.01438999    
 Al   8.59027958       4.95959997       7.01435995    
 Al   20.0441399       11.5724897       9.35233974    
 Al   14.3172998       1.65311003       9.35219955    
 Al   17.1805706       6.61264992       9.35233974    
 Al   8.59029007       11.5726004       9.35219955    
 Al   2.86327004       1.65311003       9.35219955    
 Al   5.72683001       6.61282015       9.35231018    
 Al   14.3170099       11.5724897       9.35233974    
 Al   8.59027958       1.65316999       9.35231018    
 Al   11.4537497       6.61282015       9.35231018    
 Al   22.9073906       13.2255898       11.6887903    
 Al   17.1805706       3.30644989       11.6887903    
 Al   20.0441704       8.26591015       11.6888504    
 Al   11.4537601       13.2255898       11.6887903    
 Al   5.72698021       3.30646992       11.6890297    
 Al   8.59027958       8.26587009       11.6890297    
 Al   17.1805706       13.2258101       11.6888504    
 Al   11.4535904       3.30646992       11.6890297    
 Al   14.3169699       8.26591015       11.6888504    
 Al  -0.00000000       0.00000000       14.0306396    
 Al   2.86328006       4.95979977       14.0304604    
 Al   5.72661018       9.91924000       14.0304604    
 Al   5.72695017      -2.30000005E-04   14.0304604    
 Al   8.59027958       4.95959997       14.0302401    
 Al   11.4539604       9.91924000       14.0304604    
 Al   11.4536200      -2.30000005E-04   14.0304604    
 Al   14.3172998       4.95979977       14.0304604    
 Al   17.1805706       9.91921043       14.0304203    
 Al   2.80314994       1.61839998       16.1106606    
 Al   5.72086000       6.61627007       16.3069706    
 Al   8.59029007       11.6420097       16.1106606    
 Al   8.59027958       1.64627004       16.3069706    
 Al   11.4597197       6.61627007       16.3069706    
 Al   14.2803402       11.5936604       16.2743492    
 Al   14.3774204       1.61839998       16.1106606    
 Al   17.1805706       6.57031012       16.2743492    
 Al   20.0808105       11.5936604       16.2743492    
 Al   7.15873003       4.13310003       2.33860993    
 Al   10.0221205       9.09253979       2.33871007    
 Al   12.8854303       14.0520201       2.33860993    
 Al   12.8854303       4.13314009       2.33871007    
 Al   15.7487402       9.09253979       2.33871007    
 Al   18.6122799       14.0522203       2.33855009    
 Al   18.6121197       4.13310003       2.33860993    
 Al   21.4757195       9.09259987       2.33855009    
 Al   24.3391609       14.0522203       2.33855009    
 Al   10.0219698       5.78619003       4.67811012    
 Al   12.8854303       10.7458496       4.67811012    
 Al   7.15863991      0.826560020       4.67823982    
 Al   15.7488899       5.78619003       4.67811012    
 Al   18.6124001       10.7458696       4.67825985    
 Al   12.8854303      0.826479971       4.67825985    
 Al   4.29513979       5.78629017       4.67823982    
 Al   7.15846014       10.7458696       4.67825985    
 Al   1.43164003      0.826560020       4.67823982    
 Al   12.8854303       7.43941021       7.01453018    
 Al   15.7487698       12.3991003       7.01438999    
 Al   10.0218697       2.47983003       7.01438999    
 Al   18.6123199       7.43928003       7.01438999    
 Al   21.4757195       12.3990097       7.01435995    
 Al   15.7489901       2.47983003       7.01438999    
 Al   7.15853024       7.43928003       7.01438999    
 Al   10.0220900       12.3991003       7.01438999    
 Al   4.29513979       2.47979999       7.01422977    
 Al   15.7487001       9.09251022       9.35219955    
 Al   18.6122608       14.0522299       9.35231018    
 Al   12.8854303       4.13319016       9.35219955    
 Al   21.4757195       9.09257030       9.35231018    
 Al   24.3391800       14.0522299       9.35231018    
 Al   18.6121502       4.13308001       9.35233974    
 Al   10.0221596       9.09251022       9.35219955    
 Al   12.8854303       14.0520601       9.35233974    
 Al   7.15871000       4.13308001       9.35233974    
 Al   18.6124096       10.7458801       11.6890297    
 Al   12.8854303      0.826460004       11.6890297    
 Al   15.7489004       5.78618002       11.6887903    
 Al   7.15845013       10.7458801       11.6890297    
 Al   1.43154001      0.826499999       11.6888504    
 Al   4.29513979       5.78639984       11.6888504    
 Al   12.8854303       10.7458496       11.6887903    
 Al   7.15874004      0.826499999       11.6888504    
 Al   10.0219603       5.78618002       11.6887903    
 Al   21.4757195       12.3990097       14.0302401    
 Al   15.7490997       2.47983003       14.0304604    
 Al   18.6123791       7.43917990       14.0304604    
 Al   10.0221500       12.3992100       14.0304604    
 Al   4.29513979       2.47979999       14.0304203    
 Al   7.15848017       7.43917990       14.0304604    
 Al   15.7487097       12.3992100       14.0304604    
 Al   10.0217600       2.47983003       14.0304604    
 Al   12.8854303       7.43941021       14.0306396    
 Al   24.3451500       14.0556803       16.3069706    
 Al   18.5754795       4.15425014       16.2743492    
 Al   21.4757195       9.08567047       16.3069706    
 Al   12.8854303       14.0097103       16.2743492    
 Al   7.19538021       4.15425014       16.2743492    
 Al   10.0822802       9.05780983       16.1106606    
 Al   18.6062908       14.0556803       16.3069706    
 Al   12.8854303       4.20261002       16.1106606    
 Al   15.6885796       9.05780983       16.1106606    
 Al   8.59029007       6.61261988       2.33860993    
 Al   11.4538803       11.5725002       2.33860993    
 Al   5.72698021       1.65313005       2.33871007    
 Al   14.3171301       6.61281013       2.33855009    
 Al   17.1805706       11.5725498       2.33871007    
 Al   11.4535999       1.65313005       2.33871007    
 Al   20.0440102       6.61281013       2.33855009    
 Al   22.9072704       11.5725002       2.33860993    
 Al   17.1805706       1.65319002       2.33855009    
 Al   11.4537897       8.26597023       4.67823982    
 Al   14.3171101       13.2255898       4.67811012    
 Al   8.59029007       3.30644011       4.67811012    
 Al   17.1805706       8.26587963       4.67825985    
 Al   20.0440407       13.2255898       4.67811012    
 Al   14.3172503       3.30646992       4.67825985    
 Al   5.72678995       8.26597023       4.67823982    
 Al   8.59029007       13.2256899       4.67823982    
 Al   2.86332011       3.30646992       4.67825985    
 Al   14.3170204       9.91924000       7.01438999    