         388
 Energy:  -1559.7900866000000      en  -1468.4129166000000      edisp  -91.377170000000007     
 X   0.00000000       0.00000000       0.00000000    
 X   17.1805725       0.00000000       0.00000000    
 X   8.59028721       14.8788118       0.00000000    
 X   0.00000000       0.00000000       37.5999985    
 X   25.7708588       14.8788118       0.00000000    
 X   17.1805725       0.00000000       37.5999985    
 X   8.59028721       14.8788118       37.5999985    
 X   25.7708588       14.8788118       37.5999985    
 Al   11.4562197       6.61425018       2.52386999    
 Al   14.3116703       11.5755701       2.54027009    
 Al   8.59029007       1.65031004       2.52386999    
 Al   17.1805706       6.60649014       2.54027009    
 Al   20.0494709       11.5755701       2.54027009    
 Al   14.3281002       1.64688003       2.52990007    
 Al   5.72434998       6.61425018       2.52386999    
 Al   8.59029007       11.5850601       2.52990007    
 Al   2.85246992       1.64688003       2.52990007    
 Al   14.3157196       8.26517963       4.83138990    
 Al   17.1805706       13.2272596       4.83138990    
 Al   11.4558897       3.30515003       4.82508993    
 Al   20.0454292       8.26517963       4.83138990    
 Al   22.9205093       13.2331600       4.84596014    
 Al   17.1805706       3.29130006       4.84596014    
 Al   8.59029007       8.26850986       4.82508993    
 Al   11.4406404       13.2331600       4.84596014    
 Al   5.72468996       3.30515003       4.82508993    
 Al   17.1805706       9.91921043       7.06194019    
 Al   11.4430103       1.75800007E-02   7.04496002    
 Al   14.2965698       4.96009016       7.04496002    
 Al   5.73672009       9.90114975       7.04496002    
 Al  -0.00000000      -0.00000000       7.05191994    
 Al   2.88400006       4.96009016       7.04496002    
 Al   11.4438496       9.90114975       7.04496002    
 Al   5.73756981       1.75800007E-02   7.04496002    
 Al   8.59027958       4.95959997       7.02528000    
 Al   20.0516701       11.5768404       9.18159962    
 Al   14.3235502       1.64950001       9.24176025    
 Al   17.1805706       6.60395002       9.18159962    
 Al   8.59029007       11.5798101       9.24176025    
 Al   2.85701990       1.64950001       9.24176025    
 Al   5.72129011       6.61602020       9.25321007    
 Al   14.3094797       11.5768404       9.18159962    
 Al   8.59027958       1.64677000       9.25321007    
 Al   11.4592800       6.61602020       9.25321007    
 Al   22.8879299       13.2143497       11.4654703    
 Al   17.1805706       3.32891989       11.4654703    
 Al   20.0518494       8.26146984       11.4693003    
 Al   11.4732103       13.2143497       11.4654703    
 Al   5.79881001       3.34794998       11.3925896    
 Al   8.59027958       8.18292046       11.3925896    
 Al   17.1805706       13.2346802       11.4693003    
 Al   11.3817596       3.34794998       11.3925896    
 Al   14.3092899       8.26146984       11.4693003    
 Al  -0.00000000      -0.00000000       13.7858601    
 Al   2.83552003       4.99172020       13.7123003    
 Al   5.68508005       9.92731953       13.7123003    
 Al   5.74071980      -4.02299985E-02   13.7123003    
 Al   8.59027958       4.95959997       14.0467396    
 Al   11.4954901       9.92731953       13.7123003    
 Al   11.4398499      -4.02299985E-02   13.7123003    
 Al   14.3450603       4.99172020       13.7123003    
 Al   17.1805706       9.91921043       13.3999596    
 Al   2.90741992       1.67859995       15.6543999    
 Al   5.87094021       6.52962017       16.3815308    
 Al   8.59029007       11.5216103       15.6543999    
 Al   8.59027958       1.81956995       16.3815308    
 Al   11.3096304       6.52962017       16.3815308    
 Al   14.6715803       11.3677797       16.4001007    
 Al   14.2731504       1.67859995       15.6543999    
 Al   17.1805801       7.02206993       16.4001007    
 Al   19.6895695       11.3677797       16.4001007    
 Al   7.16404009       4.13615990       2.54027009    
 Al   10.0329504       9.08627987       2.52990007    
 Al   12.8854303       14.0458899       2.54027009    
 Al   12.8854303       4.14564991       2.52990007    
 Al   15.7379103       9.08627987       2.52990007    
 Al   18.6097794       14.0536604       2.52386999    
 Al   18.6068096       4.13615990       2.54027009    
 Al   21.4757195       9.08971977       2.52386999    
 Al   24.3416500       14.0536604       2.52386999    
 Al   10.0350800       5.79375982       4.84596014    
 Al   12.8854303       10.7307100       4.84596014    
 Al   7.15999985      0.825779974       4.83138990    
 Al   15.7357798       5.79375982       4.84596014    
 Al   18.6101208       10.7445602       4.82508993    
 Al   12.8854303      0.829110026       4.82508993    
 Al   4.29513979       5.78784990       4.83138990    
 Al   7.16073990       10.7445602       4.82508993    
 Al   1.43027997      0.825779974       4.83138990    
 Al   12.8854303       7.43941021       7.05191994    
 Al   15.7694302       12.3994999       7.04496002    
 Al   10.0318699       2.46174002       7.04496002    
 Al   18.6229992       7.45698023       7.04496002    
 Al   21.4757195       12.3990097       7.02528000    
 Al   15.7389898       2.46174002       7.04496002    
 Al   7.14786005       7.45698023       7.04496002    
 Al   10.0014296       12.3994999       7.04496002    
 Al   4.29513979       2.47979999       7.06194019    
 Al   15.7424498       9.08891010       9.24176025    
 Al   18.6067200       14.0554304       9.25321007    
 Al   12.8854303       4.14039993       9.24176025    
 Al   21.4757195       9.08617973       9.25321007    
 Al   24.3447094       14.0554304       9.25321007    
 Al   18.6046200       4.13743019       9.18159962    
 Al   10.0284100       9.08891010       9.24176025    
 Al   12.8854303       14.0433598       9.18159962    
 Al   7.16624022       4.13743019       9.18159962    
 Al   18.6842403       10.7873497       11.3925896    
 Al   12.8854303      0.743520021       11.3925896    
 Al   15.7683496       5.77495003       11.4654703    
 Al   7.08661985       10.7873497       11.3925896    
 Al   1.42385995      0.822070003       11.4693003    
 Al   4.29513979       5.79526997       11.4693003    
 Al   12.8854303       10.7683201       11.4654703    
 Al   7.16641998      0.822070003       11.4693003    
 Al   10.0025101       5.77495003       11.4654703    
 Al   21.4757195       12.3990097       14.0467396    
 Al   15.7906303       2.48792005       13.7123003    
 Al   18.6261501       7.39916992       13.7123003    
 Al   10.0499096       12.4311304       13.7123003    
 Al   4.29513979       2.47979999       13.3999596    
 Al   7.14471006       7.39916992       13.7123003    
 Al   15.7209501       12.4311304       13.7123003    
 Al   9.98023033       2.48792005       13.7123003    
 Al   12.8854303       7.43941021       13.7858601    
 Al   24.1950607       13.9690304       16.3815308    
 Al   18.9667206       3.92837000       16.4001007    
 Al   21.4757195       9.25897980       16.3815308    
 Al   12.8854303       14.4614801       16.4001007    
 Al   6.80414009       3.92837000       16.4001007    
 Al   9.97801018       9.11800957       15.6543999    
 Al   18.7563705       13.9690304       16.3815308    
 Al   12.8854303       4.08220005       15.6543999    
 Al   15.7928495       9.11800957       15.6543999    
 Al   8.59029007       6.60649014       2.54027009    
 Al   11.4591904       11.5755701       2.54027009    
 Al   5.73781013       1.64688003       2.52990007    
 Al   14.3146400       6.61425018       2.52386999    
 Al   17.1805706       11.5850601       2.52990007    
 Al   11.4427605       1.64688003       2.52990007    
 Al   20.0465107       6.61425018       2.52386999    
 Al   22.9019604       11.5755701       2.54027009    
 Al   17.1805706       1.65031004       2.52386999    
 Al   11.4551401       8.26517963       4.83138990    
 Al   14.3302202       13.2331600       4.84596014    
 Al   8.59029007       3.29130006       4.84596014    
 Al   17.1805706       8.26850986       4.82508993    
 Al   20.0309200       13.2331600       4.84596014    
 Al   14.3149700       3.30515003       4.82508993    
 Al   5.72543001       8.26517963       4.83138990    
 Al   8.59029007       13.2272596       4.83138990    
 Al   2.86560011       3.30515003       4.82508993    
 Al   14.3270102       9.90114975       7.04496002    
 Al   8.59029007      -0.00000000       7.05191994    
 Al   11.4742899       4.96009016       7.04496002    
 Al   20.0341396       9.90114975       7.04496002    
 Al   14.3278503       1.75800007E-02   7.04496002    
 Al   17.1805706       4.95959997       7.02528000    
 Al   8.59029007       9.91921043       7.06194019    
 Al   2.85272002       1.75800007E-02   7.04496002    
 Al   5.70628023       4.96009016       7.04496002    
 Al   17.1805706       11.5798101       9.24176025    
 Al   11.4473104       1.64950001       9.24176025    
 Al   14.3115702       6.61602020       9.25321007    
 Al   22.8997593       11.5768404       9.18159962    
 Al   17.1805706       1.64677000       9.25321007    
 Al   20.0495701       6.61602020       9.25321007    
 Al   11.4613800       11.5768404       9.18159962    
 Al   5.73326015       1.64950001       9.24176025    
 Al   8.59027958       6.60395002       9.18159962    
 Al   20.0634995       13.2143497       11.4654703    
 Al   14.3891001       3.34794998       11.3925896    
 Al   17.1805706       8.18292046       11.3925896    
 Al   8.59029007       13.2346802       11.4693003    
 Al   2.79148006       3.34794998       11.3925896    
 Al   5.71900988       8.26146984       11.4693003    
 Al   14.2976503       13.2143497       11.4654703    
 Al   8.59027958       3.32891989       11.4654703    
 Al   11.4615698       8.26146984       11.4693003    
 Al   14.3310003      -4.02299985E-02   13.7123003    
 Al   17.1805706       4.95959997       14.0467396    
 Al   20.0857792       9.92731953       13.7123003    
 Al   2.84957004      -4.02299985E-02   13.7123003    
 Al   5.75476980       4.99172020       13.7123003    
 Al   8.59029007       9.91921043       13.3999596    
 Al   8.59027958      -0.00000000       13.7858601    
 Al   11.4258003       4.99172020       13.7123003    
 Al   14.2753696       9.92731953       13.7123003    
 Al   17.1805706       1.81956995       16.3815308    
 Al   19.8999195       6.52962017       16.3815308    
 Al   23.2618694       11.3677797       16.4001007    
 Al   5.68285990       1.67859995       15.6543999    
 Al   8.59027958       7.02206993       16.4001007    
 Al   11.0992804       11.3677797       16.4001007    
 Al   11.4977102       1.67859995       15.6543999    
 Al   14.4612303       6.52962017       16.3815308    
 Al   17.1805706       11.5216103       15.6543999    
 Al   10.0165300       4.13615990       2.54027009    
 Al   12.8854303       9.08971977       2.52386999    
 Al   15.7513599       14.0536604       2.52386999    
 Al   15.7543297       4.13615990       2.54027009    
 Al   18.6232395       9.08627987       2.52990007    
 Al   21.4757195       14.0458899       2.54027009    
 Al   4.29513979       4.14564991       2.52990007    
 Al   7.14762020       9.08627987       2.52990007    
 Al   10.0194998       14.0536604       2.52386999    
 Al   12.8854303       5.78784990       4.83138990    
 Al   15.7510300       10.7445602       4.82508993    
 Al   10.0205698      0.825779974       4.83138990    
 Al   18.6253605       5.79375982       4.84596014    
 Al   21.4757195       10.7307100       4.84596014    
 Al   15.7502899      0.825779974       4.83138990    
 Al   7.14549017       5.79375982       4.84596014    
 Al   10.0198298       10.7445602       4.82508993    
 Al   4.29513979      0.829110026       4.82508993    
 Al   15.7381496       7.45698023       7.04496002    
 Al   18.5917091       12.3994999       7.04496002    
 Al   12.8854303       2.47979999       7.06194019    
 Al   4.29513979       7.43941021       7.05191994    
 Al   7.17915010       12.3994999       7.04496002    
 Al   1.44158006       2.46174002       7.04496002    
 Al   10.0327101       7.45698023       7.04496002    
 Al   12.8854303       12.3990097       7.02528000    
 Al   7.14870024       2.46174002       7.04496002    
 Al   18.6186905       9.08891010       9.24176025    
 Al   21.4757195       14.0433598       9.18159962    
 Al   15.7565203       4.13743019       9.18159962    
 Al   7.15217018       9.08891010       9.24176025    
 Al   10.0164299       14.0554304       9.25321007    
 Al   4.29513979       4.14039993       9.24176025    
 Al   12.8854303       9.08617973       9.25321007    
 Al   15.7544298       14.0554304       9.25321007    
 Al   10.0143404       4.13743019       9.18159962    
 Al   21.4757195       10.7683201       11.4654703    
 Al   15.7567101      0.822070003       11.4693003    
 Al   18.5927906       5.77495003       11.4654703    
 Al   10.0939503       10.7873497       11.3925896    
 Al   4.29513979      0.743520021       11.3925896    
 Al   7.17807007       5.77495003       11.4654703    
 Al   15.6768999       10.7873497       11.3925896    
 Al   10.0141497      0.822070003       11.4693003    
 Al   12.8854303       5.79526997       11.4693003    
 Al   7.13066006       12.4311304       13.7123003    
 Al   1.38994002       2.48792005       13.7123003    
 Al   4.29513979       7.43941021       13.7858601    
 Al   12.8854303       12.3990097       14.0467396    
 Al   7.20034981       2.48792005       13.7123003    
 Al   10.0358601       7.39916992       13.7123003    
 Al   18.6401997       12.4311304       13.7123003    
 Al   12.8854303       2.47979999       13.3999596    
 Al   15.7349997       7.39916992       13.7123003    
 Al   10.1660805       13.9690304       16.3815308    
 Al   4.29513979       4.08220005       15.6543999    
 Al   7.20256996       9.11800957       15.6543999    
 Al   15.6047802       13.9690304       16.3815308    
 Al   10.3764400       3.92837000       16.4001007    
 Al   12.8854303       9.25897980       16.3815308    
 Al   21.4757195       14.4614801       16.4001007    
 Al   15.3944197       3.92837000       16.4001007    
 Al   18.5682907       9.11800957       15.6543999    
 O   -0.00000000      -0.00000000       16.7127094    
 O   -0.00000000      -0.00000000       18.1182804    
 O    1.19105005       1.87050998       17.9303398    
 O   0.947070003       1.86503005       19.2010708    
 O    2.22588992       3.67447996       18.3603401    
 O    2.07502007       3.76159000       19.6058292    
 O    3.27076006       5.47267008       17.9303398    
 O    3.15351009       5.68670988       19.2010708    
 O    4.29513979       7.43941021       16.7127094    
 O    4.29513979       7.43941021       18.1182804    
 O    5.48619986       9.30990982       17.9303398    
 O    5.24220991       9.30443954       19.2010708    
 O    6.52103996       11.1138897       18.3603401    
 O    6.37016010       11.2010002       19.6058292    
 O    7.56590986       12.9120703       17.9303398    
 O    7.44864988       13.1261101       19.2010708    
 O    2.21543002       9.62300003E-02   17.9303398    
 O    2.08870006     -0.112329997       19.2010708    
 O    3.30971003       1.91085994       18.5209999    
 O    3.11720991       1.79972005       19.7312202    
 O    4.29513979       3.61769009       18.5209999    
 O    4.29513979       3.83996010       19.7312202    
 O    5.31952000       5.47267008       17.9303398    
 O    5.43677998       5.68670988       19.2010708    
 O    6.51058006       7.53563976       17.9303398    
 O    6.38384008       7.32707024       19.2010708    
 O    7.60484982       9.35027027       18.5209999    
 O    7.41236019       9.23913002       19.7312202    
 O    8.59029007       11.0570898       18.5209999    
 O    8.59029007       11.2793703       19.7312202    
 O    9.61466980       12.9120703       17.9303398    
 O    9.73192024       13.1261101       19.2010708    
 O    4.29513979       9.04399976E-02   18.3603401    
 O    4.29513979      -8.37799981E-02   19.6058292    
 O    5.28058004       1.91085994       18.5209999    
 O    5.47307014       1.79972005       19.7312202    
 O    6.36438990       3.67447996       18.3603401    
 O    6.51527023       3.76159000       19.6058292    
 O    7.40938997       5.64138985       16.9450397    
 O    7.52995014       5.57179022       18.4146996    
 O    8.59029007       7.52985001       18.3603401    
 O    8.59029007       7.35562992       19.6058292    
 O    9.57571983       9.35027027       18.5209999    
 O    9.76821995       9.23913002       19.7312202    
 O    10.6595402       11.1138897       18.3603401    
 O    10.8104095       11.2010002       19.6058292    
 O    11.7045298       13.0808001       16.9450397    
 O    11.8250999       13.0111904       18.4146996    
 O    6.37484980       9.62300003E-02   17.9303398    
 O    6.50158978     -0.112329997       19.2010708    
 O    7.39923000       1.87050998       17.9303398    
 O    7.64321995       1.86503005       19.2010708    
 O    8.59029007       3.59601998       16.9450397    
 O    8.59029007       3.73523998       18.4146996    
 O    9.77118015       5.64138985       16.9450397    
 O    9.65062046       5.57179022       18.4146996    
 O    10.6700001       7.53563976       17.9303398    
 O    10.7967300       7.32707024       19.2010708    
 O    11.6943798       9.30990982       17.9303398    
 O    11.9383602       9.30443954       19.2010708    
 O    12.8854303       11.0354300       16.9450397    
 O    12.8854303       11.1746397       18.4146996    
 O    14.0663300       13.0808001       16.9450397    
 O    13.9457598       13.0111904       18.4146996    
 O    8.59029007      -0.00000000       16.7127094    
 O    8.59029007      -0.00000000       18.1182804    
 O    9.78133965       1.87050998       17.9303398    
 O    9.53734970       1.86503005       19.2010708    
 O    10.8161802       3.67447996       18.3603401    
 O    10.6653004       3.76159000       19.6058292    
 O    11.8610497       5.47267008       17.9303398    
 O    11.7438002       5.68670988       19.2010708    
 O    12.8854303       7.43941021       16.7127094    
 O    12.8854303       7.43941021       18.1182804    
 O    14.0764799       9.30990982       17.9303398    
 O    13.8325005       9.30443954       19.2010708    
 O    15.1113195       11.1138897       18.3603401    
 O    14.9604502       11.2010002       19.6058292    
 O    16.1561909       12.9120703       17.9303398    
 O    16.0389404       13.1261101       19.2010708    
 O    10.8057203       9.62300003E-02   17.9303398    
 O    10.6789904     -0.112329997       19.2010708    
 O    11.8999901       1.91085994       18.5209999    
 O    11.7075005       1.79972005       19.7312202    
 O    12.8854303       3.61769009       18.5209999    
 O    12.8854303       3.83996010       19.7312202    
 O    13.9098101       5.47267008       17.9303398    
 O    14.0270596       5.68670988       19.2010708    
 O    15.1008596       7.53563976       17.9303398    
 O    14.9741297       7.32707024       19.2010708    
 O    16.1951408       9.35027027       18.5209999    
 O    16.0026398       9.23913002       19.7312202    
 O    17.1805706       11.0570898       18.5209999    
 O    17.1805706       11.2793703       19.7312202    
 O    18.2049503       12.9120703       17.9303398    
 O    18.3222103       13.1261101       19.2010708    
 O    12.8854303       9.04399976E-02   18.3603401    
 O    12.8854303      -8.37799981E-02   19.6058292    
 O    13.8708696       1.91085994       18.5209999    
 O    14.0633602       1.79972005       19.7312202    
 O    14.9546804       3.67447996       18.3603401    
 O    15.1055498       3.76159000       19.6058292    
 O    15.9996796       5.64138985       16.9450397    
 O    16.1202393       5.57179022       18.4146996    
 O    17.1805706       7.52985001       18.3603401    
 O    17.1805706       7.35562992       19.6058292    
 O    18.1660099       9.35027027       18.5209999    
 O    18.3584995       9.23913002       19.7312202    
 O    19.2498207       11.1138897       18.3603401    
 O    19.4006996       11.2010002       19.6058292    
 O    20.2948208       13.0808001       16.9450397    
 O    20.4153805       13.0111904       18.4146996    
 O    14.9651403       9.62300003E-02   17.9303398    
 O    15.0918703     -0.112329997       19.2010708    
 O    15.9895201       1.87050998       17.9303398    
 O    16.2335091       1.86503005       19.2010708    
 O    17.1805706       3.59601998       16.9450397    
 O    17.1805706       3.73523998       18.4146996    
 O    18.3614693       5.64138985       16.9450397    
 O    18.2409096       5.57179022       18.4146996    
 O    19.2602806       7.53563976       17.9303398    
 O    19.3870201       7.32707024       19.2010708    
 O    20.2846603       9.30990982       17.9303398    
 O    20.5286503       9.30443954       19.2010708    
 O    21.4757195       11.0354300       16.9450397    
 O    21.4757195       11.1746397       18.4146996    
 O    22.6566105       13.0808001       16.9450397    
 O    22.5360508       13.0111904       18.4146996    
