<?xml version="1.0" encoding="ISO-8859-1"?>
<modeling>
 <generator>
  <i name="program" type="string">vasp </i>
  <i name="version" type="string">6.2.1  </i>
  <i name="subversion" type="string">16May21 (build May 12 2022 08:28:04) complex                          parallel </i>
  <i name="platform" type="string">LinuxPGI </i>
  <i name="date" type="string">2022 07 12 </i>
  <i name="time" type="string">04:43:39 </i>
 </generator>
 <incar>
  <i type="string" name="SYSTEM">NiAl</i>
  <i type="int" name="ISTART">     0</i>
  <i type="int" name="NELMIN">     6</i>
  <i type="int" name="IBRION">     2</i>
  <i name="EDIFF">      0.00000500</i>
  <i type="int" name="NSW">    40</i>
  <i type="int" name="ISIF">     0</i>
  <i name="ENCUT">    360.00000000</i>
  <i name="POTIM">      0.20000000</i>
  <i type="string" name="LREAL">Auto</i>
  <i type="logical" name="LPLANE"> T  </i>
  <i type="int" name="ISMEAR">     0</i>
  <i name="SIGMA">      0.05000000</i>
  <i type="logical" name="LWAVE"> F  </i>
  <i type="logical" name="LCHARG"> F  </i>
  <i type="int" name="IVDW">    12</i>
 </incar>
 <primitive_cell>
  <structure name="primitive_cell" >
   <crystal>
    <varray name="basis" >
     <v>      -4.29514362      -7.43940584       0.00000000 </v>
     <v>       8.59028625       0.00000000       0.00000000 </v>
     <v>       0.00000000       0.00000000      37.60000000 </v>
    </varray>
    <i name="volume">   2402.88912641 </i>
    <varray name="rec_basis" >
     <v>       0.00000000      -0.13441934       0.00000000 </v>
     <v>       0.11641056      -0.06720968       0.00000000 </v>
     <v>      -0.00000000       0.00000000       0.02659574 </v>
    </varray>
   </crystal>
   <varray name="positions" >
    <v>       0.11111110       0.88888884       0.06218032 </v>
    <v>       0.44444442       0.88888890       0.06218032 </v>
    <v>       0.77777767       0.88888890       0.06218032 </v>
    <v>       0.11111110       0.55555552       0.06218032 </v>
    <v>       0.44444442       0.55555552       0.06218032 </v>
    <v>       0.77777767       0.55555552       0.06218032 </v>
    <v>       0.11111110       0.22222221       0.06218032 </v>
    <v>       0.44444442       0.22222221       0.06218032 </v>
    <v>       0.77777767       0.22222221       0.06218032 </v>
    <v>       0.88888884       0.11111104       0.12436064 </v>
    <v>       0.22222221       0.11111116       0.12436064 </v>
    <v>       0.55555534       0.11111104       0.12436064 </v>
    <v>       0.88888884       0.77777773       0.12436064 </v>
    <v>       0.22222221       0.77777779       0.12436064 </v>
    <v>       0.55555534       0.77777761       0.12436064 </v>
    <v>       0.88888884       0.44444442       0.12436064 </v>
    <v>       0.22222221       0.44444442       0.12436064 </v>
    <v>       0.55555534       0.44444442       0.12436064 </v>
    <v>       0.66666675       0.33333325       0.18654096 </v>
    <v>      -0.00000000       0.33333337       0.18654096 </v>
    <v>       0.33333349       0.33333325       0.18654096 </v>
    <v>       0.66666675       0.00000000       0.18654096 </v>
    <v>      -0.00000000       0.00000000       0.18654096 </v>
    <v>       0.33333349       0.00000000       0.18654096 </v>
    <v>       0.66666675       0.66666675       0.18654096 </v>
    <v>      -0.00000000       0.66666651       0.18654096 </v>
    <v>       0.33333349       0.66666651       0.18654096 </v>
    <v>       0.44444442       0.55555558       0.24872129 </v>
    <v>       0.77777767       0.55555534       0.24872129 </v>
    <v>       0.11111116       0.55555534       0.24872129 </v>
    <v>       0.44444442       0.22222233       0.24872129 </v>
    <v>       0.77777767       0.22222221       0.24872129 </v>
    <v>       0.11111116       0.22222209       0.24872129 </v>
    <v>       0.44444442       0.88888907       0.24872129 </v>
    <v>       0.77777767       0.88888884       0.24872129 </v>
    <v>       0.11111116       0.88888884       0.24872129 </v>
    <v>       0.22222233       0.77777791       0.31090158 </v>
    <v>       0.55555534       0.77777743       0.31090158 </v>
    <v>       0.88888884       0.77777767       0.31090158 </v>
    <v>       0.22222233       0.44444442       0.31090158 </v>
    <v>       0.55555534       0.44444442       0.31090158 </v>
    <v>       0.88888884       0.44444418       0.31090158 </v>
    <v>       0.22222233       0.11111140       0.31090158 </v>
    <v>       0.55555534       0.11111093       0.31090158 </v>
    <v>       0.88888884       0.11111116       0.31090158 </v>
    <v>      -0.00000000       0.00000024       0.37308191 </v>
    <v>       0.33333349       0.00000000       0.37308191 </v>
    <v>       0.66666675       0.00000000       0.37308191 </v>
    <v>      -0.00000000       0.66666675       0.37308191 </v>
    <v>       0.33333349       0.66666651       0.37308191 </v>
    <v>       0.66666675       0.66666651       0.37308191 </v>
    <v>      -0.00000000       0.33333325       0.37308191 </v>
    <v>       0.33333349       0.33333349       0.37308191 </v>
    <v>       0.66666675       0.33333349       0.37308191 </v>
    <v>       0.77777791       0.22222209       0.43526222 </v>
    <v>       0.11111116       0.22222233       0.43526222 </v>
    <v>       0.44444442       0.22222257       0.43526222 </v>
    <v>       0.77777791       0.88888907       0.43526222 </v>
    <v>       0.11111116       0.88888884       0.43526222 </v>
    <v>       0.44444442       0.88888907       0.43526222 </v>
    <v>       0.77777791       0.55555558       0.43526222 </v>
    <v>       0.11111116       0.55555534       0.43526222 </v>
    <v>       0.44444442       0.55555558       0.43526222 </v>
    <v>      -0.00000000       0.00000000       0.47249626 </v>
    <v>      -0.00000000       0.00000000       0.50441116 </v>
    <v>       0.75000000       0.00000000       0.47249626 </v>
    <v>       0.75000000       0.00000000       0.50441116 </v>
    <v>       0.50000000       0.00000000       0.47249626 </v>
    <v>       0.50000000       0.00000000       0.50441116 </v>
    <v>       0.25000000       0.00000000       0.47249626 </v>
    <v>       0.25000000       0.00000000       0.50441116 </v>
    <v>      -0.00000000       0.25000000       0.47249626 </v>
    <v>      -0.00000000       0.25000000       0.50441116 </v>
    <v>       0.75000000       0.25000000       0.47249626 </v>
    <v>       0.75000000       0.25000000       0.50441116 </v>
    <v>       0.50000000       0.25000000       0.47249626 </v>
    <v>       0.50000000       0.25000000       0.50441116 </v>
    <v>       0.25000000       0.25000000       0.47249626 </v>
    <v>       0.25000000       0.25000000       0.50441116 </v>
    <v>      -0.00000000       0.50000000       0.47249626 </v>
    <v>      -0.00000000       0.50000000       0.50441116 </v>
    <v>       0.75000000       0.50000000       0.47249626 </v>
    <v>       0.75000000       0.50000000       0.50441116 </v>
    <v>       0.50000000       0.50000000       0.47249626 </v>
    <v>       0.50000000       0.50000000       0.50441116 </v>
    <v>       0.25000000       0.50000000       0.47249626 </v>
    <v>       0.25000000       0.50000000       0.50441116 </v>
    <v>      -0.00000000       0.75000000       0.47249626 </v>
    <v>      -0.00000000       0.75000000       0.50441116 </v>
    <v>       0.75000000       0.75000000       0.47249626 </v>
    <v>       0.75000000       0.75000000       0.50441116 </v>
    <v>       0.50000000       0.75000000       0.47249626 </v>
    <v>       0.50000000       0.75000000       0.50441116 </v>
    <v>       0.25000000       0.75000000       0.47249626 </v>
    <v>       0.25000000       0.75000000       0.50441116 </v>
   </varray>
  </structure>
  <varray name="primitive_index" >
   <v type="int" >        1 </v>
   <v type="int" >      190 </v>
   <v type="int" >      191 </v>
   <v type="int" >      127 </v>
   <v type="int" >       64 </v>
   <v type="int" >       65 </v>
   <v type="int" >      130 </v>
   <v type="int" >       67 </v>
   <v type="int" >       68 </v>
   <v type="int" >       10 </v>
   <v type="int" >      199 </v>
   <v type="int" >       12 </v>
   <v type="int" >      136 </v>
   <v type="int" >       73 </v>
   <v type="int" >      138 </v>
   <v type="int" >       16 </v>
   <v type="int" >      205 </v>
   <v type="int" >       18 </v>
   <v type="int" >       19 </v>
   <v type="int" >      208 </v>
   <v type="int" >       21 </v>
   <v type="int" >      145 </v>
   <v type="int" >       82 </v>
   <v type="int" >      147 </v>
   <v type="int" >       25 </v>
   <v type="int" >      214 </v>
   <v type="int" >       27 </v>
   <v type="int" >       99 </v>
   <v type="int" >       97 </v>
   <v type="int" >      162 </v>
   <v type="int" >       93 </v>
   <v type="int" >       91 </v>
   <v type="int" >      156 </v>
   <v type="int" >      225 </v>
   <v type="int" >      223 </v>
   <v type="int" >       36 </v>
   <v type="int" >      108 </v>
   <v type="int" >      170 </v>
   <v type="int" >      171 </v>
   <v type="int" >      231 </v>
   <v type="int" >       41 </v>
   <v type="int" >       42 </v>
   <v type="int" >      234 </v>
   <v type="int" >       44 </v>
   <v type="int" >       45 </v>
   <v type="int" >      117 </v>
   <v type="int" >      179 </v>
   <v type="int" >      180 </v>
   <v type="int" >      240 </v>
   <v type="int" >       50 </v>
   <v type="int" >       51 </v>
   <v type="int" >      243 </v>
   <v type="int" >       53 </v>
   <v type="int" >       54 </v>
   <v type="int" >      126 </v>
   <v type="int" >      188 </v>
   <v type="int" >      125 </v>
   <v type="int" >      249 </v>
   <v type="int" >       59 </v>
   <v type="int" >      248 </v>
   <v type="int" >      123 </v>
   <v type="int" >      185 </v>
   <v type="int" >      122 </v>
   <v type="int" >      325 </v>
   <v type="int" >      326 </v>
   <v type="int" >      327 </v>
   <v type="int" >      328 </v>
   <v type="int" >      321 </v>
   <v type="int" >      322 </v>
   <v type="int" >      323 </v>
   <v type="int" >      324 </v>
   <v type="int" >      341 </v>
   <v type="int" >      342 </v>
   <v type="int" >      343 </v>
   <v type="int" >      344 </v>
   <v type="int" >      337 </v>
   <v type="int" >      338 </v>
   <v type="int" >      339 </v>
   <v type="int" >      340 </v>
   <v type="int" >      293 </v>
   <v type="int" >      294 </v>
   <v type="int" >      295 </v>
   <v type="int" >      296 </v>
   <v type="int" >      289 </v>
   <v type="int" >      290 </v>
   <v type="int" >      291 </v>
   <v type="int" >      292 </v>
   <v type="int" >      309 </v>
   <v type="int" >      310 </v>
   <v type="int" >      311 </v>
   <v type="int" >      312 </v>
   <v type="int" >      305 </v>
   <v type="int" >      306 </v>
   <v type="int" >      307 </v>
   <v type="int" >      308 </v>
  </varray>
 </primitive_cell>
 <kpoints>
  <generation param="Gamma">
   <v type="int" name="divisions">       2        2        1 </v>
   <v name="usershift">      0.00000000       0.00000000       0.00000000 </v>
   <v name="genvec1">      0.50000000       0.00000000       0.00000000 </v>
   <v name="genvec2">      0.00000000       0.50000000       0.00000000 </v>
   <v name="genvec3">      0.00000000       0.00000000       1.00000000 </v>
   <v name="shift">      0.00000000       0.00000000       0.00000000 </v>
  </generation>
  <varray name="kpointlist" >
   <v>       0.00000000       0.00000000       0.00000000 </v>
   <v>       0.50000000       0.00000000       0.00000000 </v>
  </varray>
  <varray name="weights" >
   <v>       0.25000000 </v>
   <v>       0.75000000 </v>
  </varray>
 </kpoints>
 <parameters>
  <separator name="general" >
   <i type="string" name="SYSTEM">NiAl</i>
   <i type="logical" name="LCOMPAT"> F  </i>
  </separator>
  <separator name="electronic" >
   <i type="string" name="PREC">normal</i>
   <i name="ENMAX">    360.00000000</i>
   <i name="ENAUG">   1139.60900000</i>
   <i name="EDIFF">      0.00000500</i>
   <i type="int" name="IALGO">    38</i>
   <i type="int" name="IWAVPR">    11</i>
   <i type="int" name="NBANDS">   953</i>
   <i type="int" name="NBANDSLOW">    -1</i>
   <i type="int" name="NBANDSHIGH">    -1</i>
   <i name="NELECT">   1524.00000000</i>
   <i type="int" name="TURBO">     0</i>
   <i type="int" name="IRESTART">     0</i>
   <i type="int" name="NREBOOT">     0</i>
   <i type="int" name="NMIN">     0</i>
   <i name="EREF">      0.00000000</i>
   <separator name="electronic smearing" >
    <i type="int" name="ISMEAR">     0</i>
    <i name="SIGMA">      0.05000000</i>
    <i name="KSPACING">      0.50000000</i>
    <i type="logical" name="KGAMMA"> T  </i>
    <i type="logical" name="KBLOWUP"> T  </i>
   </separator>
   <separator name="electronic projectors" >
    <i type="logical" name="LREAL"> T  </i>
    <v name="ROPT">     -0.00050000     -0.00050000</v>
    <i type="int" name="LMAXPAW">  -100</i>
    <i type="int" name="LMAXMIX">     2</i>
    <i type="logical" name="NLSPLINE"> F  </i>
   </separator>
   <separator name="electronic startup" >
    <i type="int" name="ISTART">     0</i>
    <i type="int" name="ICHARG">     2</i>
    <i type="int" name="INIWAV">     1</i>
   </separator>
   <separator name="electronic spin" >
    <i type="int" name="ISPIN">     1</i>
    <i type="logical" name="LNONCOLLINEAR"> F  </i>
    <v name="MAGMOM">      1.00000000      1.00000000      1.00000000      1.00000000      1.00000000      1.00000000      1.00000000      1.00000000      1.00000000      1.00000000      1.00000000      1.00000000      1.00000000      1.00000000      1.00000000      1.00000000      1.00000000      1.00000000      1.00000000      1.00000000
      1.00000000      1.00000000      1.00000000      1.00000000      1.00000000      1.00000000      1.00000000      1.00000000      1.00000000      1.00000000      1.00000000      1.00000000      1.00000000      1.00000000      1.00000000      1.00000000      1.00000000      1.00000000      1.00000000      1.00000000
      1.00000000      1.00000000      1.00000000      1.00000000      1.00000000      1.00000000      1.00000000      1.00000000      1.00000000      1.00000000      1.00000000      1.00000000      1.00000000      1.00000000      1.00000000      1.00000000      1.00000000      1.00000000      1.00000000      1.00000000
      1.00000000      1.00000000      1.00000000      1.00000000      1.00000000      1.00000000      1.00000000      1.00000000      1.00000000      1.00000000      1.00000000      1.00000000      1.00000000      1.00000000      1.00000000      1.00000000      1.00000000      1.00000000      1.00000000      1.00000000
      1.00000000      1.00000000      1.00000000      1.00000000      1.00000000      1.00000000      1.00000000      1.00000000      1.00000000      1.00000000      1.00000000      1.00000000      1.00000000      1.00000000      1.00000000      1.00000000      1.00000000      1.00000000      1.00000000      1.00000000
      1.00000000      1.00000000      1.00000000      1.00000000      1.00000000      1.00000000      1.00000000      1.00000000      1.00000000      1.00000000      1.00000000      1.00000000      1.00000000      1.00000000      1.00000000      1.00000000      1.00000000      1.00000000      1.00000000      1.00000000
      1.00000000      1.00000000      1.00000000      1.00000000      1.00000000      1.00000000      1.00000000      1.00000000      1.00000000      1.00000000      1.00000000      1.00000000      1.00000000      1.00000000      1.00000000      1.00000000      1.00000000      1.00000000      1.00000000      1.00000000
      1.00000000      1.00000000      1.00000000      1.00000000      1.00000000      1.00000000      1.00000000      1.00000000      1.00000000      1.00000000      1.00000000      1.00000000      1.00000000      1.00000000      1.00000000      1.00000000      1.00000000      1.00000000      1.00000000      1.00000000
      1.00000000      1.00000000      1.00000000      1.00000000      1.00000000      1.00000000      1.00000000      1.00000000      1.00000000      1.00000000      1.00000000      1.00000000      1.00000000      1.00000000      1.00000000      1.00000000      1.00000000      1.00000000      1.00000000      1.00000000
      1.00000000      1.00000000      1.00000000      1.00000000      1.00000000      1.00000000      1.00000000      1.00000000      1.00000000      1.00000000      1.00000000      1.00000000      1.00000000      1.00000000      1.00000000      1.00000000      1.00000000      1.00000000      1.00000000      1.00000000
      1.00000000      1.00000000      1.00000000      1.00000000      1.00000000      1.00000000      1.00000000      1.00000000      1.00000000      1.00000000      1.00000000      1.00000000      1.00000000      1.00000000      1.00000000      1.00000000      1.00000000      1.00000000      1.00000000      1.00000000
      1.00000000      1.00000000      1.00000000      1.00000000      1.00000000      1.00000000      1.00000000      1.00000000      1.00000000      1.00000000      1.00000000      1.00000000      1.00000000      1.00000000      1.00000000      1.00000000      1.00000000      1.00000000      1.00000000      1.00000000
      1.00000000      1.00000000      1.00000000      1.00000000      1.00000000      1.00000000      1.00000000      1.00000000      1.00000000      1.00000000      1.00000000      1.00000000      1.00000000      1.00000000      1.00000000      1.00000000      1.00000000      1.00000000      1.00000000      1.00000000
      1.00000000      1.00000000      1.00000000      1.00000000      1.00000000      1.00000000      1.00000000      1.00000000      1.00000000      1.00000000      1.00000000      1.00000000      1.00000000      1.00000000      1.00000000      1.00000000      1.00000000      1.00000000      1.00000000      1.00000000
      1.00000000      1.00000000      1.00000000      1.00000000      1.00000000      1.00000000      1.00000000      1.00000000      1.00000000      1.00000000      1.00000000      1.00000000      1.00000000      1.00000000      1.00000000      1.00000000      1.00000000      1.00000000      1.00000000      1.00000000
      1.00000000      1.00000000      1.00000000      1.00000000      1.00000000      1.00000000      1.00000000      1.00000000      1.00000000      1.00000000      1.00000000      1.00000000      1.00000000      1.00000000      1.00000000      1.00000000      1.00000000      1.00000000      1.00000000      1.00000000
      1.00000000      1.00000000      1.00000000      1.00000000      1.00000000      1.00000000      1.00000000      1.00000000      1.00000000      1.00000000      1.00000000      1.00000000      1.00000000      1.00000000      1.00000000      1.00000000      1.00000000      1.00000000      1.00000000      1.00000000
      1.00000000      1.00000000      1.00000000      1.00000000      1.00000000      1.00000000      1.00000000      1.00000000      1.00000000      1.00000000      1.00000000      1.00000000      1.00000000      1.00000000      1.00000000      1.00000000      1.00000000      1.00000000      1.00000000      1.00000000
      1.00000000      1.00000000      1.00000000      1.00000000      1.00000000      1.00000000      1.00000000      1.00000000      1.00000000      1.00000000      1.00000000      1.00000000      1.00000000      1.00000000      1.00000000      1.00000000      1.00000000      1.00000000      1.00000000      1.00000000
</v>
    <i name="NUPDOWN">     -1.00000000</i>
    <i type="logical" name="LSORBIT"> F  </i>
    <v name="SAXIS">      0.00000000      0.00000000      1.00000000</v>
    <i type="logical" name="LSPIRAL"> F  </i>
    <v name="QSPIRAL">      0.00000000      0.00000000      0.00000000</v>
    <i type="logical" name="LZEROZ"> F  </i>
   </separator>
   <separator name="electronic exchange-correlation" >
    <i type="logical" name="LASPH"> F  </i>
    <i type="logical" name="LMETAGGA"> F  </i>
   </separator>
   <separator name="electronic convergence" >
    <i type="int" name="NELM">    60</i>
    <i type="int" name="NELMDL">    -5</i>
    <i type="int" name="NELMIN">     6</i>
    <i name="ENINI">    360.00000000</i>
    <separator name="electronic convergence detail" >
     <i type="logical" name="LDIAG"> T  </i>
     <i type="logical" name="LSUBROT"> F  </i>
     <i name="WEIMIN">      0.00100000</i>
     <i name="EBREAK">      0.00000000</i>
     <i name="DEPER">      0.30000000</i>
     <i type="int" name="NRMM">     4</i>
     <i name="TIME">      0.40000000</i>
    </separator>
   </separator>
   <separator name="electronic mixer" >
    <i name="AMIX">      0.40000000</i>
    <i name="BMIX">      1.00000000</i>
    <i name="AMIN">      0.10000000</i>
    <i name="AMIX_MAG">      1.60000000</i>
    <i name="BMIX_MAG">      1.00000000</i>
    <separator name="electronic mixer details" >
     <i type="int" name="IMIX">     4</i>
     <i type="logical" name="MIXFIRST"> F  </i>
     <i type="int" name="MAXMIX">   -45</i>
     <i name="WC">    100.00000000</i>
     <i type="int" name="INIMIX">     1</i>
     <i type="int" name="MIXPRE">     1</i>
     <i type="int" name="MREMOVE">     5</i>
    </separator>
   </separator>
   <separator name="electronic dipolcorrection" >
    <i type="logical" name="LDIPOL"> F  </i>
    <i type="logical" name="LMONO"> F  </i>
    <i type="int" name="IDIPOL">     0</i>
    <i name="EPSILON">      1.00000000</i>
    <v name="DIPOL">   -100.00000000   -100.00000000   -100.00000000</v>
    <i name="EFIELD">      0.00000000</i>
   </separator>
  </separator>
  <separator name="grids" >
   <i type="int" name="NGX">    80</i>
   <i type="int" name="NGY">    80</i>
   <i type="int" name="NGZ">   180</i>
   <i type="int" name="NGXF">   160</i>
   <i type="int" name="NGYF">   160</i>
   <i type="int" name="NGZF">   360</i>
   <i type="logical" name="ADDGRID"> F  </i>
  </separator>
  <separator name="ionic" >
   <i type="int" name="NSW">    40</i>
   <i type="int" name="IBRION">     2</i>
   <i type="int" name="MDALGO">     0</i>
   <i type="int" name="ISIF">     0</i>
   <i name="PSTRESS">      0.00000000</i>
   <i name="EDIFFG">      0.00005000</i>
   <i type="int" name="NFREE">     1</i>
   <i name="POTIM">      0.20000000</i>
   <i name="SMASS">     -3.00000000</i>
   <i name="SCALEE">      1.00000000</i>
  </separator>
  <separator name="ionic md" >
   <i name="TEBEG">      0.00010000</i>
   <i name="TEEND">      0.00010000</i>
   <i type="int" name="NBLOCK">     1</i>
   <i type="int" name="KBLOCK">    40</i>
   <i type="int" name="NPACO">   256</i>
   <i name="APACO">     16.00000000</i>
  </separator>
  <separator name="symmetry" >
   <i type="int" name="ISYM">     2</i>
   <i name="SYMPREC">      0.00001000</i>
  </separator>
  <separator name="dos" >
   <i type="int" name="LORBIT">     0</i>
   <v name="RWIGS">     -1.00000000     -1.00000000</v>
   <i type="int" name="NEDOS">   301</i>
   <i name="EMIN">     10.00000000</i>
   <i name="EMAX">    -10.00000000</i>
   <i name="EFERMI">      0.00000000</i>
  </separator>
  <separator name="writing" >
   <i type="int" name="NWRITE">     2</i>
   <i type="logical" name="LWAVE"> F  </i>
   <i type="logical" name="LDOWNSAMPLE"> F  </i>
   <i type="logical" name="LCHARG"> F  </i>
   <i type="logical" name="LPARD"> F  </i>
   <i type="logical" name="LVTOT"> F  </i>
   <i type="logical" name="LVHAR"> F  </i>
   <i type="logical" name="LELF"> F  </i>
   <i type="logical" name="LOPTICS"> F  </i>
   <v name="STM">      0.00000000      0.00000000      0.00000000      0.00000000      0.00000000      0.00000000      0.00000000</v>
  </separator>
  <separator name="performance" >
   <i type="int" name="NPAR">     1</i>
   <i type="int" name="NSIM">     4</i>
   <i type="int" name="NBLK">    -1</i>
   <i type="logical" name="LPLANE"> T  </i>
   <i type="logical" name="LSCALAPACK"> T  </i>
   <i type="logical" name="LSCAAWARE"> F  </i>
   <i type="logical" name="LSCALU"> F  </i>
   <i type="logical" name="LASYNC"> F  </i>
   <i type="logical" name="LORBITALREAL"> F  </i>
  </separator>
  <separator name="miscellaneous" >
   <i type="int" name="IDIOT">     3</i>
   <i type="int" name="PHON_NSTRUCT">    -1</i>
   <i type="logical" name="LMUSIC"> F  </i>
   <v name="POMASS">     26.98200000     16.00000000</v>
   <v name="DARWINR">      0.00000000      0.00000000</v>
   <v name="DARWINV">      1.00000000      1.00000000</v>
   <i type="logical" name="LCORR"> T  </i>
  </separator>
  <i type="logical" name="GGA_COMPAT"> T  </i>
  <i type="logical" name="LBERRY"> F  </i>
  <i type="int" name="ICORELEVEL">     0</i>
  <i type="logical" name="LDAU"> F  </i>
  <i type="int" name="I_CONSTRAINED_M">     0</i>
  <separator name="electronic exchange-correlation" >
   <i type="string" name="GGA">--</i>
   <i type="int" name="VOSKOWN">     0</i>
   <i type="logical" name="LHFCALC"> F  </i>
   <i type="string" name="PRECFOCK"></i>
   <i type="logical" name="LSYMGRAD"> F  </i>
   <i type="logical" name="LHFONE"> F  </i>
   <i type="logical" name="LRHFCALC"> F  </i>
   <i type="logical" name="LTHOMAS"> F  </i>
   <i type="logical" name="LMODELHF"> F  </i>
   <i type="logical" name="LFOCKACE"> F  </i>
   <i name="ENCUT4O">     -1.00000000</i>
   <i type="int" name="EXXOEP">     0</i>
   <i type="int" name="FOURORBIT">     0</i>
   <i name="AEXX">      0.00000000</i>
   <i name="HFALPHA">      0.00000000</i>
   <i name="MCALPHA">      0.00000000</i>
   <i name="ALDAX">      1.00000000</i>
   <i name="AGGAX">      1.00000000</i>
   <i name="ALDAC">      1.00000000</i>
   <i name="AGGAC">      1.00000000</i>
   <i type="int" name="NKREDX">     1</i>
   <i type="int" name="NKREDY">     1</i>
   <i type="int" name="NKREDZ">     1</i>
   <i type="logical" name="SHIFTRED"> F  </i>
   <i type="logical" name="ODDONLY"> F  </i>
   <i type="logical" name="EVENONLY"> F  </i>
   <i type="int" name="LMAXFOCK">     0</i>
   <i type="int" name="NMAXFOCKAE">     0</i>
   <i type="logical" name="LFOCKAEDFT"> F  </i>
   <i name="HFSCREEN">      0.00000000</i>
   <i name="HFSCREENC">      0.00000000</i>
   <i type="int" name="NBANDSGWLOW">     0</i>
  </separator>
  <separator name="vdW DFT" >
   <i type="logical" name="LUSE_VDW"> F  </i>
   <i name="Zab_VDW">     -0.84910000</i>
   <i name="PARAM1">      0.12340000</i>
   <i name="PARAM2">      1.00000000</i>
   <i name="PARAM3">      0.00000000</i>
  </separator>
  <separator name="model GW" >
   <i type="int" name="MODEL_GW">     0</i>
   <i name="MODEL_EPS0">     15.17614185</i>
   <i name="MODEL_ALPHA">      1.00000000</i>
  </separator>
  <separator name="linear response parameters" >
   <i type="logical" name="LEPSILON"> F  </i>
   <i type="logical" name="LRPA"> F  </i>
   <i type="logical" name="LNABLA"> F  </i>
   <i type="logical" name="LVEL"> F  </i>
   <i type="int" name="KINTER">     0</i>
   <i name="CSHIFT">      0.10000000</i>
   <i name="OMEGAMAX">     -1.00000000</i>
   <i name="DEG_THRESHOLD">      0.00200000</i>
   <i name="RTIME">     -0.10000000</i>
   <i name="WPLASMAI">      0.00000000</i>
   <v name="DFIELD">      0.00000000      0.00000000      0.00000000</v>
   <v name="WPLASMA">      0.00000000      0.00000000      0.00000000      0.00000000      0.00000000      0.00000000      0.00000000      0.00000000      0.00000000</v>
  </separator>
  <separator name="orbital magnetization" >
   <i type="logical" name="NUCIND"> F  </i>
   <v name="MAGPOS">      0.00000000      0.00000000      0.00000000</v>
   <i type="logical" name="LNICSALL"> T  </i>
   <i type="logical" name="ORBITALMAG"> F  </i>
   <i type="logical" name="LMAGBLOCH"> F  </i>
   <i type="logical" name="LCHIMAG"> F  </i>
   <i type="logical" name="LGAUGE"> T  </i>
   <i type="int" name="MAGATOM">     0</i>
   <v name="MAGDIPOL">      0.00000000      0.00000000      0.00000000</v>
   <v name="AVECCONST">      0.00000000      0.00000000      0.00000000</v>
  </separator>
  <separator name="response functions" >
   <i type="logical" name="LFINITE_TEMPERATURE"> F  </i>
   <i type="logical" name="LADDER"> F  </i>
   <i type="logical" name="LRPAFORCE"> F  </i>
   <i type="logical" name="LFXC"> F  </i>
   <i type="logical" name="LHARTREE"> T  </i>
   <i type="int" name="IBSE">     0</i>
   <v type="int" name="KPOINT">    -1     0     0     0</v>
   <i type="logical" name="LTCTC"> F  </i>
   <i type="logical" name="LTCTE"> F  </i>
   <i type="logical" name="LTETE"> F  </i>
   <i type="logical" name="LTRIPLET"> F  </i>
   <i type="logical" name="LFXCEPS"> F  </i>
   <i type="logical" name="LFXHEG"> F  </i>
   <i type="int" name="NATURALO">     2</i>
   <i type="logical" name="LHOLEGF"> F  </i>
   <i type="logical" name="L2ORDER"> F  </i>
   <i type="logical" name="LDMP1"> F  </i>
   <i type="logical" name="LMP2LT"> F  </i>
   <i type="logical" name="LSMP2LT"> F  </i>
   <i type="logical" name="LGWLF"> F  </i>
   <i name="ENCUTGW">     -2.00000000</i>
   <i name="ENCUTGWSOFT">     -2.00000000</i>
   <i name="ENCUTLF">     -1.00000000</i>
   <i type="logical" name="LESF_SPLINES"> F  </i>
   <i type="int" name="LMAXMP2">    -1</i>
   <i name="SCISSOR">      0.00000000</i>
   <i type="int" name="NOMEGA">     0</i>
   <i type="int" name="NOMEGAR">     0</i>
   <i type="int" name="NBANDSGW">    -1</i>
   <i type="int" name="NBANDSO">    -1</i>
   <i type="int" name="NBANDSV">    -1</i>
   <i type="int" name="NELM">     1</i>
   <i type="int" name="NELMHF">     1</i>
   <i type="int" name="DIM">     3</i>
   <i type="int" name="IESPILON">     4</i>
   <i type="int" name="ANTIRES">     0</i>
   <i name="OMEGAMAX">    -30.00000000</i>
   <i name="OMEGAMIN">    -30.00000000</i>
   <i name="OMEGATL">   -200.00000000</i>
   <i type="int" name="OMEGAGRID">     0</i>
   <i name="CSHIFT">     -0.10000000</i>
   <i type="logical" name="LSELFENERGY"> F  </i>
   <i type="logical" name="LSPECTRAL"> F  </i>
   <i type="logical" name="LSPECTRALGW"> F  </i>
   <i type="logical" name="LSINGLES"> F  </i>
   <i type="logical" name="LFERMIGW"> F  </i>
   <i type="logical" name="ODDONLYGW"> F  </i>
   <i type="logical" name="EVENONLYGW"> F  </i>
   <i type="int" name="NKREDLFX">     1</i>
   <i type="int" name="NKREDLFY">     1</i>
   <i type="int" name="NKREDLFZ">     1</i>
   <i type="int" name="MAXMEM">  2800</i>
   <i type="int" name="TELESCOPE">     0</i>
   <i type="int" name="NTAUPAR">    -1</i>
   <i type="int" name="NOMEGAPAR">    -1</i>
   <i name="DAMP_NEWTON">      0.80000001</i>
   <i name="LAMBDA">      1.00000000</i>
  </separator>
  <separator name="External order field" >
   <i name="OFIELD_KAPPA">      0.00000000</i>
   <v name="OFIELD_K">      0.00000000      0.00000000      0.00000000</v>
   <i name="OFIELD_Q6_NEAR">      0.00000000</i>
   <i name="OFIELD_Q6_FAR">      0.00000000</i>
   <i name="OFIELD_A">      0.00000000</i>
  </separator>
 </parameters>
 <atominfo>
  <atoms>     380 </atoms>
  <types>       2 </types>
  <array name="atoms" >
   <dimension dim="1">ion</dimension>
   <field type="string">element</field>
   <field type="int">atomtype</field>
   <set>
    <rc><c>Al</c><c>   1</c></rc>
    <rc><c>Al</c><c>   1</c></rc>
    <rc><c>Al</c><c>   1</c></rc>
    <rc><c>Al</c><c>   1</c></rc>
    <rc><c>Al</c><c>   1</c></rc>
    <rc><c>Al</c><c>   1</c></rc>
    <rc><c>Al</c><c>   1</c></rc>
    <rc><c>Al</c><c>   1</c></rc>
    <rc><c>Al</c><c>   1</c></rc>
    <rc><c>Al</c><c>   1</c></rc>
    <rc><c>Al</c><c>   1</c></rc>
    <rc><c>Al</c><c>   1</c></rc>
    <rc><c>Al</c><c>   1</c></rc>
    <rc><c>Al</c><c>   1</c></rc>
    <rc><c>Al</c><c>   1</c></rc>
    <rc><c>Al</c><c>   1</c></rc>
    <rc><c>Al</c><c>   1</c></rc>
    <rc><c>Al</c><c>   1</c></rc>
    <rc><c>Al</c><c>   1</c></rc>
    <rc><c>Al</c><c>   1</c></rc>
    <rc><c>Al</c><c>   1</c></rc>
    <rc><c>Al</c><c>   1</c></rc>
    <rc><c>Al</c><c>   1</c></rc>
    <rc><c>Al</c><c>   1</c></rc>
    <rc><c>Al</c><c>   1</c></rc>
    <rc><c>Al</c><c>   1</c></rc>
    <rc><c>Al</c><c>   1</c></rc>
    <rc><c>Al</c><c>   1</c></rc>
    <rc><c>Al</c><c>   1</c></rc>
    <rc><c>Al</c><c>   1</c></rc>
    <rc><c>Al</c><c>   1</c></rc>
    <rc><c>Al</c><c>   1</c></rc>
    <rc><c>Al</c><c>   1</c></rc>
    <rc><c>Al</c><c>   1</c></rc>
    <rc><c>Al</c><c>   1</c></rc>
    <rc><c>Al</c><c>   1</c></rc>
    <rc><c>Al</c><c>   1</c></rc>
    <rc><c>Al</c><c>   1</c></rc>
    <rc><c>Al</c><c>   1</c></rc>
    <rc><c>Al</c><c>   1</c></rc>
    <rc><c>Al</c><c>   1</c></rc>
    <rc><c>Al</c><c>   1</c></rc>
    <rc><c>Al</c><c>   1</c></rc>
    <rc><c>Al</c><c>   1</c></rc>
    <rc><c>Al</c><c>   1</c></rc>
    <rc><c>Al</c><c>   1</c></rc>
    <rc><c>Al</c><c>   1</c></rc>
    <rc><c>Al</c><c>   1</c></rc>
    <rc><c>Al</c><c>   1</c></rc>
    <rc><c>Al</c><c>   1</c></rc>
    <rc><c>Al</c><c>   1</c></rc>
    <rc><c>Al</c><c>   1</c></rc>
    <rc><c>Al</c><c>   1</c></rc>
    <rc><c>Al</c><c>   1</c></rc>
    <rc><c>Al</c><c>   1</c></rc>
    <rc><c>Al</c><c>   1</c></rc>
    <rc><c>Al</c><c>   1</c></rc>
    <rc><c>Al</c><c>   1</c></rc>
    <rc><c>Al</c><c>   1</c></rc>
    <rc><c>Al</c><c>   1</c></rc>
    <rc><c>Al</c><c>   1</c></rc>
    <rc><c>Al</c><c>   1</c></rc>
    <rc><c>Al</c><c>   1</c></rc>
    <rc><c>Al</c><c>   1</c></rc>
    <rc><c>Al</c><c>   1</c></rc>
    <rc><c>Al</c><c>   1</c></rc>
    <rc><c>Al</c><c>   1</c></rc>
    <rc><c>Al</c><c>   1</c></rc>
    <rc><c>Al</c><c>   1</c></rc>
    <rc><c>Al</c><c>   1</c></rc>
    <rc><c>Al</c><c>   1</c></rc>
    <rc><c>Al</c><c>   1</c></rc>
    <rc><c>Al</c><c>   1</c></rc>
    <rc><c>Al</c><c>   1</c></rc>
    <rc><c>Al</c><c>   1</c></rc>
    <rc><c>Al</c><c>   1</c></rc>
    <rc><c>Al</c><c>   1</c></rc>
    <rc><c>Al</c><c>   1</c></rc>
    <rc><c>Al</c><c>   1</c></rc>
    <rc><c>Al</c><c>   1</c></rc>
    <rc><c>Al</c><c>   1</c></rc>
    <rc><c>Al</c><c>   1</c></rc>
    <rc><c>Al</c><c>   1</c></rc>
    <rc><c>Al</c><c>   1</c></rc>
    <rc><c>Al</c><c>   1</c></rc>
    <rc><c>Al</c><c>   1</c></rc>
    <rc><c>Al</c><c>   1</c></rc>
    <rc><c>Al</c><c>   1</c></rc>
    <rc><c>Al</c><c>   1</c></rc>
    <rc><c>Al</c><c>   1</c></rc>
    <rc><c>Al</c><c>   1</c></rc>
    <rc><c>Al</c><c>   1</c></rc>
    <rc><c>Al</c><c>   1</c></rc>
    <rc><c>Al</c><c>   1</c></rc>
    <rc><c>Al</c><c>   1</c></rc>
    <rc><c>Al</c><c>   1</c></rc>
    <rc><c>Al</c><c>   1</c></rc>
    <rc><c>Al</c><c>   1</c></rc>
    <rc><c>Al</c><c>   1</c></rc>
    <rc><c>Al</c><c>   1</c></rc>
    <rc><c>Al</c><c>   1</c></rc>
    <rc><c>Al</c><c>   1</c></rc>
    <rc><c>Al</c><c>   1</c></rc>
    <rc><c>Al</c><c>   1</c></rc>
    <rc><c>Al</c><c>   1</c></rc>
    <rc><c>Al</c><c>   1</c></rc>
    <rc><c>Al</c><c>   1</c></rc>
    <rc><c>Al</c><c>   1</c></rc>
    <rc><c>Al</c><c>   1</c></rc>
    <rc><c>Al</c><c>   1</c></rc>
    <rc><c>Al</c><c>   1</c></rc>
    <rc><c>Al</c><c>   1</c></rc>
    <rc><c>Al</c><c>   1</c></rc>
    <rc><c>Al</c><c>   1</c></rc>
    <rc><c>Al</c><c>   1</c></rc>
    <rc><c>Al</c><c>   1</c></rc>
    <rc><c>Al</c><c>   1</c></rc>
    <rc><c>Al</c><c>   1</c></rc>
    <rc><c>Al</c><c>   1</c></rc>
    <rc><c>Al</c><c>   1</c></rc>
    <rc><c>Al</c><c>   1</c></rc>
    <rc><c>Al</c><c>   1</c></rc>
    <rc><c>Al</c><c>   1</c></rc>
    <rc><c>Al</c><c>   1</c></rc>
    <rc><c>Al</c><c>   1</c></rc>
    <rc><c>Al</c><c>   1</c></rc>
    <rc><c>Al</c><c>   1</c></rc>
    <rc><c>Al</c><c>   1</c></rc>
    <rc><c>Al</c><c>   1</c></rc>
    <rc><c>Al</c><c>   1</c></rc>
    <rc><c>Al</c><c>   1</c></rc>
    <rc><c>Al</c><c>   1</c></rc>
    <rc><c>Al</c><c>   1</c></rc>
    <rc><c>Al</c><c>   1</c></rc>
    <rc><c>Al</c><c>   1</c></rc>
    <rc><c>Al</c><c>   1</c></rc>
    <rc><c>Al</c><c>   1</c></rc>
    <rc><c>Al</c><c>   1</c></rc>
    <rc><c>Al</c><c>   1</c></rc>
    <rc><c>Al</c><c>   1</c></rc>
    <rc><c>Al</c><c>   1</c></rc>
    <rc><c>Al</c><c>   1</c></rc>
    <rc><c>Al</c><c>   1</c></rc>
    <rc><c>Al</c><c>   1</c></rc>
    <rc><c>Al</c><c>   1</c></rc>
    <rc><c>Al</c><c>   1</c></rc>
    <rc><c>Al</c><c>   1</c></rc>
    <rc><c>Al</c><c>   1</c></rc>
    <rc><c>Al</c><c>   1</c></rc>
    <rc><c>Al</c><c>   1</c></rc>
    <rc><c>Al</c><c>   1</c></rc>
    <rc><c>Al</c><c>   1</c></rc>
    <rc><c>Al</c><c>   1</c></rc>
    <rc><c>Al</c><c>   1</c></rc>
    <rc><c>Al</c><c>   1</c></rc>
    <rc><c>Al</c><c>   1</c></rc>
    <rc><c>Al</c><c>   1</c></rc>
    <rc><c>Al</c><c>   1</c></rc>
    <rc><c>Al</c><c>   1</c></rc>
    <rc><c>Al</c><c>   1</c></rc>
    <rc><c>Al</c><c>   1</c></rc>
    <rc><c>Al</c><c>   1</c></rc>
    <rc><c>Al</c><c>   1</c></rc>
    <rc><c>Al</c><c>   1</c></rc>
    <rc><c>Al</c><c>   1</c></rc>
    <rc><c>Al</c><c>   1</c></rc>
    <rc><c>Al</c><c>   1</c></rc>
    <rc><c>Al</c><c>   1</c></rc>
    <rc><c>Al</c><c>   1</c></rc>
    <rc><c>Al</c><c>   1</c></rc>
    <rc><c>Al</c><c>   1</c></rc>
    <rc><c>Al</c><c>   1</c></rc>
    <rc><c>Al</c><c>   1</c></rc>
    <rc><c>Al</c><c>   1</c></rc>
    <rc><c>Al</c><c>   1</c></rc>
    <rc><c>Al</c><c>   1</c></rc>
    <rc><c>Al</c><c>   1</c></rc>
    <rc><c>Al</c><c>   1</c></rc>
    <rc><c>Al</c><c>   1</c></rc>
    <rc><c>Al</c><c>   1</c></rc>
    <rc><c>Al</c><c>   1</c></rc>
    <rc><c>Al</c><c>   1</c></rc>
    <rc><c>Al</c><c>   1</c></rc>
    <rc><c>Al</c><c>   1</c></rc>
    <rc><c>Al</c><c>   1</c></rc>
    <rc><c>Al</c><c>   1</c></rc>
    <rc><c>Al</c><c>   1</c></rc>
    <rc><c>Al</c><c>   1</c></rc>
    <rc><c>Al</c><c>   1</c></rc>
    <rc><c>Al</c><c>   1</c></rc>
    <rc><c>Al</c><c>   1</c></rc>
    <rc><c>Al</c><c>   1</c></rc>
    <rc><c>Al</c><c>   1</c></rc>
    <rc><c>Al</c><c>   1</c></rc>
    <rc><c>Al</c><c>   1</c></rc>
    <rc><c>Al</c><c>   1</c></rc>
    <rc><c>Al</c><c>   1</c></rc>
    <rc><c>Al</c><c>   1</c></rc>
    <rc><c>Al</c><c>   1</c></rc>
    <rc><c>Al</c><c>   1</c></rc>
    <rc><c>Al</c><c>   1</c></rc>
    <rc><c>Al</c><c>   1</c></rc>
    <rc><c>Al</c><c>   1</c></rc>
    <rc><c>Al</c><c>   1</c></rc>
    <rc><c>Al</c><c>   1</c></rc>
    <rc><c>Al</c><c>   1</c></rc>
    <rc><c>Al</c><c>   1</c></rc>
    <rc><c>Al</c><c>   1</c></rc>
    <rc><c>Al</c><c>   1</c></rc>
    <rc><c>Al</c><c>   1</c></rc>
    <rc><c>Al</c><c>   1</c></rc>
    <rc><c>Al</c><c>   1</c></rc>
    <rc><c>Al</c><c>   1</c></rc>
    <rc><c>Al</c><c>   1</c></rc>
    <rc><c>Al</c><c>   1</c></rc>
    <rc><c>Al</c><c>   1</c></rc>
    <rc><c>Al</c><c>   1</c></rc>
    <rc><c>Al</c><c>   1</c></rc>
    <rc><c>Al</c><c>   1</c></rc>
    <rc><c>Al</c><c>   1</c></rc>
    <rc><c>Al</c><c>   1</c></rc>
    <rc><c>Al</c><c>   1</c></rc>
    <rc><c>Al</c><c>   1</c></rc>
    <rc><c>Al</c><c>   1</c></rc>
    <rc><c>Al</c><c>   1</c></rc>
    <rc><c>Al</c><c>   1</c></rc>
    <rc><c>Al</c><c>   1</c></rc>
    <rc><c>Al</c><c>   1</c></rc>
    <rc><c>Al</c><c>   1</c></rc>
    <rc><c>Al</c><c>   1</c></rc>
    <rc><c>Al</c><c>   1</c></rc>
    <rc><c>Al</c><c>   1</c></rc>
    <rc><c>Al</c><c>   1</c></rc>
    <rc><c>Al</c><c>   1</c></rc>
    <rc><c>Al</c><c>   1</c></rc>
    <rc><c>Al</c><c>   1</c></rc>
    <rc><c>Al</c><c>   1</c></rc>
    <rc><c>Al</c><c>   1</c></rc>
    <rc><c>Al</c><c>   1</c></rc>
    <rc><c>Al</c><c>   1</c></rc>
    <rc><c>Al</c><c>   1</c></rc>
    <rc><c>Al</c><c>   1</c></rc>
    <rc><c>Al</c><c>   1</c></rc>
    <rc><c>Al</c><c>   1</c></rc>
    <rc><c>Al</c><c>   1</c></rc>
    <rc><c>Al</c><c>   1</c></rc>
    <rc><c>Al</c><c>   1</c></rc>
    <rc><c>Al</c><c>   1</c></rc>
    <rc><c>Al</c><c>   1</c></rc>
    <rc><c>Al</c><c>   1</c></rc>
    <rc><c>Al</c><c>   1</c></rc>
    <rc><c>Al</c><c>   1</c></rc>
    <rc><c>O </c><c>   2</c></rc>
    <rc><c>O </c><c>   2</c></rc>
    <rc><c>O </c><c>   2</c></rc>
    <rc><c>O </c><c>   2</c></rc>
    <rc><c>O </c><c>   2</c></rc>
    <rc><c>O </c><c>   2</c></rc>
    <rc><c>O </c><c>   2</c></rc>
    <rc><c>O </c><c>   2</c></rc>
    <rc><c>O </c><c>   2</c></rc>
    <rc><c>O </c><c>   2</c></rc>
    <rc><c>O </c><c>   2</c></rc>
    <rc><c>O </c><c>   2</c></rc>
    <rc><c>O </c><c>   2</c></rc>
    <rc><c>O </c><c>   2</c></rc>
    <rc><c>O </c><c>   2</c></rc>
    <rc><c>O </c><c>   2</c></rc>
    <rc><c>O </c><c>   2</c></rc>
    <rc><c>O </c><c>   2</c></rc>
    <rc><c>O </c><c>   2</c></rc>
    <rc><c>O </c><c>   2</c></rc>
    <rc><c>O </c><c>   2</c></rc>
    <rc><c>O </c><c>   2</c></rc>
    <rc><c>O </c><c>   2</c></rc>
    <rc><c>O </c><c>   2</c></rc>
    <rc><c>O </c><c>   2</c></rc>
    <rc><c>O </c><c>   2</c></rc>
    <rc><c>O </c><c>   2</c></rc>
    <rc><c>O </c><c>   2</c></rc>
    <rc><c>O </c><c>   2</c></rc>
    <rc><c>O </c><c>   2</c></rc>
    <rc><c>O </c><c>   2</c></rc>
    <rc><c>O </c><c>   2</c></rc>
    <rc><c>O </c><c>   2</c></rc>
    <rc><c>O </c><c>   2</c></rc>
    <rc><c>O </c><c>   2</c></rc>
    <rc><c>O </c><c>   2</c></rc>
    <rc><c>O </c><c>   2</c></rc>
    <rc><c>O </c><c>   2</c></rc>
    <rc><c>O </c><c>   2</c></rc>
    <rc><c>O </c><c>   2</c></rc>
    <rc><c>O </c><c>   2</c></rc>
    <rc><c>O </c><c>   2</c></rc>
    <rc><c>O </c><c>   2</c></rc>
    <rc><c>O </c><c>   2</c></rc>
    <rc><c>O </c><c>   2</c></rc>
    <rc><c>O </c><c>   2</c></rc>
    <rc><c>O </c><c>   2</c></rc>
    <rc><c>O </c><c>   2</c></rc>
    <rc><c>O </c><c>   2</c></rc>
    <rc><c>O </c><c>   2</c></rc>
    <rc><c>O </c><c>   2</c></rc>
    <rc><c>O </c><c>   2</c></rc>
    <rc><c>O </c><c>   2</c></rc>
    <rc><c>O </c><c>   2</c></rc>
    <rc><c>O </c><c>   2</c></rc>
    <rc><c>O </c><c>   2</c></rc>
    <rc><c>O </c><c>   2</c></rc>
    <rc><c>O </c><c>   2</c></rc>
    <rc><c>O </c><c>   2</c></rc>
    <rc><c>O </c><c>   2</c></rc>
    <rc><c>O </c><c>   2</c></rc>
    <rc><c>O </c><c>   2</c></rc>
    <rc><c>O </c><c>   2</c></rc>
    <rc><c>O </c><c>   2</c></rc>
    <rc><c>O </c><c>   2</c></rc>
    <rc><c>O </c><c>   2</c></rc>
    <rc><c>O </c><c>   2</c></rc>
    <rc><c>O </c><c>   2</c></rc>
    <rc><c>O </c><c>   2</c></rc>
    <rc><c>O </c><c>   2</c></rc>
    <rc><c>O </c><c>   2</c></rc>
    <rc><c>O </c><c>   2</c></rc>
    <rc><c>O </c><c>   2</c></rc>
    <rc><c>O </c><c>   2</c></rc>
    <rc><c>O </c><c>   2</c></rc>
    <rc><c>O </c><c>   2</c></rc>
    <rc><c>O </c><c>   2</c></rc>
    <rc><c>O </c><c>   2</c></rc>
    <rc><c>O </c><c>   2</c></rc>
    <rc><c>O </c><c>   2</c></rc>
    <rc><c>O </c><c>   2</c></rc>
    <rc><c>O </c><c>   2</c></rc>
    <rc><c>O </c><c>   2</c></rc>
    <rc><c>O </c><c>   2</c></rc>
    <rc><c>O </c><c>   2</c></rc>
    <rc><c>O </c><c>   2</c></rc>
    <rc><c>O </c><c>   2</c></rc>
    <rc><c>O </c><c>   2</c></rc>
    <rc><c>O </c><c>   2</c></rc>
    <rc><c>O </c><c>   2</c></rc>
    <rc><c>O </c><c>   2</c></rc>
    <rc><c>O </c><c>   2</c></rc>
    <rc><c>O </c><c>   2</c></rc>
    <rc><c>O </c><c>   2</c></rc>
    <rc><c>O </c><c>   2</c></rc>
    <rc><c>O </c><c>   2</c></rc>
    <rc><c>O </c><c>   2</c></rc>
    <rc><c>O </c><c>   2</c></rc>
    <rc><c>O </c><c>   2</c></rc>
    <rc><c>O </c><c>   2</c></rc>
    <rc><c>O </c><c>   2</c></rc>
    <rc><c>O </c><c>   2</c></rc>
    <rc><c>O </c><c>   2</c></rc>
    <rc><c>O </c><c>   2</c></rc>
    <rc><c>O </c><c>   2</c></rc>
    <rc><c>O </c><c>   2</c></rc>
    <rc><c>O </c><c>   2</c></rc>
    <rc><c>O </c><c>   2</c></rc>
    <rc><c>O </c><c>   2</c></rc>
    <rc><c>O </c><c>   2</c></rc>
    <rc><c>O </c><c>   2</c></rc>
    <rc><c>O </c><c>   2</c></rc>
    <rc><c>O </c><c>   2</c></rc>
    <rc><c>O </c><c>   2</c></rc>
    <rc><c>O </c><c>   2</c></rc>
    <rc><c>O </c><c>   2</c></rc>
    <rc><c>O </c><c>   2</c></rc>
    <rc><c>O </c><c>   2</c></rc>
    <rc><c>O </c><c>   2</c></rc>
    <rc><c>O </c><c>   2</c></rc>
    <rc><c>O </c><c>   2</c></rc>
    <rc><c>O </c><c>   2</c></rc>
    <rc><c>O </c><c>   2</c></rc>
    <rc><c>O </c><c>   2</c></rc>
    <rc><c>O </c><c>   2</c></rc>
    <rc><c>O </c><c>   2</c></rc>
    <rc><c>O </c><c>   2</c></rc>
    <rc><c>O </c><c>   2</c></rc>
   </set>
  </array>
  <array name="atomtypes" >
   <dimension dim="1">type</dimension>
   <field type="int">atomspertype</field>
   <field type="string">element</field>
   <field>mass</field>
   <field>valence</field>
   <field type="string">pseudopotential</field>
   <set>
    <rc><c> 252</c><c>Al</c><c>     26.98200000</c><c>      3.00000000</c><c>  PAW Al_GW 19Mar2012                   </c></rc>
    <rc><c> 128</c><c>O </c><c>     16.00000000</c><c>      6.00000000</c><c>  PAW O_GW 19Mar2012                    </c></rc>
   </set>
  </array>
 </atominfo>
 <structure name="initialpos" >
  <crystal>
   <varray name="basis" >
    <v>      17.18057251       0.00000000       0.00000000 </v>
    <v>       8.59028725      14.87881167       0.00000000 </v>
    <v>       0.00000000       0.00000000      37.60000000 </v>
   </varray>
   <i name="volume">   9611.55650563 </i>
   <varray name="rec_basis" >
    <v>       0.05820528      -0.03360484       0.00000000 </v>
    <v>       0.00000000       0.06720967       0.00000000 </v>
    <v>       0.00000000       0.00000000       0.02659574 </v>
   </varray>
  </crystal>
  <varray name="positions" >
   <v>       0.44444442       0.44444445       0.06218032 </v>
   <v>       0.44444442       0.77777779       0.06218032 </v>
   <v>       0.44444439       0.11111116       0.06218032 </v>
   <v>       0.77777773       0.44444445       0.06218032 </v>
   <v>       0.77777779       0.77777779       0.06218032 </v>
   <v>       0.77777773       0.11111116       0.06218032 </v>
   <v>       0.11111105       0.44444445       0.06218032 </v>
   <v>       0.11111116       0.77777779       0.06218032 </v>
   <v>       0.11111105       0.11111116       0.06218032 </v>
   <v>       0.55555552       0.55555558       0.12436064 </v>
   <v>       0.55555552       0.88888890       0.12436064 </v>
   <v>       0.55555552       0.22222233       0.12436064 </v>
   <v>       0.88888890       0.55555558       0.12436064 </v>
   <v>       0.88888884       0.88888890       0.12436064 </v>
   <v>       0.88888890       0.22222233       0.12436064 </v>
   <v>       0.22222221       0.55555558       0.12436064 </v>
   <v>       0.22222221       0.88888890       0.12436064 </v>
   <v>       0.22222221       0.22222233       0.12436064 </v>
   <v>       0.66666663       0.66666663       0.18654096 </v>
   <v>       0.66666669       0.00000000       0.18654096 </v>
   <v>       0.66666663       0.33333325       0.18654096 </v>
   <v>       0.00000000       0.66666663       0.18654096 </v>
   <v>       0.00000000       0.00000000       0.18654096 </v>
   <v>       0.00000000       0.33333325       0.18654096 </v>
   <v>       0.33333337       0.66666663       0.18654096 </v>
   <v>       0.33333337       0.00000000       0.18654096 </v>
   <v>       0.33333325       0.33333325       0.18654096 </v>
   <v>       0.77777779       0.77777779       0.24872129 </v>
   <v>       0.77777773       0.11111116       0.24872129 </v>
   <v>       0.77777779       0.44444442       0.24872129 </v>
   <v>       0.11111116       0.77777779       0.24872129 </v>
   <v>       0.11111105       0.11111116       0.24872129 </v>
   <v>       0.11111116       0.44444442       0.24872129 </v>
   <v>       0.44444442       0.77777779       0.24872129 </v>
   <v>       0.44444430       0.11111116       0.24872129 </v>
   <v>       0.44444442       0.44444442       0.24872129 </v>
   <v>       0.88888884       0.88888890       0.31090158 </v>
   <v>       0.88888890       0.22222233       0.31090158 </v>
   <v>       0.88888884       0.55555558       0.31090158 </v>
   <v>       0.22222221       0.88888890       0.31090158 </v>
   <v>       0.22222221       0.22222233       0.31090158 </v>
   <v>       0.22222209       0.55555558       0.31090158 </v>
   <v>       0.55555546       0.88888890       0.31090158 </v>
   <v>       0.55555546       0.22222233       0.31090158 </v>
   <v>       0.55555558       0.55555558       0.31090158 </v>
   <v>       0.00000000       0.00000000       0.37308191 </v>
   <v>       0.00000000       0.33333325       0.37308191 </v>
   <v>       0.00000000       0.66666663       0.37308191 </v>
   <v>       0.33333337       0.00000000       0.37308191 </v>
   <v>       0.33333325       0.33333325       0.37308191 </v>
   <v>       0.33333325       0.66666663       0.37308191 </v>
   <v>       0.66666663       0.00000000       0.37308191 </v>
   <v>       0.66666675       0.33333325       0.37308191 </v>
   <v>       0.66666675       0.66666663       0.37308191 </v>
   <v>       0.11111105       0.11111116       0.43526222 </v>
   <v>       0.11111116       0.44444442       0.43526222 </v>
   <v>       0.11111105       0.77777779       0.43526222 </v>
   <v>       0.44444430       0.11111116       0.43526222 </v>
   <v>       0.44444442       0.44444442       0.43526222 </v>
   <v>       0.44444442       0.77777779       0.43526222 </v>
   <v>       0.77777779       0.11111116       0.43526222 </v>
   <v>       0.77777791       0.44444442       0.43526222 </v>
   <v>       0.77777767       0.77777779       0.43526222 </v>
   <v>       0.27777776       0.27777779       0.06218032 </v>
   <v>       0.27777776       0.61111116       0.06218032 </v>
   <v>       0.27777779       0.94444448       0.06218032 </v>
   <v>       0.61111110       0.27777779       0.06218032 </v>
   <v>       0.61111110       0.61111116       0.06218032 </v>
   <v>       0.61111110       0.94444448       0.06218032 </v>
   <v>       0.94444442       0.27777779       0.06218032 </v>
   <v>       0.94444448       0.61111116       0.06218032 </v>
   <v>       0.94444442       0.94444448       0.06218032 </v>
   <v>       0.38888890       0.38888890       0.12436064 </v>
   <v>       0.38888890       0.72222221       0.12436064 </v>
   <v>       0.38888893       0.05555558       0.12436064 </v>
   <v>       0.72222221       0.38888890       0.12436064 </v>
   <v>       0.72222221       0.72222221       0.12436064 </v>
   <v>       0.72222227       0.05555558       0.12436064 </v>
   <v>       0.05555558       0.38888890       0.12436064 </v>
   <v>       0.05555558       0.72222221       0.12436064 </v>
   <v>       0.05555546       0.05555558       0.12436064 </v>
   <v>       0.50000000       0.50000000       0.18654096 </v>
   <v>       0.50000006       0.83333331       0.18654096 </v>
   <v>       0.49999997       0.16666675       0.18654096 </v>
   <v>       0.83333331       0.50000000       0.18654096 </v>
   <v>       0.83333337       0.83333331       0.18654096 </v>
   <v>       0.83333331       0.16666675       0.18654096 </v>
   <v>       0.16666663       0.50000000       0.18654096 </v>
   <v>       0.16666663       0.83333331       0.18654096 </v>
   <v>       0.16666663       0.16666675       0.18654096 </v>
   <v>       0.61111110       0.61111116       0.24872129 </v>
   <v>       0.61111110       0.94444448       0.24872129 </v>
   <v>       0.61111116       0.27777779       0.24872129 </v>
   <v>       0.94444448       0.61111116       0.24872129 </v>
   <v>       0.94444442       0.94444448       0.24872129 </v>
   <v>       0.94444442       0.27777779       0.24872129 </v>
   <v>       0.27777767       0.61111116       0.24872129 </v>
   <v>       0.27777779       0.94444448       0.24872129 </v>
   <v>       0.27777779       0.27777779       0.24872129 </v>
   <v>       0.72222221       0.72222221       0.31090158 </v>
   <v>       0.72222227       0.05555558       0.31090158 </v>
   <v>       0.72222221       0.38888884       0.31090158 </v>
   <v>       0.05555558       0.72222221       0.31090158 </v>
   <v>       0.05555546       0.05555558       0.31090158 </v>
   <v>       0.05555558       0.38888884       0.31090158 </v>
   <v>       0.38888895       0.72222221       0.31090158 </v>
   <v>       0.38888884       0.05555558       0.31090158 </v>
   <v>       0.38888895       0.38888884       0.31090158 </v>
   <v>       0.83333337       0.83333331       0.37308191 </v>
   <v>       0.83333331       0.16666675       0.37308191 </v>
   <v>       0.83333325       0.50000000       0.37308191 </v>
   <v>       0.16666663       0.83333331       0.37308191 </v>
   <v>       0.16666663       0.16666675       0.37308191 </v>
   <v>       0.16666663       0.50000000       0.37308191 </v>
   <v>       0.50000000       0.83333331       0.37308191 </v>
   <v>       0.50000000       0.16666675       0.37308191 </v>
   <v>       0.50000012       0.50000000       0.37308191 </v>
   <v>       0.94444442       0.94444448       0.43526222 </v>
   <v>       0.94444442       0.27777779       0.43526222 </v>
   <v>       0.94444448       0.61111105       0.43526222 </v>
   <v>       0.27777779       0.94444448       0.43526222 </v>
   <v>       0.27777779       0.27777779       0.43526222 </v>
   <v>       0.27777779       0.61111105       0.43526222 </v>
   <v>       0.61111116       0.94444448       0.43526222 </v>
   <v>       0.61111128       0.27777779       0.43526222 </v>
   <v>       0.61111105       0.61111105       0.43526222 </v>
   <v>       0.27777776       0.44444445       0.06218032 </v>
   <v>       0.27777773       0.77777779       0.06218032 </v>
   <v>       0.27777776       0.11111116       0.06218032 </v>
   <v>       0.61111110       0.44444445       0.06218032 </v>
   <v>       0.61111105       0.77777779       0.06218032 </v>
   <v>       0.61111110       0.11111116       0.06218032 </v>
   <v>       0.94444448       0.44444445       0.06218032 </v>
   <v>       0.94444442       0.77777779       0.06218032 </v>
   <v>       0.94444448       0.11111116       0.06218032 </v>
   <v>       0.38888887       0.55555558       0.12436064 </v>
   <v>       0.38888887       0.88888890       0.12436064 </v>
   <v>       0.38888881       0.22222233       0.12436064 </v>
   <v>       0.72222215       0.55555558       0.12436064 </v>
   <v>       0.72222221       0.88888890       0.12436064 </v>
   <v>       0.72222215       0.22222233       0.12436064 </v>
   <v>       0.05555546       0.55555558       0.12436064 </v>
   <v>       0.05555558       0.88888890       0.12436064 </v>
   <v>       0.05555546       0.22222233       0.12436064 </v>
   <v>       0.50000000       0.66666663       0.18654096 </v>
   <v>       0.49999994       0.00000000       0.18654096 </v>
   <v>       0.50000000       0.33333325       0.18654096 </v>
   <v>       0.83333337       0.66666663       0.18654096 </v>
   <v>       0.83333331       0.00000000       0.18654096 </v>
   <v>       0.83333337       0.33333325       0.18654096 </v>
   <v>       0.16666675       0.66666663       0.18654096 </v>
   <v>       0.16666663       0.00000000       0.18654096 </v>
   <v>       0.16666675       0.33333325       0.18654096 </v>
   <v>       0.61111105       0.77777779       0.24872129 </v>
   <v>       0.61111110       0.11111116       0.24872129 </v>
   <v>       0.61111105       0.44444442       0.24872129 </v>
   <v>       0.94444442       0.77777779       0.24872129 </v>
   <v>       0.94444448       0.11111116       0.24872129 </v>
   <v>       0.94444442       0.44444442       0.24872129 </v>
   <v>       0.27777779       0.77777779       0.24872129 </v>
   <v>       0.27777779       0.11111116       0.24872129 </v>
   <v>       0.27777767       0.44444442       0.24872129 </v>
   <v>       0.72222221       0.88888890       0.31090158 </v>
   <v>       0.72222215       0.22222233       0.31090158 </v>
   <v>       0.72222221       0.55555558       0.31090158 </v>
   <v>       0.05555558       0.88888890       0.31090158 </v>
   <v>       0.05555546       0.22222233       0.31090158 </v>
   <v>       0.05555558       0.55555558       0.31090158 </v>
   <v>       0.38888895       0.88888890       0.31090158 </v>
   <v>       0.38888872       0.22222233       0.31090158 </v>
   <v>       0.38888884       0.55555558       0.31090158 </v>
   <v>       0.83333331       0.00000000       0.37308191 </v>
   <v>       0.83333337       0.33333325       0.37308191 </v>
   <v>       0.83333331       0.66666663       0.37308191 </v>
   <v>       0.16666663       0.00000000       0.37308191 </v>
   <v>       0.16666675       0.33333325       0.37308191 </v>
   <v>       0.16666663       0.66666663       0.37308191 </v>
   <v>       0.49999988       0.00000000       0.37308191 </v>
   <v>       0.50000000       0.33333325       0.37308191 </v>
   <v>       0.50000000       0.66666663       0.37308191 </v>
   <v>       0.94444448       0.11111116       0.43526222 </v>
   <v>       0.94444442       0.44444442       0.43526222 </v>
   <v>       0.94444448       0.77777779       0.43526222 </v>
   <v>       0.27777779       0.11111116       0.43526222 </v>
   <v>       0.27777767       0.44444442       0.43526222 </v>
   <v>       0.27777767       0.77777779       0.43526222 </v>
   <v>       0.61111105       0.11111116       0.43526222 </v>
   <v>       0.61111116       0.44444442       0.43526222 </v>
   <v>       0.61111116       0.77777779       0.43526222 </v>
   <v>       0.44444445       0.27777779       0.06218032 </v>
   <v>       0.44444445       0.61111116       0.06218032 </v>
   <v>       0.44444445       0.94444448       0.06218032 </v>
   <v>       0.77777779       0.27777779       0.06218032 </v>
   <v>       0.77777773       0.61111116       0.06218032 </v>
   <v>       0.77777779       0.94444448       0.06218032 </v>
   <v>       0.11111116       0.27777779       0.06218032 </v>
   <v>       0.11111105       0.61111116       0.06218032 </v>
   <v>       0.11111105       0.94444448       0.06218032 </v>
   <v>       0.55555558       0.38888890       0.12436064 </v>
   <v>       0.55555558       0.72222221       0.12436064 </v>
   <v>       0.55555552       0.05555558       0.12436064 </v>
   <v>       0.88888884       0.38888890       0.12436064 </v>
   <v>       0.88888895       0.72222221       0.12436064 </v>
   <v>       0.88888890       0.05555558       0.12436064 </v>
   <v>       0.22222221       0.38888890       0.12436064 </v>
   <v>       0.22222221       0.72222221       0.12436064 </v>
   <v>       0.22222221       0.05555558       0.12436064 </v>
   <v>       0.66666669       0.50000000       0.18654096 </v>
   <v>       0.66666663       0.83333331       0.18654096 </v>
   <v>       0.66666669       0.16666675       0.18654096 </v>
   <v>       0.00000000       0.50000000       0.18654096 </v>
   <v>       0.00000000       0.83333331       0.18654096 </v>
   <v>       0.00000000       0.16666675       0.18654096 </v>
   <v>       0.33333325       0.50000000       0.18654096 </v>
   <v>       0.33333337       0.83333331       0.18654096 </v>
   <v>       0.33333325       0.16666675       0.18654096 </v>
   <v>       0.77777773       0.61111116       0.24872129 </v>
   <v>       0.77777779       0.94444448       0.24872129 </v>
   <v>       0.77777779       0.27777779       0.24872129 </v>
   <v>       0.11111105       0.61111116       0.24872129 </v>
   <v>       0.11111105       0.94444448       0.24872129 </v>
   <v>       0.11111116       0.27777779       0.24872129 </v>
   <v>       0.44444442       0.61111116       0.24872129 </v>
   <v>       0.44444442       0.94444448       0.24872129 </v>
   <v>       0.44444454       0.27777779       0.24872129 </v>
   <v>       0.88888895       0.72222221       0.31090158 </v>
   <v>       0.88888890       0.05555558       0.31090158 </v>
   <v>       0.88888884       0.38888884       0.31090158 </v>
   <v>       0.22222221       0.72222221       0.31090158 </v>
   <v>       0.22222221       0.05555558       0.31090158 </v>
   <v>       0.22222221       0.38888884       0.31090158 </v>
   <v>       0.55555546       0.72222221       0.31090158 </v>
   <v>       0.55555558       0.05555558       0.31090158 </v>
   <v>       0.55555570       0.38888884       0.31090158 </v>
   <v>       0.00000000       0.83333331       0.37308191 </v>
   <v>       0.00000000       0.16666675       0.37308191 </v>
   <v>       0.00000000       0.50000000       0.37308191 </v>
   <v>       0.33333337       0.83333331       0.37308191 </v>
   <v>       0.33333325       0.16666675       0.37308191 </v>
   <v>       0.33333337       0.50000000       0.37308191 </v>
   <v>       0.66666675       0.83333331       0.37308191 </v>
   <v>       0.66666675       0.16666675       0.37308191 </v>
   <v>       0.66666663       0.50000000       0.37308191 </v>
   <v>       0.11111105       0.94444448       0.43526222 </v>
   <v>       0.11111116       0.27777779       0.43526222 </v>
   <v>       0.11111116       0.61111105       0.43526222 </v>
   <v>       0.44444442       0.94444448       0.43526222 </v>
   <v>       0.44444454       0.27777779       0.43526222 </v>
   <v>       0.44444454       0.61111105       0.43526222 </v>
   <v>       0.77777791       0.94444448       0.43526222 </v>
   <v>       0.77777779       0.27777779       0.43526222 </v>
   <v>       0.77777779       0.61111105       0.43526222 </v>
   <v>       0.00000000       0.00000000       0.47249626 </v>
   <v>       0.00000000       0.00000000       0.50441116 </v>
   <v>       0.00000000       0.12500000       0.47249626 </v>
   <v>       0.00000000       0.12500000       0.50441116 </v>
   <v>       0.00000000       0.25000000       0.47249626 </v>
   <v>       0.00000000       0.25000000       0.50441116 </v>
   <v>       0.00000000       0.37500000       0.47249626 </v>
   <v>       0.00000000       0.37500000       0.50441116 </v>
   <v>       0.00000000       0.50000000       0.47249626 </v>
   <v>       0.00000000       0.50000000       0.50441116 </v>
   <v>       0.00000000       0.62500000       0.47249626 </v>
   <v>       0.00000000       0.62500000       0.50441116 </v>
   <v>       0.00000000       0.75000000       0.47249626 </v>
   <v>       0.00000000       0.75000000       0.50441116 </v>
   <v>       0.00000000       0.87500000       0.47249626 </v>
   <v>       0.00000000       0.87500000       0.50441116 </v>
   <v>       0.12500000       0.00000000       0.47249626 </v>
   <v>       0.12500000       0.00000000       0.50441116 </v>
   <v>       0.12500000       0.12500000       0.47249626 </v>
   <v>       0.12500000       0.12500000       0.50441116 </v>
   <v>       0.12500000       0.25000000       0.47249626 </v>
   <v>       0.12500000       0.25000000       0.50441116 </v>
   <v>       0.12500000       0.37500000       0.47249626 </v>
   <v>       0.12500000       0.37500000       0.50441116 </v>
   <v>       0.12500000       0.50000000       0.47249626 </v>
   <v>       0.12500000       0.50000000       0.50441116 </v>
   <v>       0.12500000       0.62500000       0.47249626 </v>
   <v>       0.12500000       0.62500000       0.50441116 </v>
   <v>       0.12500000       0.75000000       0.47249626 </v>
   <v>       0.12500000       0.75000000       0.50441116 </v>
   <v>       0.12500000       0.87500000       0.47249626 </v>
   <v>       0.12500000       0.87500000       0.50441116 </v>
   <v>       0.25000000       0.00000000       0.47249626 </v>
   <v>       0.25000000       0.00000000       0.50441116 </v>
   <v>       0.25000000       0.12500000       0.47249626 </v>
   <v>       0.25000000       0.12500000       0.50441116 </v>
   <v>       0.25000000       0.25000000       0.47249626 </v>
   <v>       0.25000000       0.25000000       0.50441116 </v>
   <v>       0.25000000       0.37500000       0.47249626 </v>
   <v>       0.25000000       0.37500000       0.50441116 </v>
   <v>       0.25000000       0.50000000       0.47249626 </v>
   <v>       0.25000000       0.50000000       0.50441116 </v>
   <v>       0.25000000       0.62500000       0.47249626 </v>
   <v>       0.25000000       0.62500000       0.50441116 </v>
   <v>       0.25000000       0.75000000       0.47249626 </v>
   <v>       0.25000000       0.75000000       0.50441116 </v>
   <v>       0.25000000       0.87500000       0.47249626 </v>
   <v>       0.25000000       0.87500000       0.50441116 </v>
   <v>       0.37500000       0.00000000       0.47249626 </v>
   <v>       0.37500000       0.00000000       0.50441116 </v>
   <v>       0.37500000       0.12500000       0.47249626 </v>
   <v>       0.37500000       0.12500000       0.50441116 </v>
   <v>       0.37500000       0.25000000       0.47249626 </v>
   <v>       0.37500000       0.25000000       0.50441116 </v>
   <v>       0.37500000       0.37500000       0.47249626 </v>
   <v>       0.37500000       0.37500000       0.50441116 </v>
   <v>       0.37500000       0.50000000       0.47249626 </v>
   <v>       0.37500000       0.50000000       0.50441116 </v>
   <v>       0.37500000       0.62500000       0.47249626 </v>
   <v>       0.37500000       0.62500000       0.50441116 </v>
   <v>       0.37500000       0.75000000       0.47249626 </v>
   <v>       0.37500000       0.75000000       0.50441116 </v>
   <v>       0.37500000       0.87500000       0.47249626 </v>
   <v>       0.37500000       0.87500000       0.50441116 </v>
   <v>       0.50000000       0.00000000       0.47249626 </v>
   <v>       0.50000000       0.00000000       0.50441116 </v>
   <v>       0.50000000       0.12500000       0.47249626 </v>
   <v>       0.50000000       0.12500000       0.50441116 </v>
   <v>       0.50000000       0.25000000       0.47249626 </v>
   <v>       0.50000000       0.25000000       0.50441116 </v>
   <v>       0.50000000       0.37500000       0.47249626 </v>
   <v>       0.50000000       0.37500000       0.50441116 </v>
   <v>       0.50000000       0.50000000       0.47249626 </v>
   <v>       0.50000000       0.50000000       0.50441116 </v>
   <v>       0.50000000       0.62500000       0.47249626 </v>
   <v>       0.50000000       0.62500000       0.50441116 </v>
   <v>       0.50000000       0.75000000       0.47249626 </v>
   <v>       0.50000000       0.75000000       0.50441116 </v>
   <v>       0.50000000       0.87500000       0.47249626 </v>
   <v>       0.50000000       0.87500000       0.50441116 </v>
   <v>       0.62500000       0.00000000       0.47249626 </v>
   <v>       0.62500000       0.00000000       0.50441116 </v>
   <v>       0.62500000       0.12500000       0.47249626 </v>
   <v>       0.62500000       0.12500000       0.50441116 </v>
   <v>       0.62500000       0.25000000       0.47249626 </v>
   <v>       0.62500000       0.25000000       0.50441116 </v>
   <v>       0.62500000       0.37500000       0.47249626 </v>
   <v>       0.62500000       0.37500000       0.50441116 </v>
   <v>       0.62500000       0.50000000       0.47249626 </v>
   <v>       0.62500000       0.50000000       0.50441116 </v>
   <v>       0.62500000       0.62500000       0.47249626 </v>
   <v>       0.62500000       0.62500000       0.50441116 </v>
   <v>       0.62500000       0.75000000       0.47249626 </v>
   <v>       0.62500000       0.75000000       0.50441116 </v>
   <v>       0.62500000       0.87500000       0.47249626 </v>
   <v>       0.62500000       0.87500000       0.50441116 </v>
   <v>       0.75000000       0.00000000       0.47249626 </v>
   <v>       0.75000000       0.00000000       0.50441116 </v>
   <v>       0.75000000       0.12500000       0.47249626 </v>
   <v>       0.75000000       0.12500000       0.50441116 </v>
   <v>       0.75000000       0.25000000       0.47249626 </v>
   <v>       0.75000000       0.25000000       0.50441116 </v>
   <v>       0.75000000       0.37500000       0.47249626 </v>
   <v>       0.75000000       0.37500000       0.50441116 </v>
   <v>       0.75000000       0.50000000       0.47249626 </v>
   <v>       0.75000000       0.50000000       0.50441116 </v>
   <v>       0.75000000       0.62500000       0.47249626 </v>
   <v>       0.75000000       0.62500000       0.50441116 </v>
   <v>       0.75000000       0.75000000       0.47249626 </v>
   <v>       0.75000000       0.75000000       0.50441116 </v>
   <v>       0.75000000       0.87500000       0.47249626 </v>
   <v>       0.75000000       0.87500000       0.50441116 </v>
   <v>       0.87500000       0.00000000       0.47249626 </v>
   <v>       0.87500000       0.00000000       0.50441116 </v>
   <v>       0.87500000       0.12500000       0.47249626 </v>
   <v>       0.87500000       0.12500000       0.50441116 </v>
   <v>       0.87500000       0.25000000       0.47249626 </v>
   <v>       0.87500000       0.25000000       0.50441116 </v>
   <v>       0.87500000       0.37500000       0.47249626 </v>
   <v>       0.87500000       0.37500000       0.50441116 </v>
   <v>       0.87500000       0.50000000       0.47249626 </v>
   <v>       0.87500000       0.50000000       0.50441116 </v>
   <v>       0.87500000       0.62500000       0.47249626 </v>
   <v>       0.87500000       0.62500000       0.50441116 </v>
   <v>       0.87500000       0.75000000       0.47249626 </v>
   <v>       0.87500000       0.75000000       0.50441116 </v>
   <v>       0.87500000       0.87500000       0.47249626 </v>
   <v>       0.87500000       0.87500000       0.50441116 </v>
  </varray>
 </structure>
 <calculation>
  <scstep>
   <time name="dav">   12.44   13.14</time>
   <time name="total">   13.11   13.95</time>
   <energy>
    <i name="alphaZ">   1026.30540055 </i>
    <i name="ewald"> 717901.45785350 </i>
    <i name="hartreedc">-781877.09563836 </i>
    <i name="XCdc">  -3185.05914146 </i>
    <i name="pawpsdc">  61373.83272758 </i>
    <i name="pawaedc"> -53218.45910465 </i>
    <i name="eentropy">     -0.12534734 </i>
    <i name="bandstr">    489.95286735 </i>
    <i name="atom">  68786.00368077 </i>
    <i name="e_fr_energy">  11296.81329793 </i>
    <i name="e_wo_entrp">  11296.93864527 </i>
    <i name="e_0_energy">  11296.87597160 </i>
   </energy>
  </scstep>
  <scstep>
   <time name="dav">   16.62   17.57</time>
   <time name="total">   16.63   17.57</time>
   <energy>
    <i name="e_fr_energy">    966.64317234 </i>
    <i name="e_wo_entrp">    966.77798264 </i>
    <i name="e_0_energy">    966.71057749 </i>
   </energy>
  </scstep>
  <scstep>
   <time name="dav">   16.29   17.45</time>
   <time name="total">   16.29   17.45</time>
   <energy>
    <i name="e_fr_energy">  -1192.55174642 </i>
    <i name="e_wo_entrp">  -1192.44217775 </i>
    <i name="e_0_energy">  -1192.49696208 </i>
   </energy>
  </scstep>
  <scstep>
   <time name="dav">   17.24   18.26</time>
   <time name="total">   17.24   18.26</time>
   <energy>
    <i name="e_fr_energy">  -1441.80386661 </i>
    <i name="e_wo_entrp">  -1441.64657947 </i>
    <i name="e_0_energy">  -1441.72522304 </i>
   </energy>
  </scstep>
  <scstep>
   <time name="dav">   17.42   18.66</time>
   <time name="total">   18.64   19.95</time>
   <energy>
    <i name="e_fr_energy">  -1467.43766513 </i>
    <i name="e_wo_entrp">  -1467.17255748 </i>
    <i name="e_0_energy">  -1467.30511130 </i>
   </energy>
  </scstep>
  <scstep>
   <time name="dav">   19.29   20.28</time>
   <time name="total">   21.18   22.27</time>
   <energy>
    <i name="e_fr_energy">  -1780.91517197 </i>
    <i name="e_wo_entrp">  -1780.80779210 </i>
    <i name="e_0_energy">  -1780.86148204 </i>
   </energy>
  </scstep>
  <scstep>
   <time name="dav">   18.47   19.69</time>
   <time name="total">   20.35   21.70</time>
   <energy>
    <i name="e_fr_energy"> -18987.06410802 </i>
    <i name="e_wo_entrp"> -18986.99511862 </i>
    <i name="e_0_energy"> -18987.02961332 </i>
   </energy>
  </scstep>
  <scstep>
   <time name="dav">   17.38   18.42</time>
   <time name="total">   19.29   20.45</time>
   <energy>
    <i name="e_fr_energy">   -616.89503082 </i>
    <i name="e_wo_entrp">   -616.80988170 </i>
    <i name="e_0_energy">   -616.85245626 </i>
   </energy>
  </scstep>
  <scstep>
   <time name="dav">   17.87   19.17</time>
   <time name="total">   19.76   21.14</time>
   <energy>
    <i name="e_fr_energy">  -2723.06961635 </i>
    <i name="e_wo_entrp">  -2722.94969918 </i>
    <i name="e_0_energy">  -2723.00965776 </i>
   </energy>
  </scstep>
  <scstep>
   <time name="dav">   17.38   18.51</time>
   <time name="total">   19.29   20.61</time>
   <energy>
    <i name="e_fr_energy">  -1421.40733223 </i>
    <i name="e_wo_entrp">  -1421.26465702 </i>
    <i name="e_0_energy">  -1421.33599462 </i>
   </energy>
  </scstep>
  <scstep>
   <time name="dav">   16.34   17.49</time>
   <time name="total">   18.24   19.55</time>
   <energy>
    <i name="e_fr_energy">  -1442.45997097 </i>
    <i name="e_wo_entrp">  -1442.23328976 </i>
    <i name="e_0_energy">  -1442.34663036 </i>
   </energy>
  </scstep>
  <scstep>
   <time name="dav">   16.33   17.11</time>
   <time name="total">   18.25   19.15</time>
   <energy>
    <i name="e_fr_energy">  -1425.94304669 </i>
    <i name="e_wo_entrp">  -1425.81900627 </i>
    <i name="e_0_energy">  -1425.88102648 </i>
   </energy>
  </scstep>
  <scstep>
   <time name="dav">   14.85   15.96</time>
   <time name="total">   16.79   18.00</time>
   <energy>
    <i name="e_fr_energy">  -1420.06337625 </i>
    <i name="e_wo_entrp">  -1419.84557959 </i>
    <i name="e_0_energy">  -1419.95447792 </i>
   </energy>
  </scstep>
  <scstep>
   <time name="dav">   18.76   19.74</time>
   <time name="total">   20.72   21.87</time>
   <energy>
    <i name="e_fr_energy">  -1420.69886944 </i>
    <i name="e_wo_entrp">  -1420.47960393 </i>
    <i name="e_0_energy">  -1420.58923669 </i>
   </energy>
  </scstep>
  <scstep>
   <time name="dav">   15.38   16.50</time>
   <time name="total">   17.35   18.59</time>
   <energy>
    <i name="e_fr_energy">  -1417.87601931 </i>
    <i name="e_wo_entrp">  -1417.57611292 </i>
    <i name="e_0_energy">  -1417.72606611 </i>
   </energy>
  </scstep>
  <scstep>
   <time name="dav">   15.29   16.19</time>
   <time name="total">   17.26   18.35</time>
   <energy>
    <i name="e_fr_energy">  -1410.35756768 </i>
    <i name="e_wo_entrp">  -1410.04946961 </i>
    <i name="e_0_energy">  -1410.20351864 </i>
   </energy>
  </scstep>
  <scstep>
   <time name="dav">   14.46   15.43</time>
   <time name="total">   16.46   17.58</time>
   <energy>
    <i name="e_fr_energy">  -1405.35073763 </i>
    <i name="e_wo_entrp">  -1404.96197380 </i>
    <i name="e_0_energy">  -1405.15635572 </i>
   </energy>
  </scstep>
  <scstep>
   <time name="dav">   14.89   15.71</time>
   <time name="total">   16.91   17.90</time>
   <energy>
    <i name="e_fr_energy">  -1403.58345928 </i>
    <i name="e_wo_entrp">  -1403.26327170 </i>
    <i name="e_0_energy">  -1403.42336549 </i>
   </energy>
  </scstep>
  <scstep>
   <time name="dav">   15.42   16.38</time>
   <time name="total">   17.42   18.55</time>
   <energy>
    <i name="e_fr_energy">  -1403.43833398 </i>
    <i name="e_wo_entrp">  -1403.11390896 </i>
    <i name="e_0_energy">  -1403.27612147 </i>
   </energy>
  </scstep>
  <scstep>
   <time name="dav">   16.53   17.51</time>
   <time name="total">   18.56   19.76</time>
   <energy>
    <i name="e_fr_energy">  -1403.00392664 </i>
    <i name="e_wo_entrp">  -1402.66832816 </i>
    <i name="e_0_energy">  -1402.83612740 </i>
   </energy>
  </scstep>
  <scstep>
   <time name="dav">   15.95   16.98</time>
   <time name="total">   18.00   19.21</time>
   <energy>
    <i name="e_fr_energy">  -1402.31142150 </i>
    <i name="e_wo_entrp">  -1402.02470730 </i>
    <i name="e_0_energy">  -1402.16806440 </i>
   </energy>
  </scstep>
  <scstep>
   <time name="dav">   15.27   16.22</time>
   <time name="total">   17.33   18.42</time>
   <energy>
    <i name="e_fr_energy">  -1402.22719105 </i>
    <i name="e_wo_entrp">  -1401.97999332 </i>
    <i name="e_0_energy">  -1402.10359219 </i>
   </energy>
  </scstep>
  <scstep>
   <time name="dav">   14.84   15.87</time>
   <time name="total">   16.89   18.08</time>
   <energy>
    <i name="e_fr_energy">  -1402.25806713 </i>
    <i name="e_wo_entrp">  -1401.99725424 </i>
    <i name="e_0_energy">  -1402.12766068 </i>
   </energy>
  </scstep>
  <scstep>
   <time name="dav">   14.99   16.05</time>
   <time name="total">   17.11   18.28</time>
   <energy>
    <i name="e_fr_energy">  -1402.26146583 </i>
    <i name="e_wo_entrp">  -1401.98729724 </i>
    <i name="e_0_energy">  -1402.12438154 </i>
   </energy>
  </scstep>
  <scstep>
   <time name="dav">   15.43   16.42</time>
   <time name="total">   17.55   18.70</time>
   <energy>
    <i name="e_fr_energy">  -1402.19216642 </i>
    <i name="e_wo_entrp">  -1401.93190730 </i>
    <i name="e_0_energy">  -1402.06203686 </i>
   </energy>
  </scstep>
  <scstep>
   <time name="dav">   14.21   15.26</time>
   <time name="total">   16.32   17.58</time>
   <energy>
    <i name="e_fr_energy">  -1402.16260177 </i>
    <i name="e_wo_entrp">  -1401.91522527 </i>
    <i name="e_0_energy">  -1402.03891352 </i>
   </energy>
  </scstep>
  <scstep>
   <time name="dav">   14.41   15.23</time>
   <time name="total">   16.59   17.58</time>
   <energy>
    <i name="e_fr_energy">  -1402.14489687 </i>
    <i name="e_wo_entrp">  -1401.90130964 </i>
    <i name="e_0_energy">  -1402.02310325 </i>
   </energy>
  </scstep>
  <scstep>
   <time name="dav">   15.04   16.02</time>
   <time name="total">   17.24   18.34</time>
   <energy>
    <i name="e_fr_energy">  -1402.10115737 </i>
    <i name="e_wo_entrp">  -1401.86544999 </i>
    <i name="e_0_energy">  -1401.98330368 </i>
   </energy>
  </scstep>
  <scstep>
   <time name="dav">   15.36   16.36</time>
   <time name="total">   17.54   18.67</time>
   <energy>
    <i name="e_fr_energy">  -1402.07126752 </i>
    <i name="e_wo_entrp">  -1401.86592780 </i>
    <i name="e_0_energy">  -1401.96859766 </i>
   </energy>
  </scstep>
  <scstep>
   <time name="dav">   13.67   14.59</time>
   <time name="total">   15.92   17.03</time>
   <energy>
    <i name="e_fr_energy">  -1402.06945626 </i>
    <i name="e_wo_entrp">  -1401.86279912 </i>
    <i name="e_0_energy">  -1401.96612769 </i>
   </energy>
  </scstep>
  <scstep>
   <time name="dav">   16.49   17.54</time>
   <time name="total">   18.77   20.03</time>
   <energy>
    <i name="e_fr_energy">  -1402.06438736 </i>
    <i name="e_wo_entrp">  -1401.87073579 </i>
    <i name="e_0_energy">  -1401.96756158 </i>
   </energy>
  </scstep>
  <scstep>
   <time name="dav">   13.54   14.33</time>
   <time name="total">   15.77   16.76</time>
   <energy>
    <i name="e_fr_energy">  -1402.06776676 </i>
    <i name="e_wo_entrp">  -1401.87381866 </i>
    <i name="e_0_energy">  -1401.97079271 </i>
   </energy>
  </scstep>
  <scstep>
   <time name="dav">   15.55   16.50</time>
   <time name="total">   17.88   19.04</time>
   <energy>
    <i name="e_fr_energy">  -1402.06882446 </i>
    <i name="e_wo_entrp">  -1401.88250205 </i>
    <i name="e_0_energy">  -1401.97566326 </i>
   </energy>
  </scstep>
  <scstep>
   <time name="dav">   14.50   15.41</time>
   <time name="total">   16.84   17.91</time>
   <energy>
    <i name="e_fr_energy">  -1402.07022093 </i>
    <i name="e_wo_entrp">  -1401.88504595 </i>
    <i name="e_0_energy">  -1401.97763344 </i>
   </energy>
  </scstep>
  <scstep>
   <time name="dav">   14.41   15.37</time>
   <time name="total">   16.78   17.90</time>
   <energy>
    <i name="e_fr_energy">  -1402.07089905 </i>
    <i name="e_wo_entrp">  -1401.88649161 </i>
    <i name="e_0_energy">  -1401.97869533 </i>
   </energy>
  </scstep>
  <scstep>
   <time name="dav">   13.69   14.55</time>
   <time name="total">   16.05   17.02</time>
   <energy>
    <i name="e_fr_energy">  -1402.07134170 </i>
    <i name="e_wo_entrp">  -1401.88732964 </i>
    <i name="e_0_energy">  -1401.97933567 </i>
   </energy>
  </scstep>
  <scstep>
   <time name="dav">   14.30   15.30</time>
   <time name="total">   16.74   17.97</time>
   <energy>
    <i name="e_fr_energy">  -1402.07151024 </i>
[...]
   <v>       0.27862783       0.61068613       0.06728453 </v>
   <v>       0.27799013       0.94401981       0.06756031 </v>
   <v>       0.61068607       0.27862786       0.06728453 </v>
   <v>       0.61068607       0.61068613       0.06728453 </v>
   <v>       0.61091683       0.94454161       0.06712410 </v>
   <v>       0.94401975       0.27799013       0.06756031 </v>
   <v>       0.94454161       0.61091689       0.06712410 </v>
   <v>       0.94454155       0.94454161       0.06712410 </v>
   <v>       0.38939636       0.38939636       0.12888194 </v>
   <v>       0.38939636       0.72120729       0.12888194 </v>
   <v>       0.38899982       0.05550014       0.12849448 </v>
   <v>       0.72120729       0.38939636       0.12888194 </v>
   <v>       0.72213802       0.72213802       0.12832692 </v>
   <v>       0.72213808       0.05572396       0.12832692 </v>
   <v>       0.05550014       0.38899979       0.12849448 </v>
   <v>       0.05572396       0.72213802       0.12832692 </v>
   <v>       0.05550002       0.05550014       0.12849448 </v>
   <v>       0.50000000       0.50000000       0.18755094 </v>
   <v>       0.50118130       0.83336599       0.18736602 </v>
   <v>       0.50118121       0.16545284       0.18736602 </v>
   <v>       0.83336599       0.50118124       0.18736602 </v>
   <v>       0.83333337       0.83333331       0.18684263 </v>
   <v>       0.83336599       0.16545284       0.18736602 </v>
   <v>       0.16545272       0.50118124       0.18736602 </v>
   <v>       0.16545272       0.83336599       0.18736602 </v>
   <v>       0.16666663       0.16666675       0.18781751 </v>
   <v>       0.61086255       0.61086261       0.24579142 </v>
   <v>       0.61067897       0.94466054       0.24609608 </v>
   <v>       0.61086261       0.27827490       0.24579142 </v>
   <v>       0.94466054       0.61067903       0.24609608 </v>
   <v>       0.94466048       0.94466054       0.24609608 </v>
   <v>       0.94384951       0.27807524       0.24419137 </v>
   <v>       0.27827478       0.61086261       0.24579142 </v>
   <v>       0.27807524       0.94384957       0.24419137 </v>
   <v>       0.27807524       0.27807524       0.24419137 </v>
   <v>       0.72501423       0.72501423       0.30299434 </v>
   <v>       0.72501429       0.04997154       0.30299434 </v>
   <v>       0.72373519       0.38813234       0.30493281 </v>
   <v>       0.04997154       0.72501423       0.30299434 </v>
   <v>       0.05525074       0.05525086       0.30503469 </v>
   <v>       0.05525086       0.38949827       0.30503469 </v>
   <v>       0.38813246       0.72373519       0.30493281 </v>
   <v>       0.38949827       0.05525086       0.30503469 </v>
   <v>       0.38813246       0.38813234       0.30493281 </v>
   <v>       0.83333337       0.83333331       0.37358351 </v>
   <v>       0.83549219       0.16721201       0.36468880 </v>
   <v>       0.83549213       0.49729586       0.36468880 </v>
   <v>       0.16721189       0.83549219       0.36468880 </v>
   <v>       0.16666663       0.16666675       0.35638190 </v>
   <v>       0.16721189       0.49729586       0.36468880 </v>
   <v>       0.49729586       0.83549219       0.36468880 </v>
   <v>       0.49729586       0.16721201       0.36468880 </v>
   <v>       0.50000012       0.50000000       0.36664509 </v>
   <v>       0.93885349       0.93885355       0.43567905 </v>
   <v>       0.97195102       0.26402449       0.43617289 </v>
   <v>       0.93885355       0.62229289       0.43567905 </v>
   <v>       0.26402449       0.97195108       0.43617289 </v>
   <v>       0.26402449       0.26402449       0.43617289 </v>
   <v>       0.27436360       0.61281814       0.41634039 </v>
   <v>       0.62229301       0.93885355       0.43567905 </v>
   <v>       0.61281838       0.27436360       0.41634039 </v>
   <v>       0.61281814       0.61281814       0.41634039 </v>
   <v>       0.27799010       0.44401978       0.06756031 </v>
   <v>       0.27799007       0.77799013       0.06756031 </v>
   <v>       0.27862783       0.11068613       0.06728453 </v>
   <v>       0.61091683       0.44454158       0.06712410 </v>
   <v>       0.61068601       0.77862786       0.06728453 </v>
   <v>       0.61068607       0.11068613       0.06728453 </v>
   <v>       0.94454161       0.44454158       0.06712410 </v>
   <v>       0.94401975       0.77799013       0.06756031 </v>
   <v>       0.94454161       0.11091689       0.06712410 </v>
   <v>       0.38899976       0.55550014       0.12849448 </v>
   <v>       0.38939633       0.88939636       0.12888194 </v>
   <v>       0.38939627       0.22120741       0.12888194 </v>
   <v>       0.72213796       0.55572396       0.12832692 </v>
   <v>       0.72120729       0.88939636       0.12888194 </v>
   <v>       0.72213796       0.22213814       0.12832692 </v>
   <v>       0.05550002       0.55550014       0.12849448 </v>
   <v>       0.05550014       0.88899979       0.12849448 </v>
   <v>       0.05572384       0.22213814       0.12832692 </v>
   <v>       0.50118124       0.66545272       0.18736602 </v>
   <v>       0.49999994      -0.00000000       0.18755094 </v>
   <v>       0.50118124       0.33336593       0.18736602 </v>
   <v>       0.83336605       0.66545272       0.18736602 </v>
   <v>       0.83336599       0.00118124       0.18736602 </v>
   <v>       0.83333337       0.33333325       0.18684263 </v>
   <v>       0.16666675       0.66666663       0.18781751 </v>
   <v>       0.16545272       0.00118124       0.18736602 </v>
   <v>       0.16545284       0.33336593       0.18736602 </v>
   <v>       0.61086249       0.77827490       0.24579142 </v>
   <v>       0.61086255       0.11086261       0.24579142 </v>
   <v>       0.61067891       0.44466048       0.24609608 </v>
   <v>       0.94384951       0.77807524       0.24419137 </v>
   <v>       0.94466054       0.11067903       0.24609608 </v>
   <v>       0.94466048       0.44466048       0.24609608 </v>
   <v>       0.27807524       0.77807524       0.24419137 </v>
   <v>       0.27827490       0.11086261       0.24579142 </v>
   <v>       0.27807513       0.44384951       0.24419137 </v>
   <v>       0.72373519       0.88813240       0.30493281 </v>
   <v>       0.72501417       0.22501435       0.30299434 </v>
   <v>       0.72501423       0.54997154       0.30299434 </v>
   <v>       0.05525086       0.88949833       0.30503469 </v>
   <v>       0.04997142       0.22501435       0.30299434 </v>
   <v>       0.05525086       0.55525086       0.30503469 </v>
   <v>       0.38813246       0.88813240       0.30493281 </v>
   <v>       0.38813222       0.22373531       0.30493281 </v>
   <v>       0.38949827       0.55525086       0.30503469 </v>
   <v>       0.83549219      -0.00270414       0.36468880 </v>
   <v>       0.83333337       0.33333325       0.37358351 </v>
   <v>       0.83549219       0.66721189       0.36468880 </v>
   <v>       0.16721189      -0.00270414       0.36468880 </v>
   <v>       0.16721201       0.33549213       0.36468880 </v>
   <v>       0.16666663       0.66666663       0.35638190 </v>
   <v>       0.49999988      -0.00000000       0.36664509 </v>
   <v>       0.49729586       0.33549213       0.36468880 </v>
   <v>       0.49729586       0.66721189       0.36468880 </v>
   <v>       0.93885355       0.12229301       0.43567905 </v>
   <v>       0.93885349       0.43885349       0.43567905 </v>
   <v>       0.97195108       0.76402449       0.43617289 </v>
   <v>       0.27436360       0.11281826       0.41634039 </v>
   <v>       0.26402437       0.47195102       0.43617289 </v>
   <v>       0.26402437       0.76402449       0.43617289 </v>
   <v>       0.61281814       0.11281826       0.41634039 </v>
   <v>       0.62229301       0.43885349       0.43567905 </v>
   <v>       0.61281826       0.77436360       0.41634039 </v>
   <v>       0.44401978       0.27799013       0.06756031 </v>
   <v>       0.44454158       0.61091689       0.06712410 </v>
   <v>       0.44454158       0.94454161       0.06712410 </v>
   <v>       0.77799013       0.27799013       0.06756031 </v>
   <v>       0.77862780       0.61068613       0.06728453 </v>
   <v>       0.77799013       0.94401981       0.06756031 </v>
   <v>       0.11068613       0.27862786       0.06728453 </v>
   <v>       0.11068601       0.61068613       0.06728453 </v>
   <v>       0.11091677       0.94454161       0.06712410 </v>
   <v>       0.55550014       0.38899979       0.12849448 </v>
   <v>       0.55572396       0.72213802       0.12832692 </v>
   <v>       0.55550008       0.05550014       0.12849448 </v>
   <v>       0.88939630       0.38939636       0.12888194 </v>
   <v>       0.88939641       0.72120729       0.12888194 </v>
   <v>       0.88899979       0.05550014       0.12849448 </v>
   <v>       0.22120729       0.38939636       0.12888194 </v>
   <v>       0.22213802       0.72213802       0.12832692 </v>
   <v>       0.22213802       0.05572396       0.12832692 </v>
   <v>       0.66545278       0.50118124       0.18736602 </v>
   <v>       0.66545272       0.83336599       0.18736602 </v>
   <v>       0.66666669       0.16666675       0.18781751 </v>
   <v>       0.00000000       0.50000000       0.18755094 </v>
   <v>       0.00118124       0.83336599       0.18736602 </v>
   <v>       0.00118124       0.16545284       0.18736602 </v>
   <v>       0.33336593       0.50118124       0.18736602 </v>
   <v>       0.33333337       0.83333331       0.18684263 </v>
   <v>       0.33336593       0.16545284       0.18736602 </v>
   <v>       0.77827484       0.61086261       0.24579142 </v>
   <v>       0.77807524       0.94384957       0.24419137 </v>
   <v>       0.77807524       0.27807524       0.24419137 </v>
   <v>       0.11086249       0.61086261       0.24579142 </v>
   <v>       0.11067891       0.94466054       0.24609608 </v>
   <v>       0.11086261       0.27827490       0.24579142 </v>
   <v>       0.44466048       0.61067903       0.24609608 </v>
   <v>       0.44466048       0.94466054       0.24609608 </v>
   <v>       0.44384963       0.27807524       0.24419137 </v>
   <v>       0.88813246       0.72373519       0.30493281 </v>
   <v>       0.88949833       0.05525086       0.30503469 </v>
   <v>       0.88813234       0.38813234       0.30493281 </v>
   <v>       0.22501423       0.72501423       0.30299434 </v>
   <v>       0.22501423       0.04997154       0.30299434 </v>
   <v>       0.22373519       0.38813234       0.30493281 </v>
   <v>       0.54997142       0.72501423       0.30299434 </v>
   <v>       0.55525086       0.05525086       0.30503469 </v>
   <v>       0.55525098       0.38949827       0.30503469 </v>
   <v>      -0.00270414       0.83549219       0.36468880 </v>
   <v>      -0.00270414       0.16721201       0.36468880 </v>
   <v>       0.00000000       0.50000000       0.36664509 </v>
   <v>       0.33333337       0.83333331       0.37358351 </v>
   <v>       0.33549213       0.16721201       0.36468880 </v>
   <v>       0.33549225       0.49729586       0.36468880 </v>
   <v>       0.66721201       0.83549219       0.36468880 </v>
   <v>       0.66666675       0.16666675       0.35638190 </v>
   <v>       0.66721189       0.49729586       0.36468880 </v>
   <v>       0.12229289       0.93885355       0.43567905 </v>
   <v>       0.11281826       0.27436360       0.41634039 </v>
   <v>       0.11281826       0.61281814       0.41634039 </v>
   <v>       0.43885349       0.93885355       0.43567905 </v>
   <v>       0.47195114       0.26402449       0.43617289 </v>
   <v>       0.43885361       0.62229289       0.43567905 </v>
   <v>       0.76402461       0.97195108       0.43617289 </v>
   <v>       0.76402449       0.26402449       0.43617289 </v>
   <v>       0.77436360       0.61281814       0.41634039 </v>
   <v>       0.00000000      -0.00000000       0.44448702 </v>
   <v>       0.00000000      -0.00000000       0.48186910 </v>
   <v>       0.00646759       0.12571617       0.47687077 </v>
   <v>      -0.00754990       0.12534828       0.51066680 </v>
   <v>       0.00607841       0.24696080       0.48830684 </v>
   <v>      -0.00563065       0.25281533       0.52143169 </v>
   <v>       0.00646759       0.36781625       0.47687077 </v>
   <v>      -0.00754990       0.38220162       0.51066680 </v>
   <v>       0.00000000       0.50000000       0.44448702 </v>
   <v>       0.00000000       0.50000000       0.48186910 </v>
   <v>       0.00646759       0.62571617       0.47687077 </v>
   <v>      -0.00754990       0.62534828       0.51066680 </v>
   <v>       0.00607841       0.74696080       0.48830684 </v>
   <v>      -0.00563065       0.75281533       0.52143169 </v>
   <v>       0.00646759       0.86781625       0.47687077 </v>
   <v>      -0.00754990       0.88220162       0.51066680 </v>
   <v>       0.12571617       0.00646759       0.47687077 </v>
   <v>       0.12534828      -0.00754990       0.51066680 </v>
   <v>       0.12842828       0.12842828       0.49257987 </v>
   <v>       0.12095881       0.12095881       0.52476661 </v>
   <v>       0.12842828       0.24314344       0.49257987 </v>
   <v>       0.12095881       0.25808238       0.52476661 </v>
   <v>       0.12571617       0.36781625       0.47687077 </v>
   <v>       0.12534828       0.38220162       0.51066680 </v>
   <v>       0.12571617       0.50646759       0.47687077 </v>
   <v>       0.12534828       0.49245010       0.51066680 </v>
   <v>       0.12842828       0.62842828       0.49257987 </v>
   <v>       0.12095881       0.62095881       0.52476661 </v>
   <v>       0.12842828       0.74314344       0.49257987 </v>
   <v>       0.12095881       0.75808238       0.52476661 </v>
   <v>       0.12571617       0.86781625       0.47687077 </v>
   <v>       0.12534828       0.88220162       0.51066680 </v>
   <v>       0.24696080       0.00607841       0.48830684 </v>
   <v>       0.25281533      -0.00563065       0.52143169 </v>
   <v>       0.24314344       0.12842828       0.49257987 </v>
   <v>       0.25808238       0.12095881       0.52476661 </v>
   <v>       0.24696080       0.24696080       0.48830684 </v>
   <v>       0.25281533       0.25281533       0.52143169 </v>
   <v>       0.24168755       0.37915623       0.45066588 </v>
   <v>       0.25104406       0.37447797       0.48975275 </v>
   <v>       0.24696080       0.50607841       0.48830684 </v>
   <v>       0.25281533       0.49436935       0.52143169 </v>
   <v>       0.24314344       0.62842828       0.49257987 </v>
   <v>       0.25808238       0.62095881       0.52476661 </v>
   <v>       0.24696080       0.74696080       0.48830684 </v>
   <v>       0.25281533       0.75281533       0.52143169 </v>
   <v>       0.24168755       0.87915623       0.45066588 </v>
   <v>       0.25104406       0.87447797       0.48975275 </v>
   <v>       0.36781625       0.00646759       0.47687077 </v>
   <v>       0.38220162      -0.00754990       0.51066680 </v>
   <v>       0.36781625       0.12571617       0.47687077 </v>
   <v>       0.38220162       0.12534828       0.51066680 </v>
   <v>       0.37915623       0.24168755       0.45066588 </v>
   <v>       0.37447797       0.25104406       0.48975275 </v>
   <v>       0.37915623       0.37915623       0.45066588 </v>
   <v>       0.37447797       0.37447797       0.48975275 </v>
   <v>       0.36781625       0.50646759       0.47687077 </v>
   <v>       0.38220162       0.49245010       0.51066680 </v>
   <v>       0.36781625       0.62571617       0.47687077 </v>
   <v>       0.38220162       0.62534828       0.51066680 </v>
   <v>       0.37915623       0.74168755       0.45066588 </v>
   <v>       0.37447797       0.75104406       0.48975275 </v>
   <v>       0.37915623       0.87915623       0.45066588 </v>
   <v>       0.37447797       0.87447797       0.48975275 </v>
   <v>       0.50000000      -0.00000000       0.44448702 </v>
   <v>       0.50000000      -0.00000000       0.48186910 </v>
   <v>       0.50646759       0.12571617       0.47687077 </v>
   <v>       0.49245010       0.12534828       0.51066680 </v>
   <v>       0.50607841       0.24696080       0.48830684 </v>
   <v>       0.49436935       0.25281533       0.52143169 </v>
   <v>       0.50646759       0.36781625       0.47687077 </v>
   <v>       0.49245010       0.38220162       0.51066680 </v>
   <v>       0.50000000       0.50000000       0.44448702 </v>
   <v>       0.50000000       0.50000000       0.48186910 </v>
   <v>       0.50646759       0.62571617       0.47687077 </v>
   <v>       0.49245010       0.62534828       0.51066680 </v>
   <v>       0.50607841       0.74696080       0.48830684 </v>
   <v>       0.49436935       0.75281533       0.52143169 </v>
   <v>       0.50646759       0.86781625       0.47687077 </v>
   <v>       0.49245010       0.88220162       0.51066680 </v>
   <v>       0.62571617       0.00646759       0.47687077 </v>
   <v>       0.62534828      -0.00754990       0.51066680 </v>
   <v>       0.62842828       0.12842828       0.49257987 </v>
   <v>       0.62095881       0.12095881       0.52476661 </v>
   <v>       0.62842828       0.24314344       0.49257987 </v>
   <v>       0.62095881       0.25808238       0.52476661 </v>
   <v>       0.62571617       0.36781625       0.47687077 </v>
   <v>       0.62534828       0.38220162       0.51066680 </v>
   <v>       0.62571617       0.50646759       0.47687077 </v>
   <v>       0.62534828       0.49245010       0.51066680 </v>
   <v>       0.62842828       0.62842828       0.49257987 </v>
   <v>       0.62095881       0.62095881       0.52476661 </v>
   <v>       0.62842828       0.74314344       0.49257987 </v>
   <v>       0.62095881       0.75808238       0.52476661 </v>
   <v>       0.62571617       0.86781625       0.47687077 </v>
   <v>       0.62534828       0.88220162       0.51066680 </v>
   <v>       0.74696080       0.00607841       0.48830684 </v>
   <v>       0.75281533      -0.00563065       0.52143169 </v>
   <v>       0.74314344       0.12842828       0.49257987 </v>
   <v>       0.75808238       0.12095881       0.52476661 </v>
   <v>       0.74696080       0.24696080       0.48830684 </v>
   <v>       0.75281533       0.25281533       0.52143169 </v>
   <v>       0.74168755       0.37915623       0.45066588 </v>
   <v>       0.75104406       0.37447797       0.48975275 </v>
   <v>       0.74696080       0.50607841       0.48830684 </v>
   <v>       0.75281533       0.49436935       0.52143169 </v>
   <v>       0.74314344       0.62842828       0.49257987 </v>
   <v>       0.75808238       0.62095881       0.52476661 </v>
   <v>       0.74696080       0.74696080       0.48830684 </v>
   <v>       0.75281533       0.75281533       0.52143169 </v>
   <v>       0.74168755       0.87915623       0.45066588 </v>
   <v>       0.75104406       0.87447797       0.48975275 </v>
   <v>       0.86781625       0.00646759       0.47687077 </v>
   <v>       0.88220162      -0.00754990       0.51066680 </v>
   <v>       0.86781625       0.12571617       0.47687077 </v>
   <v>       0.88220162       0.12534828       0.51066680 </v>
   <v>       0.87915623       0.24168755       0.45066588 </v>
   <v>       0.87447797       0.25104406       0.48975275 </v>
   <v>       0.87915623       0.37915623       0.45066588 </v>
   <v>       0.87447797       0.37447797       0.48975275 </v>
   <v>       0.86781625       0.50646759       0.47687077 </v>
   <v>       0.88220162       0.49245010       0.51066680 </v>
   <v>       0.86781625       0.62571617       0.47687077 </v>
   <v>       0.88220162       0.62534828       0.51066680 </v>
   <v>       0.87915623       0.74168755       0.45066588 </v>
   <v>       0.87447797       0.75104406       0.48975275 </v>
   <v>       0.87915623       0.87915623       0.45066588 </v>
   <v>       0.87447797       0.87447797       0.48975275 </v>
  </varray>
 </structure>
</modeling>
