 254 254   0   0
  0.3019211E+02  0.1718057E-08  0.1718057E-08  0.3000000E-08  0.5000000E-15
   1.0000000000000000E-004
  CAR 
 NiAl                                    
      5.03793196    -17.98465866  301      1.62706715      1.00000000
    -17.985  0.0000E+00  0.0000E+00
    -17.908  0.0000E+00  0.0000E+00
    -17.831  0.0000E+00  0.0000E+00
    -17.754  0.0000E+00  0.0000E+00
    -17.678  0.0000E+00  0.0000E+00
    -17.601  0.0000E+00  0.0000E+00
    -17.524  0.0000E+00  0.0000E+00
    -17.447  0.0000E+00  0.0000E+00
    -17.371  0.0000E+00  0.0000E+00
    -17.294  0.0000E+00  0.0000E+00
    -17.217  0.3689E-13  0.2831E-14
    -17.140  0.1321E-06  0.1014E-07
    -17.064  0.4872E-02  0.3739E-03
    -16.987  0.2150E+01  0.1654E+00
    -16.910  0.1826E+02  0.1567E+01
    -16.834  0.5607E+01  0.1997E+01
    -16.757  0.4088E-01  0.2000E+01
    -16.680  0.3888E-05  0.2000E+01
    -16.603  0.3890E-11  0.2000E+01
    -16.527  0.0000E+00  0.2000E+01
    -16.450  0.0000E+00  0.2000E+01
    -16.373  0.0000E+00  0.2000E+01
    -16.296  0.0000E+00  0.2000E+01
    -16.220  0.0000E+00  0.2000E+01
    -16.143  0.0000E+00  0.2000E+01
    -16.066  0.0000E+00  0.2000E+01
    -15.989  0.0000E+00  0.2000E+01
    -15.913  0.0000E+00  0.2000E+01
    -15.836  0.0000E+00  0.2000E+01
    -15.759  0.0000E+00  0.2000E+01
    -15.682  0.0000E+00  0.2000E+01
    -15.606  0.0000E+00  0.2000E+01
    -15.529  0.0000E+00  0.2000E+01
    -15.452  0.0000E+00  0.2000E+01
    -15.375  0.0000E+00  0.2000E+01
    -15.299  0.0000E+00  0.2000E+01
    -15.222  0.0000E+00  0.2000E+01
    -15.145  0.0000E+00  0.2000E+01
    -15.068  0.0000E+00  0.2000E+01
    -14.992  0.0000E+00  0.2000E+01
    -14.915  0.0000E+00  0.2000E+01
    -14.838  0.0000E+00  0.2000E+01
    -14.761  0.0000E+00  0.2000E+01
    -14.685  0.0000E+00  0.2000E+01
    -14.608  0.0000E+00  0.2000E+01
    -14.531  0.0000E+00  0.2000E+01
    -14.455  0.0000E+00  0.2000E+01
    -14.378  0.0000E+00  0.2000E+01
    -14.301  0.0000E+00  0.2000E+01
    -14.224  0.0000E+00  0.2000E+01
    -14.148  0.0000E+00  0.2000E+01
    -14.071  0.0000E+00  0.2000E+01
    -13.994  0.0000E+00  0.2000E+01
    -13.917  0.0000E+00  0.2000E+01
    -13.841  0.0000E+00  0.2000E+01
    -13.764  0.0000E+00  0.2000E+01
    -13.687  0.0000E+00  0.2000E+01
    -13.610  0.0000E+00  0.2000E+01
    -13.534  0.0000E+00  0.2000E+01
    -13.457  0.0000E+00  0.2000E+01
    -13.380  0.0000E+00  0.2000E+01
    -13.303  0.0000E+00  0.2000E+01
    -13.227  0.0000E+00  0.2000E+01
    -13.150  0.2225E-08  0.2000E+01
    -13.073  0.3255E-03  0.2000E+01
    -12.996  0.5328E+00  0.2041E+01
    -12.920  0.1381E+02  0.3100E+01
    -12.843  0.1144E+02  0.3978E+01
    -12.766  0.2818E+00  0.4000E+01
    -12.689  0.1032E-03  0.4000E+01
    -12.613  0.4145E-09  0.4000E+01
    -12.536  0.0000E+00  0.4000E+01
    -12.459  0.0000E+00  0.4000E+01
    -12.382  0.0000E+00  0.4000E+01
    -12.306  0.0000E+00  0.4000E+01
    -12.229  0.0000E+00  0.4000E+01
    -12.152  0.0000E+00  0.4000E+01
    -12.076  0.0000E+00  0.4000E+01
    -11.999  0.0000E+00  0.4000E+01
    -11.922  0.0000E+00  0.4000E+01
    -11.845  0.0000E+00  0.4000E+01
    -11.769  0.0000E+00  0.4000E+01
    -11.692  0.0000E+00  0.4000E+01
    -11.615  0.0000E+00  0.4000E+01
    -11.538  0.0000E+00  0.4000E+01
    -11.462  0.0000E+00  0.4000E+01
    -11.385  0.0000E+00  0.4000E+01
    -11.308  0.0000E+00  0.4000E+01
    -11.231  0.0000E+00  0.4000E+01
    -11.155  0.0000E+00  0.4000E+01
    -11.078  0.0000E+00  0.4000E+01
    -11.001  0.0000E+00  0.4000E+01
    -10.924  0.0000E+00  0.4000E+01
    -10.848  0.0000E+00  0.4000E+01
    -10.771  0.0000E+00  0.4000E+01
    -10.694  0.0000E+00  0.4000E+01
    -10.617  0.0000E+00  0.4000E+01
    -10.541  0.0000E+00  0.4000E+01
    -10.464  0.0000E+00  0.4000E+01
    -10.387  0.0000E+00  0.4000E+01
    -10.310  0.0000E+00  0.4000E+01
    -10.234  0.0000E+00  0.4000E+01
    -10.157  0.0000E+00  0.4000E+01
    -10.080  0.0000E+00  0.4000E+01
    -10.003  0.0000E+00  0.4000E+01
     -9.927  0.0000E+00  0.4000E+01
     -9.850  0.0000E+00  0.4000E+01
     -9.773  0.0000E+00  0.4000E+01
     -9.697  0.0000E+00  0.4000E+01
     -9.620  0.0000E+00  0.4000E+01
     -9.543  0.1713E-11  0.4000E+01
     -9.466  0.1455E-05  0.4000E+01
     -9.390  0.1306E-01  0.4001E+01
     -9.313  0.1550E+01  0.4120E+01
     -9.236  0.4508E+01  0.4466E+01
     -9.159  0.5867E+01  0.4916E+01
     -9.083  0.2823E+02  0.7083E+01
     -9.006  0.5544E+01  0.7508E+01
     -8.929  0.3450E+01  0.7773E+01
     -8.852  0.4504E+01  0.8119E+01
     -8.776  0.3887E+02  0.1110E+02
     -8.699  0.3701E+02  0.1394E+02
     -8.622  0.1998E+02  0.1547E+02
     -8.545  0.1929E+02  0.1696E+02
     -8.469  0.7028E+01  0.1749E+02
     -8.392  0.2813E+02  0.1965E+02
     -8.315  0.9029E+01  0.2035E+02
     -8.238  0.3246E+02  0.2284E+02
     -8.162  0.2257E+02  0.2457E+02
     -8.085  0.8368E+02  0.3099E+02
     -8.008  0.1956E+02  0.3249E+02
     -7.931  0.1150E+00  0.3250E+02
     -7.855  0.2942E+01  0.3273E+02
     -7.778  0.7673E+02  0.3861E+02
     -7.701  0.7445E+02  0.4433E+02
     -7.624  0.1748E+02  0.4567E+02
     -7.548  0.2279E+02  0.4742E+02
     -7.471  0.1090E+02  0.4825E+02
     -7.394  0.3206E+02  0.5071E+02
     -7.318  0.2268E+02  0.5245E+02
     -7.241  0.5360E+02  0.5657E+02
     -7.164  0.2861E+02  0.5876E+02
     -7.087  0.1116E+03  0.6733E+02
     -7.011  0.2579E+02  0.6931E+02
     -6.934  0.5081E+02  0.7321E+02
     -6.857  0.2708E+02  0.7529E+02
     -6.780  0.8712E+02  0.8197E+02
     -6.704  0.6552E+02  0.8700E+02
     -6.627  0.2531E+02  0.8894E+02
     -6.550  0.1358E+02  0.8998E+02
     -6.473  0.5514E+00  0.9003E+02
     -6.397  0.4702E+01  0.9039E+02
     -6.320  0.4454E+02  0.9380E+02
     -6.243  0.1274E+03  0.1036E+03
     -6.166  0.6372E+02  0.1085E+03
     -6.090  0.1062E+03  0.1166E+03
     -6.013  0.1680E+02  0.1179E+03
     -5.936  0.4234E+02  0.1212E+03
     -5.859  0.4493E+02  0.1246E+03
     -5.783  0.1192E+03  0.1338E+03
     -5.706  0.6082E+02  0.1384E+03
     -5.629  0.2744E+02  0.1405E+03
     -5.552  0.1477E+02  0.1417E+03
     -5.476  0.6068E+02  0.1463E+03
     -5.399  0.5418E+02  0.1505E+03
     -5.322  0.4435E+02  0.1539E+03
     -5.245  0.9395E+02  0.1611E+03
     -5.169  0.6890E+02  0.1664E+03
     -5.092  0.6849E+02  0.1716E+03
     -5.015  0.6974E+01  0.1722E+03
     -4.939  0.4528E+02  0.1756E+03
     -4.862  0.7528E+02  0.1814E+03
     -4.785  0.1353E+03  0.1918E+03
     -4.708  0.3667E+02  0.1946E+03
     -4.632  0.6847E+02  0.1999E+03
     -4.555  0.3001E+02  0.2022E+03
     -4.478  0.5213E+02  0.2062E+03
     -4.401  0.6875E+02  0.2115E+03
     -4.325  0.1262E+03  0.2211E+03
     -4.248  0.1056E+03  0.2292E+03
     -4.171  0.8703E+02  0.2359E+03
     -4.094  0.2922E+02  0.2382E+03
     -4.018  0.5508E+02  0.2424E+03
     -3.941  0.8743E+02  0.2491E+03
     -3.864  0.7182E+02  0.2546E+03
     -3.787  0.8697E+02  0.2613E+03
     -3.711  0.4603E+02  0.2648E+03
     -3.634  0.6857E+02  0.2701E+03
     -3.557  0.1765E+02  0.2714E+03
     -3.480  0.5816E+01  0.2719E+03
     -3.404  0.6107E+02  0.2766E+03
     -3.327  0.9611E+02  0.2839E+03
     -3.250  0.8383E+02  0.2904E+03
     -3.173  0.1193E+03  0.2995E+03
     -3.097  0.6985E+02  0.3049E+03
     -3.020  0.1344E+03  0.3152E+03
     -2.943  0.1587E+03  0.3274E+03
     -2.866  0.1841E+03  0.3415E+03
     -2.790  0.2582E+02  0.3435E+03
     -2.713  0.2061E+00  0.3435E+03
     -2.636  0.1132E+02  0.3444E+03
     -2.560  0.5492E+02  0.3486E+03
     -2.483  0.9701E+02  0.3560E+03
     -2.406  0.1634E+03  0.3686E+03
     -2.329  0.6039E+02  0.3732E+03
     -2.253  0.1089E+03  0.3816E+03
     -2.176  0.4619E+02  0.3851E+03
     -2.099  0.5247E+02  0.3891E+03
     -2.022  0.1019E+03  0.3970E+03
     -1.946  0.1424E+03  0.4079E+03
     -1.869  0.1241E+03  0.4174E+03
     -1.792  0.2168E+02  0.4191E+03
     -1.715  0.6855E+02  0.4243E+03
     -1.639  0.8408E+02  0.4308E+03
     -1.562  0.4651E+02  0.4344E+03
     -1.485  0.1947E+03  0.4493E+03
     -1.408  0.1136E+03  0.4580E+03
     -1.332  0.1169E+03  0.4670E+03
     -1.255  0.7816E+02  0.4730E+03
     -1.178  0.7218E+02  0.4785E+03
     -1.101  0.6981E+02  0.4839E+03
     -1.025  0.1276E+03  0.4937E+03
     -0.948  0.1178E+03  0.5027E+03
     -0.871  0.7241E+02  0.5083E+03
     -0.794  0.6752E+02  0.5135E+03
     -0.718  0.6421E+02  0.5184E+03
     -0.641  0.1095E+03  0.5268E+03
     -0.564  0.2292E+03  0.5444E+03
     -0.487  0.9914E+02  0.5520E+03
     -0.411  0.1164E+03  0.5609E+03
     -0.334  0.1219E+03  0.5703E+03
     -0.257  0.4148E+02  0.5735E+03
     -0.181  0.2871E+02  0.5757E+03
     -0.104  0.8583E+02  0.5822E+03
     -0.027  0.1067E+03  0.5904E+03
      0.050  0.8050E+02  0.5966E+03
      0.126  0.9338E+02  0.6038E+03
      0.203  0.7570E+02  0.6096E+03
      0.280  0.8136E+02  0.6158E+03
      0.357  0.1623E+03  0.6283E+03
      0.433  0.7689E+02  0.6342E+03
      0.510  0.6764E+02  0.6394E+03
      0.587  0.3159E+02  0.6418E+03
      0.664  0.5397E+02  0.6459E+03
      0.740  0.7061E+02  0.6514E+03
      0.817  0.2369E+03  0.6695E+03
      0.894  0.2121E+03  0.6858E+03
      0.971  0.1137E+03  0.6945E+03
      1.047  0.7871E+02  0.7006E+03
      1.124  0.7483E+02  0.7063E+03
      1.201  0.6266E+02  0.7111E+03
      1.278  0.8859E+02  0.7179E+03
      1.354  0.1057E+03  0.7260E+03
      1.431  0.1545E+03  0.7379E+03
      1.508  0.1897E+03  0.7525E+03
      1.585  0.1377E+03  0.7630E+03
      1.661  0.9513E+02  0.7703E+03
      1.738  0.3337E+02  0.7729E+03
      1.815  0.1604E+03  0.7852E+03
      1.892  0.1567E+03  0.7972E+03
      1.968  0.6994E+02  0.8026E+03
      2.045  0.7233E+02  0.8081E+03
      2.122  0.7174E+02  0.8137E+03
      2.198  0.4768E+02  0.8173E+03
      2.275  0.1308E+03  0.8273E+03
      2.352  0.8640E+02  0.8340E+03
      2.429  0.1099E+03  0.8424E+03
      2.505  0.1444E+03  0.8535E+03
      2.582  0.5524E+02  0.8577E+03
      2.659  0.7902E+02  0.8638E+03
      2.736  0.1511E+03  0.8754E+03
      2.812  0.3338E+03  0.9010E+03
      2.889  0.1841E+03  0.9151E+03
      2.966  0.5265E+02  0.9192E+03
      3.043  0.5789E+02  0.9236E+03
      3.119  0.1038E+03  0.9316E+03
      3.196  0.1222E+03  0.9410E+03
      3.273  0.1655E+03  0.9537E+03
      3.350  0.1175E+03  0.9627E+03
      3.426  0.7016E+02  0.9681E+03
      3.503  0.8934E+02  0.9749E+03
      3.580  0.1094E+03  0.9833E+03
      3.657  0.7041E+02  0.9887E+03
      3.733  0.8414E+02  0.9952E+03
      3.810  0.1734E+03  0.1008E+04
      3.887  0.1462E+03  0.1020E+04
      3.964  0.4505E+02  0.1023E+04
      4.040  0.9899E+01  0.1024E+04
      4.117  0.1053E+01  0.1024E+04
      4.194  0.2334E-02  0.1024E+04
      4.271  0.6193E-07  0.1024E+04
      4.347  0.1736E-13  0.1024E+04
      4.424  0.0000E+00  0.1024E+04
      4.501  0.0000E+00  0.1024E+04
      4.577  0.0000E+00  0.1024E+04
      4.654  0.0000E+00  0.1024E+04
      4.731  0.0000E+00  0.1024E+04
      4.808  0.0000E+00  0.1024E+04
      4.884  0.0000E+00  0.1024E+04
      4.961  0.0000E+00  0.1024E+04
      5.038  0.0000E+00  0.1024E+04
