<?xml version="1.0" encoding="ISO-8859-1"?>
<modeling>
 <generator>
  <i name="program" type="string">vasp </i>
  <i name="version" type="string">6.2.1  </i>
  <i name="subversion" type="string">16May21 (build Jun 16 2021 03:23:30) complex                          parallel </i>
  <i name="platform" type="string">LinuxPGI </i>
  <i name="date" type="string">2022 04 25 </i>
  <i name="time" type="string">11:32:55 </i>
 </generator>
 <incar>
  <i type="string" name="SYSTEM">NiAl</i>
  <i type="int" name="ISTART">     0</i>
  <i type="int" name="NELMIN">     6</i>
  <i name="EDIFF">      0.00000500</i>
  <i type="int" name="ISIF">     0</i>
  <i name="ENCUT">    360.00000000</i>
  <i type="string" name="LREAL">Auto</i>
  <i type="logical" name="LPLANE"> T  </i>
  <i type="int" name="ISMEAR">     0</i>
  <i name="SIGMA">      0.05000000</i>
  <i type="logical" name="LWAVE"> F  </i>
  <i type="logical" name="LCHARG"> F  </i>
  <i type="int" name="IVDW">    12</i>
 </incar>
 <primitive_cell>
  <structure name="primitive_cell" >
   <crystal>
    <varray name="basis" >
     <v>       0.00000000     -17.18057346       0.00000000 </v>
     <v>       0.00000000      -8.59028673     -14.87881307 </v>
     <v>      30.00000000       0.00000000       0.00000000 </v>
    </varray>
    <i name="volume">   7668.79622957 </i>
    <varray name="rec_basis" >
     <v>       0.00000000      -0.05820527       0.03360483 </v>
     <v>       0.00000000       0.00000000      -0.06720966 </v>
     <v>       0.03333333       0.00000000       0.00000000 </v>
    </varray>
   </crystal>
   <varray name="positions" >
    <v>       0.44444456       0.44444473       0.07873467 </v>
    <v>       0.44444419       0.77777777       0.07873467 </v>
    <v>       0.44444468       0.11111101       0.07873467 </v>
    <v>       0.77777744       0.44444473       0.07873467 </v>
    <v>       0.77777765       0.77777777       0.07873467 </v>
    <v>       0.77777756       0.11111101       0.07873467 </v>
    <v>       0.11111110       0.44444473       0.07873467 </v>
    <v>       0.11111131       0.77777777       0.07873467 </v>
    <v>       0.11111122       0.11111101       0.07873467 </v>
    <v>       0.55555520       0.55555574       0.15702600 </v>
    <v>       0.55555541       0.88888878       0.15702600 </v>
    <v>       0.55555591       0.22222203       0.15702600 </v>
    <v>       0.88888866       0.55555574       0.15702600 </v>
    <v>       0.88888887       0.88888878       0.15702600 </v>
    <v>       0.88888878       0.22222203       0.15702600 </v>
    <v>       0.22222232       0.55555574       0.15702600 </v>
    <v>       0.22222253       0.88888878       0.15702600 </v>
    <v>       0.22222245       0.22222203       0.15702600 </v>
    <v>       0.66666642       0.66666675       0.23375733 </v>
    <v>       0.66666692       0.00000000       0.23375733 </v>
    <v>       0.66666655       0.33333304       0.23375733 </v>
    <v>       0.00000008       0.66666675       0.23375733 </v>
    <v>       0.00000000       0.00000000       0.23375733 </v>
    <v>       0.00000021       0.33333304       0.23375733 </v>
    <v>       0.33333354       0.66666675       0.23375733 </v>
    <v>       0.33333346       0.00000000       0.23375733 </v>
    <v>       0.33333367       0.33333304       0.23375733 </v>
    <v>       0.77777765       0.77777777       0.31173067 </v>
    <v>       0.77777756       0.11111101       0.31173067 </v>
    <v>       0.77777744       0.44444473       0.31173067 </v>
    <v>       0.11111131       0.77777777       0.31173067 </v>
    <v>       0.11111122       0.11111101       0.31173067 </v>
    <v>       0.11111110       0.44444473       0.31173067 </v>
    <v>       0.44444419       0.77777777       0.31173067 </v>
    <v>       0.44444468       0.11111101       0.31173067 </v>
    <v>       0.44444456       0.44444473       0.31173067 </v>
    <v>       0.88888887       0.88888878       0.38970400 </v>
    <v>       0.88888878       0.22222203       0.38970400 </v>
    <v>       0.88888866       0.55555574       0.38970400 </v>
    <v>       0.22222253       0.88888878       0.38970400 </v>
    <v>       0.22222245       0.22222203       0.38970400 </v>
    <v>       0.22222232       0.55555574       0.38970400 </v>
    <v>       0.55555541       0.88888878       0.38970400 </v>
    <v>       0.55555591       0.22222203       0.38970400 </v>
    <v>       0.55555520       0.55555574       0.38970400 </v>
    <v>       0.00000000       0.00000000       0.46643533 </v>
    <v>       0.00000021       0.33333304       0.46643533 </v>
    <v>       0.00000008       0.66666675       0.46643533 </v>
    <v>       0.33333346       0.00000000       0.46643533 </v>
    <v>       0.33333367       0.33333304       0.46643533 </v>
    <v>       0.33333354       0.66666675       0.46643533 </v>
    <v>       0.66666692       0.00000000       0.46643533 </v>
    <v>       0.66666655       0.33333304       0.46643533 </v>
    <v>       0.66666642       0.66666675       0.46643533 </v>
    <v>       0.11111122       0.11111101       0.54472667 </v>
    <v>       0.11111110       0.44444473       0.54472667 </v>
    <v>       0.11111131       0.77777777       0.54472667 </v>
    <v>       0.44444468       0.11111101       0.54472667 </v>
    <v>       0.44444456       0.44444473       0.54472667 </v>
    <v>       0.44444419       0.77777777       0.54472667 </v>
    <v>       0.77777756       0.11111101       0.54472667 </v>
    <v>       0.77777744       0.44444473       0.54472667 </v>
    <v>       0.77777765       0.77777777       0.54472667 </v>
    <v>       0.27777777       0.27777753       0.07873467 </v>
    <v>       0.27777764       0.61111125       0.07873467 </v>
    <v>       0.27777785       0.94444429       0.07873467 </v>
    <v>       0.61111123       0.27777753       0.07873467 </v>
    <v>       0.61111110       0.61111125       0.07873467 </v>
    <v>       0.61111131       0.94444429       0.07873467 </v>
    <v>       0.94444469       0.27777753       0.07873467 </v>
    <v>       0.94444456       0.61111125       0.07873467 </v>
    <v>       0.94444477       0.94444429       0.07873467 </v>
    <v>       0.38888865       0.38888922       0.15702600 </v>
    <v>       0.38888886       0.72222226       0.15702600 </v>
    <v>       0.38888878       0.05555551       0.15702600 </v>
    <v>       0.72222211       0.38888922       0.15702600 </v>
    <v>       0.72222232       0.72222226       0.15702600 </v>
    <v>       0.72222224       0.05555551       0.15702600 </v>
    <v>       0.05555519       0.38888922       0.15702600 </v>
    <v>       0.05555540       0.72222226       0.15702600 </v>
    <v>       0.05555532       0.05555551       0.15702600 </v>
    <v>       0.49999988       0.50000023       0.23375733 </v>
    <v>       0.50000009       0.83333327       0.23375733 </v>
    <v>       0.50000000       0.16666652       0.23375733 </v>
    <v>       0.83333334       0.50000023       0.23375733 </v>
    <v>       0.83333355       0.83333327       0.23375733 </v>
    <v>       0.83333346       0.16666652       0.23375733 </v>
    <v>       0.16666642       0.50000023       0.23375733 </v>
    <v>       0.16666663       0.83333327       0.23375733 </v>
    <v>       0.16666654       0.16666652       0.23375733 </v>
    <v>       0.61111110       0.61111125       0.31173067 </v>
    <v>       0.61111131       0.94444429       0.31173067 </v>
    <v>       0.61111123       0.27777753       0.31173067 </v>
    <v>       0.94444456       0.61111125       0.31173067 </v>
    <v>       0.94444477       0.94444429       0.31173067 </v>
    <v>       0.94444469       0.27777753       0.31173067 </v>
    <v>       0.27777764       0.61111125       0.31173067 </v>
    <v>       0.27777785       0.94444429       0.31173067 </v>
    <v>       0.27777777       0.27777753       0.31173067 </v>
    <v>       0.72222232       0.72222226       0.38970400 </v>
    <v>       0.72222224       0.05555551       0.38970400 </v>
    <v>       0.72222211       0.38888922       0.38970400 </v>
    <v>       0.05555540       0.72222226       0.38970400 </v>
    <v>       0.05555532       0.05555551       0.38970400 </v>
    <v>       0.05555519       0.38888922       0.38970400 </v>
    <v>       0.38888886       0.72222226       0.38970400 </v>
    <v>       0.38888878       0.05555551       0.38970400 </v>
    <v>       0.38888865       0.38888922       0.38970400 </v>
    <v>       0.83333355       0.83333327       0.46643533 </v>
    <v>       0.83333346       0.16666652       0.46643533 </v>
    <v>       0.83333334       0.50000023       0.46643533 </v>
    <v>       0.16666663       0.83333327       0.46643533 </v>
    <v>       0.16666654       0.16666652       0.46643533 </v>
    <v>       0.16666642       0.50000023       0.46643533 </v>
    <v>       0.50000009       0.83333327       0.46643533 </v>
    <v>       0.50000000       0.16666652       0.46643533 </v>
    <v>       0.49999988       0.50000023       0.46643533 </v>
    <v>       0.94444477       0.94444429       0.54472667 </v>
    <v>       0.94444469       0.27777753       0.54472667 </v>
    <v>       0.94444456       0.61111125       0.54472667 </v>
    <v>       0.27777785       0.94444429       0.54472667 </v>
    <v>       0.27777777       0.27777753       0.54472667 </v>
    <v>       0.27777764       0.61111125       0.54472667 </v>
    <v>       0.61111131       0.94444429       0.54472667 </v>
    <v>       0.61111123       0.27777753       0.54472667 </v>
    <v>       0.61111110       0.61111125       0.54472667 </v>
    <v>       0.27777783       0.44444473       0.07873467 </v>
    <v>       0.27777804       0.77777777       0.07873467 </v>
    <v>       0.27777795       0.11111101       0.07873467 </v>
    <v>       0.61111071       0.44444473       0.07873467 </v>
    <v>       0.61111092       0.77777777       0.07873467 </v>
    <v>       0.61111141       0.11111101       0.07873467 </v>
    <v>       0.94444417       0.44444473       0.07873467 </v>
    <v>       0.94444438       0.77777777       0.07873467 </v>
    <v>       0.94444429       0.11111101       0.07873467 </v>
    <v>       0.38888905       0.55555574       0.15702600 </v>
    <v>       0.38888868       0.88888878       0.15702600 </v>
    <v>       0.38888918       0.22222203       0.15702600 </v>
    <v>       0.72222193       0.55555574       0.15702600 </v>
    <v>       0.72222214       0.88888878       0.15702600 </v>
    <v>       0.72222205       0.22222203       0.15702600 </v>
    <v>       0.05555559       0.55555574       0.15702600 </v>
    <v>       0.05555580       0.88888878       0.15702600 </v>
    <v>       0.05555572       0.22222203       0.15702600 </v>
    <v>       0.49999969       0.66666675       0.23375733 </v>
    <v>       0.50000019       0.00000000       0.23375733 </v>
    <v>       0.50000040       0.33333304       0.23375733 </v>
    <v>       0.83333315       0.66666675       0.23375733 </v>
    <v>       0.83333307       0.00000000       0.23375733 </v>
    <v>       0.83333328       0.33333304       0.23375733 </v>
    <v>       0.16666681       0.66666675       0.23375733 </v>
    <v>       0.16666673       0.00000000       0.23375733 </v>
    <v>       0.16666694       0.33333304       0.23375733 </v>
    <v>       0.61111092       0.77777777       0.31173067 </v>
    <v>       0.61111141       0.11111101       0.31173067 </v>
    <v>       0.61111071       0.44444473       0.31173067 </v>
    <v>       0.94444438       0.77777777       0.31173067 </v>
    <v>       0.94444429       0.11111101       0.31173067 </v>
    <v>       0.94444417       0.44444473       0.31173067 </v>
    <v>       0.27777804       0.77777777       0.31173067 </v>
    <v>       0.27777795       0.11111101       0.31173067 </v>
    <v>       0.27777783       0.44444473       0.31173067 </v>
    <v>       0.72222214       0.88888878       0.38970400 </v>
    <v>       0.72222205       0.22222203       0.38970400 </v>
    <v>       0.72222193       0.55555574       0.38970400 </v>
    <v>       0.05555580       0.88888878       0.38970400 </v>
    <v>       0.05555572       0.22222203       0.38970400 </v>
    <v>       0.05555559       0.55555574       0.38970400 </v>
    <v>       0.38888868       0.88888878       0.38970400 </v>
    <v>       0.38888918       0.22222203       0.38970400 </v>
    <v>       0.38888905       0.55555574       0.38970400 </v>
    <v>       0.83333307       0.00000000       0.46643533 </v>
    <v>       0.83333328       0.33333304       0.46643533 </v>
    <v>       0.83333315       0.66666675       0.46643533 </v>
    <v>       0.16666673       0.00000000       0.46643533 </v>
    <v>       0.16666694       0.33333304       0.46643533 </v>
    <v>       0.16666681       0.66666675       0.46643533 </v>
    <v>       0.50000019       0.00000000       0.46643533 </v>
    <v>       0.50000040       0.33333304       0.46643533 </v>
    <v>       0.49999969       0.66666675       0.46643533 </v>
    <v>       0.94444429       0.11111101       0.54472667 </v>
    <v>       0.94444417       0.44444473       0.54472667 </v>
    <v>       0.94444438       0.77777777       0.54472667 </v>
    <v>       0.27777795       0.11111101       0.54472667 </v>
    <v>       0.27777783       0.44444473       0.54472667 </v>
    <v>       0.27777804       0.77777777       0.54472667 </v>
    <v>       0.61111141       0.11111101       0.54472667 </v>
    <v>       0.61111071       0.44444473       0.54472667 </v>
    <v>       0.61111092       0.77777777       0.54472667 </v>
    <v>       0.44444450       0.27777753       0.07873467 </v>
    <v>       0.44444437       0.61111125       0.07873467 </v>
    <v>       0.44444458       0.94444429       0.07873467 </v>
    <v>       0.77777796       0.27777753       0.07873467 </v>
    <v>       0.77777783       0.61111125       0.07873467 </v>
    <v>       0.77777804       0.94444429       0.07873467 </v>
    <v>       0.11111104       0.27777753       0.07873467 </v>
    <v>       0.11111091       0.61111125       0.07873467 </v>
    <v>       0.11111112       0.94444429       0.07873467 </v>
    <v>       0.55555538       0.38888922       0.15702600 </v>
    <v>       0.55555559       0.72222226       0.15702600 </v>
    <v>       0.55555551       0.05555551       0.15702600 </v>
    <v>       0.88888884       0.38888922       0.15702600 </v>
    <v>       0.88888905       0.72222226       0.15702600 </v>
    <v>       0.88888897       0.05555551       0.15702600 </v>
    <v>       0.22222192       0.38888922       0.15702600 </v>
    <v>       0.22222213       0.72222226       0.15702600 </v>
    <v>       0.22222205       0.05555551       0.15702600 </v>
    <v>       0.66666661       0.50000023       0.23375733 </v>
    <v>       0.66666682       0.83333327       0.23375733 </v>
    <v>       0.66666673       0.16666652       0.23375733 </v>
    <v>       0.99999969       0.50000023       0.23375733 </v>
    <v>       0.99999990       0.83333327       0.23375733 </v>
    <v>       0.99999981       0.16666652       0.23375733 </v>
    <v>       0.33333315       0.50000023       0.23375733 </v>
    <v>       0.33333336       0.83333327       0.23375733 </v>
    <v>       0.33333327       0.16666652       0.23375733 </v>
    <v>       0.77777783       0.61111125       0.31173067 </v>
    <v>       0.77777804       0.94444429       0.31173067 </v>
    <v>       0.77777796       0.27777753       0.31173067 </v>
    <v>       0.11111091       0.61111125       0.31173067 </v>
    <v>       0.11111112       0.94444429       0.31173067 </v>
    <v>       0.11111104       0.27777753       0.31173067 </v>
    <v>       0.44444437       0.61111125       0.31173067 </v>
    <v>       0.44444458       0.94444429       0.31173067 </v>
    <v>       0.44444450       0.27777753       0.31173067 </v>
    <v>       0.88888905       0.72222226       0.38970400 </v>
    <v>       0.88888897       0.05555551       0.38970400 </v>
    <v>       0.88888884       0.38888922       0.38970400 </v>
    <v>       0.22222213       0.72222226       0.38970400 </v>
    <v>       0.22222205       0.05555551       0.38970400 </v>
    <v>       0.22222192       0.38888922       0.38970400 </v>
    <v>       0.55555559       0.72222226       0.38970400 </v>
    <v>       0.55555551       0.05555551       0.38970400 </v>
    <v>       0.55555538       0.38888922       0.38970400 </v>
    <v>       0.99999990       0.83333327       0.46643533 </v>
    <v>       0.99999981       0.16666652       0.46643533 </v>
    <v>       0.99999969       0.50000023       0.46643533 </v>
    <v>       0.33333336       0.83333327       0.46643533 </v>
    <v>       0.33333327       0.16666652       0.46643533 </v>
    <v>       0.33333315       0.50000023       0.46643533 </v>
    <v>       0.66666682       0.83333327       0.46643533 </v>
    <v>       0.66666673       0.16666652       0.46643533 </v>
    <v>       0.66666661       0.50000023       0.46643533 </v>
    <v>       0.11111112       0.94444429       0.54472667 </v>
    <v>       0.11111104       0.27777753       0.54472667 </v>
    <v>       0.11111091       0.61111125       0.54472667 </v>
    <v>       0.44444458       0.94444429       0.54472667 </v>
    <v>       0.44444450       0.27777753       0.54472667 </v>
    <v>       0.44444437       0.61111125       0.54472667 </v>
    <v>       0.77777804       0.94444429       0.54472667 </v>
    <v>       0.77777796       0.27777753       0.54472667 </v>
    <v>       0.77777783       0.61111125       0.54472667 </v>
    <v>       0.33333315       0.50000023       0.73466667 </v>
    <v>       0.38888907       0.38888877       0.73466667 </v>
   </varray>
  </structure>
  <varray name="primitive_index" >
   <v type="int" >        1 </v>
   <v type="int" >        2 </v>
   <v type="int" >        3 </v>
   <v type="int" >        4 </v>
   <v type="int" >        5 </v>
   <v type="int" >        6 </v>
   <v type="int" >        7 </v>
   <v type="int" >        8 </v>
   <v type="int" >        9 </v>
   <v type="int" >       10 </v>
   <v type="int" >       11 </v>
   <v type="int" >       12 </v>
   <v type="int" >       13 </v>
   <v type="int" >       14 </v>
   <v type="int" >       15 </v>
   <v type="int" >       16 </v>
   <v type="int" >       17 </v>
   <v type="int" >       18 </v>
   <v type="int" >       19 </v>
   <v type="int" >       20 </v>
   <v type="int" >       21 </v>
   <v type="int" >       22 </v>
   <v type="int" >       23 </v>
   <v type="int" >       24 </v>
   <v type="int" >       25 </v>
   <v type="int" >       26 </v>
   <v type="int" >       27 </v>
   <v type="int" >       28 </v>
   <v type="int" >       29 </v>
   <v type="int" >       30 </v>
   <v type="int" >       31 </v>
   <v type="int" >       32 </v>
   <v type="int" >       33 </v>
   <v type="int" >       34 </v>
   <v type="int" >       35 </v>
   <v type="int" >       36 </v>
   <v type="int" >       37 </v>
   <v type="int" >       38 </v>
   <v type="int" >       39 </v>
   <v type="int" >       40 </v>
   <v type="int" >       41 </v>
   <v type="int" >       42 </v>
   <v type="int" >       43 </v>
   <v type="int" >       44 </v>
   <v type="int" >       45 </v>
   <v type="int" >       46 </v>
   <v type="int" >       47 </v>
   <v type="int" >       48 </v>
   <v type="int" >       49 </v>
   <v type="int" >       50 </v>
   <v type="int" >       51 </v>
   <v type="int" >       52 </v>
   <v type="int" >       53 </v>
   <v type="int" >       54 </v>
   <v type="int" >       55 </v>
   <v type="int" >       56 </v>
   <v type="int" >       57 </v>
   <v type="int" >       58 </v>
   <v type="int" >       59 </v>
   <v type="int" >       60 </v>
   <v type="int" >       61 </v>
   <v type="int" >       62 </v>
   <v type="int" >       63 </v>
   <v type="int" >       64 </v>
   <v type="int" >       65 </v>
   <v type="int" >       66 </v>
   <v type="int" >       67 </v>
   <v type="int" >       68 </v>
   <v type="int" >       69 </v>
   <v type="int" >       70 </v>
   <v type="int" >       71 </v>
   <v type="int" >       72 </v>
   <v type="int" >       73 </v>
   <v type="int" >       74 </v>
   <v type="int" >       75 </v>
   <v type="int" >       76 </v>
   <v type="int" >       77 </v>
   <v type="int" >       78 </v>
   <v type="int" >       79 </v>
   <v type="int" >       80 </v>
   <v type="int" >       81 </v>
   <v type="int" >       82 </v>
   <v type="int" >       83 </v>
   <v type="int" >       84 </v>
   <v type="int" >       85 </v>
   <v type="int" >       86 </v>
   <v type="int" >       87 </v>
   <v type="int" >       88 </v>
   <v type="int" >       89 </v>
   <v type="int" >       90 </v>
   <v type="int" >       91 </v>
   <v type="int" >       92 </v>
   <v type="int" >       93 </v>
   <v type="int" >       94 </v>
   <v type="int" >       95 </v>
   <v type="int" >       96 </v>
   <v type="int" >       97 </v>
   <v type="int" >       98 </v>
   <v type="int" >       99 </v>
   <v type="int" >      100 </v>
   <v type="int" >      101 </v>
   <v type="int" >      102 </v>
   <v type="int" >      103 </v>
   <v type="int" >      104 </v>
   <v type="int" >      105 </v>
   <v type="int" >      106 </v>
   <v type="int" >      107 </v>
   <v type="int" >      108 </v>
   <v type="int" >      109 </v>
   <v type="int" >      110 </v>
   <v type="int" >      111 </v>
   <v type="int" >      112 </v>
   <v type="int" >      113 </v>
   <v type="int" >      114 </v>
   <v type="int" >      115 </v>
   <v type="int" >      116 </v>
   <v type="int" >      117 </v>
   <v type="int" >      118 </v>
   <v type="int" >      119 </v>
   <v type="int" >      120 </v>
   <v type="int" >      121 </v>
   <v type="int" >      122 </v>
   <v type="int" >      123 </v>
   <v type="int" >      124 </v>
   <v type="int" >      125 </v>
   <v type="int" >      126 </v>
   <v type="int" >      127 </v>
   <v type="int" >      128 </v>
   <v type="int" >      129 </v>
   <v type="int" >      130 </v>
   <v type="int" >      131 </v>
   <v type="int" >      132 </v>
   <v type="int" >      133 </v>
   <v type="int" >      134 </v>
   <v type="int" >      135 </v>
   <v type="int" >      136 </v>
   <v type="int" >      137 </v>
   <v type="int" >      138 </v>
   <v type="int" >      139 </v>
   <v type="int" >      140 </v>
   <v type="int" >      141 </v>
   <v type="int" >      142 </v>
   <v type="int" >      143 </v>
   <v type="int" >      144 </v>
   <v type="int" >      145 </v>
   <v type="int" >      146 </v>
   <v type="int" >      147 </v>
   <v type="int" >      148 </v>
   <v type="int" >      149 </v>
   <v type="int" >      150 </v>
   <v type="int" >      151 </v>
   <v type="int" >      152 </v>
   <v type="int" >      153 </v>
   <v type="int" >      154 </v>
   <v type="int" >      155 </v>
   <v type="int" >      156 </v>
   <v type="int" >      157 </v>
   <v type="int" >      158 </v>
   <v type="int" >      159 </v>
   <v type="int" >      160 </v>
   <v type="int" >      161 </v>
   <v type="int" >      162 </v>
   <v type="int" >      163 </v>
   <v type="int" >      164 </v>
   <v type="int" >      165 </v>
   <v type="int" >      166 </v>
   <v type="int" >      167 </v>
   <v type="int" >      168 </v>
   <v type="int" >      169 </v>
   <v type="int" >      170 </v>
   <v type="int" >      171 </v>
   <v type="int" >      172 </v>
   <v type="int" >      173 </v>
   <v type="int" >      174 </v>
   <v type="int" >      175 </v>
   <v type="int" >      176 </v>
   <v type="int" >      177 </v>
   <v type="int" >      178 </v>
   <v type="int" >      179 </v>
   <v type="int" >      180 </v>
   <v type="int" >      181 </v>
   <v type="int" >      182 </v>
   <v type="int" >      183 </v>
   <v type="int" >      184 </v>
   <v type="int" >      185 </v>
   <v type="int" >      186 </v>
   <v type="int" >      187 </v>
   <v type="int" >      188 </v>
   <v type="int" >      189 </v>
   <v type="int" >      190 </v>
   <v type="int" >      191 </v>
   <v type="int" >      192 </v>
   <v type="int" >      193 </v>
   <v type="int" >      194 </v>
   <v type="int" >      195 </v>
   <v type="int" >      196 </v>
   <v type="int" >      197 </v>
   <v type="int" >      198 </v>
   <v type="int" >      199 </v>
   <v type="int" >      200 </v>
   <v type="int" >      201 </v>
   <v type="int" >      202 </v>
   <v type="int" >      203 </v>
   <v type="int" >      204 </v>
   <v type="int" >      205 </v>
   <v type="int" >      206 </v>
   <v type="int" >      207 </v>
   <v type="int" >      208 </v>
   <v type="int" >      209 </v>
   <v type="int" >      210 </v>
   <v type="int" >      211 </v>
   <v type="int" >      212 </v>
   <v type="int" >      213 </v>
   <v type="int" >      214 </v>
   <v type="int" >      215 </v>
   <v type="int" >      216 </v>
   <v type="int" >      217 </v>
   <v type="int" >      218 </v>
   <v type="int" >      219 </v>
   <v type="int" >      220 </v>
   <v type="int" >      221 </v>
   <v type="int" >      222 </v>
   <v type="int" >      223 </v>
   <v type="int" >      224 </v>
   <v type="int" >      225 </v>
   <v type="int" >      226 </v>
   <v type="int" >      227 </v>
   <v type="int" >      228 </v>
   <v type="int" >      229 </v>
   <v type="int" >      230 </v>
   <v type="int" >      231 </v>
   <v type="int" >      232 </v>
   <v type="int" >      233 </v>
   <v type="int" >      234 </v>
   <v type="int" >      235 </v>
   <v type="int" >      236 </v>
   <v type="int" >      237 </v>
   <v type="int" >      238 </v>
   <v type="int" >      239 </v>
   <v type="int" >      240 </v>
   <v type="int" >      241 </v>
   <v type="int" >      242 </v>
   <v type="int" >      243 </v>
   <v type="int" >      244 </v>
   <v type="int" >      245 </v>
   <v type="int" >      246 </v>
   <v type="int" >      247 </v>
   <v type="int" >      248 </v>
   <v type="int" >      249 </v>
   <v type="int" >      250 </v>
   <v type="int" >      251 </v>
   <v type="int" >      252 </v>
   <v type="int" >      253 </v>
   <v type="int" >      254 </v>
  </varray>
 </primitive_cell>
 <kpoints>
  <generation param="Gamma">
   <v type="int" name="divisions">       2        2        1 </v>
   <v name="usershift">      0.00000000       0.00000000       0.00000000 </v>
   <v name="genvec1">      0.50000000       0.00000000       0.00000000 </v>
   <v name="genvec2">      0.00000000       0.50000000       0.00000000 </v>
   <v name="genvec3">      0.00000000       0.00000000       1.00000000 </v>
   <v name="shift">      0.00000000       0.00000000       0.00000000 </v>
  </generation>
  <varray name="kpointlist" >
   <v>       0.00000000       0.00000000       0.00000000 </v>
   <v>       0.50000000       0.00000000       0.00000000 </v>
   <v>       0.00000000       0.50000000       0.00000000 </v>
  </varray>
  <varray name="weights" >
   <v>       0.25000000 </v>
   <v>       0.50000000 </v>
   <v>       0.25000000 </v>
  </varray>
 </kpoints>
 <parameters>
  <separator name="general" >
   <i type="string" name="SYSTEM">NiAl</i>
   <i type="logical" name="LCOMPAT"> F  </i>
  </separator>
  <separator name="electronic" >
   <i type="string" name="PREC">normal</i>
   <i name="ENMAX">    360.00000000</i>
   <i name="ENAUG">   1139.60900000</i>
   <i name="EDIFF">      0.00000500</i>
   <i type="int" name="IALGO">    38</i>
   <i type="int" name="IWAVPR">    10</i>
   <i type="int" name="NBANDS">   512</i>
   <i type="int" name="NBANDSLOW">    -1</i>
   <i type="int" name="NBANDSHIGH">    -1</i>
   <i name="NELECT">    768.00000000</i>
   <i type="int" name="TURBO">     0</i>
   <i type="int" name="IRESTART">     0</i>
   <i type="int" name="NREBOOT">     0</i>
   <i type="int" name="NMIN">     0</i>
   <i name="EREF">      0.00000000</i>
   <separator name="electronic smearing" >
    <i type="int" name="ISMEAR">     0</i>
    <i name="SIGMA">      0.05000000</i>
    <i name="KSPACING">      0.50000000</i>
    <i type="logical" name="KGAMMA"> T  </i>
    <i type="logical" name="KBLOWUP"> T  </i>
   </separator>
   <separator name="electronic projectors" >
    <i type="logical" name="LREAL"> T  </i>
    <v name="ROPT">     -0.00050000     -0.00050000</v>
    <i type="int" name="LMAXPAW">  -100</i>
    <i type="int" name="LMAXMIX">     2</i>
    <i type="logical" name="NLSPLINE"> F  </i>
   </separator>
   <separator name="electronic startup" >
    <i type="int" name="ISTART">     0</i>
    <i type="int" name="ICHARG">     2</i>
    <i type="int" name="INIWAV">     1</i>
   </separator>
   <separator name="electronic spin" >
    <i type="int" name="ISPIN">     1</i>
    <i type="logical" name="LNONCOLLINEAR"> F  </i>
    <v name="MAGMOM">      1.00000000      1.00000000      1.00000000      1.00000000      1.00000000      1.00000000      1.00000000      1.00000000      1.00000000      1.00000000      1.00000000      1.00000000      1.00000000      1.00000000      1.00000000      1.00000000      1.00000000      1.00000000      1.00000000      1.00000000
      1.00000000      1.00000000      1.00000000      1.00000000      1.00000000      1.00000000      1.00000000      1.00000000      1.00000000      1.00000000      1.00000000      1.00000000      1.00000000      1.00000000      1.00000000      1.00000000      1.00000000      1.00000000      1.00000000      1.00000000
      1.00000000      1.00000000      1.00000000      1.00000000      1.00000000      1.00000000      1.00000000      1.00000000      1.00000000      1.00000000      1.00000000      1.00000000      1.00000000      1.00000000      1.00000000      1.00000000      1.00000000      1.00000000      1.00000000      1.00000000
      1.00000000      1.00000000      1.00000000      1.00000000      1.00000000      1.00000000      1.00000000      1.00000000      1.00000000      1.00000000      1.00000000      1.00000000      1.00000000      1.00000000      1.00000000      1.00000000      1.00000000      1.00000000      1.00000000      1.00000000
      1.00000000      1.00000000      1.00000000      1.00000000      1.00000000      1.00000000      1.00000000      1.00000000      1.00000000      1.00000000      1.00000000      1.00000000      1.00000000      1.00000000      1.00000000      1.00000000      1.00000000      1.00000000      1.00000000      1.00000000
      1.00000000      1.00000000      1.00000000      1.00000000      1.00000000      1.00000000      1.00000000      1.00000000      1.00000000      1.00000000      1.00000000      1.00000000      1.00000000      1.00000000      1.00000000      1.00000000      1.00000000      1.00000000      1.00000000      1.00000000
      1.00000000      1.00000000      1.00000000      1.00000000      1.00000000      1.00000000      1.00000000      1.00000000      1.00000000      1.00000000      1.00000000      1.00000000      1.00000000      1.00000000      1.00000000      1.00000000      1.00000000      1.00000000      1.00000000      1.00000000
      1.00000000      1.00000000      1.00000000      1.00000000      1.00000000      1.00000000      1.00000000      1.00000000      1.00000000      1.00000000      1.00000000      1.00000000      1.00000000      1.00000000      1.00000000      1.00000000      1.00000000      1.00000000      1.00000000      1.00000000
      1.00000000      1.00000000      1.00000000      1.00000000      1.00000000      1.00000000      1.00000000      1.00000000      1.00000000      1.00000000      1.00000000      1.00000000      1.00000000      1.00000000      1.00000000      1.00000000      1.00000000      1.00000000      1.00000000      1.00000000
      1.00000000      1.00000000      1.00000000      1.00000000      1.00000000      1.00000000      1.00000000      1.00000000      1.00000000      1.00000000      1.00000000      1.00000000      1.00000000      1.00000000      1.00000000      1.00000000      1.00000000      1.00000000      1.00000000      1.00000000
      1.00000000      1.00000000      1.00000000      1.00000000      1.00000000      1.00000000      1.00000000      1.00000000      1.00000000      1.00000000      1.00000000      1.00000000      1.00000000      1.00000000      1.00000000      1.00000000      1.00000000      1.00000000      1.00000000      1.00000000
      1.00000000      1.00000000      1.00000000      1.00000000      1.00000000      1.00000000      1.00000000      1.00000000      1.00000000      1.00000000      1.00000000      1.00000000      1.00000000      1.00000000      1.00000000      1.00000000      1.00000000      1.00000000      1.00000000      1.00000000
      1.00000000      1.00000000      1.00000000      1.00000000      1.00000000      1.00000000      1.00000000      1.00000000      1.00000000      1.00000000      1.00000000      1.00000000      1.00000000      1.00000000</v>
    <i name="NUPDOWN">     -1.00000000</i>
    <i type="logical" name="LSORBIT"> F  </i>
    <v name="SAXIS">      0.00000000      0.00000000      1.00000000</v>
    <i type="logical" name="LSPIRAL"> F  </i>
    <v name="QSPIRAL">      0.00000000      0.00000000      0.00000000</v>
    <i type="logical" name="LZEROZ"> F  </i>
   </separator>
   <separator name="electronic exchange-correlation" >
    <i type="logical" name="LASPH"> F  </i>
    <i type="logical" name="LMETAGGA"> F  </i>
   </separator>
   <separator name="electronic convergence" >
    <i type="int" name="NELM">    60</i>
    <i type="int" name="NELMDL">    -5</i>
    <i type="int" name="NELMIN">     6</i>
    <i name="ENINI">    360.00000000</i>
    <separator name="electronic convergence detail" >
     <i type="logical" name="LDIAG"> T  </i>
     <i type="logical" name="LSUBROT"> F  </i>
     <i name="WEIMIN">      0.00000000</i>
     <i name="EBREAK">      0.00000000</i>
     <i name="DEPER">      0.30000000</i>
     <i type="int" name="NRMM">     4</i>
     <i name="TIME">      0.40000000</i>
    </separator>
   </separator>
   <separator name="electronic mixer" >
    <i name="AMIX">      0.40000000</i>
    <i name="BMIX">      1.00000000</i>
    <i name="AMIN">      0.10000000</i>
    <i name="AMIX_MAG">      1.60000000</i>
    <i name="BMIX_MAG">      1.00000000</i>
    <separator name="electronic mixer details" >
     <i type="int" name="IMIX">     4</i>
     <i type="logical" name="MIXFIRST"> F  </i>
     <i type="int" name="MAXMIX">   -45</i>
     <i name="WC">    100.00000000</i>
     <i type="int" name="INIMIX">     1</i>
     <i type="int" name="MIXPRE">     1</i>
     <i type="int" name="MREMOVE">     5</i>
    </separator>
   </separator>
   <separator name="electronic dipolcorrection" >
    <i type="logical" name="LDIPOL"> F  </i>
    <i type="logical" name="LMONO"> F  </i>
    <i type="int" name="IDIPOL">     0</i>
    <i name="EPSILON">      1.00000000</i>
    <v name="DIPOL">   -100.00000000   -100.00000000   -100.00000000</v>
    <i name="EFIELD">      0.00000000</i>
   </separator>
  </separator>
  <separator name="grids" >
   <i type="int" name="NGX">    80</i>
   <i type="int" name="NGY">    80</i>
   <i type="int" name="NGZ">   140</i>
   <i type="int" name="NGXF">   160</i>
   <i type="int" name="NGYF">   160</i>
   <i type="int" name="NGZF">   280</i>
   <i type="logical" name="ADDGRID"> F  </i>
  </separator>
  <separator name="ionic" >
   <i type="int" name="NSW">     0</i>
   <i type="int" name="IBRION">    -1</i>
   <i type="int" name="MDALGO">     0</i>
   <i type="int" name="ISIF">     0</i>
   <i name="PSTRESS">      0.00000000</i>
   <i name="EDIFFG">      0.00005000</i>
   <i type="int" name="NFREE">     0</i>
   <i name="POTIM">      0.50000000</i>
   <i name="SMASS">     -3.00000000</i>
   <i name="SCALEE">      1.00000000</i>
  </separator>
  <separator name="ionic md" >
   <i name="TEBEG">      0.00010000</i>
   <i name="TEEND">      0.00010000</i>
   <i type="int" name="NBLOCK">     1</i>
   <i type="int" name="KBLOCK">     1</i>
   <i type="int" name="NPACO">   256</i>
   <i name="APACO">     16.00000000</i>
  </separator>
  <separator name="symmetry" >
   <i type="int" name="ISYM">     2</i>
   <i name="SYMPREC">      0.00001000</i>
  </separator>
  <separator name="dos" >
   <i type="int" name="LORBIT">     0</i>
   <v name="RWIGS">     -1.00000000     -1.00000000</v>
   <i type="int" name="NEDOS">   301</i>
   <i name="EMIN">     10.00000000</i>
   <i name="EMAX">    -10.00000000</i>
   <i name="EFERMI">      0.00000000</i>
  </separator>
  <separator name="writing" >
   <i type="int" name="NWRITE">     2</i>
   <i type="logical" name="LWAVE"> F  </i>
   <i type="logical" name="LDOWNSAMPLE"> F  </i>
   <i type="logical" name="LCHARG"> F  </i>
   <i type="logical" name="LPARD"> F  </i>
   <i type="logical" name="LVTOT"> F  </i>
   <i type="logical" name="LVHAR"> F  </i>
   <i type="logical" name="LELF"> F  </i>
   <i type="logical" name="LOPTICS"> F  </i>
   <v name="STM">      0.00000000      0.00000000      0.00000000      0.00000000      0.00000000      0.00000000      0.00000000</v>
  </separator>
  <separator name="performance" >
   <i type="int" name="NPAR">     1</i>
   <i type="int" name="NSIM">     4</i>
   <i type="int" name="NBLK">    -1</i>
   <i type="logical" name="LPLANE"> T  </i>
   <i type="logical" name="LSCALAPACK"> T  </i>
   <i type="logical" name="LSCAAWARE"> F  </i>
   <i type="logical" name="LSCALU"> F  </i>
   <i type="logical" name="LASYNC"> F  </i>
   <i type="logical" name="LORBITALREAL"> F  </i>
  </separator>
  <separator name="miscellaneous" >
   <i type="int" name="IDIOT">     3</i>
   <i type="int" name="PHON_NSTRUCT">    -1</i>
   <i type="logical" name="LMUSIC"> F  </i>
   <v name="POMASS">     26.98200000     16.00000000</v>
   <v name="DARWINR">      0.00000000      0.00000000</v>
   <v name="DARWINV">      1.00000000      1.00000000</v>
   <i type="logical" name="LCORR"> T  </i>
  </separator>
  <i type="logical" name="GGA_COMPAT"> T  </i>
  <i type="logical" name="LBERRY"> F  </i>
  <i type="int" name="ICORELEVEL">     0</i>
  <i type="logical" name="LDAU"> F  </i>
  <i type="int" name="I_CONSTRAINED_M">     0</i>
  <separator name="electronic exchange-correlation" >
   <i type="string" name="GGA">--</i>
   <i type="int" name="VOSKOWN">     0</i>
   <i type="logical" name="LHFCALC"> F  </i>
   <i type="string" name="PRECFOCK"></i>
   <i type="logical" name="LSYMGRAD"> F  </i>
   <i type="logical" name="LHFONE"> F  </i>
   <i type="logical" name="LRHFCALC"> F  </i>
   <i type="logical" name="LTHOMAS"> F  </i>
   <i type="logical" name="LMODELHF"> F  </i>
   <i type="logical" name="LFOCKACE"> F  </i>
   <i name="ENCUT4O">     -1.00000000</i>
   <i type="int" name="EXXOEP">     0</i>
   <i type="int" name="FOURORBIT">     0</i>
   <i name="AEXX">      0.00000000</i>
   <i name="HFALPHA">      0.00000000</i>
   <i name="MCALPHA">      0.00000000</i>
   <i name="ALDAX">      1.00000000</i>
   <i name="AGGAX">      1.00000000</i>
   <i name="ALDAC">      1.00000000</i>
   <i name="AGGAC">      1.00000000</i>
   <i type="int" name="NKREDX">     1</i>
   <i type="int" name="NKREDY">     1</i>
   <i type="int" name="NKREDZ">     1</i>
   <i type="logical" name="SHIFTRED"> F  </i>
   <i type="logical" name="ODDONLY"> F  </i>
   <i type="logical" name="EVENONLY"> F  </i>
   <i type="int" name="LMAXFOCK">     0</i>
   <i type="int" name="NMAXFOCKAE">     0</i>
   <i type="logical" name="LFOCKAEDFT"> F  </i>
   <i name="HFSCREEN">      0.00000000</i>
   <i name="HFSCREENC">      0.00000000</i>
   <i type="int" name="NBANDSGWLOW">     0</i>
  </separator>
  <separator name="vdW DFT" >
   <i type="logical" name="LUSE_VDW"> F  </i>
   <i name="Zab_VDW">     -0.84910000</i>
   <i name="PARAM1">      0.12340000</i>
   <i name="PARAM2">      1.00000000</i>
   <i name="PARAM3">      0.00000000</i>
  </separator>
  <separator name="model GW" >
   <i type="int" name="MODEL_GW">     0</i>
   <i name="MODEL_EPS0">     18.11526668</i>
   <i name="MODEL_ALPHA">      1.00000000</i>
  </separator>
  <separator name="linear response parameters" >
   <i type="logical" name="LEPSILON"> F  </i>
   <i type="logical" name="LRPA"> F  </i>
   <i type="logical" name="LNABLA"> F  </i>
   <i type="logical" name="LVEL"> F  </i>
   <i type="int" name="KINTER">     0</i>
   <i name="CSHIFT">      0.10000000</i>
   <i name="OMEGAMAX">     -1.00000000</i>
   <i name="DEG_THRESHOLD">      0.00200000</i>
   <i name="RTIME">     -0.10000000</i>
   <i name="WPLASMAI">      0.00000000</i>
   <v name="DFIELD">      0.00000000      0.00000000      0.00000000</v>
   <v name="WPLASMA">      0.00000000      0.00000000      0.00000000      0.00000000      0.00000000      0.00000000      0.00000000      0.00000000      0.00000000</v>
  </separator>
  <separator name="orbital magnetization" >
   <i type="logical" name="NUCIND"> F  </i>
   <v name="MAGPOS">      0.00000000      0.00000000      0.00000000</v>
   <i type="logical" name="LNICSALL"> T  </i>
   <i type="logical" name="ORBITALMAG"> F  </i>
   <i type="logical" name="LMAGBLOCH"> F  </i>
   <i type="logical" name="LCHIMAG"> F  </i>
   <i type="logical" name="LGAUGE"> T  </i>
   <i type="int" name="MAGATOM">     0</i>
   <v name="MAGDIPOL">      0.00000000      0.00000000      0.00000000</v>
   <v name="AVECCONST">      0.00000000      0.00000000      0.00000000</v>
  </separator>
  <separator name="response functions" >
   <i type="logical" name="LFINITE_TEMPERATURE"> F  </i>
   <i type="logical" name="LADDER"> F  </i>
   <i type="logical" name="LRPAFORCE"> F  </i>
   <i type="logical" name="LFXC"> F  </i>
   <i type="logical" name="LHARTREE"> T  </i>
   <i type="int" name="IBSE">     0</i>
   <v type="int" name="KPOINT">    -1     0     0     0</v>
   <i type="logical" name="LTCTC"> F  </i>
   <i type="logical" name="LTCTE"> F  </i>
   <i type="logical" name="LTETE"> F  </i>
   <i type="logical" name="LTRIPLET"> F  </i>
   <i type="logical" name="LFXCEPS"> F  </i>
   <i type="logical" name="LFXHEG"> F  </i>
   <i type="int" name="NATURALO">     2</i>
   <i type="logical" name="LHOLEGF"> F  </i>
   <i type="logical" name="L2ORDER"> F  </i>
   <i type="logical" name="LDMP1"> F  </i>
   <i type="logical" name="LMP2LT"> F  </i>
   <i type="logical" name="LSMP2LT"> F  </i>
   <i type="logical" name="LGWLF"> F  </i>
   <i name="ENCUTGW">     -2.00000000</i>
   <i name="ENCUTGWSOFT">     -2.00000000</i>
   <i name="ENCUTLF">     -1.00000000</i>
   <i type="logical" name="LESF_SPLINES"> F  </i>
   <i type="int" name="LMAXMP2">    -1</i>
   <i name="SCISSOR">      0.00000000</i>
   <i type="int" name="NOMEGA">     0</i>
   <i type="int" name="NOMEGAR">     0</i>
   <i type="int" name="NBANDSGW">    -1</i>
   <i type="int" name="NBANDSO">    -1</i>
   <i type="int" name="NBANDSV">    -1</i>
   <i type="int" name="NELM">     1</i>
   <i type="int" name="NELMHF">     1</i>
   <i type="int" name="DIM">     3</i>
   <i type="int" name="IESPILON">     4</i>
   <i type="int" name="ANTIRES">     0</i>
   <i name="OMEGAMAX">    -30.00000000</i>
   <i name="OMEGAMIN">    -30.00000000</i>
   <i name="OMEGATL">   -200.00000000</i>
   <i type="int" name="OMEGAGRID">     0</i>
   <i name="CSHIFT">     -0.10000000</i>
   <i type="logical" name="LSELFENERGY"> F  </i>
   <i type="logical" name="LSPECTRAL"> F  </i>
   <i type="logical" name="LSPECTRALGW"> F  </i>
   <i type="logical" name="LSINGLES"> F  </i>
   <i type="logical" name="LFERMIGW"> F  </i>
   <i type="logical" name="ODDONLYGW"> F  </i>
   <i type="logical" name="EVENONLYGW"> F  </i>
   <i type="int" name="NKREDLFX">     1</i>
   <i type="int" name="NKREDLFY">     1</i>
   <i type="int" name="NKREDLFZ">     1</i>
   <i type="int" name="MAXMEM">  2800</i>
   <i type="int" name="TELESCOPE">     0</i>
   <i type="int" name="NTAUPAR">    -1</i>
   <i type="int" name="NOMEGAPAR">    -1</i>
   <i name="DAMP_NEWTON">      0.80000001</i>
   <i name="LAMBDA">      1.00000000</i>
  </separator>
  <separator name="External order field" >
   <i name="OFIELD_KAPPA">      0.00000000</i>
   <v name="OFIELD_K">      0.00000000      0.00000000      0.00000000</v>
   <i name="OFIELD_Q6_NEAR">      0.00000000</i>
   <i name="OFIELD_Q6_FAR">      0.00000000</i>
   <i name="OFIELD_A">      0.00000000</i>
  </separator>
  <separator name="solvation model" >
   <i type="logical" name="LSOL"> F  </i>
  </separator>
 </parameters>
 <atominfo>
  <atoms>     254 </atoms>
  <types>       2 </types>
  <array name="atoms" >
   <dimension dim="1">ion</dimension>
   <field type="string">element</field>
   <field type="int">atomtype</field>
   <set>
    <rc><c>Al</c><c>   1</c></rc>
    <rc><c>Al</c><c>   1</c></rc>
    <rc><c>Al</c><c>   1</c></rc>
    <rc><c>Al</c><c>   1</c></rc>
    <rc><c>Al</c><c>   1</c></rc>
    <rc><c>Al</c><c>   1</c></rc>
    <rc><c>Al</c><c>   1</c></rc>
    <rc><c>Al</c><c>   1</c></rc>
    <rc><c>Al</c><c>   1</c></rc>
    <rc><c>Al</c><c>   1</c></rc>
    <rc><c>Al</c><c>   1</c></rc>
    <rc><c>Al</c><c>   1</c></rc>
    <rc><c>Al</c><c>   1</c></rc>
    <rc><c>Al</c><c>   1</c></rc>
    <rc><c>Al</c><c>   1</c></rc>
    <rc><c>Al</c><c>   1</c></rc>
    <rc><c>Al</c><c>   1</c></rc>
    <rc><c>Al</c><c>   1</c></rc>
    <rc><c>Al</c><c>   1</c></rc>
    <rc><c>Al</c><c>   1</c></rc>
    <rc><c>Al</c><c>   1</c></rc>
    <rc><c>Al</c><c>   1</c></rc>
    <rc><c>Al</c><c>   1</c></rc>
    <rc><c>Al</c><c>   1</c></rc>
    <rc><c>Al</c><c>   1</c></rc>
    <rc><c>Al</c><c>   1</c></rc>
    <rc><c>Al</c><c>   1</c></rc>
    <rc><c>Al</c><c>   1</c></rc>
    <rc><c>Al</c><c>   1</c></rc>
    <rc><c>Al</c><c>   1</c></rc>
    <rc><c>Al</c><c>   1</c></rc>
    <rc><c>Al</c><c>   1</c></rc>
    <rc><c>Al</c><c>   1</c></rc>
    <rc><c>Al</c><c>   1</c></rc>
    <rc><c>Al</c><c>   1</c></rc>
    <rc><c>Al</c><c>   1</c></rc>
    <rc><c>Al</c><c>   1</c></rc>
    <rc><c>Al</c><c>   1</c></rc>
    <rc><c>Al</c><c>   1</c></rc>
    <rc><c>Al</c><c>   1</c></rc>
    <rc><c>Al</c><c>   1</c></rc>
    <rc><c>Al</c><c>   1</c></rc>
    <rc><c>Al</c><c>   1</c></rc>
    <rc><c>Al</c><c>   1</c></rc>
    <rc><c>Al</c><c>   1</c></rc>
    <rc><c>Al</c><c>   1</c></rc>
    <rc><c>Al</c><c>   1</c></rc>
    <rc><c>Al</c><c>   1</c></rc>
    <rc><c>Al</c><c>   1</c></rc>
    <rc><c>Al</c><c>   1</c></rc>
    <rc><c>Al</c><c>   1</c></rc>
    <rc><c>Al</c><c>   1</c></rc>
    <rc><c>Al</c><c>   1</c></rc>
    <rc><c>Al</c><c>   1</c></rc>
    <rc><c>Al</c><c>   1</c></rc>
    <rc><c>Al</c><c>   1</c></rc>
    <rc><c>Al</c><c>   1</c></rc>
    <rc><c>Al</c><c>   1</c></rc>
    <rc><c>Al</c><c>   1</c></rc>
    <rc><c>Al</c><c>   1</c></rc>
    <rc><c>Al</c><c>   1</c></rc>
    <rc><c>Al</c><c>   1</c></rc>
    <rc><c>Al</c><c>   1</c></rc>
    <rc><c>Al</c><c>   1</c></rc>
    <rc><c>Al</c><c>   1</c></rc>
    <rc><c>Al</c><c>   1</c></rc>
    <rc><c>Al</c><c>   1</c></rc>
    <rc><c>Al</c><c>   1</c></rc>
    <rc><c>Al</c><c>   1</c></rc>
    <rc><c>Al</c><c>   1</c></rc>
    <rc><c>Al</c><c>   1</c></rc>
    <rc><c>Al</c><c>   1</c></rc>
    <rc><c>Al</c><c>   1</c></rc>
    <rc><c>Al</c><c>   1</c></rc>
    <rc><c>Al</c><c>   1</c></rc>
    <rc><c>Al</c><c>   1</c></rc>
    <rc><c>Al</c><c>   1</c></rc>
    <rc><c>Al</c><c>   1</c></rc>
    <rc><c>Al</c><c>   1</c></rc>
    <rc><c>Al</c><c>   1</c></rc>
    <rc><c>Al</c><c>   1</c></rc>
    <rc><c>Al</c><c>   1</c></rc>
    <rc><c>Al</c><c>   1</c></rc>
    <rc><c>Al</c><c>   1</c></rc>
    <rc><c>Al</c><c>   1</c></rc>
    <rc><c>Al</c><c>   1</c></rc>
    <rc><c>Al</c><c>   1</c></rc>
    <rc><c>Al</c><c>   1</c></rc>
    <rc><c>Al</c><c>   1</c></rc>
    <rc><c>Al</c><c>   1</c></rc>
    <rc><c>Al</c><c>   1</c></rc>
    <rc><c>Al</c><c>   1</c></rc>
    <rc><c>Al</c><c>   1</c></rc>
    <rc><c>Al</c><c>   1</c></rc>
    <rc><c>Al</c><c>   1</c></rc>
    <rc><c>Al</c><c>   1</c></rc>
    <rc><c>Al</c><c>   1</c></rc>
    <rc><c>Al</c><c>   1</c></rc>
    <rc><c>Al</c><c>   1</c></rc>
    <rc><c>Al</c><c>   1</c></rc>
    <rc><c>Al</c><c>   1</c></rc>
    <rc><c>Al</c><c>   1</c></rc>
    <rc><c>Al</c><c>   1</c></rc>
    <rc><c>Al</c><c>   1</c></rc>
    <rc><c>Al</c><c>   1</c></rc>
    <rc><c>Al</c><c>   1</c></rc>
    <rc><c>Al</c><c>   1</c></rc>
    <rc><c>Al</c><c>   1</c></rc>
    <rc><c>Al</c><c>   1</c></rc>
    <rc><c>Al</c><c>   1</c></rc>
    <rc><c>Al</c><c>   1</c></rc>
    <rc><c>Al</c><c>   1</c></rc>
    <rc><c>Al</c><c>   1</c></rc>
    <rc><c>Al</c><c>   1</c></rc>
    <rc><c>Al</c><c>   1</c></rc>
    <rc><c>Al</c><c>   1</c></rc>
    <rc><c>Al</c><c>   1</c></rc>
    <rc><c>Al</c><c>   1</c></rc>
    <rc><c>Al</c><c>   1</c></rc>
    <rc><c>Al</c><c>   1</c></rc>
    <rc><c>Al</c><c>   1</c></rc>
    <rc><c>Al</c><c>   1</c></rc>
    <rc><c>Al</c><c>   1</c></rc>
    <rc><c>Al</c><c>   1</c></rc>
    <rc><c>Al</c><c>   1</c></rc>
    <rc><c>Al</c><c>   1</c></rc>
    <rc><c>Al</c><c>   1</c></rc>
    <rc><c>Al</c><c>   1</c></rc>
    <rc><c>Al</c><c>   1</c></rc>
    <rc><c>Al</c><c>   1</c></rc>
    <rc><c>Al</c><c>   1</c></rc>
    <rc><c>Al</c><c>   1</c></rc>
    <rc><c>Al</c><c>   1</c></rc>
    <rc><c>Al</c><c>   1</c></rc>
    <rc><c>Al</c><c>   1</c></rc>
    <rc><c>Al</c><c>   1</c></rc>
    <rc><c>Al</c><c>   1</c></rc>
    <rc><c>Al</c><c>   1</c></rc>
    <rc><c>Al</c><c>   1</c></rc>
    <rc><c>Al</c><c>   1</c></rc>
    <rc><c>Al</c><c>   1</c></rc>
    <rc><c>Al</c><c>   1</c></rc>
    <rc><c>Al</c><c>   1</c></rc>
    <rc><c>Al</c><c>   1</c></rc>
    <rc><c>Al</c><c>   1</c></rc>
    <rc><c>Al</c><c>   1</c></rc>
    <rc><c>Al</c><c>   1</c></rc>
    <rc><c>Al</c><c>   1</c></rc>
    <rc><c>Al</c><c>   1</c></rc>
    <rc><c>Al</c><c>   1</c></rc>
    <rc><c>Al</c><c>   1</c></rc>
    <rc><c>Al</c><c>   1</c></rc>
    <rc><c>Al</c><c>   1</c></rc>
    <rc><c>Al</c><c>   1</c></rc>
    <rc><c>Al</c><c>   1</c></rc>
    <rc><c>Al</c><c>   1</c></rc>
    <rc><c>Al</c><c>   1</c></rc>
    <rc><c>Al</c><c>   1</c></rc>
    <rc><c>Al</c><c>   1</c></rc>
    <rc><c>Al</c><c>   1</c></rc>
    <rc><c>Al</c><c>   1</c></rc>
    <rc><c>Al</c><c>   1</c></rc>
    <rc><c>Al</c><c>   1</c></rc>
    <rc><c>Al</c><c>   1</c></rc>
    <rc><c>Al</c><c>   1</c></rc>
    <rc><c>Al</c><c>   1</c></rc>
    <rc><c>Al</c><c>   1</c></rc>
    <rc><c>Al</c><c>   1</c></rc>
    <rc><c>Al</c><c>   1</c></rc>
    <rc><c>Al</c><c>   1</c></rc>
    <rc><c>Al</c><c>   1</c></rc>
    <rc><c>Al</c><c>   1</c></rc>
    <rc><c>Al</c><c>   1</c></rc>
    <rc><c>Al</c><c>   1</c></rc>
    <rc><c>Al</c><c>   1</c></rc>
    <rc><c>Al</c><c>   1</c></rc>
    <rc><c>Al</c><c>   1</c></rc>
    <rc><c>Al</c><c>   1</c></rc>
    <rc><c>Al</c><c>   1</c></rc>
    <rc><c>Al</c><c>   1</c></rc>
    <rc><c>Al</c><c>   1</c></rc>
    <rc><c>Al</c><c>   1</c></rc>
    <rc><c>Al</c><c>   1</c></rc>
    <rc><c>Al</c><c>   1</c></rc>
    <rc><c>Al</c><c>   1</c></rc>
    <rc><c>Al</c><c>   1</c></rc>
    <rc><c>Al</c><c>   1</c></rc>
    <rc><c>Al</c><c>   1</c></rc>
    <rc><c>Al</c><c>   1</c></rc>
    <rc><c>Al</c><c>   1</c></rc>
    <rc><c>Al</c><c>   1</c></rc>
    <rc><c>Al</c><c>   1</c></rc>
    <rc><c>Al</c><c>   1</c></rc>
    <rc><c>Al</c><c>   1</c></rc>
    <rc><c>Al</c><c>   1</c></rc>
    <rc><c>Al</c><c>   1</c></rc>
    <rc><c>Al</c><c>   1</c></rc>
    <rc><c>Al</c><c>   1</c></rc>
    <rc><c>Al</c><c>   1</c></rc>
    <rc><c>Al</c><c>   1</c></rc>
    <rc><c>Al</c><c>   1</c></rc>
    <rc><c>Al</c><c>   1</c></rc>
    <rc><c>Al</c><c>   1</c></rc>
    <rc><c>Al</c><c>   1</c></rc>
    <rc><c>Al</c><c>   1</c></rc>
    <rc><c>Al</c><c>   1</c></rc>
    <rc><c>Al</c><c>   1</c></rc>
    <rc><c>Al</c><c>   1</c></rc>
    <rc><c>Al</c><c>   1</c></rc>
    <rc><c>Al</c><c>   1</c></rc>
    <rc><c>Al</c><c>   1</c></rc>
    <rc><c>Al</c><c>   1</c></rc>
    <rc><c>Al</c><c>   1</c></rc>
    <rc><c>Al</c><c>   1</c></rc>
    <rc><c>Al</c><c>   1</c></rc>
    <rc><c>Al</c><c>   1</c></rc>
    <rc><c>Al</c><c>   1</c></rc>
    <rc><c>Al</c><c>   1</c></rc>
    <rc><c>Al</c><c>   1</c></rc>
    <rc><c>Al</c><c>   1</c></rc>
    <rc><c>Al</c><c>   1</c></rc>
    <rc><c>Al</c><c>   1</c></rc>
    <rc><c>Al</c><c>   1</c></rc>
    <rc><c>Al</c><c>   1</c></rc>
    <rc><c>Al</c><c>   1</c></rc>
    <rc><c>Al</c><c>   1</c></rc>
    <rc><c>Al</c><c>   1</c></rc>
    <rc><c>Al</c><c>   1</c></rc>
    <rc><c>Al</c><c>   1</c></rc>
    <rc><c>Al</c><c>   1</c></rc>
    <rc><c>Al</c><c>   1</c></rc>
    <rc><c>Al</c><c>   1</c></rc>
    <rc><c>Al</c><c>   1</c></rc>
    <rc><c>Al</c><c>   1</c></rc>
    <rc><c>Al</c><c>   1</c></rc>
    <rc><c>Al</c><c>   1</c></rc>
    <rc><c>Al</c><c>   1</c></rc>
    <rc><c>Al</c><c>   1</c></rc>
    <rc><c>Al</c><c>   1</c></rc>
    <rc><c>Al</c><c>   1</c></rc>
    <rc><c>Al</c><c>   1</c></rc>
    <rc><c>Al</c><c>   1</c></rc>
    <rc><c>Al</c><c>   1</c></rc>
    <rc><c>Al</c><c>   1</c></rc>
    <rc><c>Al</c><c>   1</c></rc>
    <rc><c>Al</c><c>   1</c></rc>
    <rc><c>Al</c><c>   1</c></rc>
    <rc><c>Al</c><c>   1</c></rc>
    <rc><c>Al</c><c>   1</c></rc>
    <rc><c>Al</c><c>   1</c></rc>
    <rc><c>Al</c><c>   1</c></rc>
    <rc><c>Al</c><c>   1</c></rc>
    <rc><c>O </c><c>   2</c></rc>
    <rc><c>O </c><c>   2</c></rc>
   </set>
  </array>
  <array name="atomtypes" >
   <dimension dim="1">type</dimension>
   <field type="int">atomspertype</field>
   <field type="string">element</field>
   <field>mass</field>
   <field>valence</field>
   <field type="string">pseudopotential</field>
   <set>
    <rc><c> 252</c><c>Al</c><c>     26.98200000</c><c>      3.00000000</c><c>  PAW Al_GW 19Mar2012                   </c></rc>
    <rc><c>   2</c><c>O </c><c>     16.00000000</c><c>      6.00000000</c><c>  PAW O_GW 19Mar2012                    </c></rc>
   </set>
  </array>
 </atominfo>
 <structure name="initialpos" >
  <crystal>
   <varray name="basis" >
    <v>       0.00000000     -17.18057346       0.00000000 </v>
    <v>       0.00000000      -8.59028673     -14.87881307 </v>
    <v>      30.00000000       0.00000000       0.00000000 </v>
   </varray>
   <i name="volume">   7668.79622957 </i>
   <varray name="rec_basis" >
    <v>       0.00000000      -0.05820527       0.03360483 </v>
    <v>       0.00000000       0.00000000      -0.06720966 </v>
    <v>       0.03333333       0.00000000       0.00000000 </v>
   </varray>
  </crystal>
  <varray name="positions" >
   <v>       0.44444456       0.44444473       0.07873467 </v>
   <v>       0.44444419       0.77777777       0.07873467 </v>
   <v>       0.44444468       0.11111101       0.07873467 </v>
   <v>       0.77777744       0.44444473       0.07873467 </v>
   <v>       0.77777765       0.77777777       0.07873467 </v>
   <v>       0.77777756       0.11111101       0.07873467 </v>
   <v>       0.11111110       0.44444473       0.07873467 </v>
   <v>       0.11111131       0.77777777       0.07873467 </v>
   <v>       0.11111122       0.11111101       0.07873467 </v>
   <v>       0.55555520       0.55555574       0.15702600 </v>
   <v>       0.55555541       0.88888878       0.15702600 </v>
   <v>       0.55555591       0.22222203       0.15702600 </v>
   <v>       0.88888866       0.55555574       0.15702600 </v>
   <v>       0.88888887       0.88888878       0.15702600 </v>
   <v>       0.88888878       0.22222203       0.15702600 </v>
   <v>       0.22222232       0.55555574       0.15702600 </v>
   <v>       0.22222253       0.88888878       0.15702600 </v>
   <v>       0.22222245       0.22222203       0.15702600 </v>
   <v>       0.66666642       0.66666675       0.23375733 </v>
   <v>       0.66666692       0.00000000       0.23375733 </v>
   <v>       0.66666655       0.33333304       0.23375733 </v>
   <v>       0.00000008       0.66666675       0.23375733 </v>
   <v>       0.00000000       0.00000000       0.23375733 </v>
   <v>       0.00000021       0.33333304       0.23375733 </v>
   <v>       0.33333354       0.66666675       0.23375733 </v>
   <v>       0.33333346       0.00000000       0.23375733 </v>
   <v>       0.33333367       0.33333304       0.23375733 </v>
   <v>       0.77777765       0.77777777       0.31173067 </v>
   <v>       0.77777756       0.11111101       0.31173067 </v>
   <v>       0.77777744       0.44444473       0.31173067 </v>
   <v>       0.11111131       0.77777777       0.31173067 </v>
   <v>       0.11111122       0.11111101       0.31173067 </v>
   <v>       0.11111110       0.44444473       0.31173067 </v>
   <v>       0.44444419       0.77777777       0.31173067 </v>
   <v>       0.44444468       0.11111101       0.31173067 </v>
   <v>       0.44444456       0.44444473       0.31173067 </v>
   <v>       0.88888887       0.88888878       0.38970400 </v>
   <v>       0.88888878       0.22222203       0.38970400 </v>
   <v>       0.88888866       0.55555574       0.38970400 </v>
   <v>       0.22222253       0.88888878       0.38970400 </v>
   <v>       0.22222245       0.22222203       0.38970400 </v>
   <v>       0.22222232       0.55555574       0.38970400 </v>
   <v>       0.55555541       0.88888878       0.38970400 </v>
   <v>       0.55555591       0.22222203       0.38970400 </v>
   <v>       0.55555520       0.55555574       0.38970400 </v>
   <v>       0.00000000       0.00000000       0.46643533 </v>
   <v>       0.00000021       0.33333304       0.46643533 </v>
   <v>       0.00000008       0.66666675       0.46643533 </v>
   <v>       0.33333346       0.00000000       0.46643533 </v>
   <v>       0.33333367       0.33333304       0.46643533 </v>
   <v>       0.33333354       0.66666675       0.46643533 </v>
   <v>       0.66666692       0.00000000       0.46643533 </v>
   <v>       0.66666655       0.33333304       0.46643533 </v>
   <v>       0.66666642       0.66666675       0.46643533 </v>
   <v>       0.11111122       0.11111101       0.54472667 </v>
   <v>       0.11111110       0.44444473       0.54472667 </v>
   <v>       0.11111131       0.77777777       0.54472667 </v>
   <v>       0.44444468       0.11111101       0.54472667 </v>
   <v>       0.44444456       0.44444473       0.54472667 </v>
   <v>       0.44444419       0.77777777       0.54472667 </v>
   <v>       0.77777756       0.11111101       0.54472667 </v>
   <v>       0.77777744       0.44444473       0.54472667 </v>
   <v>       0.77777765       0.77777777       0.54472667 </v>
   <v>       0.27777777       0.27777753       0.07873467 </v>
   <v>       0.27777764       0.61111125       0.07873467 </v>
   <v>       0.27777785       0.94444429       0.07873467 </v>
   <v>       0.61111123       0.27777753       0.07873467 </v>
   <v>       0.61111110       0.61111125       0.07873467 </v>
   <v>       0.61111131       0.94444429       0.07873467 </v>
   <v>       0.94444469       0.27777753       0.07873467 </v>
   <v>       0.94444456       0.61111125       0.07873467 </v>
   <v>       0.94444477       0.94444429       0.07873467 </v>
   <v>       0.38888865       0.38888922       0.15702600 </v>
   <v>       0.38888886       0.72222226       0.15702600 </v>
   <v>       0.38888878       0.05555551       0.15702600 </v>
   <v>       0.72222211       0.38888922       0.15702600 </v>
   <v>       0.72222232       0.72222226       0.15702600 </v>
   <v>       0.72222224       0.05555551       0.15702600 </v>
   <v>       0.05555519       0.38888922       0.15702600 </v>
   <v>       0.05555540       0.72222226       0.15702600 </v>
   <v>       0.05555532       0.05555551       0.15702600 </v>
   <v>       0.49999988       0.50000023       0.23375733 </v>
   <v>       0.50000009       0.83333327       0.23375733 </v>
   <v>       0.50000000       0.16666652       0.23375733 </v>
   <v>       0.83333334       0.50000023       0.23375733 </v>
   <v>       0.83333355       0.83333327       0.23375733 </v>
   <v>       0.83333346       0.16666652       0.23375733 </v>
   <v>       0.16666642       0.50000023       0.23375733 </v>
   <v>       0.16666663       0.83333327       0.23375733 </v>
   <v>       0.16666654       0.16666652       0.23375733 </v>
   <v>       0.61111110       0.61111125       0.31173067 </v>
   <v>       0.61111131       0.94444429       0.31173067 </v>
   <v>       0.61111123       0.27777753       0.31173067 </v>
   <v>       0.94444456       0.61111125       0.31173067 </v>
   <v>       0.94444477       0.94444429       0.31173067 </v>
   <v>       0.94444469       0.27777753       0.31173067 </v>
   <v>       0.27777764       0.61111125       0.31173067 </v>
   <v>       0.27777785       0.94444429       0.31173067 </v>
   <v>       0.27777777       0.27777753       0.31173067 </v>
   <v>       0.72222232       0.72222226       0.38970400 </v>
   <v>       0.72222224       0.05555551       0.38970400 </v>
   <v>       0.72222211       0.38888922       0.38970400 </v>
   <v>       0.05555540       0.72222226       0.38970400 </v>
   <v>       0.05555532       0.05555551       0.38970400 </v>
   <v>       0.05555519       0.38888922       0.38970400 </v>
   <v>       0.38888886       0.72222226       0.38970400 </v>
   <v>       0.38888878       0.05555551       0.38970400 </v>
   <v>       0.38888865       0.38888922       0.38970400 </v>
   <v>       0.83333355       0.83333327       0.46643533 </v>
   <v>       0.83333346       0.16666652       0.46643533 </v>
   <v>       0.83333334       0.50000023       0.46643533 </v>
   <v>       0.16666663       0.83333327       0.46643533 </v>
   <v>       0.16666654       0.16666652       0.46643533 </v>
   <v>       0.16666642       0.50000023       0.46643533 </v>
   <v>       0.50000009       0.83333327       0.46643533 </v>
   <v>       0.50000000       0.16666652       0.46643533 </v>
   <v>       0.49999988       0.50000023       0.46643533 </v>
   <v>       0.94444477       0.94444429       0.54472667 </v>
   <v>       0.94444469       0.27777753       0.54472667 </v>
   <v>       0.94444456       0.61111125       0.54472667 </v>
   <v>       0.27777785       0.94444429       0.54472667 </v>
   <v>       0.27777777       0.27777753       0.54472667 </v>
   <v>       0.27777764       0.61111125       0.54472667 </v>
   <v>       0.61111131       0.94444429       0.54472667 </v>
   <v>       0.61111123       0.27777753       0.54472667 </v>
   <v>       0.61111110       0.61111125       0.54472667 </v>
   <v>       0.27777783       0.44444473       0.07873467 </v>
   <v>       0.27777804       0.77777777       0.07873467 </v>
   <v>       0.27777795       0.11111101       0.07873467 </v>
   <v>       0.61111071       0.44444473       0.07873467 </v>
   <v>       0.61111092       0.77777777       0.07873467 </v>
   <v>       0.61111141       0.11111101       0.07873467 </v>
   <v>       0.94444417       0.44444473       0.07873467 </v>
   <v>       0.94444438       0.77777777       0.07873467 </v>
   <v>       0.94444429       0.11111101       0.07873467 </v>
   <v>       0.38888905       0.55555574       0.15702600 </v>
   <v>       0.38888868       0.88888878       0.15702600 </v>
   <v>       0.38888918       0.22222203       0.15702600 </v>
   <v>       0.72222193       0.55555574       0.15702600 </v>
   <v>       0.72222214       0.88888878       0.15702600 </v>
   <v>       0.72222205       0.22222203       0.15702600 </v>
   <v>       0.05555559       0.55555574       0.15702600 </v>
   <v>       0.05555580       0.88888878       0.15702600 </v>
   <v>       0.05555572       0.22222203       0.15702600 </v>
   <v>       0.49999969       0.66666675       0.23375733 </v>
   <v>       0.50000019       0.00000000       0.23375733 </v>
   <v>       0.50000040       0.33333304       0.23375733 </v>
   <v>       0.83333315       0.66666675       0.23375733 </v>
   <v>       0.83333307       0.00000000       0.23375733 </v>
   <v>       0.83333328       0.33333304       0.23375733 </v>
   <v>       0.16666681       0.66666675       0.23375733 </v>
   <v>       0.16666673       0.00000000       0.23375733 </v>
   <v>       0.16666694       0.33333304       0.23375733 </v>
   <v>       0.61111092       0.77777777       0.31173067 </v>
   <v>       0.61111141       0.11111101       0.31173067 </v>
   <v>       0.61111071       0.44444473       0.31173067 </v>
   <v>       0.94444438       0.77777777       0.31173067 </v>
   <v>       0.94444429       0.11111101       0.31173067 </v>
   <v>       0.94444417       0.44444473       0.31173067 </v>
   <v>       0.27777804       0.77777777       0.31173067 </v>
   <v>       0.27777795       0.11111101       0.31173067 </v>
   <v>       0.27777783       0.44444473       0.31173067 </v>
   <v>       0.72222214       0.88888878       0.38970400 </v>
   <v>       0.72222205       0.22222203       0.38970400 </v>
   <v>       0.72222193       0.55555574       0.38970400 </v>
   <v>       0.05555580       0.88888878       0.38970400 </v>
   <v>       0.05555572       0.22222203       0.38970400 </v>
   <v>       0.05555559       0.55555574       0.38970400 </v>
   <v>       0.38888868       0.88888878       0.38970400 </v>
   <v>       0.38888918       0.22222203       0.38970400 </v>
   <v>       0.38888905       0.55555574       0.38970400 </v>
   <v>       0.83333307       0.00000000       0.46643533 </v>
   <v>       0.83333328       0.33333304       0.46643533 </v>
   <v>       0.83333315       0.66666675       0.46643533 </v>
   <v>       0.16666673       0.00000000       0.46643533 </v>
   <v>       0.16666694       0.33333304       0.46643533 </v>
   <v>       0.16666681       0.66666675       0.46643533 </v>
   <v>       0.50000019       0.00000000       0.46643533 </v>
   <v>       0.50000040       0.33333304       0.46643533 </v>
   <v>       0.49999969       0.66666675       0.46643533 </v>
   <v>       0.94444429       0.11111101       0.54472667 </v>
   <v>       0.94444417       0.44444473       0.54472667 </v>
   <v>       0.94444438       0.77777777       0.54472667 </v>
   <v>       0.27777795       0.11111101       0.54472667 </v>
   <v>       0.27777783       0.44444473       0.54472667 </v>
   <v>       0.27777804       0.77777777       0.54472667 </v>
   <v>       0.61111141       0.11111101       0.54472667 </v>
   <v>       0.61111071       0.44444473       0.54472667 </v>
   <v>       0.61111092       0.77777777       0.54472667 </v>
   <v>       0.44444450       0.27777753       0.07873467 </v>
   <v>       0.44444437       0.61111125       0.07873467 </v>
   <v>       0.44444458       0.94444429       0.07873467 </v>
   <v>       0.77777796       0.27777753       0.07873467 </v>
   <v>       0.77777783       0.61111125       0.07873467 </v>
   <v>       0.77777804       0.94444429       0.07873467 </v>
   <v>       0.11111104       0.27777753       0.07873467 </v>
   <v>       0.11111091       0.61111125       0.07873467 </v>
   <v>       0.11111112       0.94444429       0.07873467 </v>
   <v>       0.55555538       0.38888922       0.15702600 </v>
   <v>       0.55555559       0.72222226       0.15702600 </v>
   <v>       0.55555551       0.05555551       0.15702600 </v>
   <v>       0.88888884       0.38888922       0.15702600 </v>
   <v>       0.88888905       0.72222226       0.15702600 </v>
   <v>       0.88888897       0.05555551       0.15702600 </v>
   <v>       0.22222192       0.38888922       0.15702600 </v>
   <v>       0.22222213       0.72222226       0.15702600 </v>
   <v>       0.22222205       0.05555551       0.15702600 </v>
   <v>       0.66666661       0.50000023       0.23375733 </v>
   <v>       0.66666682       0.83333327       0.23375733 </v>
   <v>       0.66666673       0.16666652       0.23375733 </v>
   <v>       0.99999969       0.50000023       0.23375733 </v>
   <v>       0.99999990       0.83333327       0.23375733 </v>
   <v>       0.99999981       0.16666652       0.23375733 </v>
   <v>       0.33333315       0.50000023       0.23375733 </v>
   <v>       0.33333336       0.83333327       0.23375733 </v>
   <v>       0.33333327       0.16666652       0.23375733 </v>
   <v>       0.77777783       0.61111125       0.31173067 </v>
   <v>       0.77777804       0.94444429       0.31173067 </v>
   <v>       0.77777796       0.27777753       0.31173067 </v>
   <v>       0.11111091       0.61111125       0.31173067 </v>
   <v>       0.11111112       0.94444429       0.31173067 </v>
   <v>       0.11111104       0.27777753       0.31173067 </v>
   <v>       0.44444437       0.61111125       0.31173067 </v>
   <v>       0.44444458       0.94444429       0.31173067 </v>
   <v>       0.44444450       0.27777753       0.31173067 </v>
   <v>       0.88888905       0.72222226       0.38970400 </v>
   <v>       0.88888897       0.05555551       0.38970400 </v>
   <v>       0.88888884       0.38888922       0.38970400 </v>
   <v>       0.22222213       0.72222226       0.38970400 </v>
   <v>       0.22222205       0.05555551       0.38970400 </v>
   <v>       0.22222192       0.38888922       0.38970400 </v>
   <v>       0.55555559       0.72222226       0.38970400 </v>
   <v>       0.55555551       0.05555551       0.38970400 </v>
   <v>       0.55555538       0.38888922       0.38970400 </v>
   <v>       0.99999990       0.83333327       0.46643533 </v>
   <v>       0.99999981       0.16666652       0.46643533 </v>
   <v>       0.99999969       0.50000023       0.46643533 </v>
   <v>       0.33333336       0.83333327       0.46643533 </v>
   <v>       0.33333327       0.16666652       0.46643533 </v>
   <v>       0.33333315       0.50000023       0.46643533 </v>
   <v>       0.66666682       0.83333327       0.46643533 </v>
   <v>       0.66666673       0.16666652       0.46643533 </v>
   <v>       0.66666661       0.50000023       0.46643533 </v>
   <v>       0.11111112       0.94444429       0.54472667 </v>
   <v>       0.11111104       0.27777753       0.54472667 </v>
   <v>       0.11111091       0.61111125       0.54472667 </v>
   <v>       0.44444458       0.94444429       0.54472667 </v>
   <v>       0.44444450       0.27777753       0.54472667 </v>
   <v>       0.44444437       0.61111125       0.54472667 </v>
   <v>       0.77777804       0.94444429       0.54472667 </v>
   <v>       0.77777796       0.27777753       0.54472667 </v>
   <v>       0.77777783       0.61111125       0.54472667 </v>
   <v>       0.33333315       0.50000023       0.73466667 </v>
   <v>       0.38888907       0.38888877       0.73466667 </v>
  </varray>
 </structure>
 <calculation>
  <scstep>
   <time name="dav">    6.72    6.72</time>
   <time name="total">    7.19    7.20</time>
   <energy>
    <i name="alphaZ">    504.51365917 </i>
    <i name="ewald">  84647.29914874 </i>
    <i name="hartreedc"> -99056.58934589 </i>
    <i name="XCdc">  -6594.32375038 </i>
    <i name="pawpsdc">  17380.74262607 </i>
    <i name="pawaedc">  -9326.59272269 </i>
    <i name="eentropy">     -0.06939724 </i>
    <i name="bandstr">    457.18668075 </i>
    <i name="atom">  14355.57734864 </i>
    <i name="e_fr_energy">   2367.74424718 </i>
    <i name="e_wo_entrp">   2367.81364442 </i>
    <i name="e_0_energy">   2367.77894580 </i>
   </energy>
  </scstep>
  <scstep>
   <time name="dav">    8.59    8.59</time>
   <time name="total">    8.59    8.59</time>
   <energy>
    <i name="e_fr_energy">   -704.93558298 </i>
    <i name="e_wo_entrp">   -704.81779800 </i>
    <i name="e_0_energy">   -704.87669049 </i>
   </energy>
  </scstep>
  <scstep>
   <time name="dav">    8.72    8.72</time>
   <time name="total">    8.72    8.72</time>
   <energy>
    <i name="e_fr_energy">   -939.60767765 </i>
    <i name="e_wo_entrp">   -939.36286034 </i>
    <i name="e_0_energy">   -939.48526899 </i>
   </energy>
  </scstep>
  <scstep>
   <time name="dav">    8.81    8.81</time>
   <time name="total">    8.81    8.82</time>
   <energy>
    <i name="e_fr_energy">   -950.89014180 </i>
    <i name="e_wo_entrp">   -950.63133536 </i>
    <i name="e_0_energy">   -950.76073858 </i>
   </energy>
  </scstep>
  <scstep>
   <time name="dav">   10.15   10.16</time>
   <time name="total">   10.97   10.98</time>
   <energy>
    <i name="e_fr_energy">   -955.00901628 </i>
    <i name="e_wo_entrp">   -954.76980749 </i>
    <i name="e_0_energy">   -954.88941189 </i>
   </energy>
  </scstep>
  <scstep>
   <time name="dav">    9.17    9.17</time>
   <time name="total">   10.43   10.44</time>
   <energy>
    <i name="e_fr_energy">   -966.49807540 </i>
    <i name="e_wo_entrp">   -966.37434029 </i>
    <i name="e_0_energy">   -966.43620785 </i>
   </energy>
  </scstep>
  <scstep>
   <time name="dav">    8.28    8.28</time>
   <time name="total">    9.54    9.55</time>
   <energy>
    <i name="e_fr_energy">   -929.92955036 </i>
    <i name="e_wo_entrp">   -929.81222811 </i>
    <i name="e_0_energy">   -929.87088924 </i>
   </energy>
  </scstep>
  <scstep>
   <time name="dav">    8.75    8.76</time>
   <time name="total">   10.02   10.02</time>
   <energy>
    <i name="e_fr_energy">   -944.45831901 </i>
    <i name="e_wo_entrp">   -944.33752021 </i>
    <i name="e_0_energy">   -944.39791961 </i>
   </energy>
  </scstep>
  <scstep>
   <time name="dav">    8.43    8.44</time>
   <time name="total">    9.68    9.69</time>
   <energy>
    <i name="e_fr_energy">   -929.13086178 </i>
    <i name="e_wo_entrp">   -929.02682473 </i>
    <i name="e_0_energy">   -929.07884325 </i>
   </energy>
  </scstep>
  <scstep>
   <time name="dav">    8.28    8.29</time>
   <time name="total">    9.54    9.54</time>
   <energy>
    <i name="e_fr_energy">   -931.31861519 </i>
    <i name="e_wo_entrp">   -931.24456421 </i>
    <i name="e_0_energy">   -931.28158970 </i>
   </energy>
  </scstep>
  <scstep>
   <time name="dav">    7.90    7.90</time>
   <time name="total">    9.17    9.17</time>
   <energy>
    <i name="e_fr_energy">   -927.35373453 </i>
    <i name="e_wo_entrp">   -927.28423118 </i>
    <i name="e_0_energy">   -927.31898285 </i>
   </energy>
  </scstep>
  <scstep>
   <time name="dav">    8.93    8.93</time>
   <time name="total">   10.20   10.21</time>
   <energy>
    <i name="e_fr_energy">   -927.44980605 </i>
    <i name="e_wo_entrp">   -927.35254919 </i>
    <i name="e_0_energy">   -927.40117762 </i>
   </energy>
  </scstep>
  <scstep>
   <time name="dav">    7.62    7.62</time>
   <time name="total">    8.90    8.90</time>
   <energy>
    <i name="e_fr_energy">   -927.10117140 </i>
    <i name="e_wo_entrp">   -927.00349108 </i>
    <i name="e_0_energy">   -927.05233124 </i>
   </energy>
  </scstep>
  <scstep>
   <time name="dav">    7.83    7.83</time>
   <time name="total">    9.13    9.14</time>
   <energy>
    <i name="e_fr_energy">   -926.31026281 </i>
    <i name="e_wo_entrp">   -926.18789223 </i>
    <i name="e_0_energy">   -926.24907752 </i>
   </energy>
  </scstep>
  <scstep>
   <time name="dav">    7.94    7.94</time>
   <time name="total">    9.24    9.24</time>
   <energy>
    <i name="e_fr_energy">   -926.55875420 </i>
    <i name="e_wo_entrp">   -926.46055018 </i>
    <i name="e_0_energy">   -926.50965219 </i>
   </energy>
  </scstep>
  <scstep>
   <time name="dav">    7.96    7.96</time>
   <time name="total">    9.29    9.29</time>
   <energy>
    <i name="e_fr_energy">   -926.34325285 </i>
    <i name="e_wo_entrp">   -926.26556740 </i>
    <i name="e_0_energy">   -926.30441012 </i>
   </energy>
  </scstep>
  <scstep>
   <time name="dav">    7.44    7.44</time>
   <time name="total">    8.76    8.76</time>
   <energy>
    <i name="e_fr_energy">   -926.35242562 </i>
    <i name="e_wo_entrp">   -926.22559426 </i>
    <i name="e_0_energy">   -926.28900994 </i>
   </energy>
  </scstep>
  <scstep>
   <time name="dav">    7.25    7.25</time>
   <time name="total">    8.58    8.58</time>
   <energy>
    <i name="e_fr_energy">   -926.45580750 </i>
    <i name="e_wo_entrp">   -926.39833521 </i>
    <i name="e_0_energy">   -926.42707136 </i>
   </energy>
  </scstep>
  <scstep>
   <time name="dav">    7.85    7.85</time>
   <time name="total">    9.18    9.18</time>
   <energy>
    <i name="e_fr_energy">   -926.36072694 </i>
    <i name="e_wo_entrp">   -926.28328835 </i>
    <i name="e_0_energy">   -926.32200765 </i>
   </energy>
  </scstep>
  <scstep>
   <time name="dav">    7.37    7.37</time>
   <time name="total">    8.75    8.75</time>
   <energy>
    <i name="e_fr_energy">   -926.33184011 </i>
    <i name="e_wo_entrp">   -926.20759324 </i>
    <i name="e_0_energy">   -926.26971668 </i>
   </energy>
  </scstep>
  <scstep>
   <time name="dav">    7.90    7.90</time>
   <time name="total">    9.28    9.28</time>
   <energy>
    <i name="e_fr_energy">   -926.42425086 </i>
    <i name="e_wo_entrp">   -926.29895588 </i>
    <i name="e_0_energy">   -926.36160337 </i>
   </energy>
  </scstep>
  <scstep>
   <time name="dav">    7.05    7.05</time>
   <time name="total">    8.43    8.43</time>
   <energy>
    <i name="e_fr_energy">   -926.39651109 </i>
    <i name="e_wo_entrp">   -926.26875389 </i>
    <i name="e_0_energy">   -926.33263249 </i>
   </energy>
  </scstep>
  <scstep>
   <time name="dav">    7.49    7.50</time>
   <time name="total">    8.88    8.89</time>
   <energy>
    <i name="e_fr_energy">   -926.40954486 </i>
    <i name="e_wo_entrp">   -926.30748414 </i>
    <i name="e_0_energy">   -926.35851450 </i>
   </energy>
  </scstep>
  <scstep>
   <time name="dav">    6.95    6.96</time>
   <time name="total">    8.38    8.38</time>
   <energy>
    <i name="e_fr_energy">   -926.42091860 </i>
    <i name="e_wo_entrp">   -926.29352296 </i>
    <i name="e_0_energy">   -926.35722078 </i>
   </energy>
  </scstep>
  <scstep>
   <time name="dav">    6.99    7.00</time>
   <time name="total">    8.43    8.44</time>
   <energy>
    <i name="e_fr_energy">   -926.41710868 </i>
    <i name="e_wo_entrp">   -926.30314092 </i>
    <i name="e_0_energy">   -926.36012480 </i>
   </energy>
  </scstep>
  <scstep>
   <time name="dav">    6.81    6.81</time>
   <time name="total">    8.25    8.25</time>
   <energy>
    <i name="e_fr_energy">   -926.42657187 </i>
    <i name="e_wo_entrp">   -926.30014847 </i>
    <i name="e_0_energy">   -926.36336017 </i>
   </energy>
  </scstep>
  <scstep>
   <time name="dav">    6.69    6.69</time>
   <time name="total">    8.13    8.13</time>
   <energy>
    <i name="e_fr_energy">   -926.43244077 </i>
    <i name="e_wo_entrp">   -926.31041775 </i>
    <i name="e_0_energy">   -926.37142926 </i>
   </energy>
  </scstep>
  <scstep>
   <time name="dav">    6.20    6.21</time>
   <time name="total">    7.67    7.67</time>
   <energy>
    <i name="e_fr_energy">   -926.43358858 </i>
    <i name="e_wo_entrp">   -926.30925582 </i>
    <i name="e_0_energy">   -926.37142220 </i>
   </energy>
  </scstep>
  <scstep>
   <time name="dav">    6.01    6.01</time>
   <time name="total">    7.52    7.52</time>
   <energy>
    <i name="e_fr_energy">   -926.43494942 </i>
    <i name="e_wo_entrp">   -926.31084938 </i>
    <i name="e_0_energy">   -926.37289940 </i>
   </energy>
  </scstep>
  <scstep>
   <time name="dav">    6.02    6.03</time>
   <time name="total">    7.54    7.54</time>
   <energy>
    <i name="e_fr_energy">   -926.43573920 </i>
    <i name="e_wo_entrp">   -926.31133819 </i>
    <i name="e_0_energy">   -926.37353870 </i>
   </energy>
  </scstep>
  <scstep>
   <time name="dav">    5.86    5.86</time>
   <time name="total">    7.40    7.40</time>
   <energy>
    <i name="e_fr_energy">   -926.43614691 </i>
    <i name="e_wo_entrp">   -926.31169352 </i>
    <i name="e_0_energy">   -926.37392021 </i>
   </energy>
  </scstep>
  <scstep>
   <time name="dav">    5.58    5.58</time>
   <time name="total">    7.13    7.13</time>
   <energy>
    <i name="e_fr_energy">   -926.43647893 </i>
    <i name="e_wo_entrp">   -926.31267264 </i>
    <i name="e_0_energy">   -926.37457579 </i>
   </energy>
  </scstep>
  <scstep>
   <time name="dav">    5.42    5.42</time>
[...]
       <r>    -0.0270   106.7045   590.4367 </r>
       <r>     0.0497    80.4999   596.6144 </r>
       <r>     0.1264    93.3789   603.7805 </r>
       <r>     0.2032    75.7033   609.5901 </r>
       <r>     0.2799    81.3602   615.8339 </r>
       <r>     0.3567   162.2931   628.2886 </r>
       <r>     0.4334    76.8891   634.1892 </r>
       <r>     0.5102    67.6363   639.3797 </r>
       <r>     0.5869    31.5918   641.8041 </r>
       <r>     0.6636    53.9716   645.9460 </r>
       <r>     0.7404    70.6090   651.3647 </r>
       <r>     0.8171   236.8530   669.5413 </r>
       <r>     0.8939   212.1290   685.8205 </r>
       <r>     0.9706   113.6546   694.5426 </r>
       <r>     1.0473    78.7084   700.5828 </r>
       <r>     1.1241    74.8257   706.3251 </r>
       <r>     1.2008    62.6644   711.1340 </r>
       <r>     1.2776    88.5888   717.9325 </r>
       <r>     1.3543   105.7470   726.0478 </r>
       <r>     1.4311   154.5124   737.9053 </r>
       <r>     1.5078   189.6755   752.4614 </r>
       <r>     1.5845   137.7001   763.0288 </r>
       <r>     1.6613    95.1328   770.3295 </r>
       <r>     1.7380    33.3671   772.8901 </r>
       <r>     1.8148   160.4481   785.2032 </r>
       <r>     1.8915   156.7018   797.2288 </r>
       <r>     1.9683    69.9433   802.5964 </r>
       <r>     2.0450    72.3267   808.1469 </r>
       <r>     2.1217    71.7411   813.6525 </r>
       <r>     2.1985    47.6756   817.3112 </r>
       <r>     2.2752   130.7796   827.3475 </r>
       <r>     2.3520    86.4047   833.9783 </r>
       <r>     2.4287   109.9174   842.4136 </r>
       <r>     2.5054   144.3809   853.4937 </r>
       <r>     2.5822    55.2421   857.7331 </r>
       <r>     2.6589    79.0233   863.7975 </r>
       <r>     2.7357   151.1348   875.3958 </r>
       <r>     2.8124   333.7519   901.0086 </r>
       <r>     2.8892   184.0535   915.1333 </r>
       <r>     2.9659    52.6484   919.1736 </r>
       <r>     3.0426    57.8924   923.6164 </r>
       <r>     3.1194   103.7853   931.5811 </r>
       <r>     3.1961   122.2280   940.9611 </r>
       <r>     3.2729   165.4984   953.6617 </r>
       <r>     3.3496   117.5420   962.6822 </r>
       <r>     3.4264    70.1555   968.0660 </r>
       <r>     3.5031    89.3413   974.9223 </r>
       <r>     3.5798   109.3839   983.3166 </r>
       <r>     3.6566    70.4079   988.7198 </r>
       <r>     3.7333    84.1437   995.1772 </r>
       <r>     3.8101   173.4280  1008.4864 </r>
       <r>     3.8868   146.1517  1019.7024 </r>
       <r>     3.9635    45.0474  1023.1594 </r>
       <r>     4.0403     9.8989  1023.9190 </r>
       <r>     4.1170     1.0525  1023.9998 </r>
       <r>     4.1938     0.0023  1024.0000 </r>
       <r>     4.2705     0.0000  1024.0000 </r>
       <r>     4.3473     0.0000  1024.0000 </r>
       <r>     4.4240     0.0000  1024.0000 </r>
       <r>     4.5007     0.0000  1024.0000 </r>
       <r>     4.5775     0.0000  1024.0000 </r>
       <r>     4.6542     0.0000  1024.0000 </r>
       <r>     4.7310     0.0000  1024.0000 </r>
       <r>     4.8077     0.0000  1024.0000 </r>
       <r>     4.8844     0.0000  1024.0000 </r>
       <r>     4.9612     0.0000  1024.0000 </r>
       <r>     5.0379     0.0000  1024.0000 </r>
      </set>
     </set>
    </array>
   </total>
  </dos>
 </calculation>
 <structure name="finalpos" >
  <crystal>
   <varray name="basis" >
    <v>       0.00000000     -17.18057346       0.00000000 </v>
    <v>       0.00000000      -8.59028673     -14.87881307 </v>
    <v>      30.00000000       0.00000000       0.00000000 </v>
   </varray>
   <i name="volume">   7668.79622957 </i>
   <varray name="rec_basis" >
    <v>       0.00000000      -0.05820527       0.03360483 </v>
    <v>       0.00000000       0.00000000      -0.06720966 </v>
    <v>       0.03333333       0.00000000       0.00000000 </v>
   </varray>
  </crystal>
  <varray name="positions" >
   <v>       0.44444456       0.44444473       0.07873467 </v>
   <v>       0.44444419       0.77777777       0.07873467 </v>
   <v>       0.44444468       0.11111101       0.07873467 </v>
   <v>       0.77777744       0.44444473       0.07873467 </v>
   <v>       0.77777765       0.77777777       0.07873467 </v>
   <v>       0.77777756       0.11111101       0.07873467 </v>
   <v>       0.11111110       0.44444473       0.07873467 </v>
   <v>       0.11111131       0.77777777       0.07873467 </v>
   <v>       0.11111122       0.11111101       0.07873467 </v>
   <v>       0.55555520       0.55555574       0.15702600 </v>
   <v>       0.55555541       0.88888878       0.15702600 </v>
   <v>       0.55555591       0.22222203       0.15702600 </v>
   <v>       0.88888866       0.55555574       0.15702600 </v>
   <v>       0.88888887       0.88888878       0.15702600 </v>
   <v>       0.88888878       0.22222203       0.15702600 </v>
   <v>       0.22222232       0.55555574       0.15702600 </v>
   <v>       0.22222253       0.88888878       0.15702600 </v>
   <v>       0.22222245       0.22222203       0.15702600 </v>
   <v>       0.66666642       0.66666675       0.23375733 </v>
   <v>       0.66666692       0.00000000       0.23375733 </v>
   <v>       0.66666655       0.33333304       0.23375733 </v>
   <v>       0.00000008       0.66666675       0.23375733 </v>
   <v>       0.00000000       0.00000000       0.23375733 </v>
   <v>       0.00000021       0.33333304       0.23375733 </v>
   <v>       0.33333354       0.66666675       0.23375733 </v>
   <v>       0.33333346       0.00000000       0.23375733 </v>
   <v>       0.33333367       0.33333304       0.23375733 </v>
   <v>       0.77777765       0.77777777       0.31173067 </v>
   <v>       0.77777756       0.11111101       0.31173067 </v>
   <v>       0.77777744       0.44444473       0.31173067 </v>
   <v>       0.11111131       0.77777777       0.31173067 </v>
   <v>       0.11111122       0.11111101       0.31173067 </v>
   <v>       0.11111110       0.44444473       0.31173067 </v>
   <v>       0.44444419       0.77777777       0.31173067 </v>
   <v>       0.44444468       0.11111101       0.31173067 </v>
   <v>       0.44444456       0.44444473       0.31173067 </v>
   <v>       0.88888887       0.88888878       0.38970400 </v>
   <v>       0.88888878       0.22222203       0.38970400 </v>
   <v>       0.88888866       0.55555574       0.38970400 </v>
   <v>       0.22222253       0.88888878       0.38970400 </v>
   <v>       0.22222245       0.22222203       0.38970400 </v>
   <v>       0.22222232       0.55555574       0.38970400 </v>
   <v>       0.55555541       0.88888878       0.38970400 </v>
   <v>       0.55555591       0.22222203       0.38970400 </v>
   <v>       0.55555520       0.55555574       0.38970400 </v>
   <v>       0.00000000       0.00000000       0.46643533 </v>
   <v>       0.00000021       0.33333304       0.46643533 </v>
   <v>       0.00000008       0.66666675       0.46643533 </v>
   <v>       0.33333346       0.00000000       0.46643533 </v>
   <v>       0.33333367       0.33333304       0.46643533 </v>
   <v>       0.33333354       0.66666675       0.46643533 </v>
   <v>       0.66666692       0.00000000       0.46643533 </v>
   <v>       0.66666655       0.33333304       0.46643533 </v>
   <v>       0.66666642       0.66666675       0.46643533 </v>
   <v>       0.11111122       0.11111101       0.54472667 </v>
   <v>       0.11111110       0.44444473       0.54472667 </v>
   <v>       0.11111131       0.77777777       0.54472667 </v>
   <v>       0.44444468       0.11111101       0.54472667 </v>
   <v>       0.44444456       0.44444473       0.54472667 </v>
   <v>       0.44444419       0.77777777       0.54472667 </v>
   <v>       0.77777756       0.11111101       0.54472667 </v>
   <v>       0.77777744       0.44444473       0.54472667 </v>
   <v>       0.77777765       0.77777777       0.54472667 </v>
   <v>       0.27777777       0.27777753       0.07873467 </v>
   <v>       0.27777764       0.61111125       0.07873467 </v>
   <v>       0.27777785       0.94444429       0.07873467 </v>
   <v>       0.61111123       0.27777753       0.07873467 </v>
   <v>       0.61111110       0.61111125       0.07873467 </v>
   <v>       0.61111131       0.94444429       0.07873467 </v>
   <v>       0.94444469       0.27777753       0.07873467 </v>
   <v>       0.94444456       0.61111125       0.07873467 </v>
   <v>       0.94444477       0.94444429       0.07873467 </v>
   <v>       0.38888865       0.38888922       0.15702600 </v>
   <v>       0.38888886       0.72222226       0.15702600 </v>
   <v>       0.38888878       0.05555551       0.15702600 </v>
   <v>       0.72222211       0.38888922       0.15702600 </v>
   <v>       0.72222232       0.72222226       0.15702600 </v>
   <v>       0.72222224       0.05555551       0.15702600 </v>
   <v>       0.05555519       0.38888922       0.15702600 </v>
   <v>       0.05555540       0.72222226       0.15702600 </v>
   <v>       0.05555532       0.05555551       0.15702600 </v>
   <v>       0.49999988       0.50000023       0.23375733 </v>
   <v>       0.50000009       0.83333327       0.23375733 </v>
   <v>       0.50000000       0.16666652       0.23375733 </v>
   <v>       0.83333334       0.50000023       0.23375733 </v>
   <v>       0.83333355       0.83333327       0.23375733 </v>
   <v>       0.83333346       0.16666652       0.23375733 </v>
   <v>       0.16666642       0.50000023       0.23375733 </v>
   <v>       0.16666663       0.83333327       0.23375733 </v>
   <v>       0.16666654       0.16666652       0.23375733 </v>
   <v>       0.61111110       0.61111125       0.31173067 </v>
   <v>       0.61111131       0.94444429       0.31173067 </v>
   <v>       0.61111123       0.27777753       0.31173067 </v>
   <v>       0.94444456       0.61111125       0.31173067 </v>
   <v>       0.94444477       0.94444429       0.31173067 </v>
   <v>       0.94444469       0.27777753       0.31173067 </v>
   <v>       0.27777764       0.61111125       0.31173067 </v>
   <v>       0.27777785       0.94444429       0.31173067 </v>
   <v>       0.27777777       0.27777753       0.31173067 </v>
   <v>       0.72222232       0.72222226       0.38970400 </v>
   <v>       0.72222224       0.05555551       0.38970400 </v>
   <v>       0.72222211       0.38888922       0.38970400 </v>
   <v>       0.05555540       0.72222226       0.38970400 </v>
   <v>       0.05555532       0.05555551       0.38970400 </v>
   <v>       0.05555519       0.38888922       0.38970400 </v>
   <v>       0.38888886       0.72222226       0.38970400 </v>
   <v>       0.38888878       0.05555551       0.38970400 </v>
   <v>       0.38888865       0.38888922       0.38970400 </v>
   <v>       0.83333355       0.83333327       0.46643533 </v>
   <v>       0.83333346       0.16666652       0.46643533 </v>
   <v>       0.83333334       0.50000023       0.46643533 </v>
   <v>       0.16666663       0.83333327       0.46643533 </v>
   <v>       0.16666654       0.16666652       0.46643533 </v>
   <v>       0.16666642       0.50000023       0.46643533 </v>
   <v>       0.50000009       0.83333327       0.46643533 </v>
   <v>       0.50000000       0.16666652       0.46643533 </v>
   <v>       0.49999988       0.50000023       0.46643533 </v>
   <v>       0.94444477       0.94444429       0.54472667 </v>
   <v>       0.94444469       0.27777753       0.54472667 </v>
   <v>       0.94444456       0.61111125       0.54472667 </v>
   <v>       0.27777785       0.94444429       0.54472667 </v>
   <v>       0.27777777       0.27777753       0.54472667 </v>
   <v>       0.27777764       0.61111125       0.54472667 </v>
   <v>       0.61111131       0.94444429       0.54472667 </v>
   <v>       0.61111123       0.27777753       0.54472667 </v>
   <v>       0.61111110       0.61111125       0.54472667 </v>
   <v>       0.27777783       0.44444473       0.07873467 </v>
   <v>       0.27777804       0.77777777       0.07873467 </v>
   <v>       0.27777795       0.11111101       0.07873467 </v>
   <v>       0.61111071       0.44444473       0.07873467 </v>
   <v>       0.61111092       0.77777777       0.07873467 </v>
   <v>       0.61111141       0.11111101       0.07873467 </v>
   <v>       0.94444417       0.44444473       0.07873467 </v>
   <v>       0.94444438       0.77777777       0.07873467 </v>
   <v>       0.94444429       0.11111101       0.07873467 </v>
   <v>       0.38888905       0.55555574       0.15702600 </v>
   <v>       0.38888868       0.88888878       0.15702600 </v>
   <v>       0.38888918       0.22222203       0.15702600 </v>
   <v>       0.72222193       0.55555574       0.15702600 </v>
   <v>       0.72222214       0.88888878       0.15702600 </v>
   <v>       0.72222205       0.22222203       0.15702600 </v>
   <v>       0.05555559       0.55555574       0.15702600 </v>
   <v>       0.05555580       0.88888878       0.15702600 </v>
   <v>       0.05555572       0.22222203       0.15702600 </v>
   <v>       0.49999969       0.66666675       0.23375733 </v>
   <v>       0.50000019       0.00000000       0.23375733 </v>
   <v>       0.50000040       0.33333304       0.23375733 </v>
   <v>       0.83333315       0.66666675       0.23375733 </v>
   <v>       0.83333307       0.00000000       0.23375733 </v>
   <v>       0.83333328       0.33333304       0.23375733 </v>
   <v>       0.16666681       0.66666675       0.23375733 </v>
   <v>       0.16666673       0.00000000       0.23375733 </v>
   <v>       0.16666694       0.33333304       0.23375733 </v>
   <v>       0.61111092       0.77777777       0.31173067 </v>
   <v>       0.61111141       0.11111101       0.31173067 </v>
   <v>       0.61111071       0.44444473       0.31173067 </v>
   <v>       0.94444438       0.77777777       0.31173067 </v>
   <v>       0.94444429       0.11111101       0.31173067 </v>
   <v>       0.94444417       0.44444473       0.31173067 </v>
   <v>       0.27777804       0.77777777       0.31173067 </v>
   <v>       0.27777795       0.11111101       0.31173067 </v>
   <v>       0.27777783       0.44444473       0.31173067 </v>
   <v>       0.72222214       0.88888878       0.38970400 </v>
   <v>       0.72222205       0.22222203       0.38970400 </v>
   <v>       0.72222193       0.55555574       0.38970400 </v>
   <v>       0.05555580       0.88888878       0.38970400 </v>
   <v>       0.05555572       0.22222203       0.38970400 </v>
   <v>       0.05555559       0.55555574       0.38970400 </v>
   <v>       0.38888868       0.88888878       0.38970400 </v>
   <v>       0.38888918       0.22222203       0.38970400 </v>
   <v>       0.38888905       0.55555574       0.38970400 </v>
   <v>       0.83333307       0.00000000       0.46643533 </v>
   <v>       0.83333328       0.33333304       0.46643533 </v>
   <v>       0.83333315       0.66666675       0.46643533 </v>
   <v>       0.16666673       0.00000000       0.46643533 </v>
   <v>       0.16666694       0.33333304       0.46643533 </v>
   <v>       0.16666681       0.66666675       0.46643533 </v>
   <v>       0.50000019       0.00000000       0.46643533 </v>
   <v>       0.50000040       0.33333304       0.46643533 </v>
   <v>       0.49999969       0.66666675       0.46643533 </v>
   <v>       0.94444429       0.11111101       0.54472667 </v>
   <v>       0.94444417       0.44444473       0.54472667 </v>
   <v>       0.94444438       0.77777777       0.54472667 </v>
   <v>       0.27777795       0.11111101       0.54472667 </v>
   <v>       0.27777783       0.44444473       0.54472667 </v>
   <v>       0.27777804       0.77777777       0.54472667 </v>
   <v>       0.61111141       0.11111101       0.54472667 </v>
   <v>       0.61111071       0.44444473       0.54472667 </v>
   <v>       0.61111092       0.77777777       0.54472667 </v>
   <v>       0.44444450       0.27777753       0.07873467 </v>
   <v>       0.44444437       0.61111125       0.07873467 </v>
   <v>       0.44444458       0.94444429       0.07873467 </v>
   <v>       0.77777796       0.27777753       0.07873467 </v>
   <v>       0.77777783       0.61111125       0.07873467 </v>
   <v>       0.77777804       0.94444429       0.07873467 </v>
   <v>       0.11111104       0.27777753       0.07873467 </v>
   <v>       0.11111091       0.61111125       0.07873467 </v>
   <v>       0.11111112       0.94444429       0.07873467 </v>
   <v>       0.55555538       0.38888922       0.15702600 </v>
   <v>       0.55555559       0.72222226       0.15702600 </v>
   <v>       0.55555551       0.05555551       0.15702600 </v>
   <v>       0.88888884       0.38888922       0.15702600 </v>
   <v>       0.88888905       0.72222226       0.15702600 </v>
   <v>       0.88888897       0.05555551       0.15702600 </v>
   <v>       0.22222192       0.38888922       0.15702600 </v>
   <v>       0.22222213       0.72222226       0.15702600 </v>
   <v>       0.22222205       0.05555551       0.15702600 </v>
   <v>       0.66666661       0.50000023       0.23375733 </v>
   <v>       0.66666682       0.83333327       0.23375733 </v>
   <v>       0.66666673       0.16666652       0.23375733 </v>
   <v>       0.99999969       0.50000023       0.23375733 </v>
   <v>       0.99999990       0.83333327       0.23375733 </v>
   <v>       0.99999981       0.16666652       0.23375733 </v>
   <v>       0.33333315       0.50000023       0.23375733 </v>
   <v>       0.33333336       0.83333327       0.23375733 </v>
   <v>       0.33333327       0.16666652       0.23375733 </v>
   <v>       0.77777783       0.61111125       0.31173067 </v>
   <v>       0.77777804       0.94444429       0.31173067 </v>
   <v>       0.77777796       0.27777753       0.31173067 </v>
   <v>       0.11111091       0.61111125       0.31173067 </v>
   <v>       0.11111112       0.94444429       0.31173067 </v>
   <v>       0.11111104       0.27777753       0.31173067 </v>
   <v>       0.44444437       0.61111125       0.31173067 </v>
   <v>       0.44444458       0.94444429       0.31173067 </v>
   <v>       0.44444450       0.27777753       0.31173067 </v>
   <v>       0.88888905       0.72222226       0.38970400 </v>
   <v>       0.88888897       0.05555551       0.38970400 </v>
   <v>       0.88888884       0.38888922       0.38970400 </v>
   <v>       0.22222213       0.72222226       0.38970400 </v>
   <v>       0.22222205       0.05555551       0.38970400 </v>
   <v>       0.22222192       0.38888922       0.38970400 </v>
   <v>       0.55555559       0.72222226       0.38970400 </v>
   <v>       0.55555551       0.05555551       0.38970400 </v>
   <v>       0.55555538       0.38888922       0.38970400 </v>
   <v>       0.99999990       0.83333327       0.46643533 </v>
   <v>       0.99999981       0.16666652       0.46643533 </v>
   <v>       0.99999969       0.50000023       0.46643533 </v>
   <v>       0.33333336       0.83333327       0.46643533 </v>
   <v>       0.33333327       0.16666652       0.46643533 </v>
   <v>       0.33333315       0.50000023       0.46643533 </v>
   <v>       0.66666682       0.83333327       0.46643533 </v>
   <v>       0.66666673       0.16666652       0.46643533 </v>
   <v>       0.66666661       0.50000023       0.46643533 </v>
   <v>       0.11111112       0.94444429       0.54472667 </v>
   <v>       0.11111104       0.27777753       0.54472667 </v>
   <v>       0.11111091       0.61111125       0.54472667 </v>
   <v>       0.44444458       0.94444429       0.54472667 </v>
   <v>       0.44444450       0.27777753       0.54472667 </v>
   <v>       0.44444437       0.61111125       0.54472667 </v>
   <v>       0.77777804       0.94444429       0.54472667 </v>
   <v>       0.77777796       0.27777753       0.54472667 </v>
   <v>       0.77777783       0.61111125       0.54472667 </v>
   <v>       0.33333315       0.50000023       0.73466667 </v>
   <v>       0.38888907       0.38888877       0.73466667 </v>
  </varray>
 </structure>
</modeling>
