NiAl                                    
            1
    10.541500    0.000000    0.000000
     5.270750    9.129207    0.000000
     0.000000    0.000000   28.541500
   Ni   O 
   125   127
Direct configuration=     1
   0.00000000  0.00000000  0.00000000
   0.00000000  0.00000000  0.07386788
   0.00000000  0.00000000  0.14773576
   0.00000000  0.00000000  0.22160364
   0.00000000  0.00000000  0.29547151
   0.00000000  0.20000000  0.00000000
   0.00000000  0.20000000  0.07386788
   0.00000000  0.20000000  0.14773576
   0.00000000  0.20000000  0.22160364
   0.00000000  0.20000000  0.29547151
   0.00000000  0.40000001  0.00000000
   0.00000000  0.40000001  0.07386788
   0.00000000  0.40000001  0.14773576
   0.00000000  0.40000001  0.22160364
   0.00000000  0.40000001  0.29547151
   0.00000000  0.60000002  0.00000000
   0.00000000  0.60000002  0.07386788
   0.00000000  0.60000002  0.14773576
   0.00000000  0.60000002  0.22160364
   0.00000000  0.60000002  0.29547151
   0.00000000  0.80000001  0.00000000
   0.00000000  0.80000001  0.07386788
   0.00000000  0.80000001  0.14773576
   0.00000000  0.80000001  0.22160364
   0.00000000  0.80000001  0.29547151
   0.20000000  0.00000000  0.00000000
   0.20000000  0.00000000  0.07386788
   0.20000000  0.00000000  0.14773576
   0.20000000  0.00000000  0.22160364
   0.20000000  0.00000000  0.29547151
   0.20000000  0.20000000  0.00000000
   0.20000000  0.20000000  0.07386788
   0.20000000  0.20000000  0.14773576
   0.20000000  0.20000000  0.22160364
   0.20000000  0.20000000  0.29547151
   0.20000000  0.40000001  0.00000000
   0.20000000  0.40000001  0.07386788
   0.20000000  0.40000001  0.14773576
   0.20000000  0.40000001  0.22160364
   0.20000000  0.40000001  0.29547151
   0.20000000  0.60000002  0.00000000
   0.20000000  0.60000002  0.07386788
   0.20000000  0.60000002  0.14773576
   0.20000000  0.60000002  0.22160364
   0.20000000  0.60000002  0.29547151
   0.20000000  0.80000001  0.00000000
   0.20000000  0.80000001  0.07386788
   0.20000000  0.80000001  0.14773576
   0.20000000  0.80000001  0.22160364
   0.20000000  0.80000001  0.29547151
   0.40000001  0.00000000  0.00000000
   0.40000001  0.00000000  0.07386788
   0.40000001  0.00000000  0.14773576
   0.40000001  0.00000000  0.22160364
   0.40000001  0.00000000  0.29547151
   0.40000001  0.20000000  0.00000000
   0.40000001  0.20000000  0.07386788
   0.40000001  0.20000000  0.14773576
   0.40000001  0.20000000  0.22160364
   0.40000001  0.20000000  0.29547151
   0.40000001  0.40000001  0.00000000
   0.40000001  0.40000001  0.07386788
   0.40000001  0.40000001  0.14773576
   0.40000001  0.40000001  0.22160364
   0.40000001  0.40000001  0.29547151
   0.40000001  0.60000002  0.00000000
   0.40000001  0.60000002  0.07386788
   0.40000001  0.60000002  0.14773576
   0.40000001  0.60000002  0.22160364
   0.40000001  0.60000002  0.29547151
   0.40000001  0.80000001  0.00000000
   0.40000001  0.80000001  0.07386788
   0.40000001  0.80000001  0.14773576
   0.40000001  0.80000001  0.22160364
   0.40000001  0.80000001  0.29547151
   0.60000002  0.00000000  0.00000000
   0.60000002  0.00000000  0.07386788
   0.60000002  0.00000000  0.14773576
   0.60000002  0.00000000  0.22160364
   0.60000002  0.00000000  0.29547151
   0.60000002  0.20000000  0.00000000
   0.60000002  0.20000000  0.07386788
   0.60000002  0.20000000  0.14773576
   0.60000002  0.20000000  0.22160364
   0.60000002  0.20000000  0.29547151
   0.60000002  0.40000001  0.00000000
   0.60000002  0.40000001  0.07386788
   0.60000002  0.40000001  0.14773576
   0.60000002  0.40000001  0.22160364
   0.60000002  0.40000001  0.29547151
   0.60000002  0.60000002  0.00000000
   0.60000002  0.60000002  0.07386788
   0.60000002  0.60000002  0.14773576
   0.60000002  0.60000002  0.22160364
   0.60000002  0.60000002  0.29547151
   0.60000002  0.80000001  0.00000000
   0.60000002  0.80000001  0.07386788
   0.60000002  0.80000001  0.14773576
   0.60000002  0.80000001  0.22160364
   0.60000002  0.80000001  0.29547151
   0.80000001  0.00000000  0.00000000
   0.80000001  0.00000000  0.07386788
   0.80000001  0.00000000  0.14773576
   0.80000001  0.00000000  0.22160364
   0.80000001  0.00000000  0.29547151
   0.80000001  0.20000000  0.00000000
   0.80000001  0.20000000  0.07386788
   0.80000001  0.20000000  0.14773576
   0.80000001  0.20000000  0.22160364
   0.80000001  0.20000000  0.29547151
   0.80000001  0.40000001  0.00000000
   0.80000001  0.40000001  0.07386788
   0.80000001  0.40000001  0.14773576
   0.80000001  0.40000001  0.22160364
   0.80000001  0.40000001  0.29547151
   0.80000001  0.60000002  0.00000000
   0.80000001  0.60000002  0.07386788
   0.80000001  0.60000002  0.14773576
   0.80000001  0.60000002  0.22160364
   0.80000001  0.60000002  0.29547151
   0.80000001  0.80000001  0.00000000
   0.80000001  0.80000001  0.07386788
   0.80000001  0.80000001  0.14773576
   0.80000001  0.80000001  0.22160364
   0.80000001  0.80000001  0.29547151
   0.10000000  0.10000000  0.03693394
   0.10000000  0.10000000  0.11080182
   0.10000000  0.10000000  0.18466969
   0.10000000  0.10000000  0.25853757
   0.10000000  0.10000000  0.33240544
   0.10000000  0.30000001  0.03693394
   0.10000000  0.30000001  0.11080182
   0.10000000  0.30000001  0.18466969
   0.10000000  0.30000001  0.25853757
   0.10000000  0.30000001  0.33240544
   0.10000000  0.50000000  0.03693394
   0.10000000  0.50000000  0.11080182
   0.10000000  0.50000000  0.18466969
   0.10000000  0.50000000  0.25853757
   0.10000000  0.50000000  0.33240544
   0.10000000  0.69999999  0.03693394
   0.10000000  0.69999999  0.11080182
   0.10000000  0.69999999  0.18466969
   0.10000000  0.69999999  0.25853757
   0.10000000  0.69999999  0.33240544
   0.10000000  0.89999998  0.03693394
   0.10000000  0.89999998  0.11080182
   0.10000000  0.89999998  0.18466969
   0.10000000  0.89999998  0.25853757
   0.10000000  0.89999998  0.33240544
   0.30000001  0.10000000  0.03693394
   0.30000001  0.10000000  0.11080182
   0.30000001  0.10000000  0.18466969
   0.30000001  0.10000000  0.25853757
   0.30000001  0.10000000  0.33240544
   0.30000001  0.30000001  0.03693394
   0.30000001  0.30000001  0.11080182
   0.30000001  0.30000001  0.18466969
   0.30000001  0.30000001  0.25853757
   0.30000001  0.30000001  0.33240544
   0.30000001  0.50000000  0.03693394
   0.30000001  0.50000000  0.11080182
   0.30000001  0.50000000  0.18466969
   0.30000001  0.50000000  0.25853757
   0.30000001  0.50000000  0.33240544
   0.30000001  0.69999999  0.03693394
   0.30000001  0.69999999  0.11080182
   0.30000001  0.69999999  0.18466969
   0.30000001  0.69999999  0.25853757
   0.30000001  0.69999999  0.33240544
   0.30000001  0.89999998  0.03693394
   0.30000001  0.89999998  0.11080182
   0.30000001  0.89999998  0.18466969
   0.30000001  0.89999998  0.25853757
   0.30000001  0.89999998  0.33240544
   0.50000000  0.10000000  0.03693394
   0.50000000  0.10000000  0.11080182
   0.50000000  0.10000000  0.18466969
   0.50000000  0.10000000  0.25853757
   0.50000000  0.10000000  0.33240544
   0.50000000  0.30000001  0.03693394
   0.50000000  0.30000001  0.11080182
   0.50000000  0.30000001  0.18466969
   0.50000000  0.30000001  0.25853757
   0.50000000  0.30000001  0.33240544
   0.50000000  0.50000000  0.03693394
   0.50000000  0.50000000  0.11080182
   0.50000000  0.50000000  0.18466969
   0.50000000  0.50000000  0.25853757
   0.50000000  0.50000000  0.33240544
   0.50000000  0.69999999  0.03693394
   0.50000000  0.69999999  0.11080182
   0.50000000  0.69999999  0.18466969
   0.50000000  0.69999999  0.25853757
   0.50000000  0.69999999  0.33240544
   0.50000000  0.89999998  0.03693394
   0.50000000  0.89999998  0.11080182
   0.50000000  0.89999998  0.18466969
   0.50000000  0.89999998  0.25853757
   0.50000000  0.89999998  0.33240544
   0.69999999  0.10000000  0.03693394
   0.69999999  0.10000000  0.11080182
   0.69999999  0.10000000  0.18466969
   0.69999999  0.10000000  0.25853757
   0.69999999  0.10000000  0.33240544
   0.69999999  0.30000001  0.03693394
   0.69999999  0.30000001  0.11080182
   0.69999999  0.30000001  0.18466969
   0.69999999  0.30000001  0.25853757
   0.69999999  0.30000001  0.33240544
   0.69999999  0.50000000  0.03693394
   0.69999999  0.50000000  0.11080182
   0.69999999  0.50000000  0.18466969
   0.69999999  0.50000000  0.25853757
   0.69999999  0.50000000  0.33240544
   0.69999999  0.69999999  0.03693394
   0.69999999  0.69999999  0.11080182
   0.69999999  0.69999999  0.18466969
   0.69999999  0.69999999  0.25853757
   0.69999999  0.69999999  0.33240544
   0.69999999  0.89999998  0.03693394
   0.69999999  0.89999998  0.11080182
   0.69999999  0.89999998  0.18466969
   0.69999999  0.89999998  0.25853757
   0.69999999  0.89999998  0.33240544
   0.89999998  0.10000000  0.03693394
   0.89999998  0.10000000  0.11080182
   0.89999998  0.10000000  0.18466969
   0.89999998  0.10000000  0.25853757
   0.89999998  0.10000000  0.33240544
   0.89999998  0.30000001  0.03693394
   0.89999998  0.30000001  0.11080182
   0.89999998  0.30000001  0.18466969
   0.89999998  0.30000001  0.25853757
   0.89999998  0.30000001  0.33240544
   0.89999998  0.50000000  0.03693394
   0.89999998  0.50000000  0.11080182
   0.89999998  0.50000000  0.18466969
   0.89999998  0.50000000  0.25853757
   0.89999998  0.50000000  0.33240544
   0.89999998  0.69999999  0.03693394
   0.89999998  0.69999999  0.11080182
   0.89999998  0.69999999  0.18466969
   0.89999998  0.69999999  0.25853757
   0.89999998  0.69999999  0.33240544
   0.89999998  0.89999998  0.03693394
   0.89999998  0.89999998  0.11080182
   0.89999998  0.89999998  0.18466969
   0.89999998  0.89999998  0.25853757
   0.89999998  0.89999998  0.33240544
   0.42141986  0.42141986  0.36744214
   0.35569673  0.55286611  0.36744214
Direct configuration=     2
  -0.00113051  0.00063564 -0.01885803
  -0.00073826  0.00018532  0.07280597
   0.00002417 -0.00011125  0.14817843
   0.00040587  0.00003375  0.22142823
   0.00047420  0.00191161  0.30173441
  -0.00014707  0.19993399 -0.01913663
  -0.00027010  0.20003440  0.07274383
  -0.00014211  0.20008594  0.14827284
   0.00063145  0.19904741  0.22177707
   0.00128750  0.19715503  0.30048726
  -0.00010967  0.39920037 -0.01922499
   0.00016307  0.40003275  0.07300639
   0.00000659  0.40011876  0.14802023
   0.00031792  0.39964848  0.22102345
  -0.00037006  0.39838007  0.30285552
  -0.00004363  0.60004122 -0.01947222
  -0.00040842  0.60054864  0.07338944
   0.00019607  0.59992834  0.14798749
   0.00049706  0.60020298  0.22087630
   0.00045807  0.60062332  0.30275224
  -0.00114408  0.80171864 -0.01933635
  -0.00078761  0.80035757  0.07312159
   0.00023112  0.79962703  0.14808508
   0.00100144  0.79930455  0.22127135
   0.00040737  0.80027826  0.30122846
   0.19998272  0.00005508 -0.01926929
   0.19966101  0.00011923  0.07275300
   0.19995483 -0.00006457  0.14837830
   0.19985656 -0.00013707  0.22133156
   0.19788094  0.00181948  0.30180986
   0.19963501  0.19968811 -0.01927475
   0.19984219  0.20034928  0.07296038
   0.20011155  0.20010979  0.14819453
   0.20065152  0.19922849  0.22120825
   0.20025718  0.19804674  0.30216415
   0.20045503  0.39994050 -0.01961182
   0.19984974  0.40041557  0.07342578
   0.20010836  0.40028705  0.14809015
   0.20052088  0.40000579  0.22095731
   0.20025935  0.39852541  0.30235894
   0.19997364  0.60025493 -0.01954420
   0.19973620  0.59988296  0.07341153
   0.20023631  0.59968721  0.14824659
   0.20012028  0.60007588  0.22134184
   0.19990785  0.60169762  0.30084320
   0.20037467  0.80026814 -0.01913856
   0.19975698  0.79990767  0.07295378
   0.20015355  0.79959842  0.14834070
   0.20012678  0.79971202  0.22128369
   0.20024453  0.79993329  0.30158580
   0.39929890 -0.00002744 -0.01932878
   0.40007262  0.00031684  0.07292624
   0.40007393  0.00008311  0.14831412
   0.39987534  0.00026811  0.22151869
   0.39977901  0.00159546  0.30136785
   0.39992566  0.20001421 -0.01938357
   0.40013399  0.20020910  0.07324780
   0.40009320  0.20031873  0.14820406
   0.40032779  0.19966986  0.22126349
   0.40074789  0.19762721  0.30225602
   0.39994516  0.39986867 -0.01971576
   0.40000950  0.39979281  0.07357131
   0.39995894  0.40010240  0.14822524
   0.39970805  0.40036235  0.22087449
   0.40227340  0.39679918  0.29935619
   0.39985410  0.60039373 -0.01916448
   0.39989200  0.59969565  0.07299094
   0.39996167  0.59978739  0.14831456
   0.39913029  0.60055018  0.22080560
   0.39956899  0.60156946  0.30118806
   0.39966737  0.80035382 -0.01927828
   0.39996667  0.79996560  0.07282639
   0.39997819  0.79983497  0.14833902
   0.39908679  0.80072974  0.22117355
   0.39816270  0.80175901  0.30147748
   0.60098671 -0.00020512 -0.01916945
   0.60100575 -0.00034899  0.07297560
   0.59995718  0.00014134  0.14817289
   0.59967666  0.00025523  0.22150737
   0.59905091  0.00058942  0.30114128
   0.60171533  0.19872344 -0.01931052
   0.60051131  0.19955210  0.07329639
   0.59968412  0.20035411  0.14807301
   0.59938731  0.20014781  0.22115693
   0.59996027  0.19984551  0.30109628
   0.60023646  0.39992694 -0.01916877
   0.60014562  0.39956514  0.07316005
   0.59978319  0.40007930  0.14812780
   0.59967495  0.40011207  0.22117514
   0.59929468  0.40081362  0.30292313
   0.59974407  0.60004851 -0.01920028
   0.60006676  0.59989247  0.07297067
   0.59988433  0.59993674  0.14823017
   0.59936886  0.60021643  0.22075986
   0.59983319  0.60048493  0.30257828
   0.59942940  0.80019924 -0.01928867
   0.60049717  0.80024629  0.07294605
   0.60002960  0.80001526  0.14822660
   0.59964510  0.80066015  0.22101509
   0.60032596  0.80182730  0.30194031
   0.80043398  0.00019400 -0.01911868
   0.79991135 -0.00019600  0.07254584
   0.79975235  0.00019476  0.14800503
   0.79970244  0.00015783  0.22133309
   0.79972690 -0.00091876  0.30147808
   0.80052058  0.19879927 -0.01889643
   0.79992504  0.19959468  0.07286727
   0.79975759  0.20015293  0.14802848
   0.80015222  0.19967352  0.22136656
   0.80194004  0.19964189  0.30176827
   0.80051926  0.39948930 -0.01912080
   0.80014232  0.39970222  0.07287649
   0.79984287  0.39996912  0.14807874
   0.80017006  0.39938111  0.22097508
   0.80154397  0.39753021  0.30185696
   0.80014344  0.59948178 -0.01921707
   0.80046683  0.60019816  0.07305604
   0.80009621  0.60003770  0.14803549
   0.79987541  0.60056375  0.22115566
   0.80004511  0.60095586  0.30145375
   0.79953847  0.80137964 -0.01904070
   0.80033630  0.80025715  0.07284976
   0.80007783  0.79986899  0.14807222
   0.79966042  0.80053818  0.22133307
   0.79875893  0.80162815  0.30110027
   0.09927422  0.10069843  0.03596762
   0.09986429  0.10016342  0.11142800
   0.10001314  0.09998060  0.18480228
   0.09849641  0.10101087  0.25865620
   0.09818071  0.10187894  0.34667395
   0.10001425  0.30035780  0.03553707
   0.09998790  0.30016545  0.11149458
   0.10008807  0.30000463  0.18472050
   0.09983652  0.29945839  0.25764480
   0.10005911  0.29943416  0.34737407
   0.10032636  0.49975235  0.03513044
   0.10002146  0.50011261  0.11163666
   0.10021200  0.50013018  0.18470132
   0.09984851  0.50051121  0.25737696
   0.10037034  0.49941091  0.34729471
   0.10054731  0.69939729  0.03528547
   0.10009587  0.69986855  0.11166209
   0.10009817  0.69994656  0.18458128
   0.10010401  0.69995480  0.25752878
   0.10080824  0.69943573  0.34722045
   0.09936927  0.90041773  0.03551014
   0.09987193  0.89999960  0.11157351
   0.10004668  0.90003154  0.18471160
   0.09915398  0.90144306  0.25781767
   0.09955249  0.90160567  0.34712819
   0.29949334  0.10087096  0.03590781
   0.29999698  0.10020316  0.11141653
   0.30010296  0.09996164  0.18486464
   0.30131895  0.09894249  0.25798120
   0.30120174  0.09950664  0.34700892
   0.30008125  0.30013702  0.03520904
   0.30014003  0.30005604  0.11164219
   0.30029590  0.30008940  0.18480080
   0.30154760  0.29864336  0.25762767
   0.30091744  0.29876591  0.34684106
   0.29985735  0.50012769  0.03492341
   0.30004201  0.49995520  0.11183858
   0.30021446  0.49989097  0.18463028
   0.29965289  0.50036102  0.25793699
   0.28143856  0.50363006  0.34190246
   0.30025759  0.69916383  0.03542391
   0.29992721  0.69981983  0.11169079
   0.30017165  0.69964561  0.18470850
   0.29932028  0.70042042  0.25773763
   0.29664721  0.70803604  0.34492913
   0.29967362  0.90003837  0.03614182
   0.29986792  0.90005036  0.11152985
   0.29993808  0.89999666  0.18477984
   0.29923427  0.90095770  0.25796554
   0.29968707  0.90171887  0.34743590
   0.49958024  0.10091719  0.03565688
   0.49991930  0.10030147  0.11151298
   0.49982637  0.10022948  0.18482574
   0.49991442  0.09959535  0.25828406
   0.49980876  0.09937439  0.34658484
   0.49999431  0.30014121  0.03499877
   0.49994338  0.30010284  0.11171652
   0.49963741  0.30033269  0.18463596
   0.49940102  0.30029281  0.25804479
   0.50086788  0.29292074  0.34515400
   0.49949428  0.49994626  0.03527413
   0.49995560  0.49977093  0.11175246
   0.50002170  0.49970162  0.18474102
   0.50130649  0.49829131  0.25779018
   0.51482398  0.49910053  0.34324048
   0.50000714  0.69922402  0.03588906
   0.49992085  0.69987664  0.11170538
   0.50013896  0.69961819  0.18467722
   0.49988405  0.70019066  0.25734358
   0.50032265  0.69998934  0.34753968
   0.49956863  0.90062427  0.03625409
   0.49991706  0.90014058  0.11151959
   0.49992855  0.90007690  0.18479659
   0.49897404  0.90164647  0.25800472
   0.49923219  0.90174498  0.34759995
   0.70064426  0.09991458  0.03533006
   0.70003619  0.10005485  0.11153188
   0.70018713  0.09986388  0.18459268
   0.70073771  0.09862803  0.25762545
   0.70009863  0.09983246  0.34772928
   0.70024816  0.29944966  0.03521907
   0.69975857  0.30002648  0.11167933
   0.69965826  0.30017240  0.18465290
   0.70012274  0.29960946  0.25775301
   0.69932854  0.30037337  0.34656069
   0.70017829  0.49936528  0.03563896
   0.70004518  0.49973531  0.11172634
   0.69961355  0.50013774  0.18462372
   0.69980655  0.49966929  0.25753491
   0.69962601  0.50002032  0.34763197
   0.70121648  0.69912504  0.03601028
   0.70011308  0.70002156  0.11162682
   0.69991955  0.69999493  0.18470026
   0.70046926  0.69997451  0.25769034
   0.70049494  0.70020132  0.34806142
   0.70025166  0.90086403  0.03604170
   0.70024954  0.90002779  0.11148720
   0.70010880  0.89992788  0.18478876
   0.69972739  0.90022738  0.25832340
   0.69920691  0.90004439  0.34741368
   0.89949673  0.09990486  0.03517526
   0.89969474  0.10018098  0.11156400
   0.90004128  0.10008065  0.18473123
   0.90093278  0.09998553  0.25820248
   0.90076532  0.09964352  0.34722468
   0.90000324  0.29986024  0.03572200
   0.89999522  0.29994534  0.11151990
   0.89997260  0.29995483  0.18470342
   0.90203746  0.29776527  0.25825646
   0.90301193  0.29752055  0.34735927
   0.90042000  0.49976554  0.03556216
   0.90025170  0.49993607  0.11160158
   0.90001728  0.50011930  0.18462950
   0.89987327  0.50045145  0.25769964
   0.90014126  0.50001893  0.34735332
   0.90088589  0.69921541  0.03589417
   0.90014137  0.70002857  0.11153986
   0.89995999  0.70015843  0.18471095
   0.89864364  0.70094081  0.25768321
   0.89756008  0.70083395  0.34730319
   0.89918826  0.90093262  0.03544438
   0.89974876  0.90012853  0.11153582
   0.89995654  0.90008067  0.18456935
   0.89949215  0.90070347  0.25770642
   0.89896576  0.90105164  0.34774243
   0.44500903  0.38992209  0.37955294
   0.33851161  0.57626001  0.37536208
Direct configuration=     3
  -0.00166332  0.00093522 -0.02774577
  -0.00108620  0.00027266  0.07230550
   0.00003556 -0.00016368  0.14838706
   0.00059716  0.00004966  0.22134556
   0.00069770  0.00281255  0.30468610
  -0.00021639  0.19990288 -0.02815567
  -0.00039739  0.20005061  0.07221407
  -0.00020909  0.20012644  0.14852597
   0.00092905  0.19859846  0.22185881
   0.00189429  0.19581420  0.30285117
  -0.00016136  0.39882351 -0.02828567
   0.00023993  0.40004818  0.07260037
   0.00000970  0.40017472  0.14815430
   0.00046775  0.39948281  0.22075001
  -0.00054446  0.39761659  0.30633558
  -0.00006420  0.60006063 -0.02864942
  -0.00060090  0.60080720  0.07316396
   0.00028848  0.59989455  0.14810613
   0.00073133  0.60029864  0.22053351
   0.00067395  0.60091708  0.30618363
  -0.00168328  0.80252862 -0.02844951
  -0.00115881  0.80052609  0.07276987
   0.00034004  0.79945124  0.14824971
   0.00147341  0.79897678  0.22111474
   0.00059936  0.80040940  0.30394169
   0.19997458  0.00008103 -0.02835085
   0.19950125  0.00017543  0.07222756
   0.19993354 -0.00009501  0.14868113
   0.19978895 -0.00020167  0.22120333
   0.19688223  0.00267700  0.30479711
   0.19946300  0.19954112 -0.02835888
   0.19976781  0.20051389  0.07253269
   0.20016413  0.20016153  0.14841075
   0.20095857  0.19886488  0.22102190
   0.20037839  0.19712618  0.30531837
   0.20066949  0.39991245 -0.02885481
   0.19977892  0.40061143  0.07321742
   0.20015943  0.40042234  0.14825717
   0.20076637  0.40000851  0.22065270
   0.20038158  0.39783044  0.30560496
   0.19996121  0.60037507 -0.02875533
   0.19961186  0.59982779  0.07319646
   0.20034768  0.59953978  0.14848735
   0.20017697  0.60011163  0.22121845
   0.19986441  0.60249769  0.30337486
   0.20055125  0.80039450 -0.02815851
   0.19964244  0.79986415  0.07252297
   0.20022591  0.79940915  0.14862581
   0.20018653  0.79957628  0.22113290
   0.20035978  0.79990184  0.30446744
   0.39896847 -0.00004038 -0.02843838
   0.40010684  0.00046616  0.07248245
   0.40010877  0.00012228  0.14858670
   0.39981659  0.00039447  0.22147865
   0.39967486  0.00234739  0.30414677
   0.39989062  0.20002091 -0.02851899
   0.40019714  0.20030765  0.07295556
   0.40013713  0.20046895  0.14842476
   0.40048228  0.19951427  0.22110318
   0.40110036  0.19650892  0.30545354
   0.39991932  0.39980678 -0.02900774
   0.40001397  0.39969516  0.07343154
   0.39993958  0.40015066  0.14845593
   0.39957045  0.40053312  0.22053085
   0.40334485  0.39529064  0.30118703
   0.39978533  0.60057928 -0.02819665
   0.39984109  0.59955220  0.07257764
   0.39994360  0.59968717  0.14858735
   0.39872040  0.60080946  0.22042949
   0.39936585  0.60230913  0.30388226
   0.39951060  0.80052057 -0.02836408
   0.39995095  0.79994938  0.07233554
   0.39996791  0.79975719  0.14862333
   0.39865640  0.80107365  0.22097085
   0.39729678  0.80258802  0.30430808
   0.60145173 -0.00030179 -0.02820395
   0.60147975 -0.00051347  0.07255507
   0.59993698  0.00020795  0.14837891
   0.59952425  0.00037552  0.22146200
   0.59860360  0.00086722  0.30381343
   0.60252374  0.19812180 -0.02841151
   0.60075227  0.19934101  0.07302705
   0.59953523  0.20052100  0.14823195
   0.59909854  0.20021747  0.22094639
   0.59994153  0.19977270  0.30374721
   0.60034789  0.39989250 -0.02820296
   0.60021424  0.39936018  0.07282645
   0.59968100  0.40011667  0.14831257
   0.59952174  0.40016488  0.22097319
   0.59896225  0.40119708  0.30643505
   0.59962344  0.60007136 -0.02824932
   0.60009821  0.59984178  0.07254782
   0.59982980  0.59990692  0.14846319
   0.59907140  0.60031843  0.22036219
   0.59975456  0.60071347  0.30592768
   0.59916047  0.80029314 -0.02837936
   0.60073147  0.80036236  0.07251160
   0.60004354  0.80002245  0.14845794
   0.59947782  0.80097126  0.22073770
   0.60047957  0.80268850  0.30498903
   0.80063850  0.00028542 -0.02812925
   0.79986957 -0.00028837  0.07192277
   0.79963562  0.00028655  0.14813194
   0.79956220  0.00023222  0.22120557
   0.79959818 -0.00135176  0.30430896
   0.80076592  0.19823337 -0.02780226
   0.79988971  0.19940365  0.07239568
   0.79964334  0.20022501  0.14816644
   0.80022396  0.19951965  0.22125483
   0.80285437  0.19947312  0.30473591
   0.80076399  0.39924861 -0.02813238
   0.80020939  0.39956187  0.07240925
   0.79976881  0.39995456  0.14824039
   0.80025021  0.39908943  0.22067885
   0.80227164  0.39636620  0.30486641
   0.80021104  0.59923754 -0.02827401
   0.80068684  0.60029154  0.07267342
   0.80014155  0.60005545  0.14817676
   0.79981668  0.60082943  0.22094453
   0.80006636  0.60140635  0.30427316
   0.79932095  0.80202986 -0.02801453
   0.80049480  0.80037834  0.07236993
   0.80011451  0.79980724  0.14823079
   0.79950037  0.80079182  0.22120555
   0.79817401  0.80239549  0.30375309
   0.09893216  0.10102760  0.03551220
   0.09980033  0.10024044  0.11172312
   0.10001933  0.09997146  0.18486477
   0.09778777  0.10148728  0.25871211
   0.09732328  0.10276448  0.35339866
   0.10002096  0.30052642  0.03487874
   0.09998220  0.30024342  0.11182108
   0.10012958  0.30000681  0.18474445
   0.09975947  0.29920312  0.25722405
   0.10008696  0.29916747  0.35442874
   0.10048018  0.49963563  0.03428046
   0.10003158  0.50016568  0.11203012
   0.10031191  0.50019154  0.18471623
   0.09977711  0.50075214  0.25682998
   0.10054488  0.49913327  0.35431198
   0.10080526  0.69911324  0.03450855
   0.10014105  0.69980661  0.11206753
   0.10014443  0.69992138  0.18453961
   0.10015303  0.69993350  0.25705334
   0.10118916  0.69916980  0.35420272
   0.09907200  0.90061462  0.03483911
   0.09981157  0.89999942  0.11193720
   0.10006868  0.90004641  0.18473135
   0.09875526  0.90212318  0.25747839
   0.09934159  0.90236243  0.35406699
   0.29925455  0.10128144  0.03542419
   0.29999555  0.10029891  0.11170624
   0.30015148  0.09994356  0.18495652
   0.30194056  0.09844409  0.25771898
   0.30176812  0.09927412  0.35389150
   0.30011953  0.30020159  0.03439611
   0.30020602  0.30008245  0.11203825
   0.30043535  0.30013153  0.18486259
   0.30227697  0.29800398  0.25719883
   0.30134983  0.29818428  0.35364452
   0.29979011  0.50018787  0.03397586
   0.30006181  0.49993408  0.11232720
   0.30031552  0.49983958  0.18461170
   0.29948930  0.50053117  0.25765394
   0.27269060  0.50534089  0.34637838
   0.30037899  0.69876975  0.03471224
   0.29989290  0.69973492  0.11210975
   0.30025255  0.69947860  0.18472678
   0.29899993  0.70061857  0.25736062
   0.29506705  0.71182341  0.35083151
   0.29951980  0.90005647  0.03576850
   0.29980567  0.90007411  0.11187297
   0.29990890  0.89999509  0.18483176
   0.29887337  0.90140908  0.25769594
   0.29953959  0.90252898  0.35451972
   0.49938241  0.10134946  0.03505501
   0.49988126  0.10044356  0.11184814
   0.49974454  0.10033764  0.18489929
   0.49987409  0.09940464  0.25816458
   0.49971863  0.09907954  0.35326755
   0.49999163  0.30020775  0.03408673
   0.49991670  0.30015131  0.11214761
   0.49946653  0.30048948  0.18462006
   0.49911872  0.30043081  0.25781255
   0.50127690  0.28958430  0.35116235
   0.49925593  0.49992094  0.03449186
   0.49993467  0.49966298  0.11220050
   0.50003193  0.49956099  0.18477464
   0.50192223  0.49748601  0.25743794
   0.52181048  0.49867661  0.34834701
   0.50001051  0.69885832  0.03539661
   0.49988355  0.69981851  0.11213122
   0.50020445  0.69943824  0.18468077
   0.49982940  0.70028052  0.25678085
   0.50047471  0.69998432  0.35467240
   0.49936532  0.90091850  0.03593368
   0.49987797  0.90020685  0.11185787
   0.49989488  0.90011315  0.18485640
   0.49849050  0.90242246  0.25775360
   0.49887032  0.90256739  0.35476108
   0.70094790  0.09987432  0.03457415
   0.70005325  0.10008069  0.11187595
   0.70027533  0.09979973  0.18455638
   0.70108540  0.09798142  0.25719558
   0.70014512  0.09975349  0.35495137
   0.70036513  0.29919028  0.03441086
   0.69964479  0.30003896  0.11209290
   0.69949720  0.30025365  0.18464498
   0.70018059  0.29942539  0.25738326
   0.69901209  0.30054934  0.35323202
   0.70026232  0.49906614  0.03502864
   0.70006647  0.49961056  0.11216207
   0.69943143  0.50020266  0.18460205
   0.69971538  0.49951343  0.25706236
   0.69944975  0.50002990  0.35480819
   0.70178981  0.69871268  0.03557496
   0.70016638  0.70003172  0.11201564
   0.69988164  0.69999255  0.18471467
   0.70069043  0.69996250  0.25729105
   0.70072820  0.70029621  0.35544004
   0.70037027  0.90127126  0.03562119
   0.70036716  0.90004089  0.11181021
   0.70016008  0.89989389  0.18484487
   0.69959891  0.90033455  0.25822246
   0.69883314  0.90006532  0.35448702
   0.89925955  0.09986003  0.03434640
   0.89955088  0.10026628  0.11192321
   0.90006075  0.10011866  0.18476023
   0.90137241  0.09997871  0.25804456
   0.90112602  0.09947551  0.35420895
   0.90000477  0.29979437  0.03515082
   0.89999299  0.29991957  0.11185833
   0.89995970  0.29993354  0.18471932
   0.90299772  0.29671204  0.25812397
   0.90443146  0.29635198  0.35440697
   0.90061795  0.49965505  0.03491565
   0.90037034  0.49990594  0.11197850
   0.90002543  0.50017553  0.18461056
   0.89981355  0.50066422  0.25730472
   0.90020785  0.50002785  0.35439821
   0.90130342  0.69884564  0.03540413
   0.90020801  0.70004204  0.11188769
   0.89994114  0.70023310  0.18473040
   0.89800441  0.70138421  0.25728056
   0.89641017  0.70122699  0.35432445
   0.89880570  0.90137217  0.03474235
   0.89963036  0.90018912  0.11188176
   0.89993607  0.90011870  0.18452205
   0.89925282  0.90103502  0.25731470
   0.89847834  0.90154729  0.35497071
   0.45612654  0.37507729  0.38526073
   0.33041232  0.58728549  0.37909473
Direct configuration=     4
  -0.00272893  0.00153438 -0.04552124
  -0.00178208  0.00044734  0.07130455
   0.00005834 -0.00026854  0.14880432
   0.00097974  0.00008148  0.22118021
   0.00114468  0.00461442  0.31058948
  -0.00035502  0.19984065 -0.04619374
  -0.00065199  0.20008304  0.07115455
  -0.00034304  0.20020744  0.14903222
   0.00152424  0.19770056  0.22202229
   0.00310788  0.19313255  0.30757898
  -0.00026474  0.39806978 -0.04640703
   0.00039364  0.40007905  0.07178833
   0.00001591  0.40028665  0.14842244
   0.00076741  0.39915146  0.22020313
  -0.00089328  0.39608965  0.31329570
  -0.00010533  0.60009946 -0.04700383
  -0.00098588  0.60132431  0.07271298
   0.00047329  0.59982698  0.14834342
   0.00119986  0.60048994  0.21984792
   0.00110572  0.60150460  0.31304640
  -0.00276168  0.80414859 -0.04667584
  -0.00190121  0.80086312  0.07206643
   0.00055789  0.79909967  0.14857898
   0.00241737  0.79832125  0.22080153
   0.00098334  0.80067168  0.30936815