 314 314   0   0
  0.9176549E+01  0.1054150E-08  0.1054150E-08  0.2994150E-08  0.2000000E-15
   1.0000000000000000E-004
  CAR 
 NiAl                                    
     18.65024589    -48.76872258  301      9.18092728      1.00000000
    -48.769  0.0000E+00  0.0000E+00
    -48.544  0.0000E+00  0.0000E+00
    -48.319  0.0000E+00  0.0000E+00
    -48.095  0.0000E+00  0.0000E+00
    -47.870  0.0000E+00  0.0000E+00
    -47.645  0.0000E+00  0.0000E+00
    -47.420  0.0000E+00  0.0000E+00
    -47.196  0.0000E+00  0.0000E+00
    -46.971  0.0000E+00  0.0000E+00
    -46.746  0.0000E+00  0.0000E+00
    -46.521  0.0000E+00  0.0000E+00
    -46.297  0.0000E+00  0.0000E+00
    -46.072  0.0000E+00  0.0000E+00
    -45.847  0.1682E-05  0.3780E-06
    -45.623  0.2017E+00  0.4533E-01
    -45.398  0.2078E-01  0.5000E-01
    -45.173  0.1143E-02  0.5026E-01
    -44.948  0.1345E+00  0.8047E-01
    -44.724  0.8774E-01  0.1002E+00
    -44.499  0.2091E+00  0.1472E+00
    -44.274  0.1292E-01  0.1501E+00
    -44.049  0.2124E+00  0.1978E+00
    -43.825  0.1684E-01  0.2016E+00
    -43.600  0.2254E+00  0.2523E+00
    -43.375  0.1231E+00  0.2799E+00
    -43.150  0.9223E-01  0.3006E+00
    -42.926  0.1104E+00  0.3254E+00
    -42.701  0.5439E-01  0.3377E+00
    -42.476  0.2517E+00  0.3942E+00
    -42.252  0.5509E-01  0.4066E+00
    -42.027  0.1243E+00  0.4346E+00
    -41.802  0.6872E-01  0.4500E+00
    -41.577  0.1880E+00  0.4923E+00
    -41.353  0.3449E-01  0.5000E+00
    -41.128  0.1110E+00  0.5250E+00
    -40.903  0.9271E-01  0.5458E+00
    -40.678  0.2328E+00  0.5981E+00
    -40.454  0.1196E+00  0.6250E+00
    -40.229  0.9073E-06  0.6250E+00
    -40.004  0.9997E-05  0.6250E+00
    -39.780  0.1113E+00  0.6500E+00
    -39.555  0.2668E+00  0.7100E+00
    -39.330  0.1611E+00  0.7462E+00
    -39.105  0.1706E-01  0.7500E+00
    -38.881  0.1735E+00  0.7890E+00
    -38.656  0.5130E-01  0.8005E+00
    -38.431  0.8713E-01  0.8201E+00
    -38.206  0.2504E+00  0.8764E+00
    -37.982  0.4945E-01  0.8875E+00
    -37.757  0.5865E-03  0.8876E+00
    -37.532  0.9599E-01  0.9092E+00
    -37.307  0.4568E-01  0.9195E+00
    -37.083  0.1359E+00  0.9500E+00
    -36.858  0.1188E-05  0.9500E+00
    -36.633  0.5495E-01  0.9623E+00
    -36.409  0.5535E-01  0.9748E+00
    -36.184  0.2114E+00  0.1022E+01
    -35.959  0.7051E-01  0.1038E+01
    -35.734  0.1085E+00  0.1063E+01
    -35.510  0.1602E+00  0.1099E+01
    -35.285  0.1362E+00  0.1129E+01
    -35.060  0.1519E+00  0.1163E+01
    -34.835  0.2242E+00  0.1214E+01
    -34.611  0.1167E+01  0.1476E+01
    -34.386  0.1481E+01  0.1809E+01
    -34.161  0.7221E-01  0.1825E+01
    -33.937  0.1476E+00  0.1858E+01
    -33.712  0.2050E-01  0.1863E+01
    -33.487  0.1733E+00  0.1902E+01
    -33.262  0.1069E+00  0.1926E+01
    -33.038  0.1400E+00  0.1957E+01
    -32.813  0.7993E-01  0.1975E+01
    -32.588  0.2774E+00  0.2038E+01
    -32.363  0.2406E+00  0.2092E+01
    -32.139  0.5288E+00  0.2210E+01
    -31.914  0.1522E+00  0.2245E+01
    -31.689  0.4803E+00  0.2353E+01
    -31.465  0.9978E-01  0.2375E+01
    -31.240  0.2322E+00  0.2427E+01
    -31.015  0.6084E+00  0.2564E+01
    -30.790  0.4891E+00  0.2674E+01
    -30.566  0.1918E+00  0.2717E+01
    -30.341  0.3979E+00  0.2806E+01
    -30.116  0.2464E+00  0.2862E+01
    -29.891  0.4362E+00  0.2960E+01
    -29.667  0.1557E+00  0.2995E+01
    -29.442  0.7905E-01  0.3013E+01
    -29.217  0.1455E+00  0.3045E+01
    -28.992  0.3538E+00  0.3125E+01
    -28.768  0.4641E+00  0.3229E+01
    -28.543  0.4303E+00  0.3326E+01
    -28.318  0.4240E+00  0.3421E+01
    -28.094  0.2100E+00  0.3468E+01
    -27.869  0.5171E+00  0.3584E+01
    -27.644  0.6993E+00  0.3742E+01
    -27.419  0.1282E+00  0.3770E+01
    -27.195  0.5236E+00  0.3888E+01
    -26.970  0.8538E-01  0.3907E+01
    -26.745  0.9386E+00  0.4118E+01
    -26.520  0.4105E+00  0.4210E+01
    -26.296  0.4050E+00  0.4301E+01
    -26.071  0.1059E+01  0.4539E+01
    -25.846  0.3806E+00  0.4625E+01
    -25.622  0.3221E+00  0.4697E+01
    -25.397  0.6620E-01  0.4712E+01
    -25.172  0.3444E+00  0.4790E+01
    -24.947  0.1845E+00  0.4831E+01
    -24.723  0.2498E+00  0.4887E+01
    -24.498  0.3662E+00  0.4970E+01
    -24.273  0.4441E+00  0.5069E+01
    -24.048  0.1737E+00  0.5108E+01
    -23.824  0.2417E+00  0.5163E+01
    -23.599  0.1655E+00  0.5200E+01
    -23.374  0.1805E+00  0.5240E+01
    -23.150  0.3493E+00  0.5319E+01
    -22.925  0.2725E-01  0.5325E+01
    -22.700  0.1312E+00  0.5355E+01
    -22.475  0.4243E+00  0.5450E+01
    -22.251  0.6151E-01  0.5464E+01
    -22.026  0.3201E+00  0.5536E+01
    -21.801  0.2611E+00  0.5594E+01
    -21.576  0.7160E+00  0.5755E+01
    -21.352  0.2230E+00  0.5805E+01
    -21.127  0.3458E+00  0.5883E+01
    -20.902  0.5150E+00  0.5999E+01
    -20.677  0.4479E+00  0.6100E+01
    -20.453  0.5896E+00  0.6232E+01
    -20.228  0.3219E+00  0.6304E+01
    -20.003  0.4730E+00  0.6411E+01
    -19.779  0.6168E+00  0.6549E+01
    -19.554  0.6627E+00  0.6698E+01
    -19.329  0.7891E+00  0.6876E+01
    -19.104  0.1479E+01  0.7208E+01
    -18.880  0.1228E+01  0.7484E+01
    -18.655  0.9893E+00  0.7706E+01
    -18.430  0.8571E+00  0.7899E+01
    -18.205  0.5701E+00  0.8027E+01
    -17.981  0.9044E+00  0.8230E+01
    -17.756  0.8068E+00  0.8411E+01
    -17.531  0.1080E+01  0.8654E+01
    -17.307  0.1127E+01  0.8907E+01
    -17.082  0.1204E+01  0.9178E+01
    -16.857  0.6159E+00  0.9316E+01
    -16.632  0.1161E+01  0.9577E+01
    -16.408  0.1169E+01  0.9840E+01
    -16.183  0.1028E+01  0.1007E+02
    -15.958  0.1588E+01  0.1043E+02
    -15.733  0.1629E+01  0.1079E+02
    -15.509  0.1441E+01  0.1112E+02
    -15.284  0.9865E+00  0.1134E+02
    -15.059  0.1832E+01  0.1175E+02
    -14.835  0.1722E+01  0.1214E+02
    -14.610  0.2341E+01  0.1266E+02
    -14.385  0.1552E+01  0.1301E+02
    -14.160  0.1425E+01  0.1333E+02
    -13.936  0.7755E+00  0.1351E+02
    -13.711  0.7652E+00  0.1368E+02
    -13.486  0.6551E+00  0.1383E+02
    -13.261  0.4887E+00  0.1394E+02
    -13.037  0.4973E+00  0.1405E+02
    -12.812  0.7014E+00  0.1421E+02
    -12.587  0.4638E+00  0.1431E+02
    -12.362  0.5603E+00  0.1444E+02
    -12.138  0.3922E+00  0.1452E+02
    -11.913  0.4633E+00  0.1463E+02
    -11.688  0.9912E+00  0.1485E+02
    -11.464  0.7255E+00  0.1501E+02
    -11.239  0.6988E+00  0.1517E+02
    -11.014  0.3999E+00  0.1526E+02
    -10.789  0.1026E+01  0.1549E+02
    -10.565  0.9428E+00  0.1570E+02
    -10.340  0.1471E+01  0.1603E+02
    -10.115  0.1405E+01  0.1635E+02
     -9.890  0.9806E+00  0.1657E+02
     -9.666  0.1017E+01  0.1680E+02
     -9.441  0.1278E+01  0.1709E+02
     -9.216  0.1016E+01  0.1731E+02
     -8.992  0.1299E+01  0.1761E+02
     -8.767  0.1338E+01  0.1791E+02
     -8.542  0.9592E+00  0.1812E+02
     -8.317  0.1116E+01  0.1837E+02
     -8.093  0.1276E+01  0.1866E+02
     -7.868  0.1301E+01  0.1895E+02
     -7.643  0.1161E+01  0.1921E+02
     -7.418  0.1288E+01  0.1950E+02
     -7.194  0.1487E+01  0.1984E+02
     -6.969  0.1374E+01  0.2015E+02
     -6.744  0.1232E+01  0.2042E+02
     -6.520  0.1312E+01  0.2072E+02
     -6.295  0.1699E+01  0.2110E+02
     -6.070  0.1936E+01  0.2153E+02
     -5.845  0.2128E+01  0.2201E+02
     -5.621  0.1741E+01  0.2240E+02
     -5.396  0.2157E+01  0.2289E+02
     -5.171  0.1928E+01  0.2332E+02
     -4.946  0.2007E+01  0.2377E+02
     -4.722  0.2117E+01  0.2425E+02
     -4.497  0.2336E+01  0.2477E+02
     -4.272  0.2470E+01  0.2533E+02
     -4.047  0.2278E+01  0.2584E+02
     -3.823  0.1922E+01  0.2627E+02
     -3.598  0.2364E+01  0.2680E+02
     -3.373  0.2473E+01  0.2736E+02
     -3.149  0.2198E+01  0.2785E+02
     -2.924  0.2395E+01  0.2839E+02
     -2.699  0.2637E+01  0.2898E+02
     -2.474  0.2400E+01  0.2952E+02
     -2.250  0.2643E+01  0.3012E+02
     -2.025  0.2201E+01  0.3061E+02
     -1.800  0.2599E+01  0.3120E+02
     -1.575  0.2765E+01  0.3182E+02
     -1.351  0.2952E+01  0.3248E+02
     -1.126  0.2527E+01  0.3305E+02
     -0.901  0.2498E+01  0.3361E+02
     -0.677  0.2729E+01  0.3422E+02
     -0.452  0.2477E+01  0.3478E+02
     -0.227  0.2544E+01  0.3535E+02
     -0.002  0.2907E+01  0.3601E+02
      0.222  0.2325E+01  0.3653E+02
      0.447  0.1976E+01  0.3697E+02
      0.672  0.2431E+01  0.3752E+02
      0.897  0.2322E+01  0.3804E+02
      1.121  0.2320E+01  0.3856E+02
      1.346  0.2262E+01  0.3907E+02
      1.571  0.2357E+01  0.3960E+02
      1.796  0.2133E+01  0.4008E+02
      2.020  0.2145E+01  0.4056E+02
      2.245  0.2235E+01  0.4106E+02
      2.470  0.2474E+01  0.4162E+02
      2.694  0.1726E+01  0.4201E+02
      2.919  0.2175E+01  0.4250E+02
      3.144  0.2103E+01  0.4297E+02
      3.369  0.2629E+01  0.4356E+02
      3.593  0.2798E+01  0.4419E+02
      3.818  0.2777E+01  0.4481E+02
      4.043  0.2325E+01  0.4533E+02
      4.268  0.2733E+01  0.4595E+02
      4.492  0.2571E+01  0.4653E+02
      4.717  0.2552E+01  0.4710E+02
      4.942  0.2467E+01  0.4765E+02
      5.166  0.3015E+01  0.4833E+02
      5.391  0.2595E+01  0.4892E+02
      5.616  0.2638E+01  0.4951E+02
      5.841  0.2840E+01  0.5015E+02
      6.065  0.2886E+01  0.5079E+02
      6.290  0.2986E+01  0.5147E+02
      6.515  0.2959E+01  0.5213E+02
      6.740  0.2981E+01  0.5280E+02
      6.964  0.3089E+01  0.5350E+02
      7.189  0.2874E+01  0.5414E+02
      7.414  0.3318E+01  0.5489E+02
      7.638  0.3001E+01  0.5556E+02
      7.863  0.2779E+01  0.5619E+02
      8.088  0.2843E+01  0.5682E+02
      8.313  0.2205E+01  0.5732E+02
      8.537  0.2551E+01  0.5789E+02
      8.762  0.2798E+01  0.5852E+02
      8.987  0.2583E+01  0.5910E+02
      9.212  0.2649E+01  0.5970E+02
      9.436  0.2812E+01  0.6033E+02
      9.661  0.2735E+01  0.6094E+02
      9.886  0.2711E+01  0.6155E+02
     10.111  0.3075E+01  0.6224E+02
     10.335  0.2707E+01  0.6285E+02
     10.560  0.2717E+01  0.6346E+02
     10.785  0.2767E+01  0.6409E+02
     11.009  0.2577E+01  0.6466E+02
     11.234  0.2557E+01  0.6524E+02
     11.459  0.2321E+01  0.6576E+02
     11.684  0.2180E+01  0.6625E+02
     11.908  0.2152E+01  0.6673E+02
     12.133  0.1970E+01  0.6718E+02
     12.358  0.2045E+01  0.6764E+02
     12.583  0.1777E+01  0.6804E+02
     12.807  0.1845E+01  0.6845E+02
     13.032  0.1717E+01  0.6884E+02
     13.257  0.1539E+01  0.6918E+02
     13.481  0.1507E+01  0.6952E+02
     13.706  0.1312E+01  0.6982E+02
     13.931  0.1406E+01  0.7013E+02
     14.156  0.1417E+01  0.7045E+02
     14.380  0.1164E+01  0.7071E+02
     14.605  0.1070E+01  0.7095E+02
     14.830  0.8519E+00  0.7114E+02
     15.055  0.7048E+00  0.7130E+02
     15.279  0.5366E+00  0.7142E+02
     15.504  0.2865E+00  0.7149E+02
     15.729  0.5689E-01  0.7150E+02
     15.953  0.1456E-05  0.7150E+02
     16.178  0.0000E+00  0.7150E+02
     16.403  0.0000E+00  0.7150E+02
     16.628  0.0000E+00  0.7150E+02
     16.852  0.0000E+00  0.7150E+02
     17.077  0.0000E+00  0.7150E+02
     17.302  0.0000E+00  0.7150E+02
     17.527  0.0000E+00  0.7150E+02
     17.751  0.0000E+00  0.7150E+02
     17.976  0.0000E+00  0.7150E+02
     18.201  0.0000E+00  0.7150E+02
     18.426  0.0000E+00  0.7150E+02
     18.650  0.0000E+00  0.7150E+02
