         322
 Energy:   1337.7967010000000     
 X   0.00000000       0.00000000       0.00000000    
 X   10.5415001       0.00000000       0.00000000    
 X   5.27075005       9.12920666       0.00000000    
 X   0.00000000       0.00000000       29.9414997    
 X   15.8122501       9.12920666       0.00000000    
 X   10.5415001       0.00000000       29.9414997    
 X   5.27075005       9.12920666       29.9414997    
 X   15.8122501       9.12920666       29.9414997    
 Ni   0.00000000       0.00000000       0.00000000    
 Ni   0.00000000       0.00000000       2.10829997    
 Ni   0.00000000       0.00000000       4.21659994    
 Ni   0.00000000       0.00000000       6.32490015    
 Ni   0.00000000       0.00000000       8.43319988    
 Ni   1.05414999       1.82584000       0.00000000    
 Ni   1.05414999       1.82584000       2.10829997    
 Ni   1.05414999       1.82584000       4.21659994    
 Ni   1.05414999       1.82584000       6.32490015    
 Ni   1.05414999       1.82584000       8.43319988    
 Ni   2.10829997       3.65167999       0.00000000    
 Ni   2.10829997       3.65167999       2.10829997    
 Ni   2.10829997       3.65167999       4.21659994    
 Ni   2.10829997       3.65167999       6.32490015    
 Ni   2.10829997       3.65167999       8.43319988    
 Ni   3.16245008       5.47751999       0.00000000    
 Ni   3.16245008       5.47751999       2.10829997    
 Ni   3.16245008       5.47751999       4.21659994    
 Ni   3.16245008       5.47751999       6.32490015    
 Ni   3.16245008       5.47751999       8.43319988    
 Ni   4.21659994       7.30337000       0.00000000    
 Ni   4.21659994       7.30337000       2.10829997    
 Ni   4.21659994       7.30337000       4.21659994    
 Ni   4.21659994       7.30337000       6.32490015    
 Ni   4.21659994       7.30337000       8.43319988    
 Ni   2.10829997       0.00000000       0.00000000    
 Ni   2.10829997       0.00000000       2.10829997    
 Ni   2.10829997       0.00000000       4.21659994    
 Ni   2.10829997       0.00000000       6.32490015    
 Ni   2.10829997       0.00000000       8.43319988    
 Ni   3.16245008       1.82584000       0.00000000    
 Ni   3.16245008       1.82584000       2.10829997    
 Ni   3.16245008       1.82584000       4.21659994    
 Ni   3.16245008       1.82584000       6.32490015    
 Ni   3.16245008       1.82584000       8.43319988    
 Ni   4.21659994       3.65167999       0.00000000    
 Ni   4.21659994       3.65167999       2.10829997    
 Ni   4.21659994       3.65167999       4.21659994    
 Ni   4.21659994       3.65167999       6.32490015    
 Ni   4.21659994       3.65167999       8.43319988    
 Ni   5.27075005       5.47751999       0.00000000    
 Ni   5.27075005       5.47751999       2.10829997    
 Ni   5.27075005       5.47751999       4.21659994    
 Ni   5.27075005       5.47751999       6.32490015    
 Ni   5.27075005       5.47751999       8.43319988    
 Ni   6.32490015       7.30337000       0.00000000    
 Ni   6.32490015       7.30337000       2.10829997    
 Ni   6.32490015       7.30337000       4.21659994    
 Ni   6.32490015       7.30337000       6.32490015    
 Ni   6.32490015       7.30337000       8.43319988    
 Ni   4.21659994       0.00000000       0.00000000    
 Ni   4.21659994       0.00000000       2.10829997    
 Ni   4.21659994       0.00000000       4.21659994    
 Ni   4.21659994       0.00000000       6.32490015    
 Ni   4.21659994       0.00000000       8.43319988    
 Ni   5.27075005       1.82584000       0.00000000    
 Ni   5.27075005       1.82584000       2.10829997    
 Ni   5.27075005       1.82584000       4.21659994    
 Ni   5.27075005       1.82584000       6.32490015    
 Ni   5.27075005       1.82584000       8.43319988    
 Ni   6.32490015       3.65167999       0.00000000    
 Ni   6.32490015       3.65167999       2.10829997    
 Ni   6.32490015       3.65167999       4.21659994    
 Ni   6.32490015       3.65167999       6.32490015    
 Ni   6.32490015       3.65167999       8.43319988    
 Ni   7.37904978       5.47751999       0.00000000    
 Ni   7.37904978       5.47751999       2.10829997    
 Ni   7.37904978       5.47751999       4.21659994    
 Ni   7.37904978       5.47751999       6.32490015    
 Ni   7.37904978       5.47751999       8.43319988    
 Ni   8.43319988       7.30337000       0.00000000    
 Ni   8.43319988       7.30337000       2.10829997    
 Ni   8.43319988       7.30337000       4.21659994    
 Ni   8.43319988       7.30337000       6.32490015    
 Ni   8.43319988       7.30337000       8.43319988    
 Ni   6.32490015       0.00000000       0.00000000    
 Ni   6.32490015       0.00000000       2.10829997    
 Ni   6.32490015       0.00000000       4.21659994    
 Ni   6.32490015       0.00000000       6.32490015    
 Ni   6.32490015       0.00000000       8.43319988    
 Ni   7.37904978       1.82584000       0.00000000    
 Ni   7.37904978       1.82584000       2.10829997    
 Ni   7.37904978       1.82584000       4.21659994    
 Ni   7.37904978       1.82584000       6.32490015    
 Ni   7.37904978       1.82584000       8.43319988    
 Ni   8.43319988       3.65167999       0.00000000    
 Ni   8.43319988       3.65167999       2.10829997    
 Ni   8.43319988       3.65167999       4.21659994    
 Ni   8.43319988       3.65167999       6.32490015    
 Ni   8.43319988       3.65167999       8.43319988    
 Ni   9.48735046       5.47751999       0.00000000    
 Ni   9.48735046       5.47751999       2.10829997    
 Ni   9.48735046       5.47751999       4.21659994    
 Ni   9.48735046       5.47751999       6.32490015    
 Ni   9.48735046       5.47751999       8.43319988    
 Ni   10.5415001       7.30337000       0.00000000    
 Ni   10.5415001       7.30337000       2.10829997    
 Ni   10.5415001       7.30337000       4.21659994    
 Ni   10.5415001       7.30337000       6.32490015    
 Ni   10.5415001       7.30337000       8.43319988    
 Ni   8.43319988       0.00000000       0.00000000    
 Ni   8.43319988       0.00000000       2.10829997    
 Ni   8.43319988       0.00000000       4.21659994    
 Ni   8.43319988       0.00000000       6.32490015    
 Ni   8.43319988       0.00000000       8.43319988    
 Ni   9.48735046       1.82584000       0.00000000    
 Ni   9.48735046       1.82584000       2.10829997    
 Ni   9.48735046       1.82584000       4.21659994    
 Ni   9.48735046       1.82584000       6.32490015    
 Ni   9.48735046       1.82584000       8.43319988    
 Ni   10.5415001       3.65167999       0.00000000    
 Ni   10.5415001       3.65167999       2.10829997    
 Ni   10.5415001       3.65167999       4.21659994    
 Ni   10.5415001       3.65167999       6.32490015    
 Ni   10.5415001       3.65167999       8.43319988    
 Ni   11.5956497       5.47751999       0.00000000    
 Ni   11.5956497       5.47751999       2.10829997    
 Ni   11.5956497       5.47751999       4.21659994    
 Ni   11.5956497       5.47751999       6.32490015    
 Ni   11.5956497       5.47751999       8.43319988    
 Ni   12.6498003       7.30337000       0.00000000    
 Ni   12.6498003       7.30337000       2.10829997    
 Ni   12.6498003       7.30337000       4.21659994    
 Ni   12.6498003       7.30337000       6.32490015    
 Ni   12.6498003       7.30337000       8.43319988    
 O    1.58123004      0.912919998       1.05414999    
 O    1.58123004      0.912919998       3.16245008    
 O    1.58123004      0.912919998       5.27075005    
 O    1.58123004      0.912919998       7.37904978    
 O    1.58123004      0.912919998       9.48735046    
 O    2.63538003       2.73875999       1.05414999    
 O    2.63538003       2.73875999       3.16245008    
 O    2.63538003       2.73875999       5.27075005    
 O    2.63538003       2.73875999       7.37904978    
 O    2.63538003       2.73875999       9.48735046    
 O    3.68952990       4.56459999       1.05414999    
 O    3.68952990       4.56459999       3.16245008    
 O    3.68952990       4.56459999       5.27075005    
 O    3.68952990       4.56459999       7.37904978    
 O    3.68952990       4.56459999       9.48735046    
 O    4.74366999       6.39043999       1.05414999    
 O    4.74366999       6.39043999       3.16245008    
 O    4.74366999       6.39043999       5.27075005    
 O    4.74366999       6.39043999       7.37904978    
 O    4.74366999       6.39043999       9.48735046    
 O    5.79782009       8.21629047       1.05414999    
 O    5.79782009       8.21629047       3.16245008    
 O    5.79782009       8.21629047       5.27075005    
 O    5.79782009       8.21629047       7.37904978    
 O    5.79782009       8.21629047       9.48735046    
 O    3.68952990      0.912919998       1.05414999    
 O    3.68952990      0.912919998       3.16245008    
 O    3.68952990      0.912919998       5.27075005    
 O    3.68952990      0.912919998       7.37904978    
 O    3.68952990      0.912919998       9.48735046    
 O    4.74368000       2.73875999       1.05414999    
 O    4.74368000       2.73875999       3.16245008    
 O    4.74368000       2.73875999       5.27075005    
 O    4.74368000       2.73875999       7.37904978    
 O    4.74368000       2.73875999       9.48735046    
 O    5.79783010       4.56459999       1.05414999    
 O    5.79783010       4.56459999       3.16245008    
 O    5.79783010       4.56459999       5.27075005    
 O    5.79783010       4.56459999       7.37904978    
 O    5.79783010       4.56459999       9.48735046    
 O    6.85198021       6.39043999       1.05414999    
 O    6.85198021       6.39043999       3.16245008    
 O    6.85198021       6.39043999       5.27075005    
 O    6.85198021       6.39043999       7.37904978    
 O    6.85198021       6.39043999       9.48735046    
 O    7.90612984       8.21629047       1.05414999    
 O    7.90612984       8.21629047       3.16245008    
 O    7.90612984       8.21629047       5.27075005    
 O    7.90612984       8.21629047       7.37904978    
 O    7.90612984       8.21629047       9.48735046    
 O    5.79783010      0.912919998       1.05414999    
 O    5.79783010      0.912919998       3.16245008    
 O    5.79783010      0.912919998       5.27075005    
 O    5.79783010      0.912919998       7.37904978    
 O    5.79783010      0.912919998       9.48735046    
 O    6.85198021       2.73875999       1.05414999    
 O    6.85198021       2.73875999       3.16245008    
 O    6.85198021       2.73875999       5.27075005    
 O    6.85198021       2.73875999       7.37904978    
 O    6.85198021       2.73875999       9.48735046    
 O    7.90612984       4.56459999       1.05414999    
 O    7.90612984       4.56459999       3.16245008    
 O    7.90612984       4.56459999       5.27075005    
 O    7.90612984       4.56459999       7.37904978    
 O    7.90612984       4.56459999       9.48735046    
 O    8.96028042       6.39043999       1.05414999    
 O    8.96028042       6.39043999       3.16245008    
 O    8.96028042       6.39043999       5.27075005    
 O    8.96028042       6.39043999       7.37904978    
 O    8.96028042       6.39043999       9.48735046    
 O    10.0144196       8.21629047       1.05414999    
 O    10.0144196       8.21629047       3.16245008    
 O    10.0144196       8.21629047       5.27075005    
 O    10.0144196       8.21629047       7.37904978    
 O    10.0144196       8.21629047       9.48735046    
 O    7.90611982      0.912919998       1.05414999    
 O    7.90611982      0.912919998       3.16245008    
 O    7.90611982      0.912919998       5.27075005    
 O    7.90611982      0.912919998       7.37904978    
 O    7.90611982      0.912919998       9.48735046    
 O    8.96028042       2.73875999       1.05414999    
 O    8.96028042       2.73875999       3.16245008    
 O    8.96028042       2.73875999       5.27075005    
 O    8.96028042       2.73875999       7.37904978    
 O    8.96028042       2.73875999       9.48735046    
 O    10.0144196       4.56459999       1.05414999    
 O    10.0144196       4.56459999       3.16245008    
 O    10.0144196       4.56459999       5.27075005    
 O    10.0144196       4.56459999       7.37904978    
 O    10.0144196       4.56459999       9.48735046    
 O    11.0685701       6.39043999       1.05414999    
 O    11.0685701       6.39043999       3.16245008    
 O    11.0685701       6.39043999       5.27075005    
 O    11.0685701       6.39043999       7.37904978    
 O    11.0685701       6.39043999       9.48735046    
 O    12.1227198       8.21629047       1.05414999    
 O    12.1227198       8.21629047       3.16245008    
 O    12.1227198       8.21629047       5.27075005    
 O    12.1227198       8.21629047       7.37904978    
 O    12.1227198       8.21629047       9.48735046    
 O    10.0144196      0.912919998       1.05414999    
 O    10.0144196      0.912919998       3.16245008    
 O    10.0144196      0.912919998       5.27075005    
 O    10.0144196      0.912919998       7.37904978    
 O    10.0144196      0.912919998       9.48735046    
 O    11.0685701       2.73875999       1.05414999    
 O    11.0685701       2.73875999       3.16245008    
 O    11.0685701       2.73875999       5.27075005    
 O    11.0685701       2.73875999       7.37904978    
 O    11.0685701       2.73875999       9.48735046    
 O    12.1227198       4.56459999       1.05414999    
 O    12.1227198       4.56459999       3.16245008    
 O    12.1227198       4.56459999       5.27075005    
 O    12.1227198       4.56459999       7.37904978    
 O    12.1227198       4.56459999       9.48735046    
 O    13.1768703       6.39043999       1.05414999    
 O    13.1768703       6.39043999       3.16245008    
 O    13.1768703       6.39043999       5.27075005    
 O    13.1768703       6.39043999       7.37904978    
 O    13.1768703       6.39043999       9.48735046    
 O    14.2310200       8.21629047       1.05414999    
 O    14.2310200       8.21629047       3.16245008    
 O    14.2310200       8.21629047       5.27075005    
 O    14.2310200       8.21629047       7.37904978    
 O    14.2310200       8.21629047       9.48735046    
 O    0.00000000       0.00000000       10.8873501    
 O   0.658840001       1.14115000       10.8873501    
 O    1.31769001       2.28230000       10.8873501    
 O    1.97652996       3.42344999       10.8873501    
 O    2.63538003       4.56459999       10.8873501    
 O    3.29421997       5.70574999       10.8873501    
 O    3.95305991       6.84691000       10.8873501    
 O    4.61190987       7.98806000       10.8873501    
 O    1.31769001       0.00000000       10.8873501    
 O    1.97652996       1.14115000       10.8873501    
 O    2.63538003       2.28230000       10.8873501    
 O    3.29421997       3.42344999       10.8873501    
 O    3.95305991       4.56459999       10.8873501    
 O    4.61190987       5.70574999       10.8873501    
 O    5.27075005       6.84691000       10.8873501    
 O    5.92959023       7.98806000       10.8873501    
 O    2.63538003       0.00000000       10.8873501    
 O    3.29421997       1.14115000       10.8873501    
 O    3.95305991       2.28230000       10.8873501    
 O    4.61190987       3.42344999       10.8873501    
 O    5.27075005       4.56459999       10.8873501    
 O    5.92959023       5.70574999       10.8873501    
 O    6.58843994       6.84691000       10.8873501    
 O    7.24728012       7.98806000       10.8873501    
 O    3.95305991       0.00000000       10.8873501    
 O    4.61190987       1.14115000       10.8873501    
 O    5.27075005       2.28230000       10.8873501    
 O    5.92959023       3.42344999       10.8873501    
 O    6.58843994       4.56459999       10.8873501    
 O    7.24728012       5.70574999       10.8873501    
 O    7.90612984       6.84691000       10.8873501    
 O    8.56497002       7.98806000       10.8873501    
 O    5.27075005       0.00000000       10.8873501    
 O    5.92959023       1.14115000       10.8873501    
 O    6.58843994       2.28230000       10.8873501    
 O    7.24728012       3.42344999       10.8873501    
 O    7.90612984       4.56459999       10.8873501    
 O    8.56497002       5.70574999       10.8873501    
 O    9.22381020       6.84691000       10.8873501    
 O    9.88265991       7.98806000       10.8873501    
 O    6.58843994       0.00000000       10.8873501    
 O    7.24728012       1.14115000       10.8873501    
 O    7.90612984       2.28230000       10.8873501    
 O    8.56497002       3.42344999       10.8873501    
 O    9.22381020       4.56459999       10.8873501    
 O    9.88265991       5.70574999       10.8873501    
 O    10.5415001       6.84691000       10.8873501    
 O    11.2003403       7.98806000       10.8873501    
 O    7.90612984       0.00000000       10.8873501    
 O    8.56497002       1.14115000       10.8873501    
 O    9.22381020       2.28230000       10.8873501    
 O    9.88265991       3.42344999       10.8873501    
 O    10.5415001       4.56459999       10.8873501    
 O    11.2003403       5.70574999       10.8873501    
 O    11.8591900       6.84691000       10.8873501    
 O    12.5180302       7.98806000       10.8873501    
 O    9.22381020       0.00000000       10.8873501    
 O    9.88265991       1.14115000       10.8873501    
 O    10.5415001       2.28230000       10.8873501    
 O    11.2003403       3.42344999       10.8873501    
 O    11.8591900       4.56459999       10.8873501    
 O    12.5180302       5.70574999       10.8873501    
 O    13.1768799       6.84691000       10.8873501    
 O    13.8357201       7.98806000       10.8873501    
         322
 Energy:   1032.1910364000000     
 X   0.00000000       0.00000000       0.00000000    
 X   10.5415001       0.00000000       0.00000000    
 X   5.27075005       9.12920666       0.00000000    
 X   0.00000000       0.00000000       29.9414997    
 X   15.8122501       9.12920666       0.00000000    
 X   10.5415001       0.00000000       29.9414997    
 X   5.27075005       9.12920666       29.9414997    
 X   15.8122501       9.12920666       29.9414997    
 Ni   0.00000000      -0.00000000     -0.559340000    
 Ni   0.00000000      -0.00000000       2.06939006    
 Ni   0.00000000      -0.00000000       4.23277998    
 Ni   0.00000000      -0.00000000       6.31719017    
 Ni   0.00000000      -0.00000000       8.54633999    
 Ni   1.02859998       1.81295002     -0.550620019    
 Ni   1.04751003       1.82201004       2.08803010    
 Ni   1.05286002       1.82790995       4.22277021    
 Ni   1.05294001       1.82818997       6.32825994    
 Ni   1.05249000       1.83995998       8.54067993    
 Ni   2.09897995       3.63729000     -0.578909993    
 Ni   2.10895991       3.65015006       2.11959004    
 Ni   2.11285996       3.65749002       4.22691011    
 Ni   2.10988998       3.64787006       6.32921982    
 Ni   2.12175012       3.64903998       8.52511978    
 Ni   3.17177010       5.49191999     -0.578909993    
 Ni   3.16178989       5.47906017       2.11959004    
 Ni   3.15789008       5.47172022       4.22691011    
 Ni   3.16086006       5.48133993       6.32921982    
 Ni   3.14899993       5.48016977       8.52511978    
 Ni   4.24214983       7.31625986     -0.550620019    
 Ni   4.22323990       7.30719995       2.08803010    
 Ni   4.21788979       7.30130005       4.22277021    
 Ni   4.21781015       7.30101013       6.32825994    
 Ni   4.21825981       7.28924990       8.54067993    
 Ni   2.08435988      -1.56800002E-02 -0.550620019    
 Ni   2.10166001      -3.83000006E-03   2.08803010    
 Ni   2.10945010      -2.15000007E-03   4.22277021    
 Ni   2.10974002      -2.21999991E-03   6.32825994    
 Ni   2.11969995      -8.50000046E-03   8.54067993    
 Ni   3.14278007       1.81448996     -0.572690010    
 Ni   3.16154003       1.82532001       2.10918999    
 Ni   3.16817999       1.82914996       4.22348022    
 Ni   3.16094995       1.82498002       6.33646011    
 Ni   3.17384005       1.83241999       8.52602005    
 Ni   4.22569990       3.66033006     -0.582880020    
 Ni   4.21412992       3.65232992       2.12636995    
 Ni   4.21506977       3.65418005       4.21974993    
 Ni   4.21511984       3.65376997       6.33287001    
 Ni   4.21735001       3.63862991       8.53194046    
 Ni   5.31835985       5.48231983     -0.567430019    
 Ni   5.28142977       5.47855997       2.08999991    
 Ni   5.27460003       5.47387981       4.22762012    
 Ni   5.27287006       5.47799015       6.33001995    
 Ni   5.27447987       5.47310019       8.52939034    
 Ni   6.33494997       7.28596020     -0.560360014    
 Ni   6.32695007       7.29981995       2.07391000    
 Ni   6.32669020       7.30026007       4.23252010    
 Ni   6.32807016       7.29788017       6.32711983    
 Ni   6.33472013       7.28635979       8.54339981    
 Ni   4.19947004      -8.80000007E-04 -0.578909993    
 Ni   4.21560001       1.33999996E-03   2.11959004    
 Ni   4.22390985       1.04000000E-03   4.22691011    
 Ni   4.21408987       3.28999991E-03   6.32921982    
 Ni   4.22103024       1.29699996E-02   8.52511978    
 Ni   5.28278017       1.82939994     -0.582880020    
 Ni   5.27007008       1.82337999       2.12636995    
 Ni   5.27214003       1.82326996       4.21974993    
 Ni   5.27182007       1.82351005       6.33287001    
 Ni   5.25981998       1.83300996       8.53194046    
 Ni   6.39373016       3.69142008     -0.569999993    
 Ni   6.33829021       3.65941000       2.08344007    
 Ni   6.33289003       3.65630007       4.22795010    
 Ni   6.32982016       3.65453005       6.32830000    
 Ni   6.33527994       3.65768003       8.52388954    
 Ni   7.39943981       5.44221020     -0.625980020    
 Ni   7.38268995       5.47122002       2.06927991    
 Ni   7.38190985       5.47257996       4.23448992    
 Ni   7.37950993       5.47672987       6.32871008    
 Ni   7.37601995       5.48276997       8.51955986    
 Ni   8.40524960       7.26453018     -0.567430019    
 Ni   8.42695999       7.29463005       2.08999991    
 Ni   8.43443012       7.29821014       4.22762012    
 Ni   8.43173981       7.30176020       6.33001995    
 Ni   8.43515968       7.29792023       8.52939034    
 Ni   6.34203005       8.80000007E-04 -0.578909993    
 Ni   6.32590008      -1.33999996E-03   2.11959004    
 Ni   6.31759977      -1.04000000E-03   4.22691011    
 Ni   6.32741022      -3.28999991E-03   6.32921982    
 Ni   6.32046986      -1.29699996E-02   8.52511978    
 Ni   7.40700006       1.86467004     -0.567430019    
 Ni   7.38529015       1.83457994       2.08999991    
 Ni   7.37782001       1.83099997       4.22762012    
 Ni   7.38050985       1.82745004       6.33001995    
 Ni   7.37708998       1.83127999       8.52939034    
 Ni   8.41281033       3.68700004     -0.625980020    
 Ni   8.42955971       3.65797997       2.06927991    
 Ni   8.43033981       3.65663004       4.23448992    
 Ni   8.43274021       3.65247989       6.32871008    
 Ni   8.43622971       3.64644003       8.51955986    
 Ni   9.41853046       5.43778992     -0.569999993    
 Ni   9.47395992       5.46978998       2.08344007    
 Ni   9.47935963       5.47290993       4.22795010    
 Ni   9.48243046       5.47467995       6.32830000    
 Ni   9.47696972       5.47152996       8.52388954    
 Ni   10.5294704       7.29980993     -0.582880020    
 Ni   10.5421801       7.30581999       2.12636995    
 Ni   10.5401096       7.30594015       4.21974993    
 Ni   10.5404301       7.30568981       6.33287001    
 Ni   10.5524302       7.29618979       8.53194046    
 Ni   8.45713997       1.56800002E-02 -0.550620019    
 Ni   8.43984032       3.83000006E-03   2.08803010    
 Ni   8.43204975       2.15000007E-03   4.22277021    
 Ni   8.43175983       2.21999991E-03   6.32825994    
 Ni   8.42179966       8.50000046E-03   8.54067993    
 Ni   9.47729969       1.84324002     -0.560360014    
 Ni   9.48530006       1.82939005       2.07391000    
 Ni   9.48556042       1.82895005       4.23252010    
 Ni   9.48418045       1.83132994       6.32711983    
 Ni   9.47752953       1.84284997       8.54339981    
 Ni   10.4938898       3.64688993     -0.567430019    
 Ni   10.5308199       3.65065002       2.08999991    
 Ni   10.5376501       3.65532994       4.22762012    
 Ni   10.5393801       3.65122008       6.33001995    
 Ni   10.5377703       3.65610003       8.52939034    
 Ni   11.5865498       5.46888018     -0.582880020    
 Ni   11.5981197       5.47688007       2.12636995    
 Ni   11.5971804       5.47502995       4.21974993    
 Ni   11.5971298       5.47543001       6.33287001    
 Ni   11.5949097       5.49058008       8.53194046    
 Ni   12.6694698       7.31472015     -0.572690010    
 Ni   12.6507101       7.30389023       2.10918999    
 Ni   12.6440697       7.30005980       4.22348022    
 Ni   12.6513004       7.30423021       6.33646011    
 Ni   12.6384096       7.29679012       8.52602005    
 O    1.57866001      0.911440015      0.987709999    
 O    1.58380997      0.914409995       3.18086004    
 O    1.57845998      0.911319971       5.27822018    
 O    1.58454001      0.914839983       7.37628984    
 O    1.57041001      0.906679988       9.38685036    
 O    2.63230991       2.73220992      0.991289973    
 O    2.63670993       2.74161005       3.18645000    
 O    2.63431001       2.74190998       5.26897001    
 O    2.63963008       2.73370004       7.38802004    
 O    2.63312006       2.73323011       9.36598015    
 O    3.69060993       4.56503010      0.984440029    
 O    3.68577003       4.56617022       3.18684006    
 O    3.68758011       4.56654978       5.26812983    
 O    3.69320011       4.56067991       7.38310003    
 O    3.68881989       4.55909014       9.41851044    
 O    4.74237013       6.40201998      0.987789989    
 O    4.74153996       6.38687992       3.18411994    
 O    4.74546003       6.38781977       5.27631998    
 O    4.74667978       6.38812017       7.38489008    
 O    4.73945999       6.38226986       9.33283997    
 O    5.80048990       8.21166992       1.00972998    
 O    5.79926014       8.21378994       3.18254995    
 O    5.79615021       8.21918011       5.26841021    
 O    5.80223989       8.20862961       7.36831999    
 O    5.80600023       8.20213032       9.42383003    
 O    3.68232012      0.913540006      0.991289973    
 O    3.69266009      0.912660003       3.18645000    
 O    3.69172001      0.910430014       5.26897001    
 O    3.68726993      0.919139981       7.38802004    
 O    3.68360996      0.913739979       9.36598015    
 O    4.74133015       2.73741007      0.980490029    
 O    4.74401999       2.73896003       3.18260002    
 O    4.74456978       2.73927999       5.27079010    
 O    4.74257994       2.73813009       7.39118004    
 O    4.75260019       2.74392009       9.32841969    
 O    5.80152988       4.57158995       1.00369000    
 O    5.79722977       4.56276989       3.18776989    
 O    5.80073023       4.56376982       5.27180004    
 O    5.79799986       4.56802988       7.38914013    
 O    5.79659986       4.56701994       9.34438038    
 O    6.83538008       6.41917992       1.05572999    
 O    6.85734987       6.38114023       3.17054009    
 O    6.85200024       6.39039993       5.27125978    
 O    6.85280991       6.38898993       7.38613987    
 O    6.85441017       6.38621998       9.35723019    
 O    7.89674997       8.22321033      0.987789989    
 O    7.91028023       8.21634960       3.18411994    
 O    7.90749979       8.21343040       5.27631998    
 O    7.90663004       8.21253014       7.38489008    
 O    7.91530991       8.21584988       9.33283997    
 O    5.79873991      0.913640022      0.984440029    
 O    5.79730988      0.908879995       3.18684006    
 O    5.79854012      0.910269976       5.26812983    
 O    5.79625988      0.918070018       7.38310003    
 O    5.79268980      0.915069997       9.41851044    
 O    6.85987997       2.73848009       1.00369000    
 O    6.85009003       2.73917007       3.18776989    
 O    6.85270023       2.74168992       5.27180004    
 O    6.85504007       2.73720002       7.38914013    
 O    6.85344982       2.73649001       9.34438038    
 O    7.90612984       4.56459999       1.08889997    
 O    7.90612984       4.56459999       3.16577005    
 O    7.90612984       4.56459999       5.27421999    
 O    7.90612984       4.56459999       7.38025999    
 O    7.90612984       4.56459999       9.44248009    
 O    8.95236969       6.39072990       1.00369000    
 O    8.96216011       6.39003992       3.18776989    
 O    8.95954990       6.38750982       5.27180004    
 O    8.95720959       6.39201021       7.38914013    
 O    8.95880032       6.39272022       9.34438038    
 O    10.0135098       8.21555996      0.984440029    
 O    10.0149403       8.22031975       3.18684006    
 O    10.0137100       8.21893978       5.26812983    
 O    10.0159903       8.21113968       7.38310003    
 O    10.0195599       8.21413994       9.41851044    
 O    7.91550016      0.906000018      0.987789989    
 O    7.90196991      0.912859976       3.18411994    
 O    7.90474987      0.915780008       5.27631998    
 O    7.90562010      0.916679978       7.38489008    
 O    7.89694023      0.913360000       9.33283997    
 O    8.97686958       2.71003008       1.05572999    
 O    8.95489979       2.74807000       3.17054009    
 O    8.96024990       2.73880005       5.27125978    
 O    8.95944023       2.74021006       7.38613987    
 O    8.95783997       2.74298000       9.35723019    
 O    10.0107203       4.55762005       1.00369000    
 O    10.0150204       4.56644011       3.18776989    
 O    10.0115204       4.56544018       5.27180004    
 O    10.0142498       4.56117010       7.38914013    