       N       E                     dE             d eps       ncg     rms          rms(c)
DAV:   1     0.390431093522E+05    0.39043E+05   -0.10815E+06  8660   0.159E+03
DAV:   2     0.693340552719E+04   -0.32110E+05   -0.29589E+05  9046   0.602E+02
DAV:   3     0.140076781808E+04   -0.55326E+04   -0.50654E+04 10592   0.283E+02
DAV:   4     0.795499968037E+03   -0.60527E+03   -0.56058E+03 12560   0.933E+01
DAV:   5     0.765382410841E+03   -0.30118E+02   -0.28834E+02 13248   0.202E+01    0.144E+03
DAV:   6    -0.492990396429E+03   -0.12584E+04   -0.92350E+02 15712   0.221E+02    0.144E+03
DAV:   7    -0.874264049495E+04   -0.82497E+04   -0.67320E+04 15374   0.615E+02    0.439E+03
DAV:   8    -0.166770077851E+05   -0.79344E+04   -0.30655E+04 12488   0.252E+02    0.447E+03
DAV:   9    -0.159646726417E+05    0.71234E+03   -0.89047E+03 11496   0.157E+02    0.436E+03
DAV:  10    -0.172064441835E+05   -0.12418E+04   -0.19155E+03 10760   0.146E+02    0.432E+03
DAV:  11     0.468077894198E+03    0.17675E+05   -0.85745E+04 14700   0.464E+02    0.302E+03
DAV:  12    -0.126200544380E+04   -0.17301E+04   -0.28748E+04 10440   0.253E+02    0.151E+03
DAV:  13    -0.597870315075E+04   -0.47167E+04   -0.18186E+04 13760   0.579E+02    0.345E+03
DAV:  14    -0.928782876158E+04   -0.33091E+04   -0.36331E+04 14046   0.401E+02    0.327E+03
DAV:  15     0.208982245574E+03    0.94968E+04   -0.46084E+04 14012   0.412E+02    0.151E+03
DAV:  16    -0.151753746170E+04   -0.17265E+04   -0.16587E+04 10864   0.170E+02    0.102E+03
DAV:  17    -0.206043455180E+04   -0.54290E+03   -0.20947E+03 12536   0.285E+02    0.824E+02
DAV:  18    -0.275779632095E+03    0.17847E+04   -0.35267E+03 11416   0.131E+02    0.755E+02
DAV:  19    -0.192842229437E+02    0.25650E+03   -0.10967E+03 12960   0.100E+02    0.669E+02
DAV:  20    -0.555993723776E+02   -0.36315E+02   -0.27871E+02 10368   0.892E+01    0.674E+02
DAV:  21    -0.323352327263E+02    0.23264E+02   -0.14677E+02 10392   0.619E+01    0.704E+02
DAV:  22    -0.413836163199E+02   -0.90484E+01   -0.88088E+01 10032   0.341E+01    0.729E+02
DAV:  23    -0.359367864141E+02    0.54468E+01   -0.41578E+01  9720   0.267E+01    0.738E+02
DAV:  24     0.198318453524E+02    0.55769E+02   -0.45656E+01  9552   0.369E+01    0.751E+02
DAV:  25     0.346256805828E+03    0.32642E+03   -0.18146E+02 10536   0.784E+01    0.721E+02
DAV:  26     0.579383812835E+03    0.23313E+03   -0.77593E+01 10464   0.433E+01    0.702E+02
DAV:  27     0.663925883612E+03    0.84542E+02   -0.56199E+01  9824   0.323E+01    0.673E+02
DAV:  28     0.719585545337E+03    0.55660E+02   -0.57511E+01  9264   0.294E+01    0.660E+02
DAV:  29     0.752343150051E+03    0.32758E+02   -0.37048E+01  9408   0.222E+01    0.644E+02
DAV:  30     0.800046161126E+03    0.47703E+02   -0.30662E+01  9864   0.257E+01    0.610E+02
DAV:  31     0.835103878281E+03    0.35058E+02   -0.25504E+01  9504   0.183E+01    0.592E+02
DAV:  32     0.869619025919E+03    0.34515E+02   -0.24482E+01  9496   0.177E+01    0.582E+02
DAV:  33     0.919366815735E+03    0.49748E+02   -0.18307E+01  9928   0.151E+01    0.558E+02
DAV:  34     0.967278794058E+03    0.47912E+02   -0.27782E+01  9328   0.170E+01    0.540E+02
DAV:  35     0.101086185525E+04    0.43583E+02   -0.31853E+01  9504   0.210E+01    0.520E+02
DAV:  36     0.101803503905E+04    0.71732E+01   -0.31562E+01 10864   0.170E+01    0.514E+02
DAV:  37     0.101454975580E+04   -0.34853E+01   -0.19078E+01  9304   0.955E+00    0.519E+02
DAV:  38     0.101808535714E+04    0.35356E+01   -0.45391E+00  9152   0.575E+00    0.503E+02
DAV:  39     0.104140908069E+04    0.23324E+02   -0.58096E+00 11072   0.105E+01    0.446E+02
DAV:  40     0.108330496692E+04    0.41896E+02   -0.27701E+01  9336   0.166E+01    0.379E+02
DAV:  41     0.113256262111E+04    0.49258E+02   -0.40098E+01  9688   0.183E+01    0.292E+02
DAV:  42     0.114619146339E+04    0.13629E+02   -0.22486E+01  9608   0.135E+01    0.277E+02
DAV:  43     0.114512683569E+04   -0.10646E+01   -0.73225E+00 10632   0.508E+00    0.281E+02
DAV:  44     0.114600480963E+04    0.87797E+00   -0.10216E+00  9600   0.317E+00    0.280E+02
DAV:  45     0.115707372082E+04    0.11069E+02   -0.32059E+00 11536   0.114E+01    0.263E+02
DAV:  46     0.117163721934E+04    0.14563E+02   -0.75817E+00 12288   0.116E+01    0.247E+02
DAV:  47     0.118022115031E+04    0.85839E+01   -0.11036E+01 10896   0.144E+01    0.232E+02
DAV:  48     0.119627350858E+04    0.16052E+02   -0.13895E+01  9616   0.149E+01    0.197E+02
DAV:  49     0.120341204690E+04    0.71385E+01   -0.64574E+00  9960   0.964E+00    0.175E+02
DAV:  50     0.121179475338E+04    0.83827E+01   -0.50959E+00 10912   0.826E+00    0.159E+02
DAV:  51     0.111843753348E+04   -0.93357E+02   -0.72144E+01 15512   0.716E+01    0.286E+02
DAV:  52     0.116792591737E+04    0.49488E+02   -0.72254E+01 10888   0.337E+01    0.241E+02
DAV:  53     0.118215485464E+04    0.14229E+02   -0.24437E+01  9328   0.261E+01    0.215E+02
DAV:  54     0.118684731138E+04    0.46925E+01   -0.34280E+01  9288   0.321E+01    0.207E+02
DAV:  55     0.120234641167E+04    0.15499E+02   -0.31796E+01  9680   0.315E+01    0.195E+02
DAV:  56     0.115321165477E+04   -0.49135E+02   -0.39841E+01 11552   0.467E+01    0.290E+02
DAV:  57     0.120410216711E+04    0.50891E+02   -0.23042E+01 11336   0.268E+01    0.209E+02
DAV:  58     0.119998892342E+04   -0.41132E+01   -0.16613E+01 10168   0.263E+01    0.204E+02
DAV:  59     0.120491749693E+04    0.49286E+01   -0.12129E+01 10672   0.136E+01    0.190E+02
DAV:  60     0.120429310104E+04   -0.62440E+00   -0.74548E+00 11304   0.406E+00
   1 F= 0.10707895E+04 E0= 0.10708784E+04  d E =0.107079E+04
       N       E                     dE             d eps       ncg     rms          rms(c)
DAV:   1     0.185852034497E+04    0.65360E+03   -0.88058E+04 11820   0.466E+02    0.120E+03
DAV:   2    -0.992202614123E+05   -0.10108E+06   -0.90299E+05 16562   0.200E+03    0.127E+04
DAV:   3    -0.873900307388E+05    0.11830E+05   -0.13040E+05 14194   0.717E+02    0.990E+03
DAV:   4    -0.620121884112E+04    0.81189E+05   -0.10256E+05 13218   0.436E+02    0.422E+03
DAV:   5    -0.452839187669E+04    0.16728E+04   -0.51834E+05 16754   0.737E+02    0.385E+03
DAV:   6    -0.189396430207E+05   -0.14411E+05   -0.13676E+05 13782   0.562E+02    0.291E+03
DAV:   7     0.248252977599E+04    0.21422E+05   -0.88407E+04 12420   0.397E+02    0.179E+03
DAV:   8     0.409168642359E+02   -0.24416E+04   -0.31947E+04 10976   0.635E+02    0.174E+03
DAV:   9    -0.260633197686E+04   -0.26472E+04   -0.19762E+04 13224   0.288E+02    0.208E+03
DAV:  10    -0.582352338395E+04   -0.32172E+04   -0.11083E+04 12688   0.255E+02    0.230E+03
DAV:  11    -0.589148151990E+04   -0.67958E+02   -0.32087E+03 11960   0.826E+01    0.217E+03
DAV:  12    -0.521304421990E+04    0.67844E+03   -0.37799E+02 11224   0.385E+01    0.202E+03
DAV:  13    -0.361355267424E+04    0.15995E+04   -0.11093E+03 12720   0.156E+02    0.188E+03
DAV:  14    -0.433375266957E+04   -0.72020E+03   -0.13634E+03 13152   0.525E+01    0.195E+03
DAV:  15    -0.387469255328E+04    0.45906E+03   -0.36829E+02 11696   0.339E+01    0.187E+03
DAV:  16    -0.369531037962E+04    0.17938E+03   -0.35470E+02 12016   0.498E+01    0.181E+03
DAV:  17    -0.341385181617E+04    0.28146E+03   -0.18878E+03 13104   0.103E+02    0.142E+03
DAV:  18    -0.191563824212E+04    0.14982E+04   -0.13875E+03 12596   0.983E+01    0.104E+03
DAV:  19    -0.953851469738E+03    0.96179E+03   -0.14552E+03 12848   0.107E+02    0.827E+02
DAV:  20    -0.110947570727E+04   -0.15562E+03   -0.10734E+03 13360   0.765E+01    0.813E+02
DAV:  21    -0.765273805017E+03    0.34420E+03   -0.49751E+02 10672   0.672E+01    0.786E+02
DAV:  22    -0.438230046610E+03    0.32704E+03   -0.19751E+02 11304   0.473E+01    0.650E+02
DAV:  23     0.704598182421E+02    0.50869E+03   -0.41598E+02 13464   0.145E+02    0.631E+02
DAV:  24     0.177777370946E+03    0.10732E+03   -0.22348E+02 12984   0.630E+01    0.547E+02
DAV:  25     0.390305606851E+03    0.21253E+03   -0.11022E+02 10960   0.716E+01    0.471E+02
DAV:  26     0.314809929238E+03   -0.75496E+02   -0.94382E+01 10328   0.643E+01    0.471E+02
DAV:  27     0.420037249176E+03    0.10523E+03   -0.85857E+01  9392   0.525E+01    0.465E+02
DAV:  28     0.444054256158E+03    0.24017E+02   -0.59541E+01  9568   0.176E+01    0.447E+02
DAV:  29     0.456069331483E+03    0.12015E+02   -0.18365E+01  9472   0.248E+01    0.444E+02
DAV:  30     0.450081515958E+03   -0.59878E+01   -0.29495E+01  9992   0.317E+01    0.413E+02
DAV:  31     0.569830785408E+03    0.11975E+03   -0.69943E+01 10296   0.563E+01    0.354E+02
DAV:  32     0.622906277177E+03    0.53075E+02   -0.73410E+01  9808   0.403E+01    0.335E+02
DAV:  33     0.626198104144E+03    0.32918E+01   -0.55507E+01  9592   0.295E+01    0.327E+02
DAV:  34     0.615719741729E+03   -0.10478E+02   -0.24637E+01  9864   0.253E+01    0.325E+02
DAV:  35     0.594792818174E+03   -0.20927E+02   -0.28682E+01  9872   0.278E+01    0.331E+02
DAV:  36     0.577304118761E+03   -0.17489E+02   -0.22595E+01 10384   0.212E+01    0.342E+02
DAV:  37     0.546285466695E+03   -0.31019E+02   -0.29703E+01  9456   0.223E+01    0.350E+02
DAV:  38     0.554651326525E+03    0.83659E+01   -0.32496E+01 10432   0.156E+01    0.350E+02
DAV:  39     0.525794512983E+03   -0.28857E+02   -0.21122E+01  9136   0.197E+01    0.362E+02
DAV:  40     0.564316461931E+03    0.38522E+02   -0.65233E+03  8948   0.715E+02    0.369E+02
DAV:  41     0.503090097404E+03   -0.61226E+02   -0.14151E+02  9908   0.191E+01    0.380E+02
DAV:  42     0.519217816323E+03    0.16128E+02   -0.75613E+00  9064   0.702E+00    0.373E+02
DAV:  43    -0.803678491294E+05   -0.80887E+05   -0.69620E+05 17072   0.319E+02    0.511E+03
DAV:  44     0.963335349149E+03    0.81331E+05   -0.47968E+04  8866   0.201E+02    0.355E+02
DAV:  45     0.531277220165E+03   -0.43206E+03   -0.31903E+03 10186   0.952E+01    0.359E+02
DAV:  46     0.491380081348E+03   -0.39897E+02   -0.59041E+02 10160   0.570E+01    0.395E+02
DAV:  47     0.324703093786E+02   -0.45891E+03   -0.31508E+02 10088   0.929E+01    0.563E+02
DAV:  48     0.319276869204E+02   -0.54262E+00   -0.20959E+02 11184   0.269E+01    0.600E+02
DAV:  49     0.292919945978E+02   -0.26357E+01   -0.54607E+01 11336   0.133E+01    0.599E+02
DAV:  50     0.297544689748E+03    0.26825E+03   -0.35797E+01  9856   0.330E+01    0.538E+02
DAV:  51     0.425437065802E+03    0.12789E+03   -0.37916E+01 10552   0.220E+01    0.503E+02
DAV:  52     0.174324041095E+03   -0.25111E+03   -0.17428E+03 15664   0.133E+02    0.722E+02
DAV:  53     0.818936012851E+03    0.64461E+03   -0.50987E+02 13168   0.105E+02    0.310E+02
DAV:  54     0.874302124558E+03    0.55366E+02   -0.25397E+02 11120   0.789E+01    0.279E+02
DAV:  55     0.859996582578E+03   -0.14306E+02   -0.17501E+02  9304   0.818E+01    0.276E+02
DAV:  56     0.884026682906E+03    0.24030E+02   -0.15511E+02 10592   0.596E+01    0.274E+02
DAV:  57     0.745822668914E+03   -0.13820E+03   -0.23964E+02  9400   0.105E+02    0.265E+02
DAV:  58     0.835335209330E+03    0.89513E+02   -0.15955E+02  9216   0.998E+01    0.267E+02
DAV:  59     0.858501186413E+03    0.23166E+02   -0.65673E+01  9128   0.524E+01    0.285E+02
DAV:  60     0.903699406408E+03    0.45198E+02   -0.62331E+01  9388   0.446E+01
   2 F= 0.77520777E+03 E0= 0.77528532E+03  d E =-.295582E+03
       N       E                     dE             d eps       ncg     rms          rms(c)
DAV:   1     0.930593670106E+03    0.72092E+02   -0.49920E+01  9480   0.317E+01    0.222E+02
DAV:   2     0.237353105592E+02   -0.90686E+03   -0.95102E+02 13200   0.215E+02    0.750E+02
DAV:   3    -0.177158767522E+03   -0.20089E+03   -0.49051E+02 12288   0.232E+02    0.492E+02
DAV:   4     0.719398454337E+03    0.89656E+03   -0.22447E+02 12336   0.223E+02    0.420E+02
DAV:   5     0.778751770085E+03    0.59353E+02   -0.24705E+02 11600   0.675E+01    0.343E+02
DAV:   6    -0.118785118765E+04   -0.19666E+04   -0.36748E+02 11472   0.219E+02    0.875E+02
DAV:   7    -0.760836929256E+03    0.42701E+03   -0.19033E+02 11152   0.260E+01    0.803E+02
DAV:   8    -0.700451293786E+03    0.60386E+02   -0.34601E+01 10000   0.157E+01    0.810E+02
DAV:   9    -0.665744921189E+03    0.34706E+02   -0.21107E+01 10192   0.198E+01    0.804E+02
DAV:  10    -0.503068423926E+03    0.16268E+03   -0.26339E+01 12584   0.157E+01    0.741E+02
DAV:  11    -0.380183873174E+03    0.12288E+03   -0.31762E+01 10504   0.260E+01    0.741E+02
DAV:  12    -0.410597360773E+03   -0.30413E+02   -0.16766E+01 10288   0.134E+01    0.739E+02
DAV:  13    -0.228930874664E+03    0.18167E+03   -0.30569E+01 13352   0.294E+01    0.639E+02
DAV:  14     0.108190716478E+03    0.33712E+03   -0.41886E+01 13344   0.356E+01    0.561E+02
DAV:  15     0.222066595688E+03    0.11388E+03   -0.31066E+01 14128   0.220E+01    0.533E+02
DAV:  16     0.438016910550E+03    0.21595E+03   -0.25179E+01 13024   0.236E+01    0.440E+02
DAV:  17     0.598785262492E+03    0.16077E+03   -0.15319E+02 12648   0.684E+01    0.366E+02
DAV:  18     0.791605501300E+03    0.19282E+03   -0.23242E+02 14208   0.792E+01    0.213E+02
DAV:  19     0.898261343508E+03    0.10666E+03   -0.18352E+02 13488   0.636E+01    0.204E+02
DAV:  20     0.913403483850E+03    0.15142E+02   -0.11846E+02 11328   0.462E+01    0.222E+02
DAV:  21     0.931675004281E+03    0.18272E+02   -0.61111E+01  9248   0.339E+01    0.209E+02
DAV:  22     0.941625271226E+03    0.99503E+01   -0.37274E+01 10776   0.304E+01    0.212E+02
DAV:  23     0.947203868771E+03    0.55786E+01   -0.16649E+01 11968   0.110E+01    0.209E+02
DAV:  24     0.942564189067E+03   -0.46397E+01   -0.89926E+00 10672   0.145E+01    0.202E+02
DAV:  25     0.948819913846E+03    0.62557E+01   -0.36835E+00  9432   0.836E+00    0.199E+02
DAV:  26     0.948547977176E+03   -0.27194E+00   -0.21933E+00 10792   0.239E+00    0.199E+02
DAV:  27     0.948457514769E+03   -0.90462E-01   -0.19540E-01 13664   0.551E-01    0.199E+02
DAV:  28     0.949309958638E+03    0.85244E+00   -0.22189E-01 14824   0.190E+00    0.197E+02
DAV:  29     0.949489545680E+03    0.17959E+00   -0.10774E+00 11440   0.517E+00    0.196E+02
DAV:  30     0.952454100320E+03    0.29646E+01   -0.10987E+00 10064   0.550E+00    0.196E+02
DAV:  31     0.959028660945E+03    0.65746E+01   -0.51288E+00  9880   0.101E+01    0.192E+02
DAV:  32     0.958823942435E+03   -0.20472E+00   -0.19450E+00  9648   0.218E+00    0.191E+02
DAV:  33     0.958696114456E+03   -0.12783E+00   -0.12805E-01 13480   0.439E-01    0.191E+02
DAV:  34     0.953844335159E+03   -0.48518E+01   -0.15744E+00 11832   0.719E+00    0.188E+02
DAV:  35     0.955647953342E+03    0.18036E+01   -0.43262E-01 10424   0.275E+00    0.187E+02
DAV:  36     0.955868126612E+03    0.22017E+00   -0.13716E-01  9424   0.774E-01    0.187E+02
DAV:  37     0.955584481503E+03   -0.28365E+00   -0.18408E-01 11144   0.253E+00    0.186E+02
DAV:  38     0.955004124906E+03   -0.58036E+00   -0.89817E-02  9696   0.148E+00    0.187E+02
DAV:  39     0.954532212392E+03   -0.47191E+00   -0.50619E-02  9896   0.861E-01    0.186E+02
DAV:  40     0.955211612671E+03    0.67940E+00   -0.11536E-01 10888   0.194E+00    0.188E+02
DAV:  41     0.944350971899E+03   -0.10861E+02   -0.12766E+01 12584   0.195E+01    0.169E+02
DAV:  42     0.915325949518E+03   -0.29025E+02   -0.33684E+01 12152   0.292E+01    0.155E+02
DAV:  43     0.914786485193E+03   -0.53946E+00   -0.15906E+01  9168   0.901E+00    0.155E+02
DAV:  44     0.911139951062E+03   -0.36465E+01   -0.30289E+00 10136   0.499E+00    0.151E+02
DAV:  45     0.913997436640E+03    0.28575E+01   -0.12032E+01  9568   0.134E+01    0.152E+02
DAV:  46     0.909682829127E+03   -0.43146E+01   -0.62278E+00  9408   0.760E+00    0.152E+02
DAV:  47     0.847806557646E+03   -0.61876E+02   -0.14399E+02 13392   0.811E+01    0.154E+02
DAV:  48     0.915755416177E+03    0.67949E+02   -0.59934E+01 10384   0.546E+01    0.129E+02
DAV:  49     0.938073881716E+03    0.22318E+02   -0.25188E+01  9784   0.205E+01    0.126E+02
DAV:  50     0.937046455964E+03   -0.10274E+01   -0.39678E+01 10080   0.228E+01    0.120E+02
DAV:  51     0.929551145495E+03   -0.74953E+01   -0.46112E+01  9384   0.240E+01    0.125E+02
DAV:  52     0.791675376672E+03   -0.13788E+03   -0.19432E+02 11720   0.731E+01    0.173E+02
DAV:  53     0.917795027452E+03    0.12612E+03   -0.40345E+01 10860   0.182E+01    0.151E+02
DAV:  54     0.924080436577E+03    0.62854E+01   -0.15626E+01 10160   0.137E+01    0.153E+02
DAV:  55     0.932640557482E+03    0.85601E+01   -0.72546E+00  9400   0.917E+00    0.147E+02
DAV:  56     0.932730945395E+03    0.90388E-01   -0.31770E+00  9680   0.356E+00    0.145E+02
DAV:  57     0.900474366496E+03   -0.32257E+02   -0.15473E+01 12584   0.178E+01    0.178E+02
DAV:  58     0.922734778143E+03    0.22260E+02   -0.18694E+01 10936   0.195E+01    0.163E+02
DAV:  59     0.917293153528E+03   -0.54416E+01   -0.37480E+00 11368   0.404E+00    0.166E+02
DAV:  60     0.918772072520E+03    0.14789E+01   -0.12929E+00  9128   0.234E+00
   3 F= 0.79024052E+03 E0= 0.79031671E+03  d E =-.280549E+03
       N       E                     dE             d eps       ncg     rms          rms(c)
DAV:   1     0.866780872720E+03   -0.50512E+02   -0.22812E+04  8596   0.183E+02    0.222E+02
DAV:   2    -0.953530768428E+03   -0.18203E+04   -0.26195E+03 10296   0.333E+02    0.116E+03
DAV:   3    -0.263157281182E+02    0.92722E+03   -0.23468E+03 11178   0.179E+02    0.476E+02
DAV:   4    -0.234122439688E+04   -0.23149E+04   -0.28001E+03 12648   0.247E+02    0.942E+02
DAV:   5    -0.208498408590E+04    0.25624E+03   -0.29116E+03 13352   0.700E+01    0.741E+02
DAV:   6     0.540640782991E+03    0.26256E+04   -0.19831E+03 15472   0.163E+02    0.257E+02
DAV:   7     0.634749778889E+03    0.94109E+02   -0.10270E+03 14632   0.840E+01    0.181E+02
DAV:   8     0.721275200563E+03    0.86525E+02   -0.27952E+02 11832   0.120E+02    0.162E+02
DAV:   9     0.640936011069E+03   -0.80339E+02   -0.30100E+02 12536   0.101E+02    0.266E+02
DAV:  10     0.761900083799E+03    0.12096E+03   -0.17688E+02  9824   0.574E+01    0.170E+02
DAV:  11     0.729179794605E+03   -0.32720E+02   -0.14229E+02  9720   0.759E+01    0.158E+02
DAV:  12     0.793960521387E+03    0.64781E+02   -0.72700E+01  9440   0.373E+01    0.138E+02
DAV:  13     0.778593501878E+03   -0.15367E+02   -0.59577E+01  9488   0.500E+01    0.112E+02
DAV:  14     0.717070817221E+03   -0.61523E+02   -0.10949E+02 10616   0.598E+01    0.158E+02
DAV:  15     0.769214624239E+03    0.52144E+02   -0.42604E+01  9568   0.387E+01    0.135E+02
DAV:  16     0.807144035522E+03    0.37929E+02   -0.21174E+01 10328   0.184E+01    0.100E+02
DAV:  17     0.801340774286E+03   -0.58033E+01   -0.22787E+01  9568   0.201E+01    0.968E+01
DAV:  18     0.818488177983E+03    0.17147E+02   -0.10685E+01  9384   0.122E+01    0.782E+01
DAV:  19     0.815400110990E+03   -0.30881E+01   -0.10282E+01 10520   0.135E+01    0.860E+01
DAV:  20     0.815558986187E+03    0.15888E+00   -0.12724E+01 11048   0.137E+01    0.873E+01
DAV:  21     0.820373985986E+03    0.48150E+01   -0.66683E+00 11776   0.946E+00    0.756E+01
DAV:  22     0.820555224237E+03    0.18124E+00   -0.73624E+00 12288   0.116E+01    0.769E+01
DAV:  23     0.826286253571E+03    0.57310E+01   -0.42114E+00 11344   0.684E+00    0.647E+01
DAV:  24     0.826762422733E+03    0.47617E+00   -0.17373E+00 10616   0.546E+00    0.609E+01
DAV:  25     0.828604917300E+03    0.18425E+01   -0.31494E+00 11256   0.964E+00    0.573E+01
DAV:  26     0.829710005600E+03    0.11051E+01   -0.19693E+00 10848   0.700E+00    0.520E+01
DAV:  27     0.829312765074E+03   -0.39724E+00   -0.11017E+00 12064   0.455E+00    0.517E+01
DAV:  28     0.829368049096E+03    0.55284E-01   -0.10475E+00 10744   0.369E+00    0.510E+01
DAV:  29     0.828897147521E+03   -0.47090E+00   -0.52598E-01 10480   0.292E+00    0.507E+01
DAV:  30     0.828252299075E+03   -0.64485E+00   -0.84544E-01 11736   0.341E+00    0.512E+01
DAV:  31     0.828091186819E+03   -0.16111E+00   -0.59945E-01 12000   0.288E+00    0.500E+01
DAV:  32     0.828376436873E+03    0.28525E+00   -0.62758E-01 11368   0.344E+00    0.468E+01
DAV:  33     0.828109404280E+03   -0.26703E+00   -0.28479E-01 12432   0.158E+00    0.462E+01
DAV:  34     0.827669405057E+03   -0.44000E+00   -0.24478E-01 11872   0.166E+00    0.447E+01
DAV:  35     0.827257617353E+03   -0.41179E+00   -0.25654E-01 12736   0.171E+00    0.437E+01
DAV:  36     0.827922491574E+03    0.66487E+00   -0.17853E+00 11680   0.114E+00    0.435E+01
DAV:  37     0.827347889957E+03   -0.57460E+00   -0.50346E-01 14808   0.206E+00    0.402E+01
DAV:  38     0.827492738848E+03    0.14485E+00   -0.28281E-01 15256   0.143E+00    0.381E+01
DAV:  39     0.827244611341E+03   -0.24813E+00   -0.86681E-02 10296   0.427E-01    0.386E+01
DAV:  40     0.828060692386E+03    0.81608E+00   -0.20378E-01 16104   0.999E-01    0.372E+01
DAV:  41     0.828053624822E+03   -0.70676E-02   -0.35937E-02 10048   0.353E-01    0.375E+01
DAV:  42     0.828065376530E+03    0.11752E-01   -0.29934E-02 10800   0.372E-01    0.371E+01
DAV:  43     0.828079619945E+03    0.14243E-01   -0.90974E-03  9624   0.171E-01    0.370E+01
DAV:  44     0.828100593242E+03    0.20973E-01   -0.11365E-03 14256   0.397E-02    0.369E+01
DAV:  45     0.828052895985E+03   -0.47697E-01   -0.78968E-02 15704   0.742E-01    0.368E+01
DAV:  46     0.828042883972E+03   -0.10012E-01   -0.47985E-03  9992   0.105E-01    0.368E+01
DAV:  47     0.828210284764E+03    0.16740E+00   -0.33407E+01 13048   0.133E+01    0.638E+01
DAV:  48     0.827966919227E+03   -0.24337E+00   -0.36302E+00 11920   0.577E+00    0.594E+01
DAV:  49     0.829062983975E+03    0.10961E+01   -0.12762E+00  9960   0.369E+00    0.540E+01
DAV:  50     0.830852688983E+03    0.17897E+01   -0.90104E-01 11448   0.378E+00    0.438E+01
DAV:  51     0.831665284015E+03    0.81260E+00   -0.66058E-01 11088   0.407E+00    0.383E+01
DAV:  52     0.833819207510E+03    0.21539E+01   -0.43569E+00 12808   0.722E+00    0.158E+01
DAV:  53     0.833948699254E+03    0.12949E+00   -0.87351E-01 12296   0.432E+00    0.148E+01
DAV:  54     0.834319957862E+03    0.37126E+00   -0.56556E-01 11384   0.396E+00    0.134E+01
DAV:  55     0.834683329833E+03    0.36337E+00   -0.37294E-01 11392   0.294E+00    0.137E+01
DAV:  56     0.834933891188E+03    0.25056E+00   -0.24679E-01 11272   0.207E+00    0.146E+01
DAV:  57     0.834743721458E+03   -0.19017E+00   -0.76755E-01 12896   0.278E+00    0.202E+01
DAV:  58     0.834663070103E+03   -0.80651E-01   -0.21717E-01 10272   0.186E+00    0.210E+01
DAV:  59     0.834665005100E+03    0.19350E-02   -0.49548E-02 10896   0.347E-01    0.216E+01
DAV:  60     0.834703511202E+03    0.38506E-01   -0.55957E-02 16048   0.778E-01
   4 F= 0.70800525E+03 E0= 0.70813059E+03  d E =-.822353E+02
       N       E                     dE             d eps       ncg     rms          rms(c)
DAV:   1     0.219950445525E+04    0.13648E+04   -0.11053E+05 10392   0.470E+02    0.722E+02
DAV:   2    -0.357084992385E+05   -0.37908E+05   -0.27788E+05 16974   0.118E+03    0.778E+03
DAV:   3    -0.535568011013E+05   -0.17848E+05   -0.93016E+04 13968   0.523E+02    0.698E+03
DAV:   4     0.661024655399E+04    0.60167E+05   -0.55335E+05 14764   0.721E+02    0.366E+03
DAV:   5    -0.315227704733E+03   -0.69255E+04   -0.68024E+04  9374   0.505E+02    0.192E+03
DAV:   6    -0.646421576333E+04   -0.61490E+04   -0.43907E+04 14784   0.493E+02    0.314E+03
DAV:   7    -0.274795673743E+04    0.37163E+04   -0.23108E+04 12488   0.340E+02    0.149E+03
DAV:   8    -0.847322478319E+03    0.19006E+04   -0.82141E+03 13944   0.214E+02    0.654E+02
DAV:   9    -0.242631258871E+03    0.60469E+03   -0.16054E+03 11096   0.123E+02    0.423E+02
DAV:  10    -0.421800567059E+04   -0.39754E+04   -0.29059E+03 13016   0.370E+02    0.105E+03
DAV:  11    -0.483939773218E+04   -0.62139E+03   -0.37285E+03 12992   0.759E+01    0.107E+03
DAV:  12    -0.475363427983E+04    0.85763E+02   -0.33962E+02 11496   0.257E+01    0.108E+03
DAV:  13    -0.480049585497E+04   -0.46862E+02   -0.25306E+01 11312   0.106E+01    0.110E+03
DAV:  14    -0.426337822320E+04    0.53712E+03   -0.99491E+01 13952   0.733E+01    0.101E+03
DAV:  15    -0.423751738531E+04    0.25861E+02   -0.41416E+01 10720   0.122E+01    0.100E+03
DAV:  16    -0.406593445570E+04    0.17158E+03   -0.42352E+01 16184   0.530E+01    0.955E+02
DAV:  17    -0.339919991455E+04    0.66673E+03   -0.15775E+02 15904   0.754E+01    0.904E+02
DAV:  18    -0.360141134051E+04   -0.20221E+03   -0.10314E+02 15952   0.413E+01    0.905E+02
DAV:  19    -0.344909482800E+04    0.15232E+03   -0.18119E+02 12176   0.490E+01    0.879E+02
DAV:  20    -0.308180034360E+04    0.36729E+03   -0.30427E+02 11128   0.108E+02    0.767E+02
DAV:  21    -0.264910843583E+04    0.43269E+03   -0.55033E+02 12520   0.137E+02    0.639E+02
DAV:  22    -0.192443025293E+04    0.72468E+03   -0.76898E+02 12320   0.149E+02    0.683E+02
DAV:  23    -0.173972704910E+04    0.18470E+03   -0.74135E+02 14248   0.713E+01    0.600E+02
DAV:  24    -0.151848843060E+04    0.22124E+03   -0.47446E+02 14568   0.963E+01    0.542E+02
DAV:  25    -0.130353505924E+04    0.21495E+03   -0.49724E+02 15368   0.550E+01    0.500E+02
DAV:  26    -0.113216173947E+04    0.17137E+03   -0.35208E+02 14296   0.445E+01    0.490E+02
DAV:  27    -0.878533398066E+03    0.25363E+03   -0.20634E+02 13408   0.402E+01    0.473E+02
DAV:  28    -0.734237662090E+03    0.14430E+03   -0.20103E+02 12152   0.456E+01    0.473E+02
DAV:  29    -0.624169141151E+03    0.11007E+03   -0.14269E+02 11424   0.286E+01    0.465E+02
DAV:  30    -0.624176604014E+03   -0.74629E-02   -0.50918E+01 12144   0.108E+01    0.468E+02
DAV:  31    -0.615184429138E+03    0.89922E+01   -0.95069E+00 15808   0.419E+00    0.467E+02
DAV:  32    -0.603322274506E+03    0.11862E+02   -0.26173E+00 13688   0.427E+00    0.468E+02
DAV:  33    -0.601735570900E+03    0.15867E+01   -0.90239E-01 15016   0.224E+00    0.468E+02
DAV:  34    -0.634891958693E+03   -0.33156E+02   -0.66729E+00 14648   0.102E+01    0.475E+02
DAV:  35    -0.625785982308E+03    0.91060E+01   -0.38448E+00 14992   0.621E+00    0.473E+02
DAV:  36    -0.583404817673E+03    0.42381E+02   -0.24011E+01 12912   0.199E+01    0.467E+02
DAV:  37    -0.453900668107E+03    0.12950E+03   -0.28612E+01 11416   0.222E+01    0.446E+02
DAV:  38    -0.315248305761E+03    0.13865E+03   -0.59606E+01 11896   0.253E+01    0.427E+02
DAV:  39    -0.373265176510E+03   -0.58017E+02   -0.10546E+02 11152   0.389E+01    0.451E+02
DAV:  40    -0.307707310335E+03    0.65558E+02   -0.58543E+01 11904   0.285E+01    0.461E+02
DAV:  41    -0.329667936501E+03   -0.21961E+02   -0.39649E+01 10744   0.215E+01    0.480E+02
DAV:  42    -0.385117493295E+03   -0.55450E+02   -0.18766E+01 10248   0.187E+01    0.494E+02
DAV:  43    -0.449232151754E+03   -0.64115E+02   -0.15828E+01 10424   0.185E+01    0.518E+02
DAV:  44    -0.566883242994E+03   -0.11765E+03   -0.26324E+01 10784   0.199E+01    0.555E+02
DAV:  45    -0.642140724084E+03   -0.75257E+02   -0.22176E+01 10304   0.146E+01    0.585E+02
DAV:  46    -0.664669687245E+03   -0.22529E+02   -0.10971E+01 10936   0.690E+00    0.593E+02
DAV:  47     0.197162590506E+03    0.86183E+03   -0.23354E+03 11112   0.182E+02    0.324E+02
DAV:  48     0.298761495228E+03    0.10160E+03   -0.15130E+03  9752   0.935E+01    0.270E+02
DAV:  49     0.368006466466E+03    0.69245E+02   -0.33918E+02 10160   0.630E+01    0.263E+02
DAV:  50     0.351064848925E+03   -0.16942E+02   -0.33447E+02 11184   0.755E+01    0.294E+02
DAV:  51     0.329761813298E+03   -0.21303E+02   -0.29107E+02 10632   0.631E+01    0.323E+02
DAV:  52    -0.316279619090E+03   -0.64604E+03   -0.34594E+02 10160   0.168E+02    0.527E+02
DAV:  53     0.855444369768E+02    0.40182E+03   -0.14878E+02  9424   0.902E+01    0.466E+02
DAV:  54     0.784079298801E+02   -0.71365E+01   -0.12663E+02 11888   0.198E+01    0.478E+02
DAV:  55     0.738991612913E+02   -0.45088E+01   -0.10174E+01 10432   0.964E+00    0.478E+02
DAV:  56     0.393789895256E+02   -0.34520E+02   -0.21279E+01 10640   0.242E+01    0.488E+02
DAV:  57    -0.946280645672E+01   -0.48842E+02   -0.18904E+02 10352   0.695E+01    0.438E+02
DAV:  58    -0.908506690059E+00    0.85543E+01   -0.85390E+01  9688   0.334E+01    0.453E+02
DAV:  59    -0.239947388354E+02   -0.23086E+02   -0.34896E+01 10144   0.172E+01    0.459E+02
DAV:  60    -0.221011910327E+02    0.18935E+01   -0.91572E+00 10632   0.735E+00
   5 F= -.14420898E+03 E0= -.14413255E+03  d E =-.934449E+03
       N       E                     dE             d eps       ncg     rms          rms(c)
DAV:   1     0.415886247186E+04    0.41829E+04   -0.19881E+05 10230   0.674E+02    0.167E+03
DAV:   2    -0.266928359813E+05   -0.30852E+05   -0.26545E+05 16354   0.113E+03    0.231E+03
DAV:   3    -0.430111722322E+05   -0.16318E+05   -0.11618E+06 12864   0.125E+03    0.844E+03
DAV:   4    -0.494926086500E+05   -0.64814E+04   -0.13112E+05 13020   0.728E+02    0.524E+03
DAV:   5    -0.118639440941E+05    0.37629E+05   -0.41065E+04 10988   0.603E+02    0.292E+03
DAV:   6    -0.718330872824E+04    0.46806E+04   -0.39017E+05 16494   0.880E+02    0.500E+03
DAV:   7    -0.165103793828E+05   -0.93271E+04   -0.93648E+04 13816   0.527E+02    0.312E+03
DAV:   8    -0.773770315765E+03    0.15737E+05   -0.21527E+04 12348   0.263E+02    0.137E+03
DAV:   9    -0.959052585930E+04   -0.88168E+04   -0.22991E+05 16928   0.381E+02    0.502E+03
DAV:  10    -0.184693392822E+05   -0.88788E+04   -0.73847E+04 14520   0.413E+02    0.485E+03
DAV:  11    -0.555633080893E+04    0.12913E+05   -0.17087E+04 14358   0.236E+02    0.209E+03
DAV:  12    -0.139065764581E+04    0.41657E+04   -0.12231E+04 12552   0.298E+02    0.759E+02
DAV:  13    -0.626983509136E+03    0.76367E+03   -0.70638E+03 13576   0.263E+02    0.737E+02
DAV:  14    -0.701522554405E+03   -0.74539E+02   -0.45947E+03 11416   0.154E+02    0.628E+02
DAV:  15    -0.964508685608E+03   -0.26299E+03   -0.11144E+03 10224   0.204E+02    0.618E+02
DAV:  16    -0.712863730997E+03    0.25164E+03   -0.10690E+03  9952   0.152E+02    0.508E+02
DAV:  17    -0.323764873277E+03    0.38910E+03   -0.81260E+02  8916   0.131E+02    0.452E+02
DAV:  18    -0.631434014589E+02    0.26062E+03   -0.55702E+02  9920   0.109E+02    0.471E+02
DAV:  19    -0.155140822208E+02    0.47629E+02   -0.31299E+02  9896   0.916E+01    0.465E+02
DAV:  20    -0.199812894212E+02   -0.44672E+01   -0.20043E+02 10048   0.831E+01    0.482E+02
DAV:  21    -0.267949658209E+02   -0.68137E+01   -0.19925E+02 11496   0.741E+01    0.506E+02
DAV:  22     0.628049203255E+02    0.89600E+02   -0.15254E+02 10488   0.502E+01    0.531E+02
DAV:  23     0.101407432087E+03    0.38603E+02   -0.94511E+01  9376   0.450E+01    0.527E+02
DAV:  24     0.100119964552E+03   -0.12875E+01   -0.12772E+02 10712   0.572E+01    0.585E+02
DAV:  25     0.135300899252E+03    0.35181E+02   -0.90270E+01  9728   0.448E+01    0.625E+02
DAV:  26     0.148710606304E+03    0.13410E+02   -0.96406E+01 10464   0.462E+01    0.675E+02
DAV:  27     0.149105991889E+03    0.39539E+00   -0.77217E+01 10696   0.389E+01    0.710E+02
DAV:  28     0.176566100171E+03    0.27460E+02   -0.76913E+01  9712   0.375E+01    0.767E+02
DAV:  29     0.193430631102E+03    0.16865E+02   -0.59438E+01  9968   0.297E+01    0.819E+02
DAV:  30     0.210371681445E+03    0.16941E+02   -0.30345E+01 10072   0.229E+01    0.870E+02
DAV:  31     0.200480795835E+03   -0.98909E+01   -0.25897E+01 10104   0.227E+01    0.900E+02
DAV:  32     0.212270513976E+03    0.11790E+02   -0.12821E+01  9856   0.108E+01    0.935E+02
DAV:  33     0.211921743793E+03   -0.34877E+00   -0.70282E+00 10896   0.583E+00    0.951E+02
DAV:  34     0.212180549556E+03    0.25881E+00   -0.21561E+00 10288   0.271E+00    0.956E+02
DAV:  35     0.202387486949E+03   -0.97931E+01   -0.69768E+00 11136   0.329E+00    0.943E+02
DAV:  36     0.205508748015E+03    0.31213E+01   -0.81136E-01 10616   0.286E+00    0.936E+02
DAV:  37     0.204847973475E+03   -0.66077E+00   -0.36997E+00 10352   0.485E+00    0.928E+02
DAV:  38     0.195053421855E+03   -0.97946E+01   -0.38265E+00 13368   0.631E+00    0.950E+02
DAV:  39     0.201297579110E+03    0.62442E+01   -0.27527E+00 11488   0.616E+00    0.971E+02
DAV:  40     0.201563299560E+03    0.26572E+00   -0.85529E-01 11584   0.191E+00    0.963E+02
DAV:  41     0.207670694455E+03    0.61074E+01   -0.14730E+00 10704   0.373E+00    0.931E+02
DAV:  42     0.202926667177E+03   -0.47440E+01   -0.62667E-01 11024   0.220E+00    0.949E+02
DAV:  43     0.204187796162E+03    0.12611E+01   -0.20586E+00 12360   0.452E+00    0.925E+02
DAV:  44     0.203966655835E+03   -0.22114E+00   -0.51865E-01  9264   0.124E+00    0.926E+02
DAV:  45     0.202129882476E+03   -0.18368E+01   -0.81721E-02  9200   0.108E+00    0.928E+02
DAV:  46     0.204226532174E+03    0.20966E+01   -0.97644E-01 12264   0.447E+00    0.925E+02
DAV:  47    -0.114338550272E+04   -0.13476E+04   -0.15412E+03 12744   0.247E+02    0.618E+02
DAV:  48    -0.521633901304E+03    0.62175E+03   -0.90860E+02 10800   0.179E+02    0.541E+02
DAV:  49    -0.248305388999E+03    0.27333E+03   -0.10435E+03 11928   0.167E+02    0.480E+02
DAV:  50    -0.582909171810E+03   -0.33460E+03   -0.74768E+02 11472   0.120E+02    0.466E+02
DAV:  51    -0.322966838210E+03    0.25994E+03   -0.13362E+03  9368   0.140E+02    0.462E+02
DAV:  52    -0.667724716057E+03   -0.34476E+03   -0.17782E+03 12068   0.139E+02    0.659E+02
DAV:  53    -0.459505233444E+03    0.20822E+03   -0.12034E+04  9004   0.149E+02    0.577E+02
DAV:  54    -0.225189938584E+09   -0.22519E+09   -0.12494E+08 12732   0.443E+04    0.218E+04
DAV:  55    -0.407107875483E+06    0.22478E+09   -0.11621E+06 15580   0.939E+03    0.810E+03
DAV:  56    -0.109847623647E+05    0.39612E+06   -0.15339E+05 12708   0.901E+02    0.257E+03
DAV:  57    -0.351227279150E+06   -0.34024E+06   -0.10446E+06 12170   0.696E+02    0.275E+04
DAV:  58    -0.115757860910E+11   -0.11575E+11   -0.95027E+07 10008   0.806E+05    0.485E+04
DAV:  59    -0.599788392008E+11   -0.48403E+11   -0.20028E+11 15004   0.122E+07    0.677E+03
DAV:  60    -0.350347162492E+07    0.59975E+11   -0.12348E+07  8580   0.267E+05
   6 F= -.35035858E+07 E0= -.35035858E+07  d E =-.350438E+07
       N       E                     dE             d eps       ncg     rms          rms(c)
DAV:   1     0.190822899310E+05    0.59979E+11   -0.52779E+05  9428   0.141E+03    0.486E+03
DAV:   2    -0.391784260946E+05   -0.58261E+05   -0.68253E+05 15300   0.174E+03    0.325E+03
DAV:   3    -0.212734600958E+06   -0.17356E+06   -0.43700E+06 12770   0.351E+03    0.106E+04
DAV:   4    -0.323843795647E+06   -0.11111E+06   -0.11237E+06 15526   0.282E+03    0.110E+04
DAV:   5    -0.222194014216E+06    0.10165E+06   -0.16282E+05 16790   0.852E+02    0.730E+03
DAV:   6    -0.978328646709E+05    0.12436E+06   -0.34951E+04 13640   0.632E+02    0.477E+03
DAV:   7    -0.322614797296E+05    0.65571E+05   -0.13616E+05 13296   0.489E+02    0.416E+03
DAV:   8    -0.219955611498E+05    0.10266E+05   -0.57916E+04 13136   0.338E+02    0.296E+03
DAV:   9    -0.347239218279E+04    0.18523E+05   -0.48921E+04 13488   0.422E+02    0.186E+03
DAV:  10    -0.106849310590E+05   -0.72125E+04   -0.28300E+05 15800   0.786E+02    0.267E+03
DAV:  11    -0.165898563188E+05   -0.59049E+04   -0.89331E+04 14120   0.498E+02    0.283E+03
DAV:  12    -0.108017647960E+05    0.57881E+04   -0.11077E+04 14084   0.186E+02    0.285E+03
DAV:  13    -0.117778574787E+05   -0.97609E+03   -0.30871E+03 13424   0.943E+01    0.286E+03
DAV:  14    -0.114543923404E+05    0.32347E+03   -0.51946E+02 13744   0.383E+01    0.288E+03
DAV:  15    -0.117616641215E+05   -0.30727E+03   -0.15053E+02 12552   0.406E+01    0.288E+03
DAV:  16    -0.107570709124E+05    0.10046E+04   -0.21607E+02 12168   0.463E+01    0.281E+03
DAV:  17    -0.115100231869E+05   -0.75295E+03   -0.27045E+03 14056   0.141E+02    0.276E+03
DAV:  18    -0.884564466853E+04    0.26644E+04   -0.86754E+02 13096   0.818E+01    0.255E+03
DAV:  19    -0.610281519953E+04    0.27428E+04   -0.23347E+03 14712   0.136E+02    0.233E+03
DAV:  20    -0.415597987457E+04    0.19468E+04   -0.30809E+03 14896   0.117E+02    0.221E+03
DAV:  21    -0.350893037501E+04    0.64705E+03   -0.24880E+03 13688   0.163E+02    0.218E+03
DAV:  22    -0.326819692251E+04    0.24073E+03   -0.11108E+03 12328   0.521E+01    0.217E+03
DAV:  23    -0.260535628324E+04    0.66284E+03   -0.36687E+02 13344   0.776E+01    0.218E+03
DAV:  24    -0.231329303177E+04    0.29206E+03   -0.12809E+02 10800   0.351E+01    0.219E+03
DAV:  25    -0.225255393027E+04    0.60739E+02   -0.12491E+02 12272   0.615E+01    0.214E+03
DAV:  26    -0.183826057399E+04    0.41429E+03   -0.90819E+01 12016   0.477E+01    0.212E+03
DAV:  27    -0.122673447932E+04    0.61153E+03   -0.26061E+02 14544   0.147E+02    0.191E+03
DAV:  28    -0.104030567984E+04    0.18643E+03   -0.44633E+02 14656   0.134E+02    0.181E+03
DAV:  29    -0.569301760619E+03    0.47100E+03   -0.49615E+02 13264   0.118E+02    0.183E+03
DAV:  30    -0.533454938319E+03    0.35847E+02   -0.20633E+02 12584   0.828E+01    0.181E+03
DAV:  31    -0.506467890791E+03    0.26987E+02   -0.86782E+01 10080   0.364E+01    0.178E+03
DAV:  32    -0.473606898398E+03    0.32861E+02   -0.51708E+01  8992   0.349E+01    0.176E+03
DAV:  33    -0.570215137057E+03   -0.96608E+02   -0.74084E+01 10744   0.568E+01    0.171E+03
DAV:  34    -0.492648333855E+03    0.77567E+02   -0.84011E+01 12960   0.550E+01    0.160E+03
DAV:  35    -0.369040209982E+03    0.12361E+03   -0.14076E+02 11968   0.635E+01    0.153E+03
DAV:  36    -0.620510901962E+03   -0.25147E+03   -0.42003E+02 13464   0.109E+02    0.136E+03
DAV:  37    -0.625925549689E+03   -0.54146E+01   -0.35024E+02 13776   0.696E+01    0.126E+03
DAV:  38    -0.768697058495E+03   -0.14277E+03   -0.19373E+02 11432   0.631E+01    0.130E+03
DAV:  39    -0.106401358151E+04   -0.29532E+03   -0.25450E+02 14200   0.676E+01    0.128E+03
DAV:  40    -0.109778922120E+04   -0.33776E+02   -0.24948E+02 14408   0.435E+01    0.123E+03
DAV:  41    -0.118593871876E+04   -0.88149E+02   -0.24378E+02 14744   0.429E+01    0.120E+03
DAV:  42    -0.112912189405E+04    0.56817E+02   -0.97246E+01 13584   0.230E+01    0.116E+03
DAV:  43    -0.108663025944E+04    0.42492E+02   -0.25953E+01 12552   0.138E+01    0.115E+03
DAV:  44    -0.114303538762E+04   -0.56405E+02   -0.14172E+01 11672   0.163E+01    0.118E+03
DAV:  45    -0.109308789332E+04    0.49947E+02   -0.53052E+01 13752   0.387E+01    0.114E+03
DAV:  46    -0.957549273920E+03    0.13554E+03   -0.16070E+02 14592   0.639E+01    0.106E+03
DAV:  47    -0.374726230821E+03    0.58282E+03   -0.87221E+02 14408   0.154E+02    0.101E+03
DAV:  48    -0.497725793912E+03   -0.12300E+03   -0.15954E+03 14328   0.156E+02    0.104E+03
DAV:  49    -0.814099901882E+03   -0.31637E+03   -0.97374E+02 12952   0.146E+02    0.113E+03
DAV:  50    -0.643029152066E+03    0.17107E+03   -0.44648E+02 10488   0.723E+01    0.112E+03
DAV:  51    -0.679092168016E+03   -0.36063E+02   -0.16663E+02 11424   0.212E+01    0.111E+03
DAV:  52    -0.180978282142E+04   -0.11307E+04   -0.13067E+03 14376   0.198E+02    0.118E+03
DAV:  53    -0.175364566072E+04    0.56137E+02   -0.80840E+02 11488   0.134E+02    0.110E+03
DAV:  54    -0.159825272805E+04    0.15539E+03   -0.23519E+02  9336   0.631E+01    0.107E+03
DAV:  55    -0.144712237015E+04    0.15113E+03   -0.17825E+02 10824   0.615E+01    0.102E+03
DAV:  56    -0.122746826902E+04    0.21965E+03   -0.26800E+02  9144   0.929E+01    0.973E+02
DAV:  57    -0.591214375725E+04   -0.46847E+04   -0.19853E+04 14400   0.475E+02    0.177E+03
DAV:  58    -0.584040363841E+04    0.71740E+02   -0.12882E+04 14848   0.202E+02    0.201E+03
DAV:  59    -0.704658722802E+04   -0.12062E+04   -0.42029E+03 13984   0.111E+02    0.203E+03
DAV:  60    -0.518455771447E+04    0.18620E+04   -0.16741E+03 12040   0.128E+02
   7 F= -.53066644E+04 E0= -.53065845E+04  d E =-.609690E+04
