 vasp.6.2.1 16May21 (build May 12 2022 08:28:04) complex                         
 executed on             LinuxPGI date 2022.07.13  02:26:41
 running on    1 total cores
 distrk:  each k-point on    1 cores,    1 groups
 distr:  one band on NCORE=   1 cores,    1 groups


--------------------------------------------------------------------------------------------------------


 INCAR:
   SYSTEM = NiAl
   ISTART = 0
   EDIFF = 5E-6
   NELMIN = 6
   ISIF = 0
   NSW = 40
   IBRION = 2
   POTIM = 0.2
   IVDW = 12
   LWAVE = .FALSE.
   LCHARG = .FALSE.
   LREAL = Auto
   NCORE = 1
   LPLANE = .TRUE.
   ENCUT = 360.00 eV
   ISMEAR = 0
   SIGMA = 0.05

 POTCAR:    PAW Ni_GW 31Mar2010                   
 POTCAR:    PAW O_GW 19Mar2012                    
 POTCAR:    PAW Ni_GW 31Mar2010                   
   VRHFIN =Ni:                                                                                      
   LEXCH  = PE                                                                                      
   EATOM  =  1077.6740 eV,   79.2068 Ry                                                             
                                                                                                    
   TITEL  = PAW Ni_GW 31Mar2010                                                                     
   LULTRA =        F    use ultrasoft PP ?                                                          
   IUNSCR =        1    unscreen: 0-lin 1-nonlin 2-no                                               
   RPACOR =    1.800    partial core radius                                                         
   POMASS =   58.690; ZVAL   =   10.000    mass and valenz                                          
   RCORE  =    2.300    outmost cutoff radius                                                       
   RWIGS  =    2.430; RWIGS  =    1.286    wigner-seitz radius (au A)                               
   ENMAX  =  357.323; ENMIN  =  267.992 eV                                                          
   RCLOC  =    1.681    cutoff for local pot                                                        
   LCOR   =        T    correct aug charges                                                         
   LPAW   =        T    paw PP                                                                      
   EAUG   =  802.310                                                                                
   DEXC   =    0.000                                                                                
   RMAX   =    2.357    core radius for proj-oper                                                   
   RAUG   =    1.300    factor for augmentation sphere                                              
   RDEP   =    2.390    radius for radial grids                                                     
   RDEPT  =    1.800    core radius for aug-charge                                                  
                                                                                                    
   Atomic configuration                                                                             
    9 entries                                                                                       
     n  l   j            E        occ.                                                              
     1  0  0.50     -8206.4253   2.0000                                                             
     2  0  0.50      -976.1748   2.0000                                                             
     2  1  1.50      -839.0571   6.0000                                                             
     3  0  0.50      -105.9991   2.0000                                                             
     3  1  1.50       -66.4603   6.0000                                                             
     3  2  2.50        -4.6458   9.0000                                                             
     4  0  0.50        -4.4926   1.0000                                                             
     4  1  1.50        -4.0817   0.0000                                                             
     4  3  2.50        -1.3606   0.0000                                                             
   Description                                                                                      
     l       E           TYP  RCUT    TYP  RCUT                                                     
     2     -4.6457935     23  2.000                                                                 
     2     -6.0063761     23  2.000                                                                 
     0     -4.4925599     23  2.300                                                                 
     0     54.4233040     23  2.300                                                                 
     1     -2.7211652     23  2.300                                                                 
     1     68.0291300     23  2.300                                                                 
     3     27.2116520     23  2.000                                                                 
  local pseudopotential read in
  partial core-charges read in
  partial kinetic energy density read in
  kinetic energy density of atom read in
  atomic valenz-charges read in
  non local Contribution for L=            2  read in
    real space projection operators read in
  non local Contribution for L=            2  read in
    real space projection operators read in
  non local Contribution for L=            0  read in
    real space projection operators read in
  non local Contribution for L=            0  read in
    real space projection operators read in
  non local Contribution for L=            1  read in
    real space projection operators read in
  non local Contribution for L=            1  read in
    real space projection operators read in
  non local Contribution for L=            3  read in
    real space projection operators read in
    PAW grid and wavefunctions read in
 
   number of l-projection  operators is LMAX  =            7
   number of lm-projection operators is LMMAX =           25
 
 POTCAR:    PAW O_GW 19Mar2012                    
   VRHFIN =O: s2p4                                                                                  
   LEXCH  = PE                                                                                      
   EATOM  =   432.3788 eV,   31.7789 Ry                                                             
                                                                                                    
   TITEL  = PAW O_GW 19Mar2012                                                                      
   LULTRA =        F    use ultrasoft PP ?                                                          
   IUNSCR =        1    unscreen: 0-lin 1-nonlin 2-no                                               
   RPACOR =    0.800    partial core radius                                                         
   POMASS =   16.000; ZVAL   =    6.000    mass and valenz                                          
   RCORE  =    1.600    outmost cutoff radius                                                       
   RWIGS  =    1.600; RWIGS  =    0.847    wigner-seitz radius (au A)                               
   ENMAX  =  434.431; ENMIN  =  325.824 eV                                                          
   ICORE  =        3    local potential                                                             
   LCOR   =        T    correct aug charges                                                         
   LPAW   =        T    paw PP                                                                      
   EAUG   = 1139.609                                                                                
   DEXC   =    0.000                                                                                
   RMAX   =    1.629    core radius for proj-oper                                                   
   RAUG   =    1.300    factor for augmentation sphere                                              
   RDEP   =    1.652    radius for radial grids                                                     
   RDEPT  =    1.200    core radius for aug-charge                                                  
                                                                                                    
   Atomic configuration                                                                             
    5 entries                                                                                       
     n  l   j            E        occ.                                                              
     1  0  0.50      -514.6923   2.0000                                                             
     2  0  0.50       -23.9615   2.0000                                                             
     2  1  0.50        -9.0305   4.0000                                                             
     3  2  1.50        -9.5241   0.0000                                                             
     4  3  2.50        -9.5241   0.0000                                                             
   Description                                                                                      
     l       E           TYP  RCUT    TYP  RCUT                                                     
     0    -23.9615316     23  1.150                                                                 
     0    -25.3221142     23  1.150                                                                 
     0    244.9048680     23  1.300                                                                 
     1     -9.0304908     23  1.500                                                                 
     1     -6.9258396     23  1.500                                                                 
     1    122.4524340     23  1.500                                                                 
     2     13.6058260     23  1.500                                                                 
     2    190.4815640     23  1.600                                                                 
     3     54.4233040     23  1.400                                                                 
  local pseudopotential read in
  partial core-charges read in
  partial kinetic energy density read in
  kinetic energy density of atom read in
  atomic valenz-charges read in
  non local Contribution for L=            0  read in
    real space projection operators read in
  non local Contribution for L=            0  read in
    real space projection operators read in
  non local Contribution for L=            0  read in
    real space projection operators read in
  non local Contribution for L=            1  read in
    real space projection operators read in
  non local Contribution for L=            1  read in
    real space projection operators read in
  non local Contribution for L=            1  read in
    real space projection operators read in
  non local Contribution for L=            2  read in
    real space projection operators read in
  non local Contribution for L=            2  read in
    real space projection operators read in
    PAW grid and wavefunctions read in
 
   number of l-projection  operators is LMAX  =            8
   number of lm-projection operators is LMMAX =           22
 
 Optimization of the real space projectors (new method)

 maximal supplied QI-value         = 16.25
 optimisation between [QCUT,QGAM] = [  9.59, 19.34] = [ 25.75,104.73] Ry 
 Optimized for a Real-space Cutoff    1.46 Angstroem

   l    n(q)    QCUT    max X(q) W(low)/X(q) W(high)/X(q)  e(spline) 
   2      7     9.588    94.285    0.33E-03    0.50E-03    0.16E-06
   2      7     9.588    92.549    0.33E-03    0.50E-03    0.16E-06
   0      8     9.588    17.118    0.28E-04    0.17E-03    0.57E-07
   0      8     9.588     8.062    0.24E-04    0.17E-03    0.61E-07
   1      8     9.588     4.910    0.48E-03    0.22E-03    0.79E-07
   1      8     9.588     3.344    0.32E-03    0.14E-03    0.56E-07
   3      7     9.588     5.513    0.55E-04    0.16E-03    0.12E-06
 Optimization of the real space projectors (new method)

 maximal supplied QI-value         = 23.62
 optimisation between [QCUT,QGAM] = [  9.68, 19.37] = [ 26.27,105.06] Ry 
 Optimized for a Real-space Cutoff    2.14 Angstroem

   l    n(q)    QCUT    max X(q) W(low)/X(q) W(high)/X(q)  e(spline) 
   0     13     9.685   116.464    0.15E-03    0.15E-03    0.47E-05
   0     13     9.685   116.329    0.15E-03    0.15E-03    0.46E-05
   0     13     9.685     0.942    0.20E-04    0.50E-04    0.17E-05
   1     12     9.685    29.046    0.36E-03    0.11E-02    0.25E-04
   1     12     9.685    24.247    0.38E-03    0.11E-02    0.26E-04
   1     12     9.685     2.381    0.13E-03    0.38E-03    0.78E-05
   2     12     9.685     2.237    0.60E-05    0.28E-04    0.14E-05
   2     12     9.685     1.850    0.17E-04    0.70E-04    0.25E-05
  PAW Ni_GW 31Mar2010                   :
 energy of atom  1       EATOM=-1077.6740
 kinetic energy error for atom=    0.0556 (will be added to EATOM!!)
  PAW O_GW 19Mar2012                    :
 energy of atom  2       EATOM= -432.3788
 kinetic energy error for atom=    0.3913 (will be added to EATOM!!)
 
 
 POSCAR: Ni  O
  positions in cartesian coordinates
  No initial velocities read in
 exchange correlation table for  LEXCH =        8
   RHO(1)=    0.500       N(1)  =     2000
   RHO(2)=  100.500       N(2)  =     4000

 VTST: version 4.1, (05/19/21)

 CHAIN: initializing optimizer
 
 OPT: Using VASP Conjugate-Gradient optimizer
 CHAIN: Read ICHAIN             0
 
 POSCAR: Ni  O
  positions in cartesian coordinates
  No initial velocities read in
 


--------------------------------------------------------------------------------------------------------


 ion  position               nearest neighbor table
   1  0.000  0.000  0.000- 146 1.49 226 1.49  21 2.11 101 2.11 106 2.11  46 2.11 126 2.11   6 2.11
                             2 2.11  26 2.11 246 2.11  22 2.98 102 2.98 107 2.98  47 2.98   7 2.98
   2  0.000  0.000  0.070- 146 1.49 226 1.49 147 1.49 227 1.49  22 2.11 102 2.11 107 2.11  47 2.11
                           126 2.11   7 2.11   1 2.11   3 2.11  27 2.11 127 2.11 246 2.11 247 2.11
   3  0.000  0.000  0.141- 147 1.49 227 1.49 148 1.49 228 1.49  23 2.11 103 2.11 108 2.11  48 2.11
                           127 2.11 128 2.11   8 2.11   2 2.11  28 2.11   4 2.11 247 2.11 248 2.11
   4  0.000  0.000  0.211- 149 1.49 229 1.49 148 1.49 228 1.49 129 2.11  24 2.11 104 2.11   5 2.11
                           109 2.11  49 2.11   9 2.11  29 2.11 128 2.11 249 2.11   3 2.11 248 2.11
   5  0.000  0.000  0.282- 150 1.49 230 1.49 149 1.49 229 1.49 130 2.11  25 2.11 105 2.11   4 2.11
                           110 2.11  50 2.11  10 2.11  30 2.11 129 2.11 250 2.11 249 2.11 251 2.45
   6  0.000  0.200  0.000- 126 1.49 231 1.49 106 2.11 111 2.11  11 2.11  26 2.11   1 2.11   7 2.11
                            31 2.11 131 2.11 226 2.11 107 2.98 112 2.98  12 2.98   2 2.98  27 2.98
   7  0.000  0.200  0.070- 126 1.49 127 1.49 231 1.49 232 1.49 107 2.11 112 2.11   2 2.11  12 2.11
                            27 2.11   6 2.11   8 2.11  32 2.11 131 2.11 132 2.11 226 2.11 227 2.11
   8  0.000  0.200  0.141- 127 1.49 128 1.49 232 1.49 233 1.49 108 2.11 113 2.11   3 2.11  13 2.11
                            28 2.11   7 2.11  33 2.11 132 2.11 133 2.11 227 2.11 228 2.11   9 2.11
   9  0.000  0.200  0.211- 129 1.49 234 1.49 128 1.49 233 1.49 109 2.11  10 2.11 134 2.11 114 2.11
                           229 2.11  29 2.11   4 2.11  14 2.11  34 2.11   8 2.11 133 2.11 228 2.11
  10  0.000  0.200  0.282- 130 1.49 235 1.49 129 1.49 234 1.49 110 2.11   9 2.11 135 2.11 115 2.11
                           230 2.11  30 2.11   5 2.11  15 2.11  35 2.11 134 2.11 229 2.11 253 2.51
  11  0.000  0.400  0.000- 131 1.49 236 1.49 111 2.11 136 2.11   6 2.11  31 2.11 116 2.11  12 2.11
                            36 2.11 231 2.11  16 2.11 112 2.98   7 2.98  32 2.98 117 2.98  37 2.98
  12  0.000  0.400  0.070- 131 1.49 132 1.49 236 1.49 237 1.49 112 2.11 136 2.11 137 2.11  32 2.11
                             7 2.11 117 2.11  13 2.11  11 2.11  37 2.11 231 2.11  17 2.11 232 2.11
  13  0.000  0.400  0.141- 132 1.49 133 1.49 237 1.49 238 1.49 113 2.11 137 2.11 138 2.11  33 2.11
                             8 2.11 118 2.11  12 2.11  38 2.11 232 2.11 233 2.11  18 2.11  14 2.11
  14  0.000  0.400  0.211- 134 1.49 239 1.49 133 1.49 238 1.49 139 2.11 114 2.11  15 2.11 234 2.11
                            34 2.11   9 2.11 119 2.11  39 2.11 138 2.11  19 2.11  13 2.11 233 2.11
  15  0.000  0.400  0.282- 135 1.49 240 1.49 134 1.49 239 1.49 140 2.11 115 2.11  14 2.11 235 2.11
                            35 2.11  10 2.11 120 2.11  40 2.11 139 2.11  20 2.11 234 2.11 254 2.47
  16  0.000  0.600  0.000- 241 1.49 136 1.49 141 2.11  21 2.11 121 2.11 116 2.11  17 2.11  41 2.11
                            36 2.11  11 2.11 236 2.11  22 2.98 122 2.98 117 2.98  42 2.98  37 2.98
  17  0.000  0.600  0.070- 241 1.49 242 1.49 136 1.49 137 1.49 141 2.11 142 2.11  22 2.11 122 2.11
                           117 2.11  18 2.11  16 2.11  42 2.11  37 2.11  12 2.11 236 2.11 237 2.11
  18  0.000  0.600  0.141- 242 1.49 243 1.49 137 1.49 138 1.49 142 2.11 143 2.11  23 2.11 123 2.11
                           118 2.11  17 2.11  43 2.11  38 2.11  13 2.11  19 2.11 237 2.11 238 2.11
  19  0.000  0.600  0.211- 244 1.49 139 1.49 243 1.49 138 1.49 144 2.11 143 2.11  24 2.11 124 2.11
                           119 2.11  20 2.11  44 2.11  39 2.11  14 2.11 239 2.11  18 2.11 238 2.11
  20  0.000  0.600  0.282- 245 1.49 140 1.49 244 1.49 139 1.49 145 2.11 144 2.11  25 2.11 125 2.11
                           120 2.11  19 2.11  45 2.11  40 2.11  15 2.11 240 2.11 239 2.11 256 2.47
  21  0.000  0.800  0.000- 246 1.49 141 1.49 146 2.11  16 2.11 101 2.11   1 2.11 121 2.11  41 2.11
                            22 2.11  46 2.11 241 2.11  17 2.98 102 2.98   2 2.98 122 2.98  42 2.98
  22  0.000  0.800  0.070- 246 1.49 247 1.49 141 1.49 142 1.49 146 2.11 147 2.11  17 2.11   2 2.11
                           102 2.11 122 2.11  42 2.11  23 2.11  21 2.11  47 2.11 241 2.11 242 2.11
  23  0.000  0.800  0.141- 247 1.49 248 1.49 142 1.49 143 1.49 147 2.11 148 2.11  18 2.11   3 2.11
                           103 2.11 123 2.11  43 2.11  22 2.11  48 2.11  24 2.11 242 2.11 243 2.11
  24  0.000  0.800  0.211- 249 1.49 144 1.49 248 1.49 143 1.49 149 2.11 148 2.11  19 2.11   4 2.11
                           104 2.11 124 2.11  25 2.11  44 2.11  49 2.11 244 2.11  23 2.11 243 2.11
  25  0.000  0.800  0.282- 250 1.49 145 1.49 249 1.49 144 1.49 150 2.11 149 2.11  20 2.11   5 2.11
                           105 2.11 125 2.11  24 2.11  45 2.11  50 2.11 245 2.11 244 2.11 257 2.51
  26  0.200  0.000  0.000- 126 1.49 171 1.49  46 2.11  71 2.11   6 2.11  31 2.11  27 2.11  51 2.11
                             1 2.11 151 2.11 146 2.11  47 2.98  72 2.98  32 2.98   7 2.98   2 2.98
  27  0.200  0.000  0.070- 126 1.49 127 1.49 171 1.49 172 1.49  47 2.11  72 2.11   7 2.11  32 2.11
                            28 2.11  26 2.11  52 2.11   2 2.11 151 2.11 152 2.11 146 2.11 147 2.11
  28  0.200  0.000  0.141- 127 1.49 128 1.49 172 1.49 173 1.49  48 2.11  73 2.11   8 2.11  33 2.11
                            27 2.11  53 2.11   3 2.11 152 2.11 153 2.11 147 2.11 148 2.11  29 2.11
  29  0.200  0.000  0.211- 129 1.49 174 1.49 128 1.49 173 1.49  49 2.11  30 2.11 154 2.11  74 2.11
                           149 2.11   9 2.11  34 2.11  54 2.11   4 2.11  28 2.11 153 2.11 148 2.11
  30  0.200  0.000  0.282- 130 1.49 175 1.49 129 1.49 174 1.49  50 2.11  29 2.11 155 2.11  75 2.11
                           150 2.11  10 2.11  35 2.11  55 2.11   5 2.11 154 2.11 149 2.11 267 2.51
  31  0.200  0.200  0.000- 131 1.49 151 1.49  36 2.11  51 2.11  11 2.11  26 2.11  32 2.11   6 2.11
                            56 2.11 126 2.11 156 2.11  37 2.98  12 2.98  52 2.98  27 2.98   7 2.98
  32  0.200  0.200  0.070- 131 1.49 151 1.49 132 1.49 152 1.49  12 2.11  27 2.11  37 2.11  52 2.11
                            31 2.11  33 2.11   7 2.11  57 2.11 126 2.11 127 2.11 156 2.11 157 2.11
  33  0.200  0.200  0.141- 132 1.49 152 1.49 133 1.49 153 1.49 127 2.11 128 2.11  38 2.11  53 2.11
                            13 2.11  28 2.11  32 2.11   8 2.11  58 2.11 157 2.11 158 2.11  34 2.11
  34  0.200  0.200  0.211- 134 1.49 154 1.49 153 1.49 133 1.49 129 2.11  35 2.11 159 2.11  39 2.11
                            54 2.11  29 2.11  14 2.11   9 2.11  59 2.11 128 2.11  33 2.11 158 2.11
  35  0.200  0.200  0.282- 135 1.49 155 1.49 154 1.49 134 1.49 130 2.11  34 2.11 160 2.11  40 2.11
                            55 2.11  30 2.11  15 2.11  10 2.11  60 2.11 129 2.11 159 2.11 268 2.55
  36  0.200  0.400  0.000- 136 1.49 156 1.49 131 2.11 161 2.11  31 2.11  56 2.11  37 2.11  11 2.11
                            61 2.11  16 2.11  41 2.11  57 2.98  32 2.98  12 2.98  62 2.98  17 2.98
  37  0.200  0.400  0.070- 136 1.49 156 1.49 137 1.49 157 1.49 131 2.11 132 2.11  32 2.11  57 2.11
                            38 2.11  36 2.11  12 2.11  62 2.11 161 2.11 162 2.11  17 2.11  42 2.11
  38  0.200  0.400  0.141- 137 1.49 138 1.49 157 1.49 158 1.49 132 2.11 133 2.11 162 2.11 163 2.11
                            33 2.11  58 2.11  37 2.11  13 2.11  63 2.11  18 2.11  43 2.11  39 2.11
  39  0.200  0.400  0.211- 139 1.49 159 1.49 138 1.49 158 1.49 134 2.11 164 2.11  40 2.11  34 2.11
                            59 2.11  14 2.11  64 2.11 133 2.11  19 2.11 163 2.11  44 2.11  38 2.11
  40  0.200  0.400  0.282- 140 1.49 160 1.49 139 1.49 159 1.49 135 2.11 165 2.11  39 2.11  35 2.11
                            60 2.11  15 2.11  65 2.11 134 2.11  20 2.11 164 2.11  45 2.11 270 2.50
  41  0.200  0.600  0.000- 141 1.49 161 1.49 166 2.11  46 2.11  21 2.11  42 2.11  66 2.11  16 2.11
                            61 2.11  36 2.11 136 2.11  47 2.98  22 2.98  17 2.98  67 2.98  62 2.98
  42  0.200  0.600  0.070- 141 1.49 142 1.49 161 1.49 162 1.49 166 2.11 167 2.11  47 2.11  22 2.11
                            43 2.11  41 2.11  17 2.11  67 2.11  62 2.11  37 2.11 136 2.11 137 2.11
  43  0.200  0.600  0.141- 142 1.49 143 1.49 162 1.49 163 1.49 167 2.11 168 2.11  48 2.11  23 2.11
                            42 2.11  18 2.11  68 2.11  63 2.11 137 2.11 138 2.11  38 2.11  44 2.11
  44  0.200  0.600  0.211- 144 1.49 164 1.49 143 1.49 163 1.49 169 2.11  49 2.11  45 2.11 168 2.11
                            24 2.11 139 2.11  69 2.11  19 2.11  64 2.11  39 2.11  43 2.11 138 2.11
  45  0.200  0.600  0.282- 145 1.49 165 1.49 144 1.49 164 1.49 170 2.11  50 2.11  44 2.11 169 2.11
                            25 2.11 140 2.11  70 2.11  20 2.11  65 2.11  40 2.11 139 2.11 272 2.55
  46  0.200  0.800  0.000- 146 1.49 166 1.49 171 2.11  41 2.11  26 2.11  66 2.11   1 2.11  47 2.11
                            71 2.11  21 2.11 141 2.11  42 2.98  27 2.98  67 2.98   2 2.98  22 2.98
  47  0.200  0.800  0.070- 146 1.49 147 1.49 166 1.49 167 1.49 171 2.11 172 2.11  42 2.11  27 2.11
                            67 2.11   2 2.11  48 2.11  46 2.11  22 2.11  72 2.11 141 2.11 142 2.11
  48  0.200  0.800  0.141- 147 1.49 148 1.49 167 1.49 168 1.49 172 2.11 173 2.11  43 2.11  28 2.11
                            68 2.11   3 2.11  47 2.11  23 2.11  73 2.11 142 2.11 143 2.11  49 2.11
  49  0.200  0.800  0.211- 149 1.49 169 1.49 148 1.49 168 1.49 174 2.11  44 2.11  29 2.11  50 2.11
                           173 2.11  69 2.11   4 2.11 144 2.11  74 2.11  24 2.11  48 2.11 143 2.11
  50  0.200  0.800  0.282- 150 1.49 170 1.49 149 1.49 169 1.49 175 2.11  45 2.11  30 2.11  49 2.11
                           174 2.11  70 2.11   5 2.11 145 2.11  75 2.11  25 2.11 144 2.11 273 2.51
  51  0.400  0.000  0.000- 151 1.49 196 1.49  71 2.11 176 2.11  31 2.11  56 2.11  96 2.11  52 2.11
                            26 2.11 171 2.11  76 2.11  72 2.98  32 2.98  57 2.98  97 2.98  27 2.98
  52  0.400  0.000  0.070- 151 1.49 152 1.49 196 1.49 197 1.49  72 2.11 176 2.11 177 2.11  57 2.11
                            32 2.11  97 2.11  53 2.11  51 2.11  27 2.11 171 2.11 172 2.11  77 2.11
  53  0.400  0.000  0.141- 152 1.49 153 1.49 197 1.49 198 1.49  73 2.11 177 2.11 178 2.11  58 2.11
                            33 2.11  98 2.11  52 2.11  28 2.11 172 2.11 173 2.11  78 2.11  54 2.11
  54  0.400  0.000  0.211- 154 1.49 199 1.49 153 1.49 198 1.49 179 2.11  74 2.11  55 2.11 174 2.11
                            59 2.11  34 2.11  99 2.11  29 2.11 178 2.11  79 2.11  53 2.11 173 2.11
  55  0.400  0.000  0.282- 155 1.49 200 1.49 154 1.49 199 1.49 180 2.11  75 2.11  54 2.11 175 2.11
                            60 2.11  35 2.11 100 2.11  30 2.11 179 2.11  80 2.11 174 2.11 275 2.47
  56  0.400  0.200  0.000- 176 1.49 156 1.49 151 2.11 181 2.11  51 2.11  61 2.11  36 2.11  57 2.11
                            31 2.11  76 2.11  81 2.11  37 2.98  52 2.98  62 2.98  32 2.98  77 2.98
  57  0.400  0.200  0.070- 176 1.49 156 1.49 177 1.49 157 1.49 151 2.11 152 2.11  37 2.11  52 2.11
                            62 2.11  58 2.11  56 2.11  32 2.11 181 2.11 182 2.11  77 2.11  82 2.11
  58  0.400  0.200  0.141- 177 1.49 178 1.49 157 1.49 158 1.49 152 2.11 153 2.11 182 2.11 183 2.11
                            63 2.11  38 2.11  53 2.11  57 2.11  33 2.11  78 2.11  83 2.11  59 2.11
  59  0.400  0.200  0.211- 179 1.49 159 1.49 178 1.49 158 1.49 154 2.11 184 2.11  60 2.11  54 2.11
                            39 2.11  64 2.11  34 2.11 153 2.11  79 2.11 183 2.11  84 2.11  58 2.11
  60  0.400  0.200  0.282- 180 1.49 160 1.49 179 1.49 159 1.49 155 2.11 185 2.11  59 2.11  55 2.11
                            40 2.11  65 2.11  35 2.11 154 2.11  80 2.11 184 2.11  85 2.11 277 2.50
  61  0.400  0.400  0.000- 161 1.49 181 1.49 156 2.11 186 2.11  56 2.11  62 2.11  36 2.11  41 2.11
                            81 2.11  66 2.11  86 2.11  57 2.98  37 2.98  82 2.98  42 2.98  67 2.98
  62  0.400  0.400  0.070- 161 1.49 181 1.49 162 1.49 182 1.49 156 2.11 186 2.11 157 2.11 187 2.11
                            57 2.11  61 2.11  63 2.11  37 2.11  42 2.11  82 2.11  67 2.11  87 2.11
  63  0.400  0.400  0.141- 162 1.49 182 1.49 163 1.49 183 1.49 157 2.11 187 2.11 158 2.11 188 2.11
                            58 2.11  62 2.11  38 2.11  43 2.11  83 2.11  68 2.11  88 2.11  64 2.11
  64  0.400  0.400  0.211- 164 1.49 184 1.49 183 1.49 163 1.49 159 2.11 189 2.11  65 2.11  59 2.11
                           188 2.11 158 2.11  39 2.11  44 2.11  84 2.11  69 2.11  89 2.11  63 2.11
  65  0.400  0.400  0.282- 165 1.49 185 1.49 184 1.49 164 1.49 160 2.11 190 2.11  64 2.11  60 2.11
                           189 2.11 159 2.11  40 2.11  45 2.11  85 2.11  70 2.11  90 2.11 278 2.50
  66  0.400  0.600  0.000- 166 1.49 186 1.49 191 2.11  71 2.11  46 2.11  67 2.11  41 2.11 161 2.11
                            61 2.11  86 2.11  91 2.11  72 2.98  47 2.98  42 2.98  87 2.98  62 2.98
  67  0.400  0.600  0.070- 166 1.49 167 1.49 186 1.49 187 1.49 191 2.11 192 2.11  72 2.11  47 2.11
                            68 2.11  66 2.11  42 2.11 161 2.11  87 2.11  62 2.11 162 2.11  92 2.11
  68  0.400  0.600  0.141- 167 1.49 168 1.49 187 1.49 188 1.49 192 2.11 193 2.11  73 2.11  48 2.11
                            67 2.11  43 2.11 162 2.11 163 2.11  63 2.11  88 2.11  93 2.11  69 2.11
  69  0.400  0.600  0.211- 169 1.49 189 1.49 168 1.49 188 1.49 194 2.11 193 2.11  74 2.11  70 2.11
                            49 2.11 164 2.11  44 2.11  89 2.11  64 2.11  94 2.11  68 2.11 163 2.11
  70  0.400  0.600  0.282- 170 1.49 190 1.49 169 1.49 189 1.49 195 2.11 194 2.11  75 2.11  69 2.11
                            50 2.11 165 2.11  45 2.11  90 2.11  65 2.11  95 2.11 164 2.11 280 2.47
  71  0.400  0.800  0.000- 171 1.49 191 1.49 196 2.11  66 2.11  51 2.11  26 2.11  91 2.11  72 2.11
                            46 2.11 166 2.11  96 2.11  67 2.98  52 2.98  27 2.98  92 2.98  47 2.98
  72  0.400  0.800  0.070- 171 1.49 172 1.49 191 1.49 192 1.49 196 2.11 197 2.11  67 2.11  52 2.11
                            27 2.11  92 2.11  73 2.11  71 2.11  47 2.11 166 2.11 167 2.11  97 2.11
  73  0.400  0.800  0.141- 172 1.49 173 1.49 192 1.49 193 1.49 197 2.11 198 2.11  68 2.11  53 2.11
                            28 2.11  93 2.11  72 2.11  48 2.11 167 2.11 168 2.11  98 2.11  74 2.11
  74  0.400  0.800  0.211- 174 1.49 194 1.49 173 1.49 193 1.49 199 2.11 198 2.11  69 2.11  54 2.11
                            75 2.11  29 2.11 169 2.11  94 2.11  49 2.11  99 2.11  73 2.11 168 2.11
  75  0.400  0.800  0.282- 175 1.49 195 1.49 174 1.49 194 1.49 200 2.11 199 2.11  70 2.11  55 2.11
                            74 2.11  30 2.11 170 2.11  95 2.11  50 2.11 100 2.11 169 2.11 282 2.55
  76  0.600  0.000  0.000- 221 1.49 176 1.49 201 2.11 121 2.11  96 2.11 101 2.11  81 2.11  77 2.11
                            56 2.11  51 2.11 196 2.11 122 2.98  97 2.98 102 2.98  82 2.98  57 2.98
  77  0.600  0.000  0.070- 221 1.49 222 1.49 176 1.49 177 1.49 201 2.11 202 2.11 122 2.11  97 2.11
                           102 2.11  82 2.11  76 2.11  78 2.11  57 2.11  52 2.11 196 2.11 197 2.11
  78  0.600  0.000  0.141- 222 1.49 223 1.49 177 1.49 178 1.49 202 2.11 203 2.11 123 2.11  98 2.11
                           103 2.11  83 2.11  77 2.11  58 2.11  53 2.11  79 2.11 197 2.11 198 2.11
  79  0.600  0.000  0.211- 224 1.49 179 1.49 223 1.49 178 1.49 204 2.11 203 2.11 124 2.11  99 2.11
                           104 2.11  80 2.11  84 2.11  59 2.11 199 2.11  54 2.11  78 2.11 198 2.11
  80  0.600  0.000  0.282- 225 1.49 180 1.49 224 1.49 179 1.49 205 2.11 204 2.11 125 2.11 100 2.11
                           105 2.11  79 2.11  85 2.11  60 2.11 200 2.11  55 2.11 199 2.11 291 2.47
  81  0.600  0.200  0.000- 201 1.49 181 1.49 206 2.11 106 2.11 101 2.11  86 2.11  76 2.11  82 2.11
                            61 2.11  56 2.11 176 2.11 107 2.98 102 2.98  77 2.98  87 2.98  62 2.98
  82  0.600  0.200  0.070- 201 1.49 202 1.49 181 1.49 182 1.49 206 2.11 207 2.11 107 2.11 102 2.11
                            77 2.11  87 2.11  83 2.11  81 2.11  62 2.11  57 2.11 176 2.11 177 2.11
  83  0.600  0.200  0.141- 202 1.49 203 1.49 182 1.49 183 1.49 207 2.11 208 2.11 108 2.11 103 2.11
                            78 2.11  88 2.11  82 2.11  63 2.11 177 2.11 178 2.11  58 2.11  84 2.11
  84  0.600  0.200  0.211- 204 1.49 184 1.49 203 1.49 183 1.49 209 2.11 109 2.11  85 2.11 208 2.11
                           104 2.11 179 2.11  89 2.11  79 2.11  64 2.11  59 2.11  83 2.11 178 2.11
  85  0.600  0.200  0.282- 205 1.49 185 1.49 204 1.49 184 1.49 210 2.11 110 2.11  84 2.11 209 2.11
                           105 2.11 180 2.11  90 2.11  80 2.11  65 2.11  60 2.11 179 2.11 293 2.55
  86  0.600  0.400  0.000- 206 1.49 186 1.49 211 2.11 111 2.11 106 2.11  81 2.11  87 2.11 181 2.11
                            66 2.11  91 2.11  61 2.11 112 2.98 107 2.98  82 2.98  67 2.98  92 2.98
  87  0.600  0.400  0.070- 206 1.49 207 1.49 186 1.49 187 1.49 211 2.11 212 2.11 112 2.11 107 2.11
                            82 2.11  86 2.11  88 2.11 181 2.11  92 2.11  67 2.11 182 2.11  62 2.11
  88  0.600  0.400  0.141- 207 1.49 208 1.49 187 1.49 188 1.49 212 2.11 213 2.11 113 2.11 108 2.11
                            83 2.11  87 2.11 182 2.11 183 2.11  68 2.11  93 2.11  63 2.11  89 2.11
  89  0.600  0.400  0.211- 209 1.49 189 1.49 208 1.49 188 1.49 214 2.11 213 2.11 114 2.11  90 2.11
                           109 2.11 184 2.11  84 2.11  94 2.11  69 2.11  64 2.11  88 2.11 183 2.11
  90  0.600  0.400  0.282- 210 1.49 190 1.49 209 1.49 189 1.49 215 2.11 214 2.11 115 2.11  89 2.11
                           110 2.11 185 2.11  85 2.11  95 2.11  70 2.11  65 2.11 184 2.11 294 2.47
  91  0.600  0.600  0.000- 191 1.49 211 1.49 216 2.11  96 2.11 116 2.11  71 2.11 111 2.11  92 2.11
                            86 2.11  66 2.11 186 2.11  97 2.98 117 2.98  72 2.98 112 2.98  87 2.98
  92  0.600  0.600  0.070- 191 1.49 211 1.49 192 1.49 212 1.49 216 2.11 217 2.11  97 2.11 117 2.11
                           112 2.11  72 2.11  93 2.11  91 2.11  87 2.11  67 2.11 186 2.11 187 2.11
  93  0.600  0.600  0.141- 192 1.49 212 1.49 193 1.49 213 1.49 217 2.11 218 2.11  98 2.11 118 2.11
                           113 2.11  73 2.11  92 2.11  88 2.11  68 2.11  94 2.11 187 2.11 188 2.11
  94  0.600  0.600  0.211- 194 1.49 214 1.49 213 1.49 193 1.49 219 2.11 218 2.11  99 2.11 119 2.11
                            95 2.11 114 2.11  74 2.11  89 2.11 189 2.11  69 2.11  93 2.11 188 2.11
  95  0.600  0.600  0.282- 195 1.49 215 1.49 214 1.49 194 1.49 220 2.11 219 2.11 100 2.11 120 2.11
                            94 2.11 115 2.11  75 2.11  90 2.11 190 2.11  70 2.11 189 2.11 296 2.50
  96  0.600  0.800  0.000- 216 1.49 196 1.49 221 2.11 116 2.11  91 2.11  76 2.11 121 2.11  51 2.11
                            97 2.11  71 2.11 191 2.11 117 2.98  92 2.98  77 2.98 122 2.98  52 2.98
  97  0.600  0.800  0.070- 216 1.49 196 1.49 217 1.49 197 1.49 221 2.11 222 2.11  92 2.11 117 2.11
                            77 2.11 122 2.11  52 2.11  96 2.11  98 2.11  72 2.11 191 2.11 192 2.11
  98  0.600  0.800  0.141- 217 1.49 197 1.49 218 1.49 198 1.49 222 2.11 223 2.11  93 2.11 118 2.11
                            78 2.11 123 2.11  53 2.11  97 2.11  73 2.11  99 2.11 192 2.11 193 2.11
  99  0.600  0.800  0.211- 219 1.49 199 1.49 218 1.49 198 1.49 224 2.11 223 2.11  94 2.11 119 2.11
                            79 2.11 124 2.11 100 2.11  54 2.11 194 2.11  74 2.11  98 2.11 193 2.11
 100  0.600  0.800  0.282- 220 1.49 200 1.49 219 1.49 199 1.49 225 2.11 224 2.11  95 2.11 120 2.11
                            80 2.11 125 2.11  99 2.11  55 2.11 195 2.11  75 2.11 194 2.11 297 2.50
 101  0.800  0.000  0.000- 246 1.49 201 1.49 226 2.11 121 2.11  21 2.11  76 2.11   1 2.11  81 2.11
                           106 2.11 102 2.11 221 2.11  22 2.98 122 2.98  77 2.98   2 2.98  82 2.98
 102  0.800  0.000  0.070- 246 1.49 247 1.49 201 1.49 202 1.49 226 2.11 227 2.11  22 2.11 122 2.11
                            77 2.11   2 2.11  82 2.11 107 2.11 101 2.11 103 2.11 221 2.11 222 2.11
 103  0.800  0.000  0.141- 247 1.49 248 1.49 202 1.49 203 1.49 227 2.11 228 2.11  23 2.11 123 2.11
                            78 2.11   3 2.11  83 2.11 108 2.11 102 2.11 104 2.11 222 2.11 223 2.11
 104  0.800  0.000  0.211- 249 1.49 204 1.49 248 1.49 203 1.49 229 2.11 228 2.11  24 2.11 124 2.11
                            79 2.11   4 2.11 105 2.11  84 2.11 109 2.11 224 2.11 103 2.11 223 2.11
 105  0.800  0.000  0.282- 250 1.49 205 1.49 249 1.49 204 1.49 230 2.11 229 2.11  25 2.11 125 2.11
                            80 2.11   5 2.11 104 2.11  85 2.11 110 2.11 225 2.11 224 2.11 299 2.51
 106  0.800  0.200  0.000- 226 1.49 206 1.49 231 2.11  81 2.11   6 2.11  86 2.11   1 2.11 111 2.11
                           101 2.11 107 2.11 201 2.11  82 2.98   7 2.98  87 2.98   2 2.98 102 2.98
 107  0.800  0.200  0.070- 226 1.49 227 1.49 206 1.49 207 1.49 231 2.11 232 2.11  82 2.11   7 2.11
                            87 2.11   2 2.11 102 2.11 112 2.11 108 2.11 106 2.11 201 2.11 202 2.11
 108  0.800  0.200  0.141- 227 1.49 228 1.49 207 1.49 208 1.49 232 2.11 233 2.11  83 2.11   8 2.11
                            88 2.11   3 2.11 103 2.11 113 2.11 107 2.11 202 2.11 203 2.11 109 2.11
 109  0.800  0.200  0.211- 229 1.49 209 1.49 228 1.49 208 1.49 234 2.11  84 2.11   9 2.11 110 2.11
                           233 2.11  89 2.11   4 2.11 204 2.11 114 2.11 104 2.11 108 2.11 203 2.11
 110  0.800  0.200  0.282- 230 1.49 210 1.49 229 1.49 209 1.49 235 2.11  85 2.11  10 2.11 109 2.11
                           234 2.11  90 2.11   5 2.11 205 2.11 115 2.11 105 2.11 204 2.11 301 2.51
 111  0.800  0.400  0.000- 231 1.49 211 1.49 236 2.11  86 2.11  11 2.11   6 2.11 106 2.11  91 2.11
                           112 2.11 206 2.11 116 2.11  87 2.98  12 2.98   7 2.98 107 2.98  92 2.98
 112  0.800  0.400  0.070- 231 1.49 232 1.49 211 1.49 212 1.49 236 2.11 237 2.11  87 2.11  12 2.11
                             7 2.11 107 2.11  92 2.11 111 2.11 113 2.11 206 2.11 117 2.11 207 2.11
 113  0.800  0.400  0.141- 232 1.49 233 1.49 212 1.49 213 1.49 237 2.11 238 2.11  88 2.11  13 2.11
                             8 2.11 108 2.11  93 2.11 112 2.11 207 2.11 208 2.11 118 2.11 114 2.11
 114  0.800  0.400  0.211- 234 1.49 214 1.49 233 1.49 213 1.49 239 2.11 238 2.11  89 2.11  14 2.11
                           115 2.11   9 2.11 209 2.11 109 2.11  94 2.11 119 2.11 113 2.11 208 2.11
 115  0.800  0.400  0.282- 235 1.49 215 1.49 234 1.49 214 1.49 240 2.11 239 2.11  90 2.11  15 2.11
                           114 2.11  10 2.11 210 2.11 110 2.11  95 2.11 120 2.11 209 2.11 310 2.55
 116  0.800  0.600  0.000- 216 1.49 236 1.49 241 2.11 121 2.11  96 2.11  91 2.11  16 2.11  11 2.11
                           117 2.11 111 2.11 211 2.11  97 2.98 122 2.98  92 2.98  17 2.98  12 2.98
 117  0.800  0.600  0.070- 216 1.49 236 1.49 217 1.49 237 1.49 241 2.11 242 2.11  97 2.11 122 2.11
                            92 2.11  17 2.11  12 2.11 118 2.11 116 2.11 112 2.11 211 2.11 212 2.11
 118  0.800  0.600  0.141- 217 1.49 237 1.49 218 1.49 238 1.49 242 2.11 243 2.11  98 2.11 123 2.11
                            93 2.11  18 2.11  13 2.11 117 2.11 113 2.11 119 2.11 212 2.11 213 2.11
 119  0.800  0.600  0.211- 219 1.49 239 1.49 218 1.49 238 1.49 244 2.11 243 2.11  99 2.11 124 2.11
                            94 2.11  19 2.11 120 2.11  14 2.11 114 2.11 214 2.11 118 2.11 213 2.11
 120  0.800  0.600  0.282- 220 1.49 240 1.49 219 1.49 239 1.49 245 2.11 244 2.11 100 2.11 125 2.11
                            95 2.11  20 2.11 119 2.11  15 2.11 115 2.11 215 2.11 214 2.11 304 2.50
 121  0.800  0.800  0.000- 221 1.49 241 1.49 246 2.11 116 2.11  16 2.11  76 2.11 101 2.11  96 2.11
                            21 2.11 122 2.11 216 2.11 117 2.98  17 2.98  77 2.98 102 2.98  97 2.98
 122  0.800  0.800  0.070- 221 1.49 241 1.49 222 1.49 242 1.49 246 2.11 247 2.11 117 2.11  17 2.11
                            77 2.11 102 2.11  97 2.11  22 2.11 121 2.11 123 2.11 216 2.11 217 2.11
 123  0.800  0.800  0.141- 222 1.49 242 1.49 223 1.49 243 1.49 247 2.11 248 2.11 118 2.11  18 2.11
                            78 2.11 103 2.11  98 2.11  23 2.11 122 2.11 124 2.11 217 2.11 218 2.11
 124  0.800  0.800  0.211- 224 1.49 244 1.49 223 1.49 243 1.49 249 2.11 248 2.11 119 2.11  19 2.11
                            79 2.11 104 2.11  99 2.11  24 2.11 125 2.11 219 2.11 123 2.11 218 2.11
 125  0.800  0.800  0.282- 225 1.49 245 1.49 224 1.49 244 1.49 250 2.11 249 2.11 120 2.11  20 2.11
                            80 2.11 105 2.11 100 2.11  25 2.11 124 2.11 220 2.11 219 2.11 306 2.55
 126  0.100  0.100  0.035-   6 1.49  26 1.49   7 1.49  27 1.49   1 2.11   2 2.11  31 2.11  32 2.11

 127  0.100  0.100  0.106-   8 1.49  28 1.49  27 1.49   7 1.49   3 2.11  33 2.11   2 2.11  32 2.11

 128  0.100  0.100  0.176-   8 1.49  28 1.49   9 1.49  29 1.49   3 2.11  33 2.11   4 2.11  34 2.11

 129  0.100  0.100  0.246-   9 1.49  29 1.49  10 1.49  30 1.49   4 2.11  34 2.11   5 2.11  35 2.11

 130  0.100  0.100  0.317- 260 1.47  30 1.49  10 1.49 259 1.69 252 1.69 253 1.98 267 1.98   5 2.11
                            35 2.11
 131  0.100  0.300  0.035-  11 1.49  12 1.49  31 1.49  32 1.49  36 2.11  37 2.11   6 2.11   7 2.11

 132  0.100  0.300  0.106-  13 1.49  33 1.49  12 1.49  32 1.49  38 2.11  37 2.11   8 2.11   7 2.11

 133  0.100  0.300  0.176-  13 1.49  33 1.49  14 1.49  34 1.49  38 2.11   8 2.11  39 2.11   9 2.11

 134  0.100  0.300  0.246-  14 1.49  34 1.49  15 1.49  35 1.49  39 2.11   9 2.11  40 2.11  10 2.11

 135  0.100  0.300  0.317- 261 1.47  15 1.49  35 1.49 262 1.69 254 1.69 269 1.98 253 1.98  40 2.11
                            10 2.11
 136  0.100  0.500  0.035-  36 1.49  37 1.49  16 1.49  17 1.49  11 2.11  12 2.11  41 2.11  42 2.11

 137  0.100  0.500  0.106-  38 1.49  18 1.49  37 1.49  17 1.49  13 2.11  12 2.11  43 2.11  42 2.11

 138  0.100  0.500  0.176-  38 1.49  18 1.49  39 1.49  19 1.49  13 2.11  14 2.11  43 2.11  44 2.11

 139  0.100  0.500  0.246-  39 1.49  19 1.49  40 1.49  20 1.49  14 2.11  44 2.11  15 2.11  45 2.11

 140  0.100  0.500  0.317- 263 1.42  40 1.49  20 1.49 255 1.75 262 1.85 256 1.85 264 2.03 270 2.03
                            15 2.11  45 2.11
 141  0.100  0.700  0.035-  41 1.49  42 1.49  21 1.49  22 1.49  16 2.11  17 2.11  46 2.11  47 2.11

 142  0.100  0.700  0.106-  43 1.49  42 1.49  23 1.49  22 1.49  18 2.11  17 2.11  48 2.11  47 2.11

 143  0.100  0.700  0.176-  43 1.49  23 1.49  44 1.49  24 1.49  18 2.11  19 2.11  48 2.11  49 2.11

 144  0.100  0.700  0.246-  44 1.49  24 1.49  45 1.49  25 1.49  19 2.11  20 2.11  49 2.11  50 2.11

 145  0.100  0.700  0.317-  45 1.49  25 1.49 264 1.56 265 1.56 257 1.67 272 1.96  20 2.11  50 2.11

 146  0.100  0.900  0.035-  46 1.49  47 1.49   1 1.49   2 1.49  21 2.11  22 2.11  26 2.11  27 2.11

 147  0.100  0.900  0.106-  48 1.49  47 1.49   3 1.49   2 1.49  23 2.11  22 2.11  28 2.11  27 2.11

 148  0.100  0.900  0.176-  48 1.49   3 1.49  49 1.49   4 1.49  23 2.11  24 2.11  28 2.11  29 2.11

 149  0.100  0.900  0.246-  49 1.49   4 1.49  50 1.49   5 1.49  24 2.11  25 2.11  29 2.11  30 2.11

 150  0.100  0.900  0.317- 266 1.42  50 1.49   5 1.49 251 1.75 258 1.85 259 1.85 265 2.03 274 2.03
                            25 2.11  30 2.11
 151  0.300  0.100  0.035-  51 1.49  52 1.49  31 1.49  32 1.49  56 2.11  57 2.11  26 2.11  27 2.11

 152  0.300  0.100  0.106-  53 1.49  33 1.49  52 1.49  32 1.49  58 2.11  57 2.11  28 2.11  27 2.11

 153  0.300  0.100  0.176-  53 1.49  33 1.49  54 1.49  34 1.49  58 2.11  28 2.11  59 2.11  29 2.11

 154  0.300  0.100  0.246-  54 1.49  34 1.49  55 1.49  35 1.49  59 2.11  29 2.11  60 2.11  30 2.11

 155  0.300  0.100  0.317- 268 1.47  55 1.49  35 1.49 276 1.69 275 1.69 269 1.98 267 1.98  60 2.11
                            30 2.11
 156  0.300  0.300  0.035-  36 1.49  56 1.49  37 1.49  57 1.49  61 2.11  62 2.11  31 2.11  32 2.11

 157  0.300  0.300  0.106-  58 1.49  38 1.49  57 1.49  37 1.49  63 2.11  62 2.11  33 2.11  32 2.11

 158  0.300  0.300  0.176-  58 1.49  38 1.49  59 1.49  39 1.49  63 2.11  64 2.11  33 2.11  34 2.11

 159  0.300  0.300  0.246-  39 1.49  59 1.49  60 1.49  40 1.49  64 2.11  34 2.11  65 2.11  35 2.11

 160  0.300  0.300  0.317-  60 1.49  40 1.49 270 1.56 277 1.56 269 1.67 278 1.96  65 2.11  35 2.11

 161  0.300  0.500  0.035-  61 1.49  62 1.49  41 1.49  42 1.49  36 2.11  37 2.11  66 2.11  67 2.11

 162  0.300  0.500  0.106-  63 1.49  62 1.49  43 1.49  42 1.49  38 2.11  37 2.11  68 2.11  67 2.11

 163  0.300  0.500  0.176-  63 1.49  43 1.49  64 1.49  44 1.49  38 2.11  68 2.11  39 2.11  69 2.11

 164  0.300  0.500  0.246-  64 1.49  44 1.49  65 1.49  45 1.49  39 2.11  69 2.11  40 2.11  70 2.11

 165  0.300  0.500  0.317-  65 1.49  45 1.49 271 1.50 279 1.61 278 1.81 272 1.81  40 2.11  70 2.11

 166  0.300  0.700  0.035-  66 1.49  67 1.49  46 1.49  47 1.49  41 2.11  42 2.11  71 2.11  72 2.11

 167  0.300  0.700  0.106-  68 1.49  67 1.49  48 1.49  47 1.49  43 2.11  42 2.11  73 2.11  72 2.11

 168  0.300  0.700  0.176-  68 1.49  69 1.49  48 1.49  49 1.49  43 2.11  44 2.11  73 2.11  74 2.11

 169  0.300  0.700  0.246-  69 1.49  49 1.49  70 1.49  50 1.49  44 2.11  45 2.11  74 2.11  75 2.11

 170  0.300  0.700  0.317-  70 1.49  50 1.49 273 1.50 280 1.61 272 1.81 281 1.81  45 2.11  75 2.11

 171  0.300  0.900  0.035-  71 1.49  72 1.49  26 1.49  27 1.49  46 2.11  47 2.11  51 2.11  52 2.11

 172  0.300  0.900  0.106-  73 1.49  72 1.49  28 1.49  27 1.49  48 2.11  47 2.11  53 2.11  52 2.11

 173  0.300  0.900  0.176-  73 1.49  74 1.49  28 1.49  29 1.49  48 2.11  49 2.11  53 2.11  54 2.11

 174  0.300  0.900  0.246-  74 1.49  29 1.49  75 1.49  30 1.49  49 2.11  50 2.11  54 2.11  55 2.11

 175  0.300  0.900  0.317-  75 1.49  30 1.49 274 1.56 282 1.56 267 1.67 281 1.96  50 2.11  55 2.11

 176  0.500  0.100  0.035-  56 1.49  57 1.49  76 1.49  77 1.49  51 2.11  52 2.11  81 2.11  82 2.11

 177  0.500  0.100  0.106-  58 1.49  78 1.49  57 1.49  77 1.49  53 2.11  52 2.11  83 2.11  82 2.11

 178  0.500  0.100  0.176-  58 1.49  78 1.49  59 1.49  79 1.49  53 2.11  54 2.11  83 2.11  84 2.11

 179  0.500  0.100  0.246-  59 1.49  79 1.49  60 1.49  80 1.49  54 2.11  84 2.11  55 2.11  85 2.11

 180  0.500  0.100  0.317- 284 1.42  60 1.49  80 1.49 283 1.75 291 1.85 276 1.85 277 2.03 292 2.03
                            55 2.11  85 2.11
 181  0.500  0.300  0.035-  61 1.49  62 1.49  81 1.49  82 1.49  56 2.11  57 2.11  86 2.11  87 2.11

 182  0.500  0.300  0.106-  63 1.49  62 1.49  83 1.49  82 1.49  58 2.11  57 2.11  88 2.11  87 2.11

 183  0.500  0.300  0.176-  63 1.49  83 1.49  64 1.49  84 1.49  58 2.11  88 2.11  59 2.11  89 2.11

 184  0.500  0.300  0.246-  64 1.49  84 1.49  65 1.49  85 1.49  59 2.11  89 2.11  60 2.11  90 2.11

 185  0.500  0.300  0.317-  65 1.49  85 1.49 285 1.50 286 1.61 278 1.81 293 1.81  60 2.11  90 2.11

 186  0.500  0.500  0.035-  66 1.49  86 1.49  67 1.49  87 1.49  61 2.11  62 2.11  91 2.11  92 2.11

 187  0.500  0.500  0.106-  68 1.49  88 1.49  87 1.49  67 1.49  63 2.11  62 2.11  93 2.11  92 2.11

 188  0.500  0.500  0.176-  68 1.49  88 1.49  69 1.49  89 1.49  63 2.11  64 2.11  93 2.11  94 2.11

 189  0.500  0.500  0.246-  69 1.49  89 1.49  70 1.49  90 1.49  64 2.11  65 2.11  94 2.11  95 2.11

 190  0.500  0.500  0.317- 287 1.40  90 1.49  70 1.49 286 1.92 280 1.92 288 1.92 294 1.92 279 1.92
                           295 1.92  65 2.11  95 2.11
 191  0.500  0.700  0.035-  91 1.49  92 1.49  71 1.49  72 1.49  66 2.11  67 2.11  96 2.11  97 2.11

 192  0.500  0.700  0.106-  93 1.49  73 1.49  92 1.49  72 1.49  68 2.11  67 2.11  98 2.11  97 2.11

 193  0.500  0.700  0.176-  93 1.49  73 1.49  94 1.49  74 1.49  68 2.11  69 2.11  98 2.11  99 2.11

 194  0.500  0.700  0.246-  94 1.49  74 1.49  95 1.49  75 1.49  69 2.11  70 2.11  99 2.11 100 2.11

 195  0.500  0.700  0.317-  95 1.49  75 1.49 289 1.50 288 1.61 296 1.81 281 1.81  70 2.11 100 2.11

 196  0.500  0.900  0.035-  96 1.49  97 1.49  51 1.49  52 1.49  71 2.11  72 2.11  76 2.11  77 2.11

 197  0.500  0.900  0.106-  98 1.49  53 1.49  97 1.49  52 1.49  73 2.11  72 2.11  78 2.11  77 2.11

 198  0.500  0.900  0.176-  98 1.49  53 1.49  99 1.49  54 1.49  73 2.11  74 2.11  78 2.11  79 2.11

 199  0.500  0.900  0.246-  99 1.49  54 1.49 100 1.49  55 1.49  74 2.11  75 2.11  79 2.11  80 2.11

 200  0.500  0.900  0.317- 290 1.42 100 1.49  55 1.49 283 1.75 275 1.85 298 1.85 297 2.03 282 2.03
                            75 2.11  80 2.11
 201  0.700  0.100  0.035-  81 1.49  82 1.49 101 1.49 102 1.49  76 2.11  77 2.11 106 2.11 107 2.11

 202  0.700  0.100  0.106-  83 1.49  82 1.49 103 1.49 102 1.49  78 2.11  77 2.11 108 2.11 107 2.11

 203  0.700  0.100  0.176-  83 1.49 103 1.49  84 1.49 104 1.49  78 2.11  79 2.11 108 2.11 109 2.11

 204  0.700  0.100  0.246-  84 1.49 104 1.49  85 1.49 105 1.49  79 2.11  80 2.11 109 2.11 110 2.11

 205  0.700  0.100  0.317-  85 1.49 105 1.49 292 1.56 300 1.56 299 1.67 293 1.96  80 2.11 110 2.11

 206  0.700  0.300  0.035-  86 1.49  87 1.49 106 1.49 107 1.49  81 2.11  82 2.11 111 2.11 112 2.11

 207  0.700  0.300  0.106-  88 1.49  87 1.49 108 1.49 107 1.49  83 2.11  82 2.11 113 2.11 112 2.11

 208  0.700  0.300  0.176-  88 1.49  89 1.49 108 1.49 109 1.49  83 2.11  84 2.11 113 2.11 114 2.11

 209  0.700  0.300  0.246-  89 1.49 109 1.49  90 1.49 110 1.49  84 2.11  85 2.11 114 2.11 115 2.11

 210  0.700  0.300  0.317-  90 1.49 110 1.49 301 1.50 294 1.61 302 1.81 293 1.81  85 2.11 115 2.11

 211  0.700  0.500  0.035-  91 1.49  92 1.49 111 1.49 112 1.49  86 2.11  87 2.11 116 2.11 117 2.11

 212  0.700  0.500  0.106-  93 1.49 113 1.49  92 1.49 112 1.49  88 2.11  87 2.11 118 2.11 117 2.11

 213  0.700  0.500  0.176-  93 1.49 113 1.49  94 1.49 114 1.49  88 2.11  89 2.11 118 2.11 119 2.11

 214  0.700  0.500  0.246-  94 1.49 114 1.49  95 1.49 115 1.49  89 2.11  90 2.11 119 2.11 120 2.11

 215  0.700  0.500  0.317-  95 1.49 115 1.49 303 1.50 295 1.61 302 1.81 296 1.81  90 2.11 120 2.11

 216  0.700  0.700  0.035- 116 1.49  96 1.49 117 1.49  97 1.49  91 2.11  92 2.11 121 2.11 122 2.11

 217  0.700  0.700  0.106-  98 1.49 118 1.49 117 1.49  97 1.49  93 2.11  92 2.11 123 2.11 122 2.11

 218  0.700  0.700  0.176-  98 1.49 118 1.49  99 1.49 119 1.49  93 2.11  94 2.11 123 2.11 124 2.11

 219  0.700  0.700  0.246-  99 1.49 119 1.49 100 1.49 120 1.49  94 2.11  95 2.11 124 2.11 125 2.11

 220  0.700  0.700  0.317- 100 1.49 120 1.49 304 1.56 297 1.56 305 1.67 296 1.96  95 2.11 125 2.11

 221  0.700  0.900  0.035-  76 1.49 121 1.49  77 1.49 122 1.49  96 2.11  97 2.11 101 2.11 102 2.11

 222  0.700  0.900  0.106-  78 1.49 123 1.49  77 1.49 122 1.49  98 2.11  97 2.11 103 2.11 102 2.11

 223  0.700  0.900  0.176-  78 1.49 123 1.49  79 1.49 124 1.49  98 2.11  99 2.11 103 2.11 104 2.11

 224  0.700  0.900  0.246-  79 1.49 124 1.49  80 1.49 125 1.49  99 2.11 100 2.11 104 2.11 105 2.11

 225  0.700  0.900  0.317- 306 1.47  80 1.49 125 1.49 298 1.69 291 1.69 305 1.98 299 1.98 100 2.11
                           105 2.11
 226  0.900  0.100  0.035- 106 1.49 107 1.49   1 1.49   2 1.49 101 2.11 102 2.11   6 2.11   7 2.11

 227  0.900  0.100  0.106- 108 1.49 107 1.49   3 1.49   2 1.49 103 2.11 102 2.11   8 2.11   7 2.11

 228  0.900  0.100  0.176- 108 1.49   3 1.49 109 1.49   4 1.49 103 2.11 104 2.11   8 2.11   9 2.11

 229  0.900  0.100  0.246- 109 1.49   4 1.49 110 1.49   5 1.49 104 2.11 105 2.11   9 2.11  10 2.11

 230  0.900  0.100  0.317- 308 1.42 110 1.49   5 1.49 251 1.75 307 1.85 252 1.85 300 2.03 309 2.03
                           105 2.11  10 2.11
 231  0.900  0.300  0.035- 111 1.49 112 1.49   6 1.49   7 1.49 106 2.11 107 2.11  11 2.11  12 2.11

 232  0.900  0.300  0.106- 113 1.49 112 1.49   8 1.49   7 1.49 108 2.11 107 2.11  13 2.11  12 2.11

 233  0.900  0.300  0.176- 113 1.49 114 1.49   8 1.49   9 1.49 108 2.11 109 2.11  13 2.11  14 2.11

 234  0.900  0.300  0.246- 114 1.49   9 1.49 115 1.49  10 1.49 109 2.11 110 2.11  14 2.11  15 2.11

 235  0.900  0.300  0.317- 115 1.49  10 1.49 310 1.56 309 1.56 253 1.67 302 1.96 110 2.11  15 2.11

 236  0.900  0.500  0.035- 116 1.49 117 1.49  11 1.49  12 1.49 111 2.11 112 2.11  16 2.11  17 2.11

 237  0.900  0.500  0.106- 118 1.49  13 1.49 117 1.49  12 1.49 113 2.11 112 2.11  18 2.11  17 2.11

 238  0.900  0.500  0.176- 118 1.49  13 1.49 119 1.49  14 1.49 113 2.11 114 2.11  18 2.11  19 2.11

 239  0.900  0.500  0.246- 119 1.49  14 1.49 120 1.49  15 1.49 114 2.11 115 2.11  19 2.11  20 2.11

 240  0.900  0.500  0.317- 311 1.42 120 1.49  15 1.49 255 1.75 254 1.85 312 1.85 304 2.03 310 2.03
                           115 2.11  20 2.11
 241  0.900  0.700  0.035-  16 1.49 121 1.49  17 1.49 122 1.49 116 2.11 117 2.11  21 2.11  22 2.11

 242  0.900  0.700  0.106-  18 1.49 123 1.49  17 1.49 122 1.49 118 2.11 117 2.11  23 2.11  22 2.11

 243  0.900  0.700  0.176-  18 1.49 123 1.49  19 1.49 124 1.49 118 2.11 119 2.11  23 2.11  24 2.11

 244  0.900  0.700  0.246-  19 1.49 124 1.49  20 1.49 125 1.49 119 2.11 120 2.11  24 2.11  25 2.11

 245  0.900  0.700  0.317- 313 1.47  20 1.49 125 1.49 312 1.69 256 1.69 305 1.98 257 1.98 120 2.11
                            25 2.11
 246  0.900  0.900  0.035- 101 1.49  21 1.49 102 1.49  22 1.49 121 2.11 122 2.11   1 2.11   2 2.11

 247  0.900  0.900  0.106- 103 1.49  23 1.49 102 1.49  22 1.49 123 2.11 122 2.11   3 2.11   2 2.11

 248  0.900  0.900  0.176- 103 1.49  23 1.49 104 1.49  24 1.49 123 2.11 124 2.11   3 2.11   4 2.11

 249  0.900  0.900  0.246- 104 1.49  24 1.49 105 1.49  25 1.49 124 2.11 125 2.11   4 2.11   5 2.11

 250  0.900  0.900  0.317- 314 1.47 105 1.49  25 1.49 307 1.69 258 1.69 257 1.98 299 1.98 125 2.11
                             5 2.11
 251  0.000  0.000  0.364- 252 1.32 258 1.32 266 1.32 308 1.32 307 1.32 259 1.32 150 1.75 230 1.75
                             5 2.45
 252  0.000  0.125  0.364- 251 1.32 253 1.32 259 1.32 309 1.32 308 1.32 260 1.32 130 1.69 230 1.85

 253  0.000  0.250  0.364- 252 1.32 254 1.32 260 1.32 310 1.32 309 1.32 261 1.32 235 1.67 130 1.98
                           135 1.98  10 2.51
 254  0.000  0.375  0.364- 253 1.32 255 1.32 261 1.32 311 1.32 310 1.32 262 1.32 135 1.69 240 1.85
                            15 2.47
 255  0.000  0.500  0.364- 254 1.32 256 1.32 262 1.32 312 1.32 311 1.32 263 1.32 140 1.75 240 1.75

 256  0.000  0.625  0.364- 255 1.32 257 1.32 263 1.32 313 1.32 312 1.32 264 1.32 245 1.69 140 1.85
                            20 2.47
 257  0.000  0.750  0.364- 256 1.32 258 1.32 264 1.32 314 1.32 313 1.32 265 1.32 145 1.67 250 1.98
                           245 1.98  25 2.51
 258  0.000  0.875  0.364- 251 1.32 257 1.32 265 1.32 307 1.32 266 1.32 314 1.32 250 1.69 150 1.85

 259  0.125  0.000  0.364- 252 1.32 260 1.32 266 1.32 274 1.32 267 1.32 251 1.32 130 1.69 150 1.85

 260  0.125  0.125  0.364- 253 1.32 259 1.32 261 1.32 267 1.32 252 1.32 268 1.32 130 1.47
 261  0.125  0.250  0.364- 254 1.32 260 1.32 262 1.32 268 1.32 253 1.32 269 1.32 135 1.47  35 2.55

 262  0.125  0.375  0.364- 255 1.32 261 1.32 263 1.32 269 1.32 254 1.32 270 1.32 135 1.69 140 1.85

 263  0.125  0.500  0.364- 256 1.32 262 1.32 264 1.32 270 1.32 255 1.32 271 1.32 140 1.42
 264  0.125  0.625  0.364- 257 1.32 263 1.32 265 1.32 271 1.32 256 1.32 272 1.32 145 1.56 140 2.03
                            45 2.55
 265  0.125  0.750  0.364- 258 1.32 264 1.32 266 1.32 272 1.32 257 1.32 273 1.32 145 1.56 150 2.03

 266  0.125  0.875  0.364- 251 1.32 259 1.32 265 1.32 273 1.32 258 1.32 274 1.32 150 1.42
 267  0.250  0.000  0.364- 260 1.32 268 1.32 274 1.32 282 1.32 275 1.32 259 1.32 175 1.67 130 1.98
                           155 1.98  30 2.51
 268  0.250  0.125  0.364- 261 1.32 267 1.32 269 1.32 275 1.32 260 1.32 276 1.32 155 1.47  35 2.55

 269  0.250  0.250  0.364- 262 1.32 268 1.32 270 1.32 276 1.32 261 1.32 277 1.32 160 1.67 155 1.98
                           135 1.98
 270  0.250  0.375  0.364- 263 1.32 269 1.32 271 1.32 277 1.32 262 1.32 278 1.32 160 1.56 140 2.03
                            40 2.50
 271  0.250  0.500  0.364- 264 1.32 270 1.32 272 1.32 278 1.32 263 1.32 279 1.32 165 1.50
 272  0.250  0.625  0.364- 265 1.32 271 1.32 273 1.32 279 1.32 264 1.32 280 1.32 165 1.81 170 1.81
                           145 1.96  45 2.55
 273  0.250  0.750  0.364- 266 1.32 272 1.32 274 1.32 280 1.32 265 1.32 281 1.32 170 1.50  50 2.51

 274  0.250  0.875  0.364- 259 1.32 267 1.32 273 1.32 281 1.32 266 1.32 282 1.32 175 1.56 150 2.03

 275  0.375  0.000  0.364- 268 1.32 276 1.32 282 1.32 290 1.32 283 1.32 267 1.32 155 1.69 200 1.85
                            55 2.47
 276  0.375  0.125  0.364- 269 1.32 275 1.32 277 1.32 283 1.32 268 1.32 284 1.32 155 1.69 180 1.85

 277  0.375  0.250  0.364- 270 1.32 276 1.32 278 1.32 284 1.32 269 1.32 285 1.32 160 1.56 180 2.03
                            60 2.50
 278  0.375  0.375  0.364- 271 1.32 277 1.32 279 1.32 285 1.32 270 1.32 286 1.32 165 1.81 185 1.81
                           160 1.96  65 2.50
 279  0.375  0.500  0.364- 272 1.32 278 1.32 280 1.32 286 1.32 271 1.32 287 1.32 165 1.61 190 1.92

 280  0.375  0.625  0.364- 273 1.32 279 1.32 281 1.32 287 1.32 272 1.32 288 1.32 170 1.61 190 1.92
                            70 2.47
 281  0.375  0.750  0.364- 274 1.32 280 1.32 282 1.32 288 1.32 273 1.32 289 1.32 170 1.81 195 1.81
                           175 1.96  75 2.55
 282  0.375  0.875  0.364- 267 1.32 275 1.32 281 1.32 289 1.32 274 1.32 290 1.32 175 1.56 200 2.03
                            75 2.55
 283  0.500  0.000  0.364- 276 1.32 284 1.32 290 1.32 298 1.32 291 1.32 275 1.32 180 1.75 200 1.75

 284  0.500  0.125  0.364- 277 1.32 283 1.32 285 1.32 291 1.32 276 1.32 292 1.32 180 1.42
 285  0.500  0.250  0.364- 278 1.32 284 1.32 286 1.32 292 1.32 277 1.32 293 1.32 185 1.50
 286  0.500  0.375  0.364- 279 1.32 285 1.32 287 1.32 293 1.32 278 1.32 294 1.32 185 1.61 190 1.92

 287  0.500  0.500  0.364- 280 1.32 286 1.32 288 1.32 294 1.32 279 1.32 295 1.32 190 1.40
 288  0.500  0.625  0.364- 281 1.32 287 1.32 289 1.32 295 1.32 280 1.32 296 1.32 195 1.61 190 1.92

 289  0.500  0.750  0.364- 282 1.32 288 1.32 290 1.32 296 1.32 281 1.32 297 1.32 195 1.50
 290  0.500  0.875  0.364- 275 1.32 283 1.32 289 1.32 297 1.32 282 1.32 298 1.32 200 1.42
 291  0.625  0.000  0.364- 284 1.32 292 1.32 298 1.32 306 1.32 299 1.32 283 1.32 225 1.69 180 1.85
                            80 2.47
 292  0.625  0.125  0.364- 285 1.32 291 1.32 293 1.32 299 1.32 284 1.32 300 1.32 205 1.56 180 2.03
                            85 2.55
 293  0.625  0.250  0.364- 286 1.32 292 1.32 294 1.32 300 1.32 285 1.32 301 1.32 185 1.81 210 1.81
                           205 1.96  85 2.55
 294  0.625  0.375  0.364- 287 1.32 293 1.32 295 1.32 301 1.32 286 1.32 302 1.32 210 1.61 190 1.92
                            90 2.47
 295  0.625  0.500  0.364- 288 1.32 294 1.32 296 1.32 302 1.32 287 1.32 303 1.32 215 1.61 190 1.92

 296  0.625  0.625  0.364- 289 1.32 295 1.32 297 1.32 303 1.32 288 1.32 304 1.32 215 1.81 195 1.81
                           220 1.96  95 2.50
 297  0.625  0.750  0.364- 290 1.32 296 1.32 298 1.32 304 1.32 289 1.32 305 1.32 220 1.56 200 2.03
                           100 2.50
 298  0.625  0.875  0.364- 283 1.32 291 1.32 297 1.32 305 1.32 290 1.32 306 1.32 225 1.69 200 1.85

 299  0.750  0.000  0.364- 292 1.32 300 1.32 306 1.32 314 1.32 307 1.32 291 1.32 205 1.67 250 1.98
                           225 1.98 105 2.51
 300  0.750  0.125  0.364- 293 1.32 299 1.32 301 1.32 307 1.32 292 1.32 308 1.32 205 1.56 230 2.03

 301  0.750  0.250  0.364- 294 1.32 300 1.32 302 1.32 308 1.32 293 1.32 309 1.32 210 1.50 110 2.51

 302  0.750  0.375  0.364- 295 1.32 301 1.32 303 1.32 309 1.32 294 1.32 310 1.32 215 1.81 210 1.81
                           235 1.96 115 2.55
 303  0.750  0.500  0.364- 296 1.32 302 1.32 304 1.32 310 1.32 295 1.32 311 1.32 215 1.50
 304  0.750  0.625  0.364- 297 1.32 303 1.32 305 1.32 311 1.32 296 1.32 312 1.32 220 1.56 240 2.03
                           120 2.50
 305  0.750  0.750  0.364- 298 1.32 304 1.32 306 1.32 312 1.32 297 1.32 313 1.32 220 1.67 225 1.98
                           245 1.98
 306  0.750  0.875  0.364- 291 1.32 299 1.32 305 1.32 313 1.32 298 1.32 314 1.32 225 1.47 125 2.55

 307  0.875  0.000  0.364- 258 1.32 300 1.32 308 1.32 314 1.32 299 1.32 251 1.32 250 1.69 230 1.85

 308  0.875  0.125  0.364- 251 1.32 301 1.32 307 1.32 309 1.32 300 1.32 252 1.32 230 1.42
 309  0.875  0.250  0.364- 252 1.32 302 1.32 308 1.32 310 1.32 301 1.32 253 1.32 235 1.56 230 2.03

 310  0.875  0.375  0.364- 253 1.32 303 1.32 309 1.32 311 1.32 302 1.32 254 1.32 235 1.56 240 2.03
                           115 2.55
 311  0.875  0.500  0.364- 254 1.32 304 1.32 310 1.32 312 1.32 303 1.32 255 1.32 240 1.42
 312  0.875  0.625  0.364- 255 1.32 305 1.32 311 1.32 313 1.32 304 1.32 256 1.32 245 1.69 240 1.85

 313  0.875  0.750  0.364- 256 1.32 306 1.32 312 1.32 314 1.32 305 1.32 257 1.32 245 1.47 125 2.55

 314  0.875  0.875  0.364- 257 1.32 299 1.32 307 1.32 313 1.32 258 1.32 306 1.32 250 1.47
 
  LATTYP: Found a hexagonal cell.
 ALAT       =    10.5415000916
 C/A-ratio  =     2.8403452859
  
  Lattice vectors:
  
 A1 = (  -5.2707500458,  -9.1292068733,   0.0000000000)
 A2 = (  10.5415000916,   0.0000000000,   0.0000000000)
 A3 = (   0.0000000000,   0.0000000000,  29.9415000916)


Analysis of symmetry for initial positions (statically):
=====================================================================
 Subroutine PRICEL returns:
 Original cell was already a primitive cell.
 

 Routine SETGRP: Setting up the symmetry group for a 
 hexagonal supercell.


 Subroutine GETGRP returns: Found  4 space group operations
 (whereof  4 operations were pure point group operations)
 out of a pool of 24 trial point group operations.


The static configuration has the point symmetry C_2v.


Analysis of symmetry for dynamics (positions and initial velocities):
=====================================================================
 Subroutine PRICEL returns:
 Original cell was already a primitive cell.
 

 Routine SETGRP: Setting up the symmetry group for a 
 hexagonal supercell.


 Subroutine GETGRP returns: Found  4 space group operations
 (whereof  4 operations were pure point group operations)
 out of a pool of 24 trial point group operations.


The dynamic configuration has the point symmetry C_2v.


 Subroutine INISYM returns: Found  4 space group operations
 (whereof  4 operations are pure point group operations),
 and found     1 'primitive' translations


----------------------------------------------------------------------------------------

                                     Primitive cell                                     

  volume of cell :    2881.4363

  direct lattice vectors                    reciprocal lattice vectors
    10.541500092  0.000000000  0.000000000     0.094863159 -0.054769270  0.000000000
     5.270750046  9.129206873  0.000000000     0.000000000  0.109538541  0.000000000
     0.000000000  0.000000000 29.941500092     0.000000000  0.000000000  0.033398460

  length of vectors
    10.541500092 10.541500092 29.941500092     0.109538541  0.109538541  0.033398460

  position of ions in fractional coordinates (direct lattice)
     0.000000000  0.000000000  0.000000000
     0.000000000  0.000000000  0.070413975
     0.000000000  0.000000000  0.140827951
     0.000000000  0.000000000  0.211241931
     0.000000000  0.000000000  0.281655901
     1.000000000  0.200000003  0.000000000
     1.000000000  0.200000003  0.070413975
     1.000000000  0.200000003  0.140827951
     1.000000000  0.200000003  0.211241931
     1.000000000  0.200000003  0.281655901
     1.000000000  0.400000006  0.000000000
     1.000000000  0.400000006  0.070413975
     1.000000000  0.400000006  0.140827951
     1.000000000  0.400000006  0.211241931
     1.000000000  0.400000006  0.281655901
     1.000000000  0.600000024  0.000000000
     1.000000000  0.600000024  0.070413975
     1.000000000  0.600000024  0.140827951
     1.000000000  0.600000024  0.211241931
     1.000000000  0.600000024  0.281655901
     1.000000000  0.800000012  0.000000000
     1.000000000  0.800000012  0.070413975
     1.000000000  0.800000012  0.140827951
     1.000000000  0.800000012  0.211241931
     1.000000000  0.800000012  0.281655901
     0.200000003  0.000000000  0.000000000
     0.200000003  0.000000000  0.070413975
     0.200000003  0.000000000  0.140827951
     0.200000003  0.000000000  0.211241931
     0.200000003  0.000000000  0.281655901
     0.200000003  0.200000003  0.000000000
     0.200000003  0.200000003  0.070413975
     0.200000003  0.200000003  0.140827951
     0.200000003  0.200000003  0.211241931
     0.200000003  0.200000003  0.281655901
     0.200000003  0.400000006  0.000000000
     0.200000003  0.400000006  0.070413975
     0.200000003  0.400000006  0.140827951
     0.200000003  0.400000006  0.211241931
     0.200000003  0.400000006  0.281655901
     0.200000003  0.600000024  0.000000000
     0.200000003  0.600000024  0.070413975
     0.200000003  0.600000024  0.140827951
     0.200000003  0.600000024  0.211241931
     0.200000003  0.600000024  0.281655901
     0.200000003  0.800000012  0.000000000
     0.200000003  0.800000012  0.070413975
     0.200000003  0.800000012  0.140827951
     0.200000003  0.800000012  0.211241931
     0.200000003  0.800000012  0.281655901
     0.400000006  0.000000000  0.000000000
     0.400000006  0.000000000  0.070413975
     0.400000006  0.000000000  0.140827951
     0.400000006  0.000000000  0.211241931
     0.400000006  0.000000000  0.281655901
     0.400000006  0.200000003  0.000000000
     0.400000006  0.200000003  0.070413975
     0.400000006  0.200000003  0.140827951
     0.400000006  0.200000003  0.211241931
     0.400000006  0.200000003  0.281655901
     0.400000006  0.400000006  0.000000000
     0.400000006  0.400000006  0.070413975
     0.400000006  0.400000006  0.140827951
     0.400000006  0.400000006  0.211241931
     0.400000006  0.400000006  0.281655901
     0.400000006  0.600000024  0.000000000
     0.400000006  0.600000024  0.070413975
     0.400000006  0.600000024  0.140827951
     0.400000006  0.600000024  0.211241931
     0.400000006  0.600000024  0.281655901
     0.400000006  0.800000012  0.000000000
     0.400000006  0.800000012  0.070413975
     0.400000006  0.800000012  0.140827951
     0.400000006  0.800000012  0.211241931
     0.400000006  0.800000012  0.281655901
     0.600000024  0.000000000  0.000000000
     0.600000024  0.000000000  0.070413975
     0.600000024  0.000000000  0.140827951
     0.600000024  0.000000000  0.211241931
     0.600000024  0.000000000  0.281655901
     0.600000024  0.200000003  0.000000000
     0.600000024  0.200000003  0.070413975
     0.600000024  0.200000003  0.140827951
     0.600000024  0.200000003  0.211241931
     0.600000024  0.200000003  0.281655901
     0.600000024  0.400000006  0.000000000
     0.600000024  0.400000006  0.070413975
     0.600000024  0.400000006  0.140827951
     0.600000024  0.400000006  0.211241931
     0.600000024  0.400000006  0.281655901
     0.600000024  0.600000024  0.000000000
     0.600000024  0.600000024  0.070413975
     0.600000024  0.600000024  0.140827951
     0.600000024  0.600000024  0.211241931
     0.600000024  0.600000024  0.281655901
     0.600000024  0.800000012  0.000000000
     0.600000024  0.800000012  0.070413975
     0.600000024  0.800000012  0.140827951
     0.600000024  0.800000012  0.211241931
     0.600000024  0.800000012  0.281655901
     0.800000012  0.000000000  0.000000000
     0.800000012  0.000000000  0.070413975
     0.800000012  0.000000000  0.140827951
     0.800000012  0.000000000  0.211241931
     0.800000012  0.000000000  0.281655901
     0.800000012  0.200000003  0.000000000
     0.800000012  0.200000003  0.070413975
     0.800000012  0.200000003  0.140827951
     0.800000012  0.200000003  0.211241931
     0.800000012  0.200000003  0.281655901
     0.800000012  0.400000006  0.000000000
     0.800000012  0.400000006  0.070413975
     0.800000012  0.400000006  0.140827951
     0.800000012  0.400000006  0.211241931
     0.800000012  0.400000006  0.281655901
     0.800000012  0.600000024  0.000000000
     0.800000012  0.600000024  0.070413975
     0.800000012  0.600000024  0.140827951
     0.800000012  0.600000024  0.211241931
     0.800000012  0.600000024  0.281655901
     0.800000012  0.800000012  0.000000000
     0.800000012  0.800000012  0.070413975
     0.800000012  0.800000012  0.140827951
     0.800000012  0.800000012  0.211241931
     0.800000012  0.800000012  0.281655901
     0.100000001  0.100000001  0.035206988
     0.100000001  0.100000001  0.105620966
     0.100000001  0.100000001  0.176034936
     0.100000001  0.100000001  0.246448906
     0.100000001  0.100000001  0.316862876
     0.100000001  0.300000012  0.035206988
     0.100000001  0.300000012  0.105620966
     0.100000001  0.300000012  0.176034936
     0.100000001  0.300000012  0.246448906
     0.100000001  0.300000012  0.316862876
     0.100000001  0.500000000  0.035206988
     0.100000001  0.500000000  0.105620966
     0.100000001  0.500000000  0.176034936
     0.100000001  0.500000000  0.246448906
     0.100000001  0.500000000  0.316862876
     0.100000001  0.699999988  0.035206988
     0.100000001  0.699999988  0.105620966
     0.100000001  0.699999988  0.176034936
     0.100000001  0.699999988  0.246448906
     0.100000001  0.699999988  0.316862876
     0.100000001  0.899999976  0.035206988
     0.100000001  0.899999976  0.105620966
     0.100000001  0.899999976  0.176034936
     0.100000001  0.899999976  0.246448906
     0.100000001  0.899999976  0.316862876
     0.300000012  0.100000001  0.035206988
     0.300000012  0.100000001  0.105620966
     0.300000012  0.100000001  0.176034936
     0.300000012  0.100000001  0.246448906
     0.300000012  0.100000001  0.316862876
     0.300000012  0.300000012  0.035206988
     0.300000012  0.300000012  0.105620966
     0.300000012  0.300000012  0.176034936
     0.300000012  0.300000012  0.246448906
     0.300000012  0.300000012  0.316862876
     0.300000012  0.500000000  0.035206988
     0.300000012  0.500000000  0.105620966
     0.300000012  0.500000000  0.176034936
     0.300000012  0.500000000  0.246448906
     0.300000012  0.500000000  0.316862876
     0.300000012  0.699999988  0.035206988
     0.300000012  0.699999988  0.105620966
     0.300000012  0.699999988  0.176034936
     0.300000012  0.699999988  0.246448906
     0.300000012  0.699999988  0.316862876
     0.300000012  0.899999976  0.035206988
     0.300000012  0.899999976  0.105620966
     0.300000012  0.899999976  0.176034936
     0.300000012  0.899999976  0.246448906
     0.300000012  0.899999976  0.316862876
     0.500000000  0.100000001  0.035206988
     0.500000000  0.100000001  0.105620966
     0.500000000  0.100000001  0.176034936
     0.500000000  0.100000001  0.246448906
     0.500000000  0.100000001  0.316862876
     0.500000000  0.300000012  0.035206988
     0.500000000  0.300000012  0.105620966
     0.500000000  0.300000012  0.176034936
     0.500000000  0.300000012  0.246448906
     0.500000000  0.300000012  0.316862876
     0.500000000  0.500000000  0.035206988
     0.500000000  0.500000000  0.105620966
     0.500000000  0.500000000  0.176034936
     0.500000000  0.500000000  0.246448906
     0.500000000  0.500000000  0.316862876
     0.500000000  0.699999988  0.035206988
     0.500000000  0.699999988  0.105620966
     0.500000000  0.699999988  0.176034936
     0.500000000  0.699999988  0.246448906
     0.500000000  0.699999988  0.316862876
     0.500000000  0.899999976  0.035206988
     0.500000000  0.899999976  0.105620966
     0.500000000  0.899999976  0.176034936
     0.500000000  0.899999976  0.246448906
     0.500000000  0.899999976  0.316862876
     0.699999988  0.100000001  0.035206988
     0.699999988  0.100000001  0.105620966
     0.699999988  0.100000001  0.176034936
     0.699999988  0.100000001  0.246448906
     0.699999988  0.100000001  0.316862876
     0.699999988  0.300000012  0.035206988
     0.699999988  0.300000012  0.105620966
     0.699999988  0.300000012  0.176034936
     0.699999988  0.300000012  0.246448906
     0.699999988  0.300000012  0.316862876
     0.699999988  0.500000000  0.035206988
     0.699999988  0.500000000  0.105620966
     0.699999988  0.500000000  0.176034936
     0.699999988  0.500000000  0.246448906
     0.699999988  0.500000000  0.316862876
     0.699999988  0.699999988  0.035206988
     0.699999988  0.699999988  0.105620966
     0.699999988  0.699999988  0.176034936
     0.699999988  0.699999988  0.246448906
     0.699999988  0.699999988  0.316862876
     0.699999988  0.899999976  0.035206988
     0.699999988  0.899999976  0.105620966
     0.699999988  0.899999976  0.176034936
     0.699999988  0.899999976  0.246448906
     0.699999988  0.899999976  0.316862876
     0.899999976  0.100000001  0.035206988
     0.899999976  0.100000001  0.105620966
     0.899999976  0.100000001  0.176034936
     0.899999976  0.100000001  0.246448906
     0.899999976  0.100000001  0.316862876
     0.899999976  0.300000012  0.035206988
     0.899999976  0.300000012  0.105620966
     0.899999976  0.300000012  0.176034936
     0.899999976  0.300000012  0.246448906
     0.899999976  0.300000012  0.316862876
     0.899999976  0.500000000  0.035206988
     0.899999976  0.500000000  0.105620966
     0.899999976  0.500000000  0.176034936
     0.899999976  0.500000000  0.246448906
     0.899999976  0.500000000  0.316862876
     0.899999976  0.699999988  0.035206988
     0.899999976  0.699999988  0.105620966
     0.899999976  0.699999988  0.176034936
     0.899999976  0.699999988  0.246448906
     0.899999976  0.699999988  0.316862876
     0.899999976  0.899999976  0.035206988
     0.899999976  0.899999976  0.105620966
     0.899999976  0.899999976  0.176034936
     0.899999976  0.899999976  0.246448906
     0.899999976  0.899999976  0.316862876
     0.000000000  0.000000000  0.363620720
     1.000000000  0.125000000  0.363620720
     1.000000000  0.250000000  0.363620720
     1.000000000  0.375000000  0.363620720
     1.000000000  0.500000000  0.363620720
     1.000000000  0.625000000  0.363620720
     1.000000000  0.750000000  0.363620720
     1.000000000  0.875000000  0.363620720
     0.125000000  0.000000000  0.363620720
     0.125000000  0.125000000  0.363620720
     0.125000000  0.250000000  0.363620720
     0.125000000  0.375000000  0.363620720
     0.125000000  0.500000000  0.363620720
     0.125000000  0.625000000  0.363620720
     0.125000000  0.750000000  0.363620720
     0.125000000  0.875000000  0.363620720
     0.250000000  0.000000000  0.363620720
     0.250000000  0.125000000  0.363620720
     0.250000000  0.250000000  0.363620720
     0.250000000  0.375000000  0.363620720
     0.250000000  0.500000000  0.363620720
     0.250000000  0.625000000  0.363620720
     0.250000000  0.750000000  0.363620720
     0.250000000  0.875000000  0.363620720
     0.375000000  0.000000000  0.363620720
     0.375000000  0.125000000  0.363620720
     0.375000000  0.250000000  0.363620720
     0.375000000  0.375000000  0.363620720
     0.375000000  0.500000000  0.363620720
     0.375000000  0.625000000  0.363620720
     0.375000000  0.750000000  0.363620720
     0.375000000  0.875000000  0.363620720
     0.500000000  0.000000000  0.363620720
     0.500000000  0.125000000  0.363620720
     0.500000000  0.250000000  0.363620720
     0.500000000  0.375000000  0.363620720
     0.500000000  0.500000000  0.363620720
     0.500000000  0.625000000  0.363620720
     0.500000000  0.750000000  0.363620720
     0.500000000  0.875000000  0.363620720
     0.625000000  0.000000000  0.363620720
     0.625000000  0.125000000  0.363620720
     0.625000000  0.250000000  0.363620720
     0.625000000  0.375000000  0.363620720
     0.625000000  0.500000000  0.363620720
     0.625000000  0.625000000  0.363620720
     0.625000000  0.750000000  0.363620720
     0.625000000  0.875000000  0.363620720
     0.750000000  0.000000000  0.363620720
     0.750000000  0.125000000  0.363620720
     0.750000000  0.250000000  0.363620720
     0.750000000  0.375000000  0.363620720
     0.750000000  0.500000000  0.363620720
     0.750000000  0.625000000  0.363620720
     0.750000000  0.750000000  0.363620720
     0.750000000  0.875000000  0.363620720
     0.875000000  0.000000000  0.363620720
     0.875000000  0.125000000  0.363620720
     0.875000000  0.250000000  0.363620720
     0.875000000  0.375000000  0.363620720
     0.875000000  0.500000000  0.363620720
     0.875000000  0.625000000  0.363620720
     0.875000000  0.750000000  0.363620720
     0.875000000  0.875000000  0.363620720

  ion indices of the primitive-cell ions
   primitive index   ion index
                 1           1
                 2           2
                 3           3
                 4           4
                 5           5
                 6           6
                 7           7
                 8           8
                 9           9
                10          10
                11          11
                12          12
                13          13
                14          14
                15          15
                16          16
                17          17
                18          18
                19          19
                20          20
                21          21
                22          22
                23          23
                24          24
                25          25
                26          26
                27          27
                28          28
                29          29
                30          30
                31          31
                32          32
                33          33
                34          34
                35          35
                36          36
                37          37
                38          38
                39          39
                40          40
                41          41
                42          42
                43          43
                44          44
                45          45
                46          46
                47          47
                48          48
                49          49
                50          50
                51          51
                52          52
                53          53
                54          54
                55          55
                56          56
                57          57
                58          58
                59          59
                60          60
                61          61
                62          62
                63          63
                64          64
                65          65
                66          66
                67          67
                68          68
                69          69
                70          70
                71          71
                72          72
                73          73
                74          74
                75          75
                76          76
                77          77
                78          78
                79          79
                80          80
                81          81
                82          82
                83          83
                84          84
                85          85
                86          86
                87          87
                88          88
                89          89
                90          90
                91          91
                92          92
                93          93
                94          94
                95          95
                96          96
                97          97
                98          98
                99          99
               100         100
               101         101
               102         102
               103         103
               104         104
               105         105
               106         106
               107         107
               108         108
               109         109
               110         110
               111         111
               112         112
               113         113
               114         114
               115         115
               116         116
               117         117
               118         118
               119         119
               120         120
               121         121
               122         122
               123         123
               124         124
               125         125
               126         126
               127         127
               128         128
               129         129
               130         130
               131         131
               132         132
               133         133
               134         134
               135         135
               136         136
               137         137
               138         138
               139         139
               140         140
               141         141
               142         142
               143         143
               144         144
               145         145
               146         146
               147         147
               148         148
               149         149
               150         150
               151         151
               152         152
               153         153
               154         154
               155         155
               156         156
               157         157
               158         158
               159         159
               160         160
               161         161
               162         162
               163         163
               164         164
[...]
      9.51858      1.77174      8.43555        -8.105231     14.038672     15.481946
     10.46225      3.74163     -1.32422        -4.307741     -2.980300    -10.629217
     10.53260      3.63985      1.98027        -9.583185      4.135183    -12.264291
     10.54554      3.64866      4.25209        -2.375462      3.518850    -13.886617
     10.54164      3.65330      6.34341         3.614805      2.373860     -4.282269
     10.54651      3.65929      8.37557       -11.449257      3.401892     28.711613
     11.54921      5.44781     -1.35320        -8.111259     -8.933327    -14.025618
     11.59294      5.47892      1.99530       -10.460213     -1.622631     -5.321026
     11.59187      5.48025      4.25441        -1.256223     -4.514753     -7.580620
     11.59473      5.48199      6.33598         0.858212     -0.737385     -1.273870
     11.65481      5.40299      8.41687       -15.187749     22.215466     27.467271
     12.65981      7.30914     -1.29237       -23.872270    -13.782662     11.288865
     12.65581      7.30683      1.98403         1.192670      0.688589    -13.229530
     12.64087      7.29821      4.26126        -0.979373     -0.565441    -13.369258
     12.65315      7.30530      6.33632        -1.285275     -0.742054      0.776650
     12.62965      7.29173      8.40683        -9.144839     -5.279775     23.138836
      1.57386      0.90867      0.71653        -0.446523     -0.257800    -22.870264
      1.58898      0.91740      3.15883        -0.700334     -0.404338     -5.362579
      1.57608      0.90995      5.29311        -0.229690     -0.132611    -23.628756
      1.58571      0.91551      7.44069        -1.800572     -1.039561    -10.626188
      1.56229      0.90199      9.63528         1.045628      0.603694     20.259960
      2.62962      2.72494      0.74443         1.515285     -0.184254    -21.335158
      2.64191      2.74005      3.18445        -0.466712     -0.013198    -14.160589
      2.63984      2.73521      5.29591        -4.239062      2.868374     -3.536798
      2.63822      2.73715      7.42853        -5.972792      4.615426    -11.400753
      2.62860      2.70679      9.63985        -1.213110     -4.972355     30.122505
      3.69318      4.56323      0.74148         0.725733     -0.688642    -24.953879
      3.68567      4.56583      3.18037        -0.652482      0.640182     -8.704915
      3.69098      4.56125      5.29912        -0.179732      0.314736     -5.508751
      3.69370      4.56633      7.43600        -0.432728      3.729027    -26.200382
      3.70319      4.56222      9.67681         5.644692     -2.520673     32.291753
      4.73613      6.41247      0.72463         3.172088     -4.214297    -23.018287
      4.74129      6.37893      3.16055         1.876373     -3.899469    -10.218598
      4.74507      6.38664      5.29412         4.733120     -7.684707    -16.223952
      4.74706      6.38980      7.43027         1.258566      0.273465     -2.364988
      4.74439      6.35319      9.61939         0.283058      6.077339     20.257284
      5.80396      8.20566      0.74433        -0.450019      0.779456    -20.871463
      5.79703      8.21767      3.15630         1.948058     -3.374135    -15.798139
      5.80293      8.20745      5.29043         3.520014     -6.096843      3.750786
      5.79955      8.21331      7.43135        -5.323571      9.220696    -16.117568
      5.81795      8.18142      9.69582         5.410972     -9.372078     26.516150
      3.67468      0.91485      0.74443         0.598074      1.404402    -21.335158
      3.69390      0.91794      3.18445        -0.244786     -0.397586    -14.160589
      3.68868      0.91856      5.29591         0.364554     -5.105322     -3.536798
      3.68955      0.91619      7.42853         1.010680     -7.480303    -11.400753
      3.65845      0.92304      9.63985        -4.912741      1.435593     30.122505
      4.74261      2.73815      0.75080         1.694109      0.978095    -26.381937
      4.74703      2.74070      3.17724         0.044961      0.025958     -5.877412
      4.74643      2.74035      5.29154         0.296457      0.171160     -5.362004
      4.74533      2.73972      7.42251         0.898204      0.518578     -3.120170
      4.77093      2.75450      9.63155        -3.341177     -1.929029     14.363872
      5.80582      4.57473      0.74506         0.864165     -0.189159    -20.638660
      5.79816      4.55401      3.16384        -1.080829      1.164011    -12.895844
      5.80116      4.56180      5.30093         1.284154      0.348258     -9.069158
      5.80050      4.56228      7.42724         2.430055     -0.087162    -12.917854
      5.79745      4.54792      9.61618        -2.921094      1.864420      6.197859
      6.83191      6.42521      0.79278         1.230095     -2.130587    -26.104458
      6.86113      6.37458      3.15319        -0.948173      1.642285     -5.934052
      6.85581      6.38379      5.29466         0.410299     -0.710659     -5.485615
      6.85115      6.39187      7.41506         0.937546     -1.623877     -3.178055
      6.86783      6.36298      9.62965        -5.742382      9.946097     14.449979
      7.89083      8.23383      0.72463         2.063644     -4.854258    -23.018287
      7.91729      8.21259      3.16055         2.438853     -3.574722    -10.218598
      7.90872      8.21317      5.29412         4.288591     -7.941356    -16.223952
      7.90499      8.21303      7.43027        -0.866110     -0.953218     -2.364988
      7.93804      8.19704      9.61939        -5.404659      2.793534     20.257284
      5.79847      0.91677      0.74148        -0.233515      0.972824    -24.953879
      5.79696      0.90897      3.18037         0.228173     -0.885158     -8.704915
      5.79564      0.91586      5.29912         0.182703     -0.313021     -5.508751
      5.80140      0.91567      7.43600         3.013068     -2.239267    -26.200382
      5.80259      0.92595      9.67681         0.639379      6.148783     32.291753
      6.86474      2.74063      0.74506         0.268266      0.842969    -20.638660
      6.84297      2.74434      3.16384         0.467649     -1.518031    -12.895844
      6.85122      2.74305      5.30093         0.943677      0.937981     -9.069158
      6.85130      2.74223      7.42724         1.139543      2.148070    -12.917854
      6.83734      2.74678      9.61618         0.154088     -3.461951      6.197859
      7.90613      4.56460      0.82410         0.000000      0.000000    -26.732780
      7.90613      4.56460      3.14768         0.000000      0.000000     -7.886824
      7.90613      4.56460      5.30598         0.000000      0.000000     -6.100156
      7.90613      4.56460      7.42216         0.000000      0.000000    -17.852152
      7.90613      4.56460      9.71912         0.000000      0.000000     16.314089
      8.94751      6.38858      0.74506        -0.268266     -0.842969    -20.638660
      8.96928      6.38486      3.16384        -0.467649      1.518031    -12.895844
      8.96103      6.38615      5.30093        -0.943677     -0.937981     -9.069158
      8.96095      6.38697      7.42724        -1.139543     -2.148070    -12.917854
      8.97491      6.38243      9.61618        -0.154088      3.461951      6.197859
     10.01378      8.21243      0.74148         0.233515     -0.972824    -24.953879
     10.01529      8.22024      3.18037        -0.228173      0.885158     -8.704915
     10.01661      8.21335      5.29912        -0.182703      0.313021     -5.508751
     10.01085      8.21354      7.43600        -3.013068      2.239267    -26.200382
     10.00966      8.20326      9.67681        -0.639379     -6.148783     32.291753
      7.92142      0.89537      0.72463        -2.063644      4.854258    -23.018287
      7.89496      0.91662      3.16055        -2.438853      3.574722    -10.218598
      7.90353      0.91604      5.29412        -4.288591      7.941356    -16.223952
      7.90726      0.91617      7.43027         0.866110      0.953218     -2.364988
      7.87421      0.93217      9.61939         5.404659     -2.793534     20.257284
      8.98034      2.70400      0.79278        -1.230095      2.130587    -26.104458
      8.95112      2.75463      3.15319         0.948173     -1.642285     -5.934052
      8.95644      2.74541      5.29466        -0.410299      0.710659     -5.485615
      8.96110      2.73734      7.41506        -0.937546      1.623877     -3.178055
      8.94442      2.76622      9.62965         5.742382     -9.946097     14.449979
     10.00643      4.55448      0.74506        -0.864165      0.189159    -20.638660
     10.01409      4.57519      3.16384         1.080829     -1.164011    -12.895844
     10.01109      4.56741      5.30093        -1.284154     -0.348258     -9.069158
     10.01175      4.56692      7.42724        -2.430055      0.087162    -12.917854
     10.01480      4.58128      9.61618         2.921094     -1.864420      6.197859
     11.06964      6.39106      0.75080        -1.694109     -0.978095    -26.381937
     11.06522      6.38851      3.17724        -0.044961     -0.025958     -5.877412
     11.06582      6.38885      5.29154        -0.296457     -0.171160     -5.362004
     11.06692      6.38949      7.42251        -0.898204     -0.518578     -3.120170
     11.04132      6.37471      9.63155         3.341177      1.929029     14.363872
     12.13757      8.21436      0.74443        -0.598074     -1.404402    -21.335158
     12.11835      8.21127      3.18445         0.244786      0.397586    -14.160589
     12.12357      8.21064      5.29591        -0.364554      5.105322     -3.536798
     12.12270      8.21302      7.42853        -1.010680      7.480303    -11.400753
     12.15380      8.20616      9.63985         4.912741     -1.435593     30.122505
     10.00829      0.92355      0.74433         0.450019     -0.779456    -20.871463
     10.01522      0.91154      3.15630        -1.948058      3.374135    -15.798139
     10.00932      0.92176      5.29043        -3.520014      6.096843      3.750786
     10.01270      0.91590      7.43135         5.323571     -9.220696    -16.117568
      9.99430      0.94778      9.69582        -5.410972      9.372078     26.516150
     11.07612      2.71674      0.72463        -3.172088      4.214297    -23.018287
     11.07096      2.75028      3.16055        -1.876373      3.899469    -10.218598
     11.06718      2.74257      5.29412        -4.733120      7.684707    -16.223952
     11.06519      2.73940      7.43027        -1.258566     -0.273465     -2.364988
     11.06786      2.77602      9.61939        -0.283058     -6.077339     20.257284
     12.11907      4.56597      0.74148        -0.725733      0.688642    -24.953879
     12.12658      4.56337      3.18037         0.652482     -0.640182     -8.704915
     12.12127      4.56796      5.29912         0.179732     -0.314736     -5.508751
     12.11855      4.56288      7.43600         0.432728     -3.729027    -26.200382
     12.10906      4.56699      9.67681        -5.644692      2.520673     32.291753
     13.18263      6.40426      0.74443        -1.515285      0.184254    -21.335158
     13.17034      6.38916      3.18445         0.466712      0.013198    -14.160589
     13.17241      6.39400      5.29591         4.239062     -2.868374     -3.536798
     13.17403      6.39206      7.42853         5.972792     -4.615426    -11.400753
     13.18365      6.42242      9.63985         1.213110      4.972355     30.122505
     14.23839      8.22054      0.71653         0.446523      0.257800    -22.870264
     14.22327      8.21181      3.15883         0.700334      0.404338     -5.362579
     14.23617      8.21925      5.29311         0.229690      0.132611    -23.628756
     14.22654      8.21370      7.44069         1.800572      1.039561    -10.626188
     14.24996      8.22722      9.63528        -1.045628     -0.603694     20.259960
      0.00000     -0.00000     11.18208         0.000000      0.000000     -4.499087
      0.66685      1.12032     11.23866       -11.202227     12.736610     -0.553158
      1.29382      2.28997     11.18120        21.350158     -8.629938    -10.953336
      1.99976      3.43041     11.16520       -12.039462      2.032370    -11.223773
      2.63538      4.56460     11.25880         0.000000      0.000000     -1.017085
      3.27099      5.69880     11.16520        12.039462     -2.032370    -11.223773
      3.97693      6.83924     11.18120       -21.350158      8.629938    -10.953336
      4.60390      8.00889     11.23866        11.202227    -12.736610     -0.553158
      1.30365      0.01735     11.23866         5.429114    -16.069719     -0.553158
      1.94654      1.12383     11.72645         1.808798      1.044310     38.751613
      2.62859      2.34399     11.85235        -2.661493     -0.508649     45.868886
      3.27137      3.43409     11.23928        13.004146     -0.489618     -2.251827
      3.91696      4.58379     12.06969       -10.417912     -1.439202     44.736517
      4.61036      5.74690     11.47835         1.536695    -18.169066     21.341056
      5.24691      6.82577     11.49891        14.563972     10.040931     24.667002
      5.89953      8.04012     12.03187        -3.613001      6.257901     41.061662
      2.63008     -0.02450     11.18120         3.201333     22.804748    -10.953336
      3.34425      1.10443     11.85235        -1.771250     -2.050596     45.868886
      3.96226      2.28761     11.21604       -22.765358    -13.143586     -6.333860
      4.61672      3.39275     11.43196         1.886175     18.974914     18.268023
      5.32666      4.55143     11.76176         2.761842      0.956008     38.526647
      5.93370      5.69818     11.08014        -6.332529      0.706337    -18.006212
      6.61245      6.80531     11.66906        -0.919484      1.592593     35.870310
      7.27751      7.99813     11.49891       -15.977687     -7.592305     24.667002
      3.97070      0.01664     11.16520        -4.259647    -11.442665    -11.223773
      4.60970      1.11604     11.23928         6.078052     11.506730     -2.251827
      5.24656      2.30182     11.43196        17.375845     -7.853981     18.268023
      5.94766      3.43389     11.05789        -1.978130     -1.142074    -17.764982
      6.56921      4.57007     11.40380        10.396039     -0.856112     18.178839
      7.23975      5.71880     11.32871         4.982781     -8.630430     12.183505
      7.91063      6.83956     11.08014         2.554559      5.837300    -18.006212
      8.53011      8.00997     11.47835        14.966525    -10.415350     21.341056
      5.27075     -0.00000     11.25880         0.000000      0.000000     -1.017085
      5.92816      1.10029     12.06969        -6.455342     -8.302575     44.736517
      6.60498      2.33731     11.76176         2.208849      1.913822     38.526647
      7.24240      3.40407     11.40380         4.456605      9.431290     18.178839
      7.90613      4.56460     12.26863         0.000000      0.000000     26.913248
      8.56985      5.72514     11.40380        -4.456605     -9.431290     18.178839
      9.20727      6.79190     11.76176        -2.208849     -1.913822     38.526647
      9.88409      8.02892     12.06969         6.455342      8.302575     44.736517
      6.57080     -0.01664     11.16520         4.259647     11.442665    -11.223773
      7.28214      1.11924     11.47835       -14.966525     10.415350     21.341056
      7.90162      2.28964     11.08014        -2.554559     -5.837300    -18.006212
      8.57250      3.41040     11.32871        -4.982781      8.630430     12.183505
      9.24304      4.55914     11.40380       -10.396039      0.856112     18.178839
      9.86459      5.69532     11.05789         1.978130      1.142074    -17.764982
     10.56569      6.82739     11.43196       -17.375845      7.853981     18.268023
     11.20255      8.01317     11.23928        -6.078052    -11.506730     -2.251827
      7.91142      0.02450     11.18120        -3.201333    -22.804748    -10.953336
      8.53475      1.13107     11.49891        15.977687      7.592305     24.667002
      9.19980      2.32389     11.66906         0.919484     -1.592593     35.870310
      9.87855      3.43102     11.08014         6.332529     -0.706337    -18.006212
     10.48559      4.57778     11.76176        -2.761842     -0.956008     38.526647
     11.19554      5.73646     11.43196        -1.886175    -18.974914     18.268023
     11.84999      6.84159     11.21604        22.765358     13.143586     -6.333860
     12.46800      8.02478     11.85235         1.771250      2.050596     45.868886
      9.23785     -0.01735     11.23866        -5.429114     16.069719     -0.553158
      9.91272      1.08909     12.03187         3.613001     -6.257901     41.061662
     10.56534      2.30344     11.49891       -14.563972    -10.040931     24.667002
     11.20189      3.38231     11.47835        -1.536695     18.169066     21.341056
     11.89529      4.54542     12.06969        10.417912      1.439202     44.736517
     12.54088      5.69511     11.23928       -13.004146      0.489618     -2.251827
     13.18366      6.78522     11.85235         2.661493      0.508649     45.868886
     13.86571      8.00537     11.72645        -1.808798     -1.044310     38.751613
 -----------------------------------------------------------------------------------
    total drift:                                0.011302      0.006525   1228.312289


--------------------------------------------------------------------------------------------------------



  FREE ENERGIE OF THE ION-ELECTRON SYSTEM (eV)
  ---------------------------------------------------
  free  energy   TOTEN  =     -5306.66442634 eV

  energy  without entropy=    -5306.50452647  energy(sigma->0) =    -5306.58447640
 
 d Force = 0.1713369E+07[-0.135E+04, 0.343E+07]  d Energy =-0.3498279E+07 0.521E+07
 d Force =-0.5368313E+06[-0.571E+06,-0.502E+06]  d Ewald  =-0.5373689E+06 0.538E+03


--------------------------------------------------------------------------------------------------------


    POTLOK:  cpu time    0.6061: real time    0.6062


--------------------------------------------------------------------------------------------------------


 stress matrix after NEB project (eV)
   -123.13680     -0.48872     -0.00000
     -0.48872   -122.57248     -0.00000
     -0.00000     -0.00000   -102.90601
  FORCES: max atom, RMS    47.033943   20.943398
  FORCE total and by dimension  371.117955   45.868886
  Stress total and by dimension  201.932683  123.136798


--------------------------------------------------------------------------------------------------------


  
 reached required accuracy - stopping structural energy minimisation
     LOOP+:  cpu time 1639.8148: real time 1640.0973
    4ORBIT:  cpu time    0.0000: real time    0.0000

 total amount of memory used by VASP MPI-rank0  4121664. kBytes
=======================================================================

   base      :      30000. kBytes
   nonlr-proj:     245130. kBytes
   fftplans  :      95920. kBytes
   grid      :     171640. kBytes
   one-center:       9420. kBytes
   wavefun   :    3569554. kBytes
 
  
  
 General timing and accounting informations for this job:
 ========================================================
  
                  Total CPU time used (sec):    10576.462
                            User time (sec):    10513.612
                          System time (sec):       62.849
                         Elapsed time (sec):    10578.562
  
                   Maximum memory used (kb):     6624456.
                   Average memory used (kb):          N/A
  
                          Minor page faults:     38935051
                          Major page faults:            0
                 Voluntary context switches:       112704
