<?xml version="1.0" encoding="ISO-8859-1"?>
<modeling>
 <generator>
  <i name="program" type="string">vasp </i>
  <i name="version" type="string">6.2.1  </i>
  <i name="subversion" type="string">16May21 (build May 12 2022 08:28:04) complex                          parallel </i>
  <i name="platform" type="string">LinuxPGI </i>
  <i name="date" type="string">2022 07 13 </i>
  <i name="time" type="string">02:26:41 </i>
 </generator>
 <incar>
  <i type="string" name="SYSTEM">NiAl</i>
  <i type="int" name="ISTART">     0</i>
  <i type="int" name="NELMIN">     6</i>
  <i type="int" name="IBRION">     2</i>
  <i name="EDIFF">      0.00000500</i>
  <i type="int" name="NSW">    40</i>
  <i type="int" name="ISIF">     0</i>
  <i name="ENCUT">    360.00000000</i>
  <i name="POTIM">      0.20000000</i>
  <i type="string" name="LREAL">Auto</i>
  <i type="logical" name="LPLANE"> T  </i>
  <i type="int" name="ISMEAR">     0</i>
  <i name="SIGMA">      0.05000000</i>
  <i type="logical" name="LWAVE"> F  </i>
  <i type="logical" name="LCHARG"> F  </i>
  <i type="int" name="IVDW">    12</i>
 </incar>
 <primitive_cell>
  <structure name="primitive_cell" >
   <crystal>
    <varray name="basis" >
     <v>      10.54150009       0.00000000       0.00000000 </v>
     <v>       5.27075005       9.12920687       0.00000000 </v>
     <v>       0.00000000       0.00000000      29.94150009 </v>
    </varray>
    <i name="volume">   2881.43628275 </i>
    <varray name="rec_basis" >
     <v>       0.09486316      -0.05476927       0.00000000 </v>
     <v>       0.00000000       0.10953854       0.00000000 </v>
     <v>       0.00000000       0.00000000       0.03339846 </v>
    </varray>
   </crystal>
   <varray name="positions" >
    <v>       0.00000000       0.00000000       0.00000000 </v>
    <v>       0.00000000       0.00000000       0.07041398 </v>
    <v>       0.00000000       0.00000000       0.14082795 </v>
    <v>       0.00000000       0.00000000       0.21124193 </v>
    <v>       0.00000000       0.00000000       0.28165590 </v>
    <v>       1.00000000       0.20000000       0.00000000 </v>
    <v>       1.00000000       0.20000000       0.07041398 </v>
    <v>       1.00000000       0.20000000       0.14082795 </v>
    <v>       1.00000000       0.20000000       0.21124193 </v>
    <v>       1.00000000       0.20000000       0.28165590 </v>
    <v>       1.00000000       0.40000001       0.00000000 </v>
    <v>       1.00000000       0.40000001       0.07041398 </v>
    <v>       1.00000000       0.40000001       0.14082795 </v>
    <v>       1.00000000       0.40000001       0.21124193 </v>
    <v>       1.00000000       0.40000001       0.28165590 </v>
    <v>       1.00000000       0.60000002       0.00000000 </v>
    <v>       1.00000000       0.60000002       0.07041398 </v>
    <v>       1.00000000       0.60000002       0.14082795 </v>
    <v>       1.00000000       0.60000002       0.21124193 </v>
    <v>       1.00000000       0.60000002       0.28165590 </v>
    <v>       1.00000000       0.80000001       0.00000000 </v>
    <v>       1.00000000       0.80000001       0.07041398 </v>
    <v>       1.00000000       0.80000001       0.14082795 </v>
    <v>       1.00000000       0.80000001       0.21124193 </v>
    <v>       1.00000000       0.80000001       0.28165590 </v>
    <v>       0.20000000       0.00000000       0.00000000 </v>
    <v>       0.20000000       0.00000000       0.07041398 </v>
    <v>       0.20000000       0.00000000       0.14082795 </v>
    <v>       0.20000000       0.00000000       0.21124193 </v>
    <v>       0.20000000       0.00000000       0.28165590 </v>
    <v>       0.20000000       0.20000000       0.00000000 </v>
    <v>       0.20000000       0.20000000       0.07041398 </v>
    <v>       0.20000000       0.20000000       0.14082795 </v>
    <v>       0.20000000       0.20000000       0.21124193 </v>
    <v>       0.20000000       0.20000000       0.28165590 </v>
    <v>       0.20000000       0.40000001       0.00000000 </v>
    <v>       0.20000000       0.40000001       0.07041398 </v>
    <v>       0.20000000       0.40000001       0.14082795 </v>
    <v>       0.20000000       0.40000001       0.21124193 </v>
    <v>       0.20000000       0.40000001       0.28165590 </v>
    <v>       0.20000000       0.60000002       0.00000000 </v>
    <v>       0.20000000       0.60000002       0.07041398 </v>
    <v>       0.20000000       0.60000002       0.14082795 </v>
    <v>       0.20000000       0.60000002       0.21124193 </v>
    <v>       0.20000000       0.60000002       0.28165590 </v>
    <v>       0.20000000       0.80000001       0.00000000 </v>
    <v>       0.20000000       0.80000001       0.07041398 </v>
    <v>       0.20000000       0.80000001       0.14082795 </v>
    <v>       0.20000000       0.80000001       0.21124193 </v>
    <v>       0.20000000       0.80000001       0.28165590 </v>
    <v>       0.40000001       0.00000000       0.00000000 </v>
    <v>       0.40000001       0.00000000       0.07041398 </v>
    <v>       0.40000001       0.00000000       0.14082795 </v>
    <v>       0.40000001       0.00000000       0.21124193 </v>
    <v>       0.40000001       0.00000000       0.28165590 </v>
    <v>       0.40000001       0.20000000       0.00000000 </v>
    <v>       0.40000001       0.20000000       0.07041398 </v>
    <v>       0.40000001       0.20000000       0.14082795 </v>
    <v>       0.40000001       0.20000000       0.21124193 </v>
    <v>       0.40000001       0.20000000       0.28165590 </v>
    <v>       0.40000001       0.40000001       0.00000000 </v>
    <v>       0.40000001       0.40000001       0.07041398 </v>
    <v>       0.40000001       0.40000001       0.14082795 </v>
    <v>       0.40000001       0.40000001       0.21124193 </v>
    <v>       0.40000001       0.40000001       0.28165590 </v>
    <v>       0.40000001       0.60000002       0.00000000 </v>
    <v>       0.40000001       0.60000002       0.07041398 </v>
    <v>       0.40000001       0.60000002       0.14082795 </v>
    <v>       0.40000001       0.60000002       0.21124193 </v>
    <v>       0.40000001       0.60000002       0.28165590 </v>
    <v>       0.40000001       0.80000001       0.00000000 </v>
    <v>       0.40000001       0.80000001       0.07041398 </v>
    <v>       0.40000001       0.80000001       0.14082795 </v>
    <v>       0.40000001       0.80000001       0.21124193 </v>
    <v>       0.40000001       0.80000001       0.28165590 </v>
    <v>       0.60000002       0.00000000       0.00000000 </v>
    <v>       0.60000002       0.00000000       0.07041398 </v>
    <v>       0.60000002       0.00000000       0.14082795 </v>
    <v>       0.60000002       0.00000000       0.21124193 </v>
    <v>       0.60000002       0.00000000       0.28165590 </v>
    <v>       0.60000002       0.20000000       0.00000000 </v>
    <v>       0.60000002       0.20000000       0.07041398 </v>
    <v>       0.60000002       0.20000000       0.14082795 </v>
    <v>       0.60000002       0.20000000       0.21124193 </v>
    <v>       0.60000002       0.20000000       0.28165590 </v>
    <v>       0.60000002       0.40000001       0.00000000 </v>
    <v>       0.60000002       0.40000001       0.07041398 </v>
    <v>       0.60000002       0.40000001       0.14082795 </v>
    <v>       0.60000002       0.40000001       0.21124193 </v>
    <v>       0.60000002       0.40000001       0.28165590 </v>
    <v>       0.60000002       0.60000002       0.00000000 </v>
    <v>       0.60000002       0.60000002       0.07041398 </v>
    <v>       0.60000002       0.60000002       0.14082795 </v>
    <v>       0.60000002       0.60000002       0.21124193 </v>
    <v>       0.60000002       0.60000002       0.28165590 </v>
    <v>       0.60000002       0.80000001       0.00000000 </v>
    <v>       0.60000002       0.80000001       0.07041398 </v>
    <v>       0.60000002       0.80000001       0.14082795 </v>
    <v>       0.60000002       0.80000001       0.21124193 </v>
    <v>       0.60000002       0.80000001       0.28165590 </v>
    <v>       0.80000001       0.00000000       0.00000000 </v>
    <v>       0.80000001       0.00000000       0.07041398 </v>
    <v>       0.80000001       0.00000000       0.14082795 </v>
    <v>       0.80000001       0.00000000       0.21124193 </v>
    <v>       0.80000001       0.00000000       0.28165590 </v>
    <v>       0.80000001       0.20000000       0.00000000 </v>
    <v>       0.80000001       0.20000000       0.07041398 </v>
    <v>       0.80000001       0.20000000       0.14082795 </v>
    <v>       0.80000001       0.20000000       0.21124193 </v>
    <v>       0.80000001       0.20000000       0.28165590 </v>
    <v>       0.80000001       0.40000001       0.00000000 </v>
    <v>       0.80000001       0.40000001       0.07041398 </v>
    <v>       0.80000001       0.40000001       0.14082795 </v>
    <v>       0.80000001       0.40000001       0.21124193 </v>
    <v>       0.80000001       0.40000001       0.28165590 </v>
    <v>       0.80000001       0.60000002       0.00000000 </v>
    <v>       0.80000001       0.60000002       0.07041398 </v>
    <v>       0.80000001       0.60000002       0.14082795 </v>
    <v>       0.80000001       0.60000002       0.21124193 </v>
    <v>       0.80000001       0.60000002       0.28165590 </v>
    <v>       0.80000001       0.80000001       0.00000000 </v>
    <v>       0.80000001       0.80000001       0.07041398 </v>
    <v>       0.80000001       0.80000001       0.14082795 </v>
    <v>       0.80000001       0.80000001       0.21124193 </v>
    <v>       0.80000001       0.80000001       0.28165590 </v>
    <v>       0.10000000       0.10000000       0.03520699 </v>
    <v>       0.10000000       0.10000000       0.10562097 </v>
    <v>       0.10000000       0.10000000       0.17603494 </v>
    <v>       0.10000000       0.10000000       0.24644891 </v>
    <v>       0.10000000       0.10000000       0.31686288 </v>
    <v>       0.10000000       0.30000001       0.03520699 </v>
    <v>       0.10000000       0.30000001       0.10562097 </v>
    <v>       0.10000000       0.30000001       0.17603494 </v>
    <v>       0.10000000       0.30000001       0.24644891 </v>
    <v>       0.10000000       0.30000001       0.31686288 </v>
    <v>       0.10000000       0.50000000       0.03520699 </v>
    <v>       0.10000000       0.50000000       0.10562097 </v>
    <v>       0.10000000       0.50000000       0.17603494 </v>
    <v>       0.10000000       0.50000000       0.24644891 </v>
    <v>       0.10000000       0.50000000       0.31686288 </v>
    <v>       0.10000000       0.69999999       0.03520699 </v>
    <v>       0.10000000       0.69999999       0.10562097 </v>
    <v>       0.10000000       0.69999999       0.17603494 </v>
    <v>       0.10000000       0.69999999       0.24644891 </v>
    <v>       0.10000000       0.69999999       0.31686288 </v>
    <v>       0.10000000       0.89999998       0.03520699 </v>
    <v>       0.10000000       0.89999998       0.10562097 </v>
    <v>       0.10000000       0.89999998       0.17603494 </v>
    <v>       0.10000000       0.89999998       0.24644891 </v>
    <v>       0.10000000       0.89999998       0.31686288 </v>
    <v>       0.30000001       0.10000000       0.03520699 </v>
    <v>       0.30000001       0.10000000       0.10562097 </v>
    <v>       0.30000001       0.10000000       0.17603494 </v>
    <v>       0.30000001       0.10000000       0.24644891 </v>
    <v>       0.30000001       0.10000000       0.31686288 </v>
    <v>       0.30000001       0.30000001       0.03520699 </v>
    <v>       0.30000001       0.30000001       0.10562097 </v>
    <v>       0.30000001       0.30000001       0.17603494 </v>
    <v>       0.30000001       0.30000001       0.24644891 </v>
    <v>       0.30000001       0.30000001       0.31686288 </v>
    <v>       0.30000001       0.50000000       0.03520699 </v>
    <v>       0.30000001       0.50000000       0.10562097 </v>
    <v>       0.30000001       0.50000000       0.17603494 </v>
    <v>       0.30000001       0.50000000       0.24644891 </v>
    <v>       0.30000001       0.50000000       0.31686288 </v>
    <v>       0.30000001       0.69999999       0.03520699 </v>
    <v>       0.30000001       0.69999999       0.10562097 </v>
    <v>       0.30000001       0.69999999       0.17603494 </v>
    <v>       0.30000001       0.69999999       0.24644891 </v>
    <v>       0.30000001       0.69999999       0.31686288 </v>
    <v>       0.30000001       0.89999998       0.03520699 </v>
    <v>       0.30000001       0.89999998       0.10562097 </v>
    <v>       0.30000001       0.89999998       0.17603494 </v>
    <v>       0.30000001       0.89999998       0.24644891 </v>
    <v>       0.30000001       0.89999998       0.31686288 </v>
    <v>       0.50000000       0.10000000       0.03520699 </v>
    <v>       0.50000000       0.10000000       0.10562097 </v>
    <v>       0.50000000       0.10000000       0.17603494 </v>
    <v>       0.50000000       0.10000000       0.24644891 </v>
    <v>       0.50000000       0.10000000       0.31686288 </v>
    <v>       0.50000000       0.30000001       0.03520699 </v>
    <v>       0.50000000       0.30000001       0.10562097 </v>
    <v>       0.50000000       0.30000001       0.17603494 </v>
    <v>       0.50000000       0.30000001       0.24644891 </v>
    <v>       0.50000000       0.30000001       0.31686288 </v>
    <v>       0.50000000       0.50000000       0.03520699 </v>
    <v>       0.50000000       0.50000000       0.10562097 </v>
    <v>       0.50000000       0.50000000       0.17603494 </v>
    <v>       0.50000000       0.50000000       0.24644891 </v>
    <v>       0.50000000       0.50000000       0.31686288 </v>
    <v>       0.50000000       0.69999999       0.03520699 </v>
    <v>       0.50000000       0.69999999       0.10562097 </v>
    <v>       0.50000000       0.69999999       0.17603494 </v>
    <v>       0.50000000       0.69999999       0.24644891 </v>
    <v>       0.50000000       0.69999999       0.31686288 </v>
    <v>       0.50000000       0.89999998       0.03520699 </v>
    <v>       0.50000000       0.89999998       0.10562097 </v>
    <v>       0.50000000       0.89999998       0.17603494 </v>
    <v>       0.50000000       0.89999998       0.24644891 </v>
    <v>       0.50000000       0.89999998       0.31686288 </v>
    <v>       0.69999999       0.10000000       0.03520699 </v>
    <v>       0.69999999       0.10000000       0.10562097 </v>
    <v>       0.69999999       0.10000000       0.17603494 </v>
    <v>       0.69999999       0.10000000       0.24644891 </v>
    <v>       0.69999999       0.10000000       0.31686288 </v>
    <v>       0.69999999       0.30000001       0.03520699 </v>
    <v>       0.69999999       0.30000001       0.10562097 </v>
    <v>       0.69999999       0.30000001       0.17603494 </v>
    <v>       0.69999999       0.30000001       0.24644891 </v>
    <v>       0.69999999       0.30000001       0.31686288 </v>
    <v>       0.69999999       0.50000000       0.03520699 </v>
    <v>       0.69999999       0.50000000       0.10562097 </v>
    <v>       0.69999999       0.50000000       0.17603494 </v>
    <v>       0.69999999       0.50000000       0.24644891 </v>
    <v>       0.69999999       0.50000000       0.31686288 </v>
    <v>       0.69999999       0.69999999       0.03520699 </v>
    <v>       0.69999999       0.69999999       0.10562097 </v>
    <v>       0.69999999       0.69999999       0.17603494 </v>
    <v>       0.69999999       0.69999999       0.24644891 </v>
    <v>       0.69999999       0.69999999       0.31686288 </v>
    <v>       0.69999999       0.89999998       0.03520699 </v>
    <v>       0.69999999       0.89999998       0.10562097 </v>
    <v>       0.69999999       0.89999998       0.17603494 </v>
    <v>       0.69999999       0.89999998       0.24644891 </v>
    <v>       0.69999999       0.89999998       0.31686288 </v>
    <v>       0.89999998       0.10000000       0.03520699 </v>
    <v>       0.89999998       0.10000000       0.10562097 </v>
    <v>       0.89999998       0.10000000       0.17603494 </v>
    <v>       0.89999998       0.10000000       0.24644891 </v>
    <v>       0.89999998       0.10000000       0.31686288 </v>
    <v>       0.89999998       0.30000001       0.03520699 </v>
    <v>       0.89999998       0.30000001       0.10562097 </v>
    <v>       0.89999998       0.30000001       0.17603494 </v>
    <v>       0.89999998       0.30000001       0.24644891 </v>
    <v>       0.89999998       0.30000001       0.31686288 </v>
    <v>       0.89999998       0.50000000       0.03520699 </v>
    <v>       0.89999998       0.50000000       0.10562097 </v>
    <v>       0.89999998       0.50000000       0.17603494 </v>
    <v>       0.89999998       0.50000000       0.24644891 </v>
    <v>       0.89999998       0.50000000       0.31686288 </v>
    <v>       0.89999998       0.69999999       0.03520699 </v>
    <v>       0.89999998       0.69999999       0.10562097 </v>
    <v>       0.89999998       0.69999999       0.17603494 </v>
    <v>       0.89999998       0.69999999       0.24644891 </v>
    <v>       0.89999998       0.69999999       0.31686288 </v>
    <v>       0.89999998       0.89999998       0.03520699 </v>
    <v>       0.89999998       0.89999998       0.10562097 </v>
    <v>       0.89999998       0.89999998       0.17603494 </v>
    <v>       0.89999998       0.89999998       0.24644891 </v>
    <v>       0.89999998       0.89999998       0.31686288 </v>
    <v>       0.00000000       0.00000000       0.36362072 </v>
    <v>       1.00000000       0.12500000       0.36362072 </v>
    <v>       1.00000000       0.25000000       0.36362072 </v>
    <v>       1.00000000       0.37500000       0.36362072 </v>
    <v>       1.00000000       0.50000000       0.36362072 </v>
    <v>       1.00000000       0.62500000       0.36362072 </v>
    <v>       1.00000000       0.75000000       0.36362072 </v>
    <v>       1.00000000       0.87500000       0.36362072 </v>
    <v>       0.12500000       0.00000000       0.36362072 </v>
    <v>       0.12500000       0.12500000       0.36362072 </v>
    <v>       0.12500000       0.25000000       0.36362072 </v>
    <v>       0.12500000       0.37500000       0.36362072 </v>
    <v>       0.12500000       0.50000000       0.36362072 </v>
    <v>       0.12500000       0.62500000       0.36362072 </v>
    <v>       0.12500000       0.75000000       0.36362072 </v>
    <v>       0.12500000       0.87500000       0.36362072 </v>
    <v>       0.25000000       0.00000000       0.36362072 </v>
    <v>       0.25000000       0.12500000       0.36362072 </v>
    <v>       0.25000000       0.25000000       0.36362072 </v>
    <v>       0.25000000       0.37500000       0.36362072 </v>
    <v>       0.25000000       0.50000000       0.36362072 </v>
    <v>       0.25000000       0.62500000       0.36362072 </v>
    <v>       0.25000000       0.75000000       0.36362072 </v>
    <v>       0.25000000       0.87500000       0.36362072 </v>
    <v>       0.37500000       0.00000000       0.36362072 </v>
    <v>       0.37500000       0.12500000       0.36362072 </v>
    <v>       0.37500000       0.25000000       0.36362072 </v>
    <v>       0.37500000       0.37500000       0.36362072 </v>
    <v>       0.37500000       0.50000000       0.36362072 </v>
    <v>       0.37500000       0.62500000       0.36362072 </v>
    <v>       0.37500000       0.75000000       0.36362072 </v>
    <v>       0.37500000       0.87500000       0.36362072 </v>
    <v>       0.50000000       0.00000000       0.36362072 </v>
    <v>       0.50000000       0.12500000       0.36362072 </v>
    <v>       0.50000000       0.25000000       0.36362072 </v>
    <v>       0.50000000       0.37500000       0.36362072 </v>
    <v>       0.50000000       0.50000000       0.36362072 </v>
    <v>       0.50000000       0.62500000       0.36362072 </v>
    <v>       0.50000000       0.75000000       0.36362072 </v>
    <v>       0.50000000       0.87500000       0.36362072 </v>
    <v>       0.62500000       0.00000000       0.36362072 </v>
    <v>       0.62500000       0.12500000       0.36362072 </v>
    <v>       0.62500000       0.25000000       0.36362072 </v>
    <v>       0.62500000       0.37500000       0.36362072 </v>
    <v>       0.62500000       0.50000000       0.36362072 </v>
    <v>       0.62500000       0.62500000       0.36362072 </v>
    <v>       0.62500000       0.75000000       0.36362072 </v>
    <v>       0.62500000       0.87500000       0.36362072 </v>
    <v>       0.75000000       0.00000000       0.36362072 </v>
    <v>       0.75000000       0.12500000       0.36362072 </v>
    <v>       0.75000000       0.25000000       0.36362072 </v>
    <v>       0.75000000       0.37500000       0.36362072 </v>
    <v>       0.75000000       0.50000000       0.36362072 </v>
    <v>       0.75000000       0.62500000       0.36362072 </v>
    <v>       0.75000000       0.75000000       0.36362072 </v>
    <v>       0.75000000       0.87500000       0.36362072 </v>
    <v>       0.87500000       0.00000000       0.36362072 </v>
    <v>       0.87500000       0.12500000       0.36362072 </v>
    <v>       0.87500000       0.25000000       0.36362072 </v>
    <v>       0.87500000       0.37500000       0.36362072 </v>
    <v>       0.87500000       0.50000000       0.36362072 </v>
    <v>       0.87500000       0.62500000       0.36362072 </v>
    <v>       0.87500000       0.75000000       0.36362072 </v>
    <v>       0.87500000       0.87500000       0.36362072 </v>
   </varray>
  </structure>
  <varray name="primitive_index" >
   <v type="int" >        1 </v>
   <v type="int" >        2 </v>
   <v type="int" >        3 </v>
   <v type="int" >        4 </v>
   <v type="int" >        5 </v>
   <v type="int" >        6 </v>
   <v type="int" >        7 </v>
   <v type="int" >        8 </v>
   <v type="int" >        9 </v>
   <v type="int" >       10 </v>
   <v type="int" >       11 </v>
   <v type="int" >       12 </v>
   <v type="int" >       13 </v>
   <v type="int" >       14 </v>
   <v type="int" >       15 </v>
   <v type="int" >       16 </v>
   <v type="int" >       17 </v>
   <v type="int" >       18 </v>
   <v type="int" >       19 </v>
   <v type="int" >       20 </v>
   <v type="int" >       21 </v>
   <v type="int" >       22 </v>
   <v type="int" >       23 </v>
   <v type="int" >       24 </v>
   <v type="int" >       25 </v>
   <v type="int" >       26 </v>
   <v type="int" >       27 </v>
   <v type="int" >       28 </v>
   <v type="int" >       29 </v>
   <v type="int" >       30 </v>
   <v type="int" >       31 </v>
   <v type="int" >       32 </v>
   <v type="int" >       33 </v>
   <v type="int" >       34 </v>
   <v type="int" >       35 </v>
   <v type="int" >       36 </v>
   <v type="int" >       37 </v>
   <v type="int" >       38 </v>
   <v type="int" >       39 </v>
   <v type="int" >       40 </v>
   <v type="int" >       41 </v>
   <v type="int" >       42 </v>
   <v type="int" >       43 </v>
   <v type="int" >       44 </v>
   <v type="int" >       45 </v>
   <v type="int" >       46 </v>
   <v type="int" >       47 </v>
   <v type="int" >       48 </v>
   <v type="int" >       49 </v>
   <v type="int" >       50 </v>
   <v type="int" >       51 </v>
   <v type="int" >       52 </v>
   <v type="int" >       53 </v>
   <v type="int" >       54 </v>
   <v type="int" >       55 </v>
   <v type="int" >       56 </v>
   <v type="int" >       57 </v>
   <v type="int" >       58 </v>
   <v type="int" >       59 </v>
   <v type="int" >       60 </v>
   <v type="int" >       61 </v>
   <v type="int" >       62 </v>
   <v type="int" >       63 </v>
   <v type="int" >       64 </v>
   <v type="int" >       65 </v>
   <v type="int" >       66 </v>
   <v type="int" >       67 </v>
   <v type="int" >       68 </v>
   <v type="int" >       69 </v>
   <v type="int" >       70 </v>
   <v type="int" >       71 </v>
   <v type="int" >       72 </v>
   <v type="int" >       73 </v>
   <v type="int" >       74 </v>
   <v type="int" >       75 </v>
   <v type="int" >       76 </v>
   <v type="int" >       77 </v>
   <v type="int" >       78 </v>
   <v type="int" >       79 </v>
   <v type="int" >       80 </v>
   <v type="int" >       81 </v>
   <v type="int" >       82 </v>
   <v type="int" >       83 </v>
   <v type="int" >       84 </v>
   <v type="int" >       85 </v>
   <v type="int" >       86 </v>
   <v type="int" >       87 </v>
   <v type="int" >       88 </v>
   <v type="int" >       89 </v>
   <v type="int" >       90 </v>
   <v type="int" >       91 </v>
   <v type="int" >       92 </v>
   <v type="int" >       93 </v>
   <v type="int" >       94 </v>
   <v type="int" >       95 </v>
   <v type="int" >       96 </v>
   <v type="int" >       97 </v>
   <v type="int" >       98 </v>
   <v type="int" >       99 </v>
   <v type="int" >      100 </v>
   <v type="int" >      101 </v>
   <v type="int" >      102 </v>
   <v type="int" >      103 </v>
   <v type="int" >      104 </v>
   <v type="int" >      105 </v>
   <v type="int" >      106 </v>
   <v type="int" >      107 </v>
   <v type="int" >      108 </v>
   <v type="int" >      109 </v>
   <v type="int" >      110 </v>
   <v type="int" >      111 </v>
   <v type="int" >      112 </v>
   <v type="int" >      113 </v>
   <v type="int" >      114 </v>
   <v type="int" >      115 </v>
   <v type="int" >      116 </v>
   <v type="int" >      117 </v>
   <v type="int" >      118 </v>
   <v type="int" >      119 </v>
   <v type="int" >      120 </v>
   <v type="int" >      121 </v>
   <v type="int" >      122 </v>
   <v type="int" >      123 </v>
   <v type="int" >      124 </v>
   <v type="int" >      125 </v>
   <v type="int" >      126 </v>
   <v type="int" >      127 </v>
   <v type="int" >      128 </v>
   <v type="int" >      129 </v>
   <v type="int" >      130 </v>
   <v type="int" >      131 </v>
   <v type="int" >      132 </v>
   <v type="int" >      133 </v>
   <v type="int" >      134 </v>
   <v type="int" >      135 </v>
   <v type="int" >      136 </v>
   <v type="int" >      137 </v>
   <v type="int" >      138 </v>
   <v type="int" >      139 </v>
   <v type="int" >      140 </v>
   <v type="int" >      141 </v>
   <v type="int" >      142 </v>
   <v type="int" >      143 </v>
   <v type="int" >      144 </v>
   <v type="int" >      145 </v>
   <v type="int" >      146 </v>
   <v type="int" >      147 </v>
   <v type="int" >      148 </v>
   <v type="int" >      149 </v>
   <v type="int" >      150 </v>
   <v type="int" >      151 </v>
   <v type="int" >      152 </v>
   <v type="int" >      153 </v>
   <v type="int" >      154 </v>
   <v type="int" >      155 </v>
   <v type="int" >      156 </v>
   <v type="int" >      157 </v>
   <v type="int" >      158 </v>
   <v type="int" >      159 </v>
   <v type="int" >      160 </v>
   <v type="int" >      161 </v>
   <v type="int" >      162 </v>
   <v type="int" >      163 </v>
   <v type="int" >      164 </v>
   <v type="int" >      165 </v>
   <v type="int" >      166 </v>
   <v type="int" >      167 </v>
   <v type="int" >      168 </v>
   <v type="int" >      169 </v>
   <v type="int" >      170 </v>
   <v type="int" >      171 </v>
   <v type="int" >      172 </v>
   <v type="int" >      173 </v>
   <v type="int" >      174 </v>
   <v type="int" >      175 </v>
   <v type="int" >      176 </v>
   <v type="int" >      177 </v>
   <v type="int" >      178 </v>
   <v type="int" >      179 </v>
   <v type="int" >      180 </v>
   <v type="int" >      181 </v>
   <v type="int" >      182 </v>
   <v type="int" >      183 </v>
   <v type="int" >      184 </v>
   <v type="int" >      185 </v>
   <v type="int" >      186 </v>
   <v type="int" >      187 </v>
   <v type="int" >      188 </v>
   <v type="int" >      189 </v>
   <v type="int" >      190 </v>
   <v type="int" >      191 </v>
   <v type="int" >      192 </v>
   <v type="int" >      193 </v>
   <v type="int" >      194 </v>
   <v type="int" >      195 </v>
   <v type="int" >      196 </v>
   <v type="int" >      197 </v>
   <v type="int" >      198 </v>
   <v type="int" >      199 </v>
   <v type="int" >      200 </v>
   <v type="int" >      201 </v>
   <v type="int" >      202 </v>
   <v type="int" >      203 </v>
   <v type="int" >      204 </v>
   <v type="int" >      205 </v>
   <v type="int" >      206 </v>
   <v type="int" >      207 </v>
   <v type="int" >      208 </v>
   <v type="int" >      209 </v>
   <v type="int" >      210 </v>
   <v type="int" >      211 </v>
   <v type="int" >      212 </v>
   <v type="int" >      213 </v>
   <v type="int" >      214 </v>
   <v type="int" >      215 </v>
   <v type="int" >      216 </v>
   <v type="int" >      217 </v>
   <v type="int" >      218 </v>
   <v type="int" >      219 </v>
   <v type="int" >      220 </v>
   <v type="int" >      221 </v>
   <v type="int" >      222 </v>
   <v type="int" >      223 </v>
   <v type="int" >      224 </v>
   <v type="int" >      225 </v>
   <v type="int" >      226 </v>
   <v type="int" >      227 </v>
   <v type="int" >      228 </v>
   <v type="int" >      229 </v>
   <v type="int" >      230 </v>
   <v type="int" >      231 </v>
   <v type="int" >      232 </v>
   <v type="int" >      233 </v>
   <v type="int" >      234 </v>
   <v type="int" >      235 </v>
   <v type="int" >      236 </v>
   <v type="int" >      237 </v>
   <v type="int" >      238 </v>
   <v type="int" >      239 </v>
   <v type="int" >      240 </v>
   <v type="int" >      241 </v>
   <v type="int" >      242 </v>
   <v type="int" >      243 </v>
   <v type="int" >      244 </v>
   <v type="int" >      245 </v>
   <v type="int" >      246 </v>
   <v type="int" >      247 </v>
   <v type="int" >      248 </v>
   <v type="int" >      249 </v>
   <v type="int" >      250 </v>
   <v type="int" >      251 </v>
   <v type="int" >      252 </v>
   <v type="int" >      253 </v>
   <v type="int" >      254 </v>
   <v type="int" >      255 </v>
   <v type="int" >      256 </v>
   <v type="int" >      257 </v>
   <v type="int" >      258 </v>
   <v type="int" >      259 </v>
   <v type="int" >      260 </v>
   <v type="int" >      261 </v>
   <v type="int" >      262 </v>
   <v type="int" >      263 </v>
   <v type="int" >      264 </v>
   <v type="int" >      265 </v>
   <v type="int" >      266 </v>
   <v type="int" >      267 </v>
   <v type="int" >      268 </v>
   <v type="int" >      269 </v>
   <v type="int" >      270 </v>
   <v type="int" >      271 </v>
   <v type="int" >      272 </v>
   <v type="int" >      273 </v>
   <v type="int" >      274 </v>
   <v type="int" >      275 </v>
   <v type="int" >      276 </v>
   <v type="int" >      277 </v>
   <v type="int" >      278 </v>
   <v type="int" >      279 </v>
   <v type="int" >      280 </v>
   <v type="int" >      281 </v>
   <v type="int" >      282 </v>
   <v type="int" >      283 </v>
   <v type="int" >      284 </v>
   <v type="int" >      285 </v>
   <v type="int" >      286 </v>
   <v type="int" >      287 </v>
   <v type="int" >      288 </v>
   <v type="int" >      289 </v>
   <v type="int" >      290 </v>
   <v type="int" >      291 </v>
   <v type="int" >      292 </v>
   <v type="int" >      293 </v>
   <v type="int" >      294 </v>
   <v type="int" >      295 </v>
   <v type="int" >      296 </v>
   <v type="int" >      297 </v>
   <v type="int" >      298 </v>
   <v type="int" >      299 </v>
   <v type="int" >      300 </v>
   <v type="int" >      301 </v>
   <v type="int" >      302 </v>
   <v type="int" >      303 </v>
   <v type="int" >      304 </v>
   <v type="int" >      305 </v>
   <v type="int" >      306 </v>
   <v type="int" >      307 </v>
   <v type="int" >      308 </v>
   <v type="int" >      309 </v>
   <v type="int" >      310 </v>
   <v type="int" >      311 </v>
   <v type="int" >      312 </v>
   <v type="int" >      313 </v>
   <v type="int" >      314 </v>
  </varray>
 </primitive_cell>
 <kpoints>
  <generation param="Gamma">
   <v type="int" name="divisions">       2        2        1 </v>
   <v name="usershift">      0.00000000       0.00000000       0.00000000 </v>
   <v name="genvec1">      0.50000000      -0.00000000       0.00000000 </v>
   <v name="genvec2">      0.00000000       0.50000000       0.00000000 </v>
   <v name="genvec3">      0.00000000       0.00000000       1.00000000 </v>
   <v name="shift">      0.00000000       0.00000000       0.00000000 </v>
  </generation>
  <varray name="kpointlist" >
   <v>       0.00000000       0.00000000       0.00000000 </v>
   <v>       0.50000000       0.00000000       0.00000000 </v>
   <v>       0.50000000       0.50000000       0.00000000 </v>
  </varray>
  <varray name="weights" >
   <v>       0.25000000 </v>
   <v>       0.50000000 </v>
   <v>       0.25000000 </v>
  </varray>
 </kpoints>
 <parameters>
  <separator name="general" >
   <i type="string" name="SYSTEM">NiAl</i>
   <i type="logical" name="LCOMPAT"> F  </i>
  </separator>
  <separator name="electronic" >
   <i type="string" name="PREC">normal</i>
   <i name="ENMAX">    360.00000000</i>
   <i name="ENAUG">   1139.60900000</i>
   <i name="EDIFF">      0.00000500</i>
   <i type="int" name="IALGO">    38</i>
   <i type="int" name="IWAVPR">    11</i>
   <i type="int" name="NBANDS">  1430</i>
   <i type="int" name="NBANDSLOW">    -1</i>
   <i type="int" name="NBANDSHIGH">    -1</i>
   <i name="NELECT">   2384.00000000</i>
   <i type="int" name="TURBO">     0</i>
   <i type="int" name="IRESTART">     0</i>
   <i type="int" name="NREBOOT">     0</i>
   <i type="int" name="NMIN">     0</i>
   <i name="EREF">      0.00000000</i>
   <separator name="electronic smearing" >
    <i type="int" name="ISMEAR">     0</i>
    <i name="SIGMA">      0.05000000</i>
    <i name="KSPACING">      0.50000000</i>
    <i type="logical" name="KGAMMA"> T  </i>
    <i type="logical" name="KBLOWUP"> T  </i>
   </separator>
   <separator name="electronic projectors" >
    <i type="logical" name="LREAL"> T  </i>
    <v name="ROPT">     -0.00050000     -0.00050000</v>
    <i type="int" name="LMAXPAW">  -100</i>
    <i type="int" name="LMAXMIX">     2</i>
    <i type="logical" name="NLSPLINE"> F  </i>
   </separator>
   <separator name="electronic startup" >
    <i type="int" name="ISTART">     0</i>
    <i type="int" name="ICHARG">     2</i>
    <i type="int" name="INIWAV">     1</i>
   </separator>
   <separator name="electronic spin" >
    <i type="int" name="ISPIN">     1</i>
    <i type="logical" name="LNONCOLLINEAR"> F  </i>
    <v name="MAGMOM">      1.00000000      1.00000000      1.00000000      1.00000000      1.00000000      1.00000000      1.00000000      1.00000000      1.00000000      1.00000000      1.00000000      1.00000000      1.00000000      1.00000000      1.00000000      1.00000000      1.00000000      1.00000000      1.00000000      1.00000000
      1.00000000      1.00000000      1.00000000      1.00000000      1.00000000      1.00000000      1.00000000      1.00000000      1.00000000      1.00000000      1.00000000      1.00000000      1.00000000      1.00000000      1.00000000      1.00000000      1.00000000      1.00000000      1.00000000      1.00000000
      1.00000000      1.00000000      1.00000000      1.00000000      1.00000000      1.00000000      1.00000000      1.00000000      1.00000000      1.00000000      1.00000000      1.00000000      1.00000000      1.00000000      1.00000000      1.00000000      1.00000000      1.00000000      1.00000000      1.00000000
      1.00000000      1.00000000      1.00000000      1.00000000      1.00000000      1.00000000      1.00000000      1.00000000      1.00000000      1.00000000      1.00000000      1.00000000      1.00000000      1.00000000      1.00000000      1.00000000      1.00000000      1.00000000      1.00000000      1.00000000
      1.00000000      1.00000000      1.00000000      1.00000000      1.00000000      1.00000000      1.00000000      1.00000000      1.00000000      1.00000000      1.00000000      1.00000000      1.00000000      1.00000000      1.00000000      1.00000000      1.00000000      1.00000000      1.00000000      1.00000000
      1.00000000      1.00000000      1.00000000      1.00000000      1.00000000      1.00000000      1.00000000      1.00000000      1.00000000      1.00000000      1.00000000      1.00000000      1.00000000      1.00000000      1.00000000      1.00000000      1.00000000      1.00000000      1.00000000      1.00000000
      1.00000000      1.00000000      1.00000000      1.00000000      1.00000000      1.00000000      1.00000000      1.00000000      1.00000000      1.00000000      1.00000000      1.00000000      1.00000000      1.00000000      1.00000000      1.00000000      1.00000000      1.00000000      1.00000000      1.00000000
      1.00000000      1.00000000      1.00000000      1.00000000      1.00000000      1.00000000      1.00000000      1.00000000      1.00000000      1.00000000      1.00000000      1.00000000      1.00000000      1.00000000      1.00000000      1.00000000      1.00000000      1.00000000      1.00000000      1.00000000
      1.00000000      1.00000000      1.00000000      1.00000000      1.00000000      1.00000000      1.00000000      1.00000000      1.00000000      1.00000000      1.00000000      1.00000000      1.00000000      1.00000000      1.00000000      1.00000000      1.00000000      1.00000000      1.00000000      1.00000000
      1.00000000      1.00000000      1.00000000      1.00000000      1.00000000      1.00000000      1.00000000      1.00000000      1.00000000      1.00000000      1.00000000      1.00000000      1.00000000      1.00000000      1.00000000      1.00000000      1.00000000      1.00000000      1.00000000      1.00000000
      1.00000000      1.00000000      1.00000000      1.00000000      1.00000000      1.00000000      1.00000000      1.00000000      1.00000000      1.00000000      1.00000000      1.00000000      1.00000000      1.00000000      1.00000000      1.00000000      1.00000000      1.00000000      1.00000000      1.00000000
      1.00000000      1.00000000      1.00000000      1.00000000      1.00000000      1.00000000      1.00000000      1.00000000      1.00000000      1.00000000      1.00000000      1.00000000      1.00000000      1.00000000      1.00000000      1.00000000      1.00000000      1.00000000      1.00000000      1.00000000
      1.00000000      1.00000000      1.00000000      1.00000000      1.00000000      1.00000000      1.00000000      1.00000000      1.00000000      1.00000000      1.00000000      1.00000000      1.00000000      1.00000000      1.00000000      1.00000000      1.00000000      1.00000000      1.00000000      1.00000000
      1.00000000      1.00000000      1.00000000      1.00000000      1.00000000      1.00000000      1.00000000      1.00000000      1.00000000      1.00000000      1.00000000      1.00000000      1.00000000      1.00000000      1.00000000      1.00000000      1.00000000      1.00000000      1.00000000      1.00000000
      1.00000000      1.00000000      1.00000000      1.00000000      1.00000000      1.00000000      1.00000000      1.00000000      1.00000000      1.00000000      1.00000000      1.00000000      1.00000000      1.00000000      1.00000000      1.00000000      1.00000000      1.00000000      1.00000000      1.00000000
      1.00000000      1.00000000      1.00000000      1.00000000      1.00000000      1.00000000      1.00000000      1.00000000      1.00000000      1.00000000      1.00000000      1.00000000      1.00000000      1.00000000</v>
    <i name="NUPDOWN">     -1.00000000</i>
    <i type="logical" name="LSORBIT"> F  </i>
    <v name="SAXIS">      0.00000000      0.00000000      1.00000000</v>
    <i type="logical" name="LSPIRAL"> F  </i>
    <v name="QSPIRAL">      0.00000000      0.00000000      0.00000000</v>
    <i type="logical" name="LZEROZ"> F  </i>
   </separator>
   <separator name="electronic exchange-correlation" >
    <i type="logical" name="LASPH"> F  </i>
    <i type="logical" name="LMETAGGA"> F  </i>
   </separator>
   <separator name="electronic convergence" >
    <i type="int" name="NELM">    60</i>
    <i type="int" name="NELMDL">    -5</i>
    <i type="int" name="NELMIN">     6</i>
    <i name="ENINI">    360.00000000</i>
    <separator name="electronic convergence detail" >
     <i type="logical" name="LDIAG"> T  </i>
     <i type="logical" name="LSUBROT"> F  </i>
     <i name="WEIMIN">      0.00100000</i>
     <i name="EBREAK">      0.00000000</i>
     <i name="DEPER">      0.30000000</i>
     <i type="int" name="NRMM">     4</i>
     <i name="TIME">      0.40000000</i>
    </separator>
   </separator>
   <separator name="electronic mixer" >
    <i name="AMIX">      0.40000000</i>
    <i name="BMIX">      1.00000000</i>
    <i name="AMIN">      0.10000000</i>
    <i name="AMIX_MAG">      1.60000000</i>
    <i name="BMIX_MAG">      1.00000000</i>
    <separator name="electronic mixer details" >
     <i type="int" name="IMIX">     4</i>
     <i type="logical" name="MIXFIRST"> F  </i>
     <i type="int" name="MAXMIX">   -45</i>
     <i name="WC">    100.00000000</i>
     <i type="int" name="INIMIX">     1</i>
     <i type="int" name="MIXPRE">     1</i>
     <i type="int" name="MREMOVE">     5</i>
    </separator>
   </separator>
   <separator name="electronic dipolcorrection" >
    <i type="logical" name="LDIPOL"> F  </i>
    <i type="logical" name="LMONO"> F  </i>
    <i type="int" name="IDIPOL">     0</i>
    <i name="EPSILON">      1.00000000</i>
    <v name="DIPOL">   -100.00000000   -100.00000000   -100.00000000</v>
    <i name="EFIELD">      0.00000000</i>
   </separator>
  </separator>
  <separator name="grids" >
   <i type="int" name="NGX">    50</i>
   <i type="int" name="NGY">    50</i>
   <i type="int" name="NGZ">   140</i>
   <i type="int" name="NGXF">   100</i>
   <i type="int" name="NGYF">   100</i>
   <i type="int" name="NGZF">   280</i>
   <i type="logical" name="ADDGRID"> F  </i>
  </separator>
  <separator name="ionic" >
   <i type="int" name="NSW">    40</i>
   <i type="int" name="IBRION">     2</i>
   <i type="int" name="MDALGO">     0</i>
   <i type="int" name="ISIF">     0</i>
   <i name="PSTRESS">      0.00000000</i>
   <i name="EDIFFG">      0.00005000</i>
   <i type="int" name="NFREE">     1</i>
   <i name="POTIM">      0.20000000</i>
   <i name="SMASS">     -3.00000000</i>
   <i name="SCALEE">      1.00000000</i>
  </separator>
  <separator name="ionic md" >
   <i name="TEBEG">      0.00010000</i>
   <i name="TEEND">      0.00010000</i>
   <i type="int" name="NBLOCK">     1</i>
   <i type="int" name="KBLOCK">    40</i>
   <i type="int" name="NPACO">   256</i>
   <i name="APACO">     16.00000000</i>
  </separator>
  <separator name="symmetry" >
   <i type="int" name="ISYM">     2</i>
   <i name="SYMPREC">      0.00001000</i>
  </separator>
  <separator name="dos" >
   <i type="int" name="LORBIT">     0</i>
   <v name="RWIGS">     -1.00000000     -1.00000000</v>
   <i type="int" name="NEDOS">   301</i>
   <i name="EMIN">     10.00000000</i>
   <i name="EMAX">    -10.00000000</i>
   <i name="EFERMI">      0.00000000</i>
  </separator>
  <separator name="writing" >
   <i type="int" name="NWRITE">     2</i>
   <i type="logical" name="LWAVE"> F  </i>
   <i type="logical" name="LDOWNSAMPLE"> F  </i>
   <i type="logical" name="LCHARG"> F  </i>
   <i type="logical" name="LPARD"> F  </i>
   <i type="logical" name="LVTOT"> F  </i>
   <i type="logical" name="LVHAR"> F  </i>
   <i type="logical" name="LELF"> F  </i>
   <i type="logical" name="LOPTICS"> F  </i>
   <v name="STM">      0.00000000      0.00000000      0.00000000      0.00000000      0.00000000      0.00000000      0.00000000</v>
  </separator>
  <separator name="performance" >
   <i type="int" name="NPAR">     1</i>
   <i type="int" name="NSIM">     4</i>
   <i type="int" name="NBLK">    -1</i>
   <i type="logical" name="LPLANE"> T  </i>
   <i type="logical" name="LSCALAPACK"> T  </i>
   <i type="logical" name="LSCAAWARE"> F  </i>
   <i type="logical" name="LSCALU"> F  </i>
   <i type="logical" name="LASYNC"> F  </i>
   <i type="logical" name="LORBITALREAL"> F  </i>
  </separator>
  <separator name="miscellaneous" >
   <i type="int" name="IDIOT">     3</i>
   <i type="int" name="PHON_NSTRUCT">    -1</i>
   <i type="logical" name="LMUSIC"> F  </i>
   <v name="POMASS">     58.69000000     16.00000000</v>
   <v name="DARWINR">      0.00000000      0.00000000</v>
   <v name="DARWINV">      1.00000000      1.00000000</v>
   <i type="logical" name="LCORR"> T  </i>
  </separator>
  <i type="logical" name="GGA_COMPAT"> T  </i>
  <i type="logical" name="LBERRY"> F  </i>
  <i type="int" name="ICORELEVEL">     0</i>
  <i type="logical" name="LDAU"> F  </i>
  <i type="int" name="I_CONSTRAINED_M">     0</i>
  <separator name="electronic exchange-correlation" >
   <i type="string" name="GGA">--</i>
   <i type="int" name="VOSKOWN">     0</i>
   <i type="logical" name="LHFCALC"> F  </i>
   <i type="string" name="PRECFOCK"></i>
   <i type="logical" name="LSYMGRAD"> F  </i>
   <i type="logical" name="LHFONE"> F  </i>
   <i type="logical" name="LRHFCALC"> F  </i>
   <i type="logical" name="LTHOMAS"> F  </i>
   <i type="logical" name="LMODELHF"> F  </i>
   <i type="logical" name="LFOCKACE"> F  </i>
   <i name="ENCUT4O">     -1.00000000</i>
   <i type="int" name="EXXOEP">     0</i>
   <i type="int" name="FOURORBIT">     0</i>
   <i name="AEXX">      0.00000000</i>
   <i name="HFALPHA">      0.00000000</i>
   <i name="MCALPHA">      0.00000000</i>
   <i name="ALDAX">      1.00000000</i>
   <i name="AGGAX">      1.00000000</i>
   <i name="ALDAC">      1.00000000</i>
   <i name="AGGAC">      1.00000000</i>
   <i type="int" name="NKREDX">     1</i>
   <i type="int" name="NKREDY">     1</i>
   <i type="int" name="NKREDZ">     1</i>
   <i type="logical" name="SHIFTRED"> F  </i>
   <i type="logical" name="ODDONLY"> F  </i>
   <i type="logical" name="EVENONLY"> F  </i>
   <i type="int" name="LMAXFOCK">     0</i>
   <i type="int" name="NMAXFOCKAE">     0</i>
   <i type="logical" name="LFOCKAEDFT"> F  </i>
   <i name="HFSCREEN">      0.00000000</i>
   <i name="HFSCREENC">      0.00000000</i>
   <i type="int" name="NBANDSGWLOW">     0</i>
  </separator>
  <separator name="vdW DFT" >
   <i type="logical" name="LUSE_VDW"> F  </i>
   <i name="Zab_VDW">     -0.84910000</i>
   <i name="PARAM1">      0.12340000</i>
   <i name="PARAM2">      1.00000000</i>
   <i name="PARAM3">      0.00000000</i>
  </separator>
  <separator name="model GW" >
   <i type="int" name="MODEL_GW">     0</i>
   <i name="MODEL_EPS0">      5.50592920</i>
   <i name="MODEL_ALPHA">      1.00000000</i>
  </separator>
  <separator name="linear response parameters" >
   <i type="logical" name="LEPSILON"> F  </i>
   <i type="logical" name="LRPA"> F  </i>
   <i type="logical" name="LNABLA"> F  </i>
   <i type="logical" name="LVEL"> F  </i>
   <i type="int" name="KINTER">     0</i>
   <i name="CSHIFT">      0.10000000</i>
   <i name="OMEGAMAX">     -1.00000000</i>
   <i name="DEG_THRESHOLD">      0.00200000</i>
   <i name="RTIME">     -0.10000000</i>
   <i name="WPLASMAI">      0.00000000</i>
   <v name="DFIELD">      0.00000000      0.00000000      0.00000000</v>
   <v name="WPLASMA">      0.00000000      0.00000000      0.00000000      0.00000000      0.00000000      0.00000000      0.00000000      0.00000000      0.00000000</v>
  </separator>
  <separator name="orbital magnetization" >
   <i type="logical" name="NUCIND"> F  </i>
   <v name="MAGPOS">      0.00000000      0.00000000      0.00000000</v>
   <i type="logical" name="LNICSALL"> T  </i>
   <i type="logical" name="ORBITALMAG"> F  </i>
   <i type="logical" name="LMAGBLOCH"> F  </i>
   <i type="logical" name="LCHIMAG"> F  </i>
   <i type="logical" name="LGAUGE"> T  </i>
   <i type="int" name="MAGATOM">     0</i>
   <v name="MAGDIPOL">      0.00000000      0.00000000      0.00000000</v>
   <v name="AVECCONST">      0.00000000      0.00000000      0.00000000</v>
  </separator>
  <separator name="response functions" >
   <i type="logical" name="LFINITE_TEMPERATURE"> F  </i>
   <i type="logical" name="LADDER"> F  </i>
   <i type="logical" name="LRPAFORCE"> F  </i>
   <i type="logical" name="LFXC"> F  </i>
   <i type="logical" name="LHARTREE"> T  </i>
   <i type="int" name="IBSE">     0</i>
   <v type="int" name="KPOINT">    -1     0     0     0</v>
   <i type="logical" name="LTCTC"> F  </i>
   <i type="logical" name="LTCTE"> F  </i>
   <i type="logical" name="LTETE"> F  </i>
   <i type="logical" name="LTRIPLET"> F  </i>
   <i type="logical" name="LFXCEPS"> F  </i>
   <i type="logical" name="LFXHEG"> F  </i>
   <i type="int" name="NATURALO">     2</i>
   <i type="logical" name="LHOLEGF"> F  </i>
   <i type="logical" name="L2ORDER"> F  </i>
   <i type="logical" name="LDMP1"> F  </i>
   <i type="logical" name="LMP2LT"> F  </i>
   <i type="logical" name="LSMP2LT"> F  </i>
   <i type="logical" name="LGWLF"> F  </i>
   <i name="ENCUTGW">     -2.00000000</i>
   <i name="ENCUTGWSOFT">     -2.00000000</i>
   <i name="ENCUTLF">     -1.00000000</i>
   <i type="logical" name="LESF_SPLINES"> F  </i>
   <i type="int" name="LMAXMP2">    -1</i>
   <i name="SCISSOR">      0.00000000</i>
   <i type="int" name="NOMEGA">     0</i>
   <i type="int" name="NOMEGAR">     0</i>
   <i type="int" name="NBANDSGW">    -1</i>
   <i type="int" name="NBANDSO">    -1</i>
   <i type="int" name="NBANDSV">    -1</i>
   <i type="int" name="NELM">     1</i>
   <i type="int" name="NELMHF">     1</i>
   <i type="int" name="DIM">     3</i>
   <i type="int" name="IESPILON">     4</i>
   <i type="int" name="ANTIRES">     0</i>
   <i name="OMEGAMAX">    -30.00000000</i>
   <i name="OMEGAMIN">    -30.00000000</i>
   <i name="OMEGATL">   -200.00000000</i>
   <i type="int" name="OMEGAGRID">     0</i>
   <i name="CSHIFT">     -0.10000000</i>
   <i type="logical" name="LSELFENERGY"> F  </i>
   <i type="logical" name="LSPECTRAL"> F  </i>
   <i type="logical" name="LSPECTRALGW"> F  </i>
   <i type="logical" name="LSINGLES"> F  </i>
   <i type="logical" name="LFERMIGW"> F  </i>
   <i type="logical" name="ODDONLYGW"> F  </i>
   <i type="logical" name="EVENONLYGW"> F  </i>
   <i type="int" name="NKREDLFX">     1</i>
   <i type="int" name="NKREDLFY">     1</i>
   <i type="int" name="NKREDLFZ">     1</i>
   <i type="int" name="MAXMEM">  2800</i>
   <i type="int" name="TELESCOPE">     0</i>
   <i type="int" name="NTAUPAR">    -1</i>
   <i type="int" name="NOMEGAPAR">    -1</i>
   <i name="DAMP_NEWTON">      0.80000001</i>
   <i name="LAMBDA">      1.00000000</i>
  </separator>
  <separator name="External order field" >
   <i name="OFIELD_KAPPA">      0.00000000</i>
   <v name="OFIELD_K">      0.00000000      0.00000000      0.00000000</v>
   <i name="OFIELD_Q6_NEAR">      0.00000000</i>
   <i name="OFIELD_Q6_FAR">      0.00000000</i>
   <i name="OFIELD_A">      0.00000000</i>
  </separator>
 </parameters>
 <atominfo>
  <atoms>     314 </atoms>
  <types>       2 </types>
  <array name="atoms" >
   <dimension dim="1">ion</dimension>
   <field type="string">element</field>
   <field type="int">atomtype</field>
   <set>
    <rc><c>Ni</c><c>   1</c></rc>
    <rc><c>Ni</c><c>   1</c></rc>
    <rc><c>Ni</c><c>   1</c></rc>
    <rc><c>Ni</c><c>   1</c></rc>
    <rc><c>Ni</c><c>   1</c></rc>
    <rc><c>Ni</c><c>   1</c></rc>
    <rc><c>Ni</c><c>   1</c></rc>
    <rc><c>Ni</c><c>   1</c></rc>
    <rc><c>Ni</c><c>   1</c></rc>
    <rc><c>Ni</c><c>   1</c></rc>
    <rc><c>Ni</c><c>   1</c></rc>
    <rc><c>Ni</c><c>   1</c></rc>
    <rc><c>Ni</c><c>   1</c></rc>
    <rc><c>Ni</c><c>   1</c></rc>
    <rc><c>Ni</c><c>   1</c></rc>
    <rc><c>Ni</c><c>   1</c></rc>
    <rc><c>Ni</c><c>   1</c></rc>
    <rc><c>Ni</c><c>   1</c></rc>
    <rc><c>Ni</c><c>   1</c></rc>
    <rc><c>Ni</c><c>   1</c></rc>
    <rc><c>Ni</c><c>   1</c></rc>
    <rc><c>Ni</c><c>   1</c></rc>
    <rc><c>Ni</c><c>   1</c></rc>
    <rc><c>Ni</c><c>   1</c></rc>
    <rc><c>Ni</c><c>   1</c></rc>
    <rc><c>Ni</c><c>   1</c></rc>
    <rc><c>Ni</c><c>   1</c></rc>
    <rc><c>Ni</c><c>   1</c></rc>
    <rc><c>Ni</c><c>   1</c></rc>
    <rc><c>Ni</c><c>   1</c></rc>
    <rc><c>Ni</c><c>   1</c></rc>
    <rc><c>Ni</c><c>   1</c></rc>
    <rc><c>Ni</c><c>   1</c></rc>
    <rc><c>Ni</c><c>   1</c></rc>
    <rc><c>Ni</c><c>   1</c></rc>
    <rc><c>Ni</c><c>   1</c></rc>
    <rc><c>Ni</c><c>   1</c></rc>
    <rc><c>Ni</c><c>   1</c></rc>
    <rc><c>Ni</c><c>   1</c></rc>
    <rc><c>Ni</c><c>   1</c></rc>
    <rc><c>Ni</c><c>   1</c></rc>
    <rc><c>Ni</c><c>   1</c></rc>
    <rc><c>Ni</c><c>   1</c></rc>
    <rc><c>Ni</c><c>   1</c></rc>
    <rc><c>Ni</c><c>   1</c></rc>
    <rc><c>Ni</c><c>   1</c></rc>
    <rc><c>Ni</c><c>   1</c></rc>
    <rc><c>Ni</c><c>   1</c></rc>
    <rc><c>Ni</c><c>   1</c></rc>
    <rc><c>Ni</c><c>   1</c></rc>
    <rc><c>Ni</c><c>   1</c></rc>
    <rc><c>Ni</c><c>   1</c></rc>
    <rc><c>Ni</c><c>   1</c></rc>
    <rc><c>Ni</c><c>   1</c></rc>
    <rc><c>Ni</c><c>   1</c></rc>
    <rc><c>Ni</c><c>   1</c></rc>
    <rc><c>Ni</c><c>   1</c></rc>
    <rc><c>Ni</c><c>   1</c></rc>
    <rc><c>Ni</c><c>   1</c></rc>
    <rc><c>Ni</c><c>   1</c></rc>
    <rc><c>Ni</c><c>   1</c></rc>
    <rc><c>Ni</c><c>   1</c></rc>
    <rc><c>Ni</c><c>   1</c></rc>
    <rc><c>Ni</c><c>   1</c></rc>
    <rc><c>Ni</c><c>   1</c></rc>
    <rc><c>Ni</c><c>   1</c></rc>
    <rc><c>Ni</c><c>   1</c></rc>
    <rc><c>Ni</c><c>   1</c></rc>
    <rc><c>Ni</c><c>   1</c></rc>
    <rc><c>Ni</c><c>   1</c></rc>
    <rc><c>Ni</c><c>   1</c></rc>
    <rc><c>Ni</c><c>   1</c></rc>
    <rc><c>Ni</c><c>   1</c></rc>
    <rc><c>Ni</c><c>   1</c></rc>
    <rc><c>Ni</c><c>   1</c></rc>
    <rc><c>Ni</c><c>   1</c></rc>
    <rc><c>Ni</c><c>   1</c></rc>
    <rc><c>Ni</c><c>   1</c></rc>
    <rc><c>Ni</c><c>   1</c></rc>
    <rc><c>Ni</c><c>   1</c></rc>
    <rc><c>Ni</c><c>   1</c></rc>
    <rc><c>Ni</c><c>   1</c></rc>
    <rc><c>Ni</c><c>   1</c></rc>
    <rc><c>Ni</c><c>   1</c></rc>
    <rc><c>Ni</c><c>   1</c></rc>
    <rc><c>Ni</c><c>   1</c></rc>
    <rc><c>Ni</c><c>   1</c></rc>
    <rc><c>Ni</c><c>   1</c></rc>
    <rc><c>Ni</c><c>   1</c></rc>
    <rc><c>Ni</c><c>   1</c></rc>
    <rc><c>Ni</c><c>   1</c></rc>
    <rc><c>Ni</c><c>   1</c></rc>
    <rc><c>Ni</c><c>   1</c></rc>
    <rc><c>Ni</c><c>   1</c></rc>
    <rc><c>Ni</c><c>   1</c></rc>
    <rc><c>Ni</c><c>   1</c></rc>
    <rc><c>Ni</c><c>   1</c></rc>
    <rc><c>Ni</c><c>   1</c></rc>
    <rc><c>Ni</c><c>   1</c></rc>
    <rc><c>Ni</c><c>   1</c></rc>
    <rc><c>Ni</c><c>   1</c></rc>
    <rc><c>Ni</c><c>   1</c></rc>
    <rc><c>Ni</c><c>   1</c></rc>
    <rc><c>Ni</c><c>   1</c></rc>
    <rc><c>Ni</c><c>   1</c></rc>
    <rc><c>Ni</c><c>   1</c></rc>
    <rc><c>Ni</c><c>   1</c></rc>
    <rc><c>Ni</c><c>   1</c></rc>
    <rc><c>Ni</c><c>   1</c></rc>
    <rc><c>Ni</c><c>   1</c></rc>
    <rc><c>Ni</c><c>   1</c></rc>
    <rc><c>Ni</c><c>   1</c></rc>
    <rc><c>Ni</c><c>   1</c></rc>
    <rc><c>Ni</c><c>   1</c></rc>
    <rc><c>Ni</c><c>   1</c></rc>
    <rc><c>Ni</c><c>   1</c></rc>
    <rc><c>Ni</c><c>   1</c></rc>
    <rc><c>Ni</c><c>   1</c></rc>
    <rc><c>Ni</c><c>   1</c></rc>
    <rc><c>Ni</c><c>   1</c></rc>
    <rc><c>Ni</c><c>   1</c></rc>
    <rc><c>Ni</c><c>   1</c></rc>
    <rc><c>Ni</c><c>   1</c></rc>
    <rc><c>Ni</c><c>   1</c></rc>
    <rc><c>Ni</c><c>   1</c></rc>
    <rc><c>O </c><c>   2</c></rc>
    <rc><c>O </c><c>   2</c></rc>
    <rc><c>O </c><c>   2</c></rc>
    <rc><c>O </c><c>   2</c></rc>
    <rc><c>O </c><c>   2</c></rc>
    <rc><c>O </c><c>   2</c></rc>
    <rc><c>O </c><c>   2</c></rc>
    <rc><c>O </c><c>   2</c></rc>
    <rc><c>O </c><c>   2</c></rc>
    <rc><c>O </c><c>   2</c></rc>
    <rc><c>O </c><c>   2</c></rc>
    <rc><c>O </c><c>   2</c></rc>
    <rc><c>O </c><c>   2</c></rc>
    <rc><c>O </c><c>   2</c></rc>
    <rc><c>O </c><c>   2</c></rc>
    <rc><c>O </c><c>   2</c></rc>
    <rc><c>O </c><c>   2</c></rc>
    <rc><c>O </c><c>   2</c></rc>
    <rc><c>O </c><c>   2</c></rc>
    <rc><c>O </c><c>   2</c></rc>
    <rc><c>O </c><c>   2</c></rc>
    <rc><c>O </c><c>   2</c></rc>
    <rc><c>O </c><c>   2</c></rc>
    <rc><c>O </c><c>   2</c></rc>
    <rc><c>O </c><c>   2</c></rc>
    <rc><c>O </c><c>   2</c></rc>
    <rc><c>O </c><c>   2</c></rc>
    <rc><c>O </c><c>   2</c></rc>
    <rc><c>O </c><c>   2</c></rc>
    <rc><c>O </c><c>   2</c></rc>
    <rc><c>O </c><c>   2</c></rc>
    <rc><c>O </c><c>   2</c></rc>
    <rc><c>O </c><c>   2</c></rc>
    <rc><c>O </c><c>   2</c></rc>
    <rc><c>O </c><c>   2</c></rc>
    <rc><c>O </c><c>   2</c></rc>
    <rc><c>O </c><c>   2</c></rc>
    <rc><c>O </c><c>   2</c></rc>
    <rc><c>O </c><c>   2</c></rc>
    <rc><c>O </c><c>   2</c></rc>
    <rc><c>O </c><c>   2</c></rc>
    <rc><c>O </c><c>   2</c></rc>
    <rc><c>O </c><c>   2</c></rc>
    <rc><c>O </c><c>   2</c></rc>
    <rc><c>O </c><c>   2</c></rc>
    <rc><c>O </c><c>   2</c></rc>
    <rc><c>O </c><c>   2</c></rc>
    <rc><c>O </c><c>   2</c></rc>
    <rc><c>O </c><c>   2</c></rc>
    <rc><c>O </c><c>   2</c></rc>
    <rc><c>O </c><c>   2</c></rc>
    <rc><c>O </c><c>   2</c></rc>
    <rc><c>O </c><c>   2</c></rc>
    <rc><c>O </c><c>   2</c></rc>
    <rc><c>O </c><c>   2</c></rc>
    <rc><c>O </c><c>   2</c></rc>
    <rc><c>O </c><c>   2</c></rc>
    <rc><c>O </c><c>   2</c></rc>
    <rc><c>O </c><c>   2</c></rc>
    <rc><c>O </c><c>   2</c></rc>
    <rc><c>O </c><c>   2</c></rc>
    <rc><c>O </c><c>   2</c></rc>
    <rc><c>O </c><c>   2</c></rc>
    <rc><c>O </c><c>   2</c></rc>
    <rc><c>O </c><c>   2</c></rc>
    <rc><c>O </c><c>   2</c></rc>
    <rc><c>O </c><c>   2</c></rc>
    <rc><c>O </c><c>   2</c></rc>
    <rc><c>O </c><c>   2</c></rc>
    <rc><c>O </c><c>   2</c></rc>
    <rc><c>O </c><c>   2</c></rc>
    <rc><c>O </c><c>   2</c></rc>
    <rc><c>O </c><c>   2</c></rc>
    <rc><c>O </c><c>   2</c></rc>
    <rc><c>O </c><c>   2</c></rc>
    <rc><c>O </c><c>   2</c></rc>
    <rc><c>O </c><c>   2</c></rc>
    <rc><c>O </c><c>   2</c></rc>
    <rc><c>O </c><c>   2</c></rc>
    <rc><c>O </c><c>   2</c></rc>
    <rc><c>O </c><c>   2</c></rc>
    <rc><c>O </c><c>   2</c></rc>
    <rc><c>O </c><c>   2</c></rc>
    <rc><c>O </c><c>   2</c></rc>
    <rc><c>O </c><c>   2</c></rc>
    <rc><c>O </c><c>   2</c></rc>
    <rc><c>O </c><c>   2</c></rc>
    <rc><c>O </c><c>   2</c></rc>
    <rc><c>O </c><c>   2</c></rc>
    <rc><c>O </c><c>   2</c></rc>
    <rc><c>O </c><c>   2</c></rc>
    <rc><c>O </c><c>   2</c></rc>
    <rc><c>O </c><c>   2</c></rc>
    <rc><c>O </c><c>   2</c></rc>
    <rc><c>O </c><c>   2</c></rc>
    <rc><c>O </c><c>   2</c></rc>
    <rc><c>O </c><c>   2</c></rc>
    <rc><c>O </c><c>   2</c></rc>
    <rc><c>O </c><c>   2</c></rc>
    <rc><c>O </c><c>   2</c></rc>
    <rc><c>O </c><c>   2</c></rc>
    <rc><c>O </c><c>   2</c></rc>
    <rc><c>O </c><c>   2</c></rc>
    <rc><c>O </c><c>   2</c></rc>
    <rc><c>O </c><c>   2</c></rc>
    <rc><c>O </c><c>   2</c></rc>
    <rc><c>O </c><c>   2</c></rc>
    <rc><c>O </c><c>   2</c></rc>
    <rc><c>O </c><c>   2</c></rc>
    <rc><c>O </c><c>   2</c></rc>
    <rc><c>O </c><c>   2</c></rc>
    <rc><c>O </c><c>   2</c></rc>
    <rc><c>O </c><c>   2</c></rc>
    <rc><c>O </c><c>   2</c></rc>
    <rc><c>O </c><c>   2</c></rc>
    <rc><c>O </c><c>   2</c></rc>
    <rc><c>O </c><c>   2</c></rc>
    <rc><c>O </c><c>   2</c></rc>
    <rc><c>O </c><c>   2</c></rc>
    <rc><c>O </c><c>   2</c></rc>
    <rc><c>O </c><c>   2</c></rc>
    <rc><c>O </c><c>   2</c></rc>
    <rc><c>O </c><c>   2</c></rc>
    <rc><c>O </c><c>   2</c></rc>
    <rc><c>O </c><c>   2</c></rc>
    <rc><c>O </c><c>   2</c></rc>
    <rc><c>O </c><c>   2</c></rc>
    <rc><c>O </c><c>   2</c></rc>
    <rc><c>O </c><c>   2</c></rc>
    <rc><c>O </c><c>   2</c></rc>
    <rc><c>O </c><c>   2</c></rc>
    <rc><c>O </c><c>   2</c></rc>
    <rc><c>O </c><c>   2</c></rc>
    <rc><c>O </c><c>   2</c></rc>
    <rc><c>O </c><c>   2</c></rc>
    <rc><c>O </c><c>   2</c></rc>
    <rc><c>O </c><c>   2</c></rc>
    <rc><c>O </c><c>   2</c></rc>
    <rc><c>O </c><c>   2</c></rc>
    <rc><c>O </c><c>   2</c></rc>
    <rc><c>O </c><c>   2</c></rc>
    <rc><c>O </c><c>   2</c></rc>
    <rc><c>O </c><c>   2</c></rc>
    <rc><c>O </c><c>   2</c></rc>
    <rc><c>O </c><c>   2</c></rc>
    <rc><c>O </c><c>   2</c></rc>
    <rc><c>O </c><c>   2</c></rc>
    <rc><c>O </c><c>   2</c></rc>
    <rc><c>O </c><c>   2</c></rc>
    <rc><c>O </c><c>   2</c></rc>
    <rc><c>O </c><c>   2</c></rc>
    <rc><c>O </c><c>   2</c></rc>
    <rc><c>O </c><c>   2</c></rc>
    <rc><c>O </c><c>   2</c></rc>
    <rc><c>O </c><c>   2</c></rc>
    <rc><c>O </c><c>   2</c></rc>
    <rc><c>O </c><c>   2</c></rc>
    <rc><c>O </c><c>   2</c></rc>
    <rc><c>O </c><c>   2</c></rc>
    <rc><c>O </c><c>   2</c></rc>
    <rc><c>O </c><c>   2</c></rc>
    <rc><c>O </c><c>   2</c></rc>
    <rc><c>O </c><c>   2</c></rc>
    <rc><c>O </c><c>   2</c></rc>
    <rc><c>O </c><c>   2</c></rc>
    <rc><c>O </c><c>   2</c></rc>
    <rc><c>O </c><c>   2</c></rc>
    <rc><c>O </c><c>   2</c></rc>
    <rc><c>O </c><c>   2</c></rc>
    <rc><c>O </c><c>   2</c></rc>
    <rc><c>O </c><c>   2</c></rc>
    <rc><c>O </c><c>   2</c></rc>
    <rc><c>O </c><c>   2</c></rc>
    <rc><c>O </c><c>   2</c></rc>
    <rc><c>O </c><c>   2</c></rc>
    <rc><c>O </c><c>   2</c></rc>
    <rc><c>O </c><c>   2</c></rc>
    <rc><c>O </c><c>   2</c></rc>
    <rc><c>O </c><c>   2</c></rc>
    <rc><c>O </c><c>   2</c></rc>
    <rc><c>O </c><c>   2</c></rc>
    <rc><c>O </c><c>   2</c></rc>
    <rc><c>O </c><c>   2</c></rc>
    <rc><c>O </c><c>   2</c></rc>
    <rc><c>O </c><c>   2</c></rc>
    <rc><c>O </c><c>   2</c></rc>
    <rc><c>O </c><c>   2</c></rc>
    <rc><c>O </c><c>   2</c></rc>
    <rc><c>O </c><c>   2</c></rc>
   </set>
  </array>
  <array name="atomtypes" >
   <dimension dim="1">type</dimension>
   <field type="int">atomspertype</field>
   <field type="string">element</field>
   <field>mass</field>
   <field>valence</field>
   <field type="string">pseudopotential</field>
   <set>
    <rc><c> 125</c><c>Ni</c><c>     58.69000000</c><c>     10.00000000</c><c>  PAW Ni_GW 31Mar2010                   </c></rc>
    <rc><c> 189</c><c>O </c><c>     16.00000000</c><c>      6.00000000</c><c>  PAW O_GW 19Mar2012                    </c></rc>
   </set>
  </array>
 </atominfo>
 <structure name="initialpos" >
  <crystal>
   <varray name="basis" >
    <v>      10.54150009       0.00000000       0.00000000 </v>
    <v>       5.27075005       9.12920687       0.00000000 </v>
    <v>       0.00000000       0.00000000      29.94150009 </v>
   </varray>
   <i name="volume">   2881.43628275 </i>
   <varray name="rec_basis" >
    <v>       0.09486316      -0.05476927       0.00000000 </v>
    <v>       0.00000000       0.10953854       0.00000000 </v>
    <v>       0.00000000       0.00000000       0.03339846 </v>
   </varray>
  </crystal>
  <varray name="positions" >
   <v>       0.00000000       0.00000000       0.00000000 </v>
   <v>       0.00000000       0.00000000       0.07041398 </v>
   <v>       0.00000000       0.00000000       0.14082795 </v>
   <v>       0.00000000       0.00000000       0.21124193 </v>
   <v>       0.00000000       0.00000000       0.28165590 </v>
   <v>       0.00000000       0.20000000       0.00000000 </v>
   <v>       0.00000000       0.20000000       0.07041398 </v>
   <v>       0.00000000       0.20000000       0.14082795 </v>
   <v>       0.00000000       0.20000000       0.21124193 </v>
   <v>       0.00000000       0.20000000       0.28165590 </v>
   <v>       0.00000000       0.40000001       0.00000000 </v>
   <v>       0.00000000       0.40000001       0.07041398 </v>
   <v>       0.00000000       0.40000001       0.14082795 </v>
   <v>       0.00000000       0.40000001       0.21124193 </v>
   <v>       0.00000000       0.40000001       0.28165590 </v>
   <v>       0.00000000       0.60000002       0.00000000 </v>
   <v>       0.00000000       0.60000002       0.07041398 </v>
   <v>       0.00000000       0.60000002       0.14082795 </v>
   <v>       0.00000000       0.60000002       0.21124193 </v>
   <v>       0.00000000       0.60000002       0.28165590 </v>
   <v>       0.00000000       0.80000001       0.00000000 </v>
   <v>       0.00000000       0.80000001       0.07041398 </v>
   <v>       0.00000000       0.80000001       0.14082795 </v>
   <v>       0.00000000       0.80000001       0.21124193 </v>
   <v>       0.00000000       0.80000001       0.28165590 </v>
   <v>       0.20000000       0.00000000       0.00000000 </v>
   <v>       0.20000000       0.00000000       0.07041398 </v>
   <v>       0.20000000       0.00000000       0.14082795 </v>
   <v>       0.20000000       0.00000000       0.21124193 </v>
   <v>       0.20000000       0.00000000       0.28165590 </v>
   <v>       0.20000000       0.20000000       0.00000000 </v>
   <v>       0.20000000       0.20000000       0.07041398 </v>
   <v>       0.20000000       0.20000000       0.14082795 </v>
   <v>       0.20000000       0.20000000       0.21124193 </v>
   <v>       0.20000000       0.20000000       0.28165590 </v>
   <v>       0.20000000       0.40000001       0.00000000 </v>
   <v>       0.20000000       0.40000001       0.07041398 </v>
   <v>       0.20000000       0.40000001       0.14082795 </v>
   <v>       0.20000000       0.40000001       0.21124193 </v>
   <v>       0.20000000       0.40000001       0.28165590 </v>
   <v>       0.20000000       0.60000002       0.00000000 </v>
   <v>       0.20000000       0.60000002       0.07041398 </v>
   <v>       0.20000000       0.60000002       0.14082795 </v>
   <v>       0.20000000       0.60000002       0.21124193 </v>
   <v>       0.20000000       0.60000002       0.28165590 </v>
   <v>       0.20000000       0.80000001       0.00000000 </v>
   <v>       0.20000000       0.80000001       0.07041398 </v>
   <v>       0.20000000       0.80000001       0.14082795 </v>
   <v>       0.20000000       0.80000001       0.21124193 </v>
   <v>       0.20000000       0.80000001       0.28165590 </v>
   <v>       0.40000001       0.00000000       0.00000000 </v>
   <v>       0.40000001       0.00000000       0.07041398 </v>
   <v>       0.40000001       0.00000000       0.14082795 </v>
   <v>       0.40000001       0.00000000       0.21124193 </v>
   <v>       0.40000001       0.00000000       0.28165590 </v>
   <v>       0.40000001       0.20000000       0.00000000 </v>
   <v>       0.40000001       0.20000000       0.07041398 </v>
   <v>       0.40000001       0.20000000       0.14082795 </v>
   <v>       0.40000001       0.20000000       0.21124193 </v>
   <v>       0.40000001       0.20000000       0.28165590 </v>
   <v>       0.40000001       0.40000001       0.00000000 </v>
   <v>       0.40000001       0.40000001       0.07041398 </v>
   <v>       0.40000001       0.40000001       0.14082795 </v>
   <v>       0.40000001       0.40000001       0.21124193 </v>
   <v>       0.40000001       0.40000001       0.28165590 </v>
   <v>       0.40000001       0.60000002       0.00000000 </v>
   <v>       0.40000001       0.60000002       0.07041398 </v>
   <v>       0.40000001       0.60000002       0.14082795 </v>
   <v>       0.40000001       0.60000002       0.21124193 </v>
   <v>       0.40000001       0.60000002       0.28165590 </v>
   <v>       0.40000001       0.80000001       0.00000000 </v>
   <v>       0.40000001       0.80000001       0.07041398 </v>
   <v>       0.40000001       0.80000001       0.14082795 </v>
   <v>       0.40000001       0.80000001       0.21124193 </v>
   <v>       0.40000001       0.80000001       0.28165590 </v>
   <v>       0.60000002       0.00000000       0.00000000 </v>
   <v>       0.60000002       0.00000000       0.07041398 </v>
   <v>       0.60000002       0.00000000       0.14082795 </v>
   <v>       0.60000002       0.00000000       0.21124193 </v>
   <v>       0.60000002       0.00000000       0.28165590 </v>
   <v>       0.60000002       0.20000000       0.00000000 </v>
   <v>       0.60000002       0.20000000       0.07041398 </v>
   <v>       0.60000002       0.20000000       0.14082795 </v>
   <v>       0.60000002       0.20000000       0.21124193 </v>
   <v>       0.60000002       0.20000000       0.28165590 </v>
   <v>       0.60000002       0.40000001       0.00000000 </v>
   <v>       0.60000002       0.40000001       0.07041398 </v>
   <v>       0.60000002       0.40000001       0.14082795 </v>
   <v>       0.60000002       0.40000001       0.21124193 </v>
   <v>       0.60000002       0.40000001       0.28165590 </v>
   <v>       0.60000002       0.60000002       0.00000000 </v>
   <v>       0.60000002       0.60000002       0.07041398 </v>
   <v>       0.60000002       0.60000002       0.14082795 </v>
   <v>       0.60000002       0.60000002       0.21124193 </v>
   <v>       0.60000002       0.60000002       0.28165590 </v>
   <v>       0.60000002       0.80000001       0.00000000 </v>
   <v>       0.60000002       0.80000001       0.07041398 </v>
   <v>       0.60000002       0.80000001       0.14082795 </v>
   <v>       0.60000002       0.80000001       0.21124193 </v>
   <v>       0.60000002       0.80000001       0.28165590 </v>
   <v>       0.80000001       0.00000000       0.00000000 </v>
   <v>       0.80000001       0.00000000       0.07041398 </v>
   <v>       0.80000001       0.00000000       0.14082795 </v>
   <v>       0.80000001       0.00000000       0.21124193 </v>
   <v>       0.80000001       0.00000000       0.28165590 </v>
   <v>       0.80000001       0.20000000       0.00000000 </v>
   <v>       0.80000001       0.20000000       0.07041398 </v>
   <v>       0.80000001       0.20000000       0.14082795 </v>
   <v>       0.80000001       0.20000000       0.21124193 </v>
   <v>       0.80000001       0.20000000       0.28165590 </v>
   <v>       0.80000001       0.40000001       0.00000000 </v>
   <v>       0.80000001       0.40000001       0.07041398 </v>
   <v>       0.80000001       0.40000001       0.14082795 </v>
   <v>       0.80000001       0.40000001       0.21124193 </v>
   <v>       0.80000001       0.40000001       0.28165590 </v>
   <v>       0.80000001       0.60000002       0.00000000 </v>
   <v>       0.80000001       0.60000002       0.07041398 </v>
   <v>       0.80000001       0.60000002       0.14082795 </v>
   <v>       0.80000001       0.60000002       0.21124193 </v>
   <v>       0.80000001       0.60000002       0.28165590 </v>
   <v>       0.80000001       0.80000001       0.00000000 </v>
   <v>       0.80000001       0.80000001       0.07041398 </v>
   <v>       0.80000001       0.80000001       0.14082795 </v>
   <v>       0.80000001       0.80000001       0.21124193 </v>
   <v>       0.80000001       0.80000001       0.28165590 </v>
   <v>       0.10000000       0.10000000       0.03520699 </v>
   <v>       0.10000000       0.10000000       0.10562097 </v>
   <v>       0.10000000       0.10000000       0.17603494 </v>
   <v>       0.10000000       0.10000000       0.24644891 </v>
   <v>       0.10000000       0.10000000       0.31686288 </v>
   <v>       0.10000000       0.30000001       0.03520699 </v>
   <v>       0.10000000       0.30000001       0.10562097 </v>
   <v>       0.10000000       0.30000001       0.17603494 </v>
   <v>       0.10000000       0.30000001       0.24644891 </v>
   <v>       0.10000000       0.30000001       0.31686288 </v>
   <v>       0.10000000       0.50000000       0.03520699 </v>
   <v>       0.10000000       0.50000000       0.10562097 </v>
   <v>       0.10000000       0.50000000       0.17603494 </v>
   <v>       0.10000000       0.50000000       0.24644891 </v>
   <v>       0.10000000       0.50000000       0.31686288 </v>
   <v>       0.10000000       0.69999999       0.03520699 </v>
   <v>       0.10000000       0.69999999       0.10562097 </v>
   <v>       0.10000000       0.69999999       0.17603494 </v>
   <v>       0.10000000       0.69999999       0.24644891 </v>
   <v>       0.10000000       0.69999999       0.31686288 </v>
   <v>       0.10000000       0.89999998       0.03520699 </v>
   <v>       0.10000000       0.89999998       0.10562097 </v>
   <v>       0.10000000       0.89999998       0.17603494 </v>
   <v>       0.10000000       0.89999998       0.24644891 </v>
   <v>       0.10000000       0.89999998       0.31686288 </v>
   <v>       0.30000001       0.10000000       0.03520699 </v>
   <v>       0.30000001       0.10000000       0.10562097 </v>
   <v>       0.30000001       0.10000000       0.17603494 </v>
   <v>       0.30000001       0.10000000       0.24644891 </v>
   <v>       0.30000001       0.10000000       0.31686288 </v>
   <v>       0.30000001       0.30000001       0.03520699 </v>
   <v>       0.30000001       0.30000001       0.10562097 </v>
   <v>       0.30000001       0.30000001       0.17603494 </v>
   <v>       0.30000001       0.30000001       0.24644891 </v>
   <v>       0.30000001       0.30000001       0.31686288 </v>
   <v>       0.30000001       0.50000000       0.03520699 </v>
   <v>       0.30000001       0.50000000       0.10562097 </v>
   <v>       0.30000001       0.50000000       0.17603494 </v>
   <v>       0.30000001       0.50000000       0.24644891 </v>
   <v>       0.30000001       0.50000000       0.31686288 </v>
   <v>       0.30000001       0.69999999       0.03520699 </v>
   <v>       0.30000001       0.69999999       0.10562097 </v>
   <v>       0.30000001       0.69999999       0.17603494 </v>
   <v>       0.30000001       0.69999999       0.24644891 </v>
   <v>       0.30000001       0.69999999       0.31686288 </v>
   <v>       0.30000001       0.89999998       0.03520699 </v>
   <v>       0.30000001       0.89999998       0.10562097 </v>
   <v>       0.30000001       0.89999998       0.17603494 </v>
   <v>       0.30000001       0.89999998       0.24644891 </v>
   <v>       0.30000001       0.89999998       0.31686288 </v>
   <v>       0.50000000       0.10000000       0.03520699 </v>
   <v>       0.50000000       0.10000000       0.10562097 </v>
   <v>       0.50000000       0.10000000       0.17603494 </v>
   <v>       0.50000000       0.10000000       0.24644891 </v>
   <v>       0.50000000       0.10000000       0.31686288 </v>
   <v>       0.50000000       0.30000001       0.03520699 </v>
   <v>       0.50000000       0.30000001       0.10562097 </v>
   <v>       0.50000000       0.30000001       0.17603494 </v>
   <v>       0.50000000       0.30000001       0.24644891 </v>
   <v>       0.50000000       0.30000001       0.31686288 </v>
   <v>       0.50000000       0.50000000       0.03520699 </v>
   <v>       0.50000000       0.50000000       0.10562097 </v>
   <v>       0.50000000       0.50000000       0.17603494 </v>
   <v>       0.50000000       0.50000000       0.24644891 </v>
   <v>       0.50000000       0.50000000       0.31686288 </v>
   <v>       0.50000000       0.69999999       0.03520699 </v>
   <v>       0.50000000       0.69999999       0.10562097 </v>
   <v>       0.50000000       0.69999999       0.17603494 </v>
   <v>       0.50000000       0.69999999       0.24644891 </v>
   <v>       0.50000000       0.69999999       0.31686288 </v>
   <v>       0.50000000       0.89999998       0.03520699 </v>
   <v>       0.50000000       0.89999998       0.10562097 </v>
   <v>       0.50000000       0.89999998       0.17603494 </v>
   <v>       0.50000000       0.89999998       0.24644891 </v>
   <v>       0.50000000       0.89999998       0.31686288 </v>
   <v>       0.69999999       0.10000000       0.03520699 </v>
   <v>       0.69999999       0.10000000       0.10562097 </v>
   <v>       0.69999999       0.10000000       0.17603494 </v>
   <v>       0.69999999       0.10000000       0.24644891 </v>
   <v>       0.69999999       0.10000000       0.31686288 </v>
   <v>       0.69999999       0.30000001       0.03520699 </v>
   <v>       0.69999999       0.30000001       0.10562097 </v>
   <v>       0.69999999       0.30000001       0.17603494 </v>
   <v>       0.69999999       0.30000001       0.24644891 </v>
   <v>       0.69999999       0.30000001       0.31686288 </v>
   <v>       0.69999999       0.50000000       0.03520699 </v>
   <v>       0.69999999       0.50000000       0.10562097 </v>
   <v>       0.69999999       0.50000000       0.17603494 </v>
   <v>       0.69999999       0.50000000       0.24644891 </v>
   <v>       0.69999999       0.50000000       0.31686288 </v>
   <v>       0.69999999       0.69999999       0.03520699 </v>
   <v>       0.69999999       0.69999999       0.10562097 </v>
   <v>       0.69999999       0.69999999       0.17603494 </v>
   <v>       0.69999999       0.69999999       0.24644891 </v>
   <v>       0.69999999       0.69999999       0.31686288 </v>
   <v>       0.69999999       0.89999998       0.03520699 </v>
   <v>       0.69999999       0.89999998       0.10562097 </v>
   <v>       0.69999999       0.89999998       0.17603494 </v>
   <v>       0.69999999       0.89999998       0.24644891 </v>
   <v>       0.69999999       0.89999998       0.31686288 </v>
   <v>       0.89999998       0.10000000       0.03520699 </v>
   <v>       0.89999998       0.10000000       0.10562097 </v>
   <v>       0.89999998       0.10000000       0.17603494 </v>
   <v>       0.89999998       0.10000000       0.24644891 </v>
   <v>       0.89999998       0.10000000       0.31686288 </v>
   <v>       0.89999998       0.30000001       0.03520699 </v>
   <v>       0.89999998       0.30000001       0.10562097 </v>
   <v>       0.89999998       0.30000001       0.17603494 </v>
   <v>       0.89999998       0.30000001       0.24644891 </v>
   <v>       0.89999998       0.30000001       0.31686288 </v>
   <v>       0.89999998       0.50000000       0.03520699 </v>
   <v>       0.89999998       0.50000000       0.10562097 </v>
   <v>       0.89999998       0.50000000       0.17603494 </v>
   <v>       0.89999998       0.50000000       0.24644891 </v>
   <v>       0.89999998       0.50000000       0.31686288 </v>
   <v>       0.89999998       0.69999999       0.03520699 </v>
   <v>       0.89999998       0.69999999       0.10562097 </v>
   <v>       0.89999998       0.69999999       0.17603494 </v>
   <v>       0.89999998       0.69999999       0.24644891 </v>
   <v>       0.89999998       0.69999999       0.31686288 </v>
   <v>       0.89999998       0.89999998       0.03520699 </v>
   <v>       0.89999998       0.89999998       0.10562097 </v>
   <v>       0.89999998       0.89999998       0.17603494 </v>
   <v>       0.89999998       0.89999998       0.24644891 </v>
   <v>       0.89999998       0.89999998       0.31686288 </v>
   <v>       0.00000000       0.00000000       0.36362072 </v>
   <v>       0.00000000       0.12500000       0.36362072 </v>
   <v>       0.00000000       0.25000000       0.36362072 </v>
   <v>       0.00000000       0.37500000       0.36362072 </v>
   <v>       0.00000000       0.50000000       0.36362072 </v>
   <v>       0.00000000       0.62500000       0.36362072 </v>
   <v>       0.00000000       0.75000000       0.36362072 </v>
   <v>       0.00000000       0.87500000       0.36362072 </v>
   <v>       0.12500000       0.00000000       0.36362072 </v>
   <v>       0.12500000       0.12500000       0.36362072 </v>
   <v>       0.12500000       0.25000000       0.36362072 </v>
   <v>       0.12500000       0.37500000       0.36362072 </v>
   <v>       0.12500000       0.50000000       0.36362072 </v>
[...]
    <v>       0.00000000       0.00000000       0.03339846 </v>
   </varray>
  </crystal>
  <varray name="positions" >
   <v>       0.00000000      -0.00000000      -0.04369379 </v>
   <v>       0.00000000      -0.00000000       0.06604657 </v>
   <v>       0.00000000      -0.00000000       0.14185189 </v>
   <v>       0.00000000      -0.00000000       0.21158625 </v>
   <v>       0.00000000      -0.00000000       0.28329766 </v>
   <v>       0.00053373       0.19905045      -0.04175489 </v>
   <v>      -0.00043966       0.19929061       0.06651571 </v>
   <v>       0.00020154       0.19986469       0.14202788 </v>
   <v>      -0.00070804       0.20051945       0.21189180 </v>
   <v>       0.00700709       0.19449174       0.28016363 </v>
   <v>      -0.00213993       0.40056134      -0.04474639 </v>
   <v>      -0.00042398       0.39954136       0.06603207 </v>
   <v>       0.00047466       0.40056587       0.14234284 </v>
   <v>       0.00019813       0.39970283       0.21207382 </v>
   <v>      -0.00350923       0.40646798       0.28198162 </v>
   <v>       0.00213993       0.59943869      -0.04474639 </v>
   <v>       0.00042398       0.60045867       0.06603207 </v>
   <v>      -0.00047466       0.59943416       0.14234284 </v>
   <v>      -0.00019813       0.60029720       0.21207382 </v>
   <v>       0.00350923       0.59353205       0.28198162 </v>
   <v>      -0.00053373       0.80094957      -0.04175489 </v>
   <v>       0.00043966       0.80070941       0.06651571 </v>
   <v>      -0.00020154       0.80013533       0.14202788 </v>
   <v>       0.00070804       0.79948057       0.21189180 </v>
   <v>      -0.00700709       0.80550828       0.28016363 </v>
   <v>       0.19905045       0.00053373      -0.04175489 </v>
   <v>       0.19929061      -0.00043966       0.06651571 </v>
   <v>       0.19986469       0.00020154       0.14202788 </v>
   <v>       0.20051945      -0.00070804       0.21189180 </v>
   <v>       0.19449174       0.00700709       0.28016363 </v>
   <v>       0.19936697       0.19936697      -0.04316306 </v>
   <v>       0.19962004       0.19962004       0.06626344 </v>
   <v>       0.20056496       0.20056496       0.14231959 </v>
   <v>       0.19978839       0.19978839       0.21162319 </v>
   <v>       0.20127450       0.20127450       0.28077530 </v>
   <v>       0.20277762       0.40325489      -0.04519489 </v>
   <v>       0.20033363       0.39984701       0.06664005 </v>
   <v>       0.20050784       0.39970189       0.14209063 </v>
   <v>       0.20033238       0.39951064       0.21161181 </v>
   <v>       0.19030572       0.40816451       0.28111044 </v>
   <v>       0.21244420       0.59014725      -0.04422683 </v>
   <v>       0.20019645       0.60129628       0.06613784 </v>
   <v>       0.19945167       0.60033102       0.14201327 </v>
   <v>       0.20007494       0.59982311       0.21185996 </v>
   <v>       0.19994135       0.59916659       0.27973119 </v>
   <v>       0.20459678       0.79540324      -0.04182867 </v>
   <v>       0.19634528       0.80365473       0.06807089 </v>
   <v>       0.20072191       0.79927811       0.14163007 </v>
   <v>       0.20036198       0.79963803       0.21142112 </v>
   <v>       0.19407404       0.80592598       0.28173442 </v>
   <v>       0.40056134      -0.00213993      -0.04474639 </v>
   <v>       0.39954136      -0.00042398       0.06603207 </v>
   <v>       0.40056587       0.00047466       0.14234284 </v>
   <v>       0.39970283       0.00019813       0.21207382 </v>
   <v>       0.40646798      -0.00350923       0.28198162 </v>
   <v>       0.40325489       0.20277762      -0.04519489 </v>
   <v>       0.39984701       0.20033363       0.06664005 </v>
   <v>       0.39970189       0.20050784       0.14209063 </v>
   <v>       0.39951064       0.20033238       0.21161181 </v>
   <v>       0.40816451       0.19030572       0.28111044 </v>
   <v>       0.40806653       0.40806653      -0.04429277 </v>
   <v>       0.40098632       0.40098632       0.06593362 </v>
   <v>       0.40034058       0.40034058       0.14182700 </v>
   <v>       0.40005642       0.40005642       0.21228681 </v>
   <v>       0.40134311       0.40134311       0.27976775 </v>
   <v>       0.41354581       0.58645422      -0.04798850 </v>
   <v>       0.39752505       0.60247498       0.06691223 </v>
   <v>       0.40015403       0.59984600       0.14133314 </v>
   <v>       0.39897996       0.60102007       0.21196140 </v>
   <v>       0.40679444       0.59320559       0.28289700 </v>
   <v>       0.40985278       0.78755581      -0.04422683 </v>
   <v>       0.39870375       0.79980356       0.06613784 </v>
   <v>       0.39966901       0.80054834       0.14201327 </v>
   <v>       0.40017692       0.79992508       0.21185996 </v>
   <v>       0.40083344       0.80005867       0.27973119 </v>
   <v>       0.59943869       0.00213993      -0.04474639 </v>
   <v>       0.60045867       0.00042398       0.06603207 </v>
   <v>       0.59943416      -0.00047466       0.14234284 </v>
   <v>       0.60029720      -0.00019813       0.21207382 </v>
   <v>       0.59353205       0.00350923       0.28198162 </v>
   <v>       0.59014725       0.21244420      -0.04422683 </v>
   <v>       0.60129628       0.20019645       0.06613784 </v>
   <v>       0.60033102       0.19945167       0.14201327 </v>
   <v>       0.59982311       0.20007494       0.21185996 </v>
   <v>       0.59916659       0.19994135       0.27973119 </v>
   <v>       0.58645422       0.41354581      -0.04798850 </v>
   <v>       0.60247498       0.39752505       0.06691223 </v>
   <v>       0.59984600       0.40015403       0.14133314 </v>
   <v>       0.60102007       0.39897996       0.21196140 </v>
   <v>       0.59320559       0.40679444       0.28289700 </v>
   <v>       0.59193350       0.59193350      -0.04429277 </v>
   <v>       0.59901371       0.59901371       0.06593362 </v>
   <v>       0.59965945       0.59965945       0.14182700 </v>
   <v>       0.59994361       0.59994361       0.21228681 </v>
   <v>       0.59865692       0.59865692       0.27976775 </v>
   <v>       0.59674514       0.79722239      -0.04519489 </v>
   <v>       0.60015302       0.79966639       0.06664005 </v>
   <v>       0.60029814       0.79949217       0.14209063 </v>
   <v>       0.60048939       0.79966764       0.21161181 </v>
   <v>       0.59183552       0.80969430       0.28111044 </v>
   <v>       0.80094957      -0.00053373      -0.04175489 </v>
   <v>       0.80070941       0.00043966       0.06651571 </v>
   <v>       0.80013533      -0.00020154       0.14202788 </v>
   <v>       0.79948057       0.00070804       0.21189180 </v>
   <v>       0.80550828      -0.00700709       0.28016363 </v>
   <v>       0.79540324       0.20459678      -0.04182867 </v>
   <v>       0.80365473       0.19634528       0.06807089 </v>
   <v>       0.79927811       0.20072191       0.14163007 </v>
   <v>       0.79963803       0.20036198       0.21142112 </v>
   <v>       0.80592598       0.19407404       0.28173442 </v>
   <v>       0.78755581       0.40985278      -0.04422683 </v>
   <v>       0.79980356       0.39870375       0.06613784 </v>
   <v>       0.80054834       0.39966901       0.14201327 </v>
   <v>       0.79992508       0.40017692       0.21185996 </v>
   <v>       0.80005867       0.40083344       0.27973119 </v>
   <v>       0.79722239       0.59674514      -0.04519489 </v>
   <v>       0.79966639       0.60015302       0.06664005 </v>
   <v>       0.79949217       0.60029814       0.14209063 </v>
   <v>       0.79966764       0.60048939       0.21161181 </v>
   <v>       0.80969430       0.59183552       0.28111044 </v>
   <v>       0.80063305       0.80063305      -0.04316306 </v>
   <v>       0.80037998       0.80037998       0.06626344 </v>
   <v>       0.79943506       0.79943506       0.14231959 </v>
   <v>       0.80021163       0.80021163       0.21162319 </v>
   <v>       0.79872552       0.79872552       0.28077530 </v>
   <v>       0.09953441       0.09953441       0.02393086 </v>
   <v>       0.10049072       0.10049072       0.10550016 </v>
   <v>       0.09967491       0.09967491       0.17678183 </v>
   <v>       0.10028349       0.10028349       0.24850764 </v>
   <v>       0.09880239       0.09880239       0.32180358 </v>
   <v>       0.10021086       0.29848633       0.02486292 </v>
   <v>       0.10054949       0.30014054       0.10635570 </v>
   <v>       0.10061827       0.29961055       0.17687532 </v>
   <v>       0.10035791       0.29982307       0.24810133 </v>
   <v>       0.10110893       0.29649766       0.32195605 </v>
   <v>       0.10042198       0.49984991       0.02476419 </v>
   <v>       0.09956705       0.50013485       0.10621960 </v>
   <v>       0.10032166       0.49963233       0.17698235 </v>
   <v>       0.10030126       0.50018879       0.24835104 </v>
   <v>       0.10142714       0.49973865       0.32319070 </v>
   <v>       0.09807794       0.70241241       0.02420144 </v>
   <v>       0.10040469       0.69873846       0.10555742 </v>
   <v>       0.10034118       0.69958306       0.17681534 </v>
   <v>       0.10035627       0.69992960       0.24815946 </v>
   <v>       0.10210830       0.69591869       0.32127271 </v>
   <v>       0.10116419       0.89883579       0.02485948 </v>
   <v>       0.09984894       0.90015104       0.10541570 </v>
   <v>       0.10096833       0.89903165       0.17669233 </v>
   <v>       0.10032651       0.89967347       0.24819571 </v>
   <v>       0.10381862       0.89618136       0.32382553 </v>
   <v>       0.29848633       0.10021086       0.02486292 </v>
   <v>       0.30014054       0.10054949       0.10635570 </v>
   <v>       0.29961055       0.10061827       0.17687532 </v>
   <v>       0.29982307       0.10035791       0.24810133 </v>
   <v>       0.29649766       0.10110893       0.32195605 </v>
   <v>       0.29993269       0.29993269       0.02507550 </v>
   <v>       0.30021195       0.30021195       0.10611501 </v>
   <v>       0.30017442       0.30017442       0.17672919 </v>
   <v>       0.30010480       0.30010480       0.24790047 </v>
   <v>       0.30172345       0.30172345       0.32167879 </v>
   <v>       0.30020437       0.50110892       0.02488372 </v>
   <v>       0.30061149       0.49883985       0.10566732 </v>
   <v>       0.30046991       0.49969309       0.17704306 </v>
   <v>       0.30038040       0.49974582       0.24805854 </v>
   <v>       0.30087791       0.49817299       0.32116577 </v>
   <v>       0.29619228       0.70380772       0.02647762 </v>
   <v>       0.30173773       0.69826227       0.10531161 </v>
   <v>       0.30072849       0.69927151       0.17683365 </v>
   <v>       0.29984407       0.70015593       0.24765148 </v>
   <v>       0.30300814       0.69699186       0.32161551 </v>
   <v>       0.29758759       0.90192204       0.02420144 </v>
   <v>       0.30126154       0.89959528       0.10555742 </v>
   <v>       0.30041694       0.89965880       0.17681534 </v>
   <v>       0.30007040       0.89964371       0.24815946 </v>
   <v>       0.30408131       0.89789168       0.32127271 </v>
   <v>       0.49984991       0.10042198       0.02476419 </v>
   <v>       0.50013485       0.09956705       0.10621960 </v>
   <v>       0.49963233       0.10032166       0.17698235 </v>
   <v>       0.50018879       0.10030126       0.24835104 </v>
   <v>       0.49973865       0.10142714       0.32319070 </v>
   <v>       0.50110892       0.30020437       0.02488372 </v>
   <v>       0.49883985       0.30061149       0.10566732 </v>
   <v>       0.49969309       0.30046991       0.17704306 </v>
   <v>       0.49974582       0.30038040       0.24805854 </v>
   <v>       0.49817299       0.30087791       0.32116577 </v>
   <v>       0.50000000       0.50000000       0.02752365 </v>
   <v>       0.50000000       0.50000000       0.10512761 </v>
   <v>       0.50000000       0.50000000       0.17721165 </v>
   <v>       0.50000000       0.50000000       0.24788869 </v>
   <v>       0.50000000       0.50000000       0.32460368 </v>
   <v>       0.49889108       0.69979563       0.02488372 </v>
   <v>       0.50116015       0.69938851       0.10566732 </v>
   <v>       0.50030691       0.69953009       0.17704306 </v>
   <v>       0.50025418       0.69961960       0.24805854 </v>
   <v>       0.50182701       0.69912209       0.32116577 </v>
   <v>       0.50015009       0.89957799       0.02476419 </v>
   <v>       0.49986515       0.90043293       0.10621960 </v>
   <v>       0.50036767       0.89967831       0.17698235 </v>
   <v>       0.49981121       0.89969871       0.24835104 </v>
   <v>       0.50026135       0.89857284       0.32319070 </v>
   <v>       0.70241241       0.09807794       0.02420144 </v>
   <v>       0.69873846       0.10040469       0.10555742 </v>
   <v>       0.69958306       0.10034118       0.17681534 </v>
   <v>       0.69992960       0.10035627       0.24815946 </v>
   <v>       0.69591869       0.10210830       0.32127271 </v>
   <v>       0.70380772       0.29619228       0.02647762 </v>
   <v>       0.69826227       0.30173773       0.10531161 </v>
   <v>       0.69927151       0.30072849       0.17683365 </v>
   <v>       0.70015593       0.29984407       0.24765148 </v>
   <v>       0.69699186       0.30300814       0.32161551 </v>
   <v>       0.69979563       0.49889108       0.02488372 </v>
   <v>       0.69938851       0.50116015       0.10566732 </v>
   <v>       0.69953009       0.50030691       0.17704306 </v>
   <v>       0.69961960       0.50025418       0.24805854 </v>
   <v>       0.69912209       0.50182701       0.32116577 </v>
   <v>       0.70006731       0.70006731       0.02507550 </v>
   <v>       0.69978805       0.69978805       0.10611501 </v>
   <v>       0.69982558       0.69982558       0.17672919 </v>
   <v>       0.69989520       0.69989520       0.24790047 </v>
   <v>       0.69827655       0.69827655       0.32167879 </v>
   <v>       0.70151367       0.89978912       0.02486292 </v>
   <v>       0.69985946       0.89945048       0.10635570 </v>
   <v>       0.70038945       0.89938171       0.17687532 </v>
   <v>       0.70017693       0.89964207       0.24810133 </v>
   <v>       0.70350234       0.89889105       0.32195605 </v>
   <v>       0.89883579       0.10116419       0.02485948 </v>
   <v>       0.90015104       0.09984894       0.10541570 </v>
   <v>       0.89903165       0.10096833       0.17669233 </v>
   <v>       0.89967347       0.10032651       0.24819571 </v>
   <v>       0.89618136       0.10381862       0.32382553 </v>
   <v>       0.90192204       0.29758759       0.02420144 </v>
   <v>       0.89959528       0.30126154       0.10555742 </v>
   <v>       0.89965880       0.30041694       0.17681534 </v>
   <v>       0.89964371       0.30007040       0.24815946 </v>
   <v>       0.89789168       0.30408131       0.32127271 </v>
   <v>       0.89957799       0.50015009       0.02476419 </v>
   <v>       0.90043293       0.49986515       0.10621960 </v>
   <v>       0.89967831       0.50036767       0.17698235 </v>
   <v>       0.89969871       0.49981121       0.24835104 </v>
   <v>       0.89857284       0.50026135       0.32319070 </v>
   <v>       0.89978912       0.70151367       0.02486292 </v>
   <v>       0.89945048       0.69985946       0.10635570 </v>
   <v>       0.89938171       0.70038945       0.17687532 </v>
   <v>       0.89964207       0.70017693       0.24810133 </v>
   <v>       0.89889105       0.70350234       0.32195605 </v>
   <v>       0.90046556       0.90046556       0.02393086 </v>
   <v>       0.89950926       0.89950926       0.10550016 </v>
   <v>       0.90032507       0.90032507       0.17678183 </v>
   <v>       0.89971648       0.89971648       0.24850764 </v>
   <v>       0.90119758       0.90119758       0.32180358 </v>
   <v>       0.00000000      -0.00000000       0.37346423 </v>
   <v>       0.00190027       0.12271819       0.37535387 </v>
   <v>      -0.00268356       0.25083972       0.37343476 </v>
   <v>       0.00182280       0.37576205       0.37290036 </v>
   <v>       0.00000000       0.50000000       0.37602655 </v>
   <v>      -0.00182280       0.62423795       0.37290036 </v>
   <v>       0.00268356       0.74916028       0.37343476 </v>
   <v>      -0.00190027       0.87728181       0.37535387 </v>
   <v>       0.12271819       0.00190027       0.37535387 </v>
   <v>       0.12310313       0.12310313       0.39164547 </v>
   <v>       0.12097779       0.25675740       0.39585028 </v>
   <v>       0.12224944       0.37616567       0.37537448 </v>
   <v>       0.12052419       0.50210181       0.40310920 </v>
   <v>       0.12259951       0.62950685       0.38335914 </v>
   <v>       0.12389603       0.74768487       0.38404598 </v>
   <v>       0.11929686       0.88070314       0.40184580 </v>
   <v>       0.25083972      -0.00268356       0.37343476 </v>
   <v>       0.25675740       0.12097779       0.39585028 </v>
   <v>       0.25058193       0.25058193       0.37459833 </v>
   <v>       0.25213775       0.37163684       0.38180992 </v>
   <v>       0.25602520       0.49855705       0.39282456 </v>
   <v>       0.25080409       0.62417067       0.37005969 </v>
   <v>       0.25455574       0.74544426       0.38972850 </v>
   <v>       0.25231513       0.87610397       0.38404598 </v>
   <v>       0.37576205       0.00182280       0.37290036 </v>
   <v>       0.37616567       0.12224944       0.37537448 </v>
   <v>       0.37163684       0.25213775       0.38180992 </v>
   <v>       0.37614284       0.37614284       0.36931657 </v>
   <v>       0.37287706       0.50059831       0.38086933 </v>
   <v>       0.37357078       0.62642922       0.37836151 </v>
   <v>       0.37582933       0.74919591       0.37005969 </v>
   <v>       0.37049315       0.87740049       0.38335914 </v>
   <v>       0.50000000      -0.00000000       0.37602655 </v>
   <v>       0.50210181       0.12052419       0.40310920 </v>
   <v>       0.49855705       0.25602520       0.39282456 </v>
   <v>       0.50059831       0.37287706       0.38086933 </v>
   <v>       0.50000000       0.50000000       0.40975344 </v>
   <v>       0.49940169       0.62712294       0.38086933 </v>
   <v>       0.50144295       0.74397480       0.39282456 </v>
   <v>       0.49789819       0.87947581       0.40310920 </v>
   <v>       0.62423795      -0.00182280       0.37290036 </v>
   <v>       0.62950685       0.12259951       0.38335914 </v>
   <v>       0.62417067       0.25080409       0.37005969 </v>
   <v>       0.62642922       0.37357078       0.37836151 </v>
   <v>       0.62712294       0.49940169       0.38086933 </v>
   <v>       0.62385716       0.62385716       0.36931657 </v>
   <v>       0.62836316       0.74786225       0.38180992 </v>
   <v>       0.62383433       0.87775056       0.37537448 </v>
   <v>       0.74916028       0.00268356       0.37343476 </v>
   <v>       0.74768487       0.12389603       0.38404598 </v>
   <v>       0.74544426       0.25455574       0.38972850 </v>
   <v>       0.74919591       0.37582933       0.37005969 </v>
   <v>       0.74397480       0.50144295       0.39282456 </v>
   <v>       0.74786225       0.62836316       0.38180992 </v>
   <v>       0.74941807       0.74941807       0.37459833 </v>
   <v>       0.74324260       0.87902221       0.39585028 </v>
   <v>       0.87728181      -0.00190027       0.37535387 </v>
   <v>       0.88070314       0.11929686       0.40184580 </v>
   <v>       0.87610397       0.25231513       0.38404598 </v>
   <v>       0.87740049       0.37049315       0.38335914 </v>
   <v>       0.87947581       0.49789819       0.40310920 </v>
   <v>       0.87775056       0.62383433       0.37537448 </v>
   <v>       0.87902221       0.74324260       0.39585028 </v>
   <v>       0.87689687       0.87689687       0.39164547 </v>
  </varray>
 </structure>
</modeling>
