NiAl                                    
            1
    10.541500    0.000000    0.000000
     5.270750    9.129207    0.000000
     0.000000    0.000000   29.941500
   Ni   O 
   125   189
Direct configuration=     1
   0.00000000  0.00000000  0.00000000
   0.00000000  0.00000000  0.07041398
   0.00000000  0.00000000  0.14082795
   0.00000000  0.00000000  0.21124193
   0.00000000  0.00000000  0.28165590
   0.00000000  0.20000000  0.00000000
   0.00000000  0.20000000  0.07041398
   0.00000000  0.20000000  0.14082795
   0.00000000  0.20000000  0.21124193
   0.00000000  0.20000000  0.28165590
   0.00000000  0.40000001  0.00000000
   0.00000000  0.40000001  0.07041398
   0.00000000  0.40000001  0.14082795
   0.00000000  0.40000001  0.21124193
   0.00000000  0.40000001  0.28165590
   0.00000000  0.60000002  0.00000000
   0.00000000  0.60000002  0.07041398
   0.00000000  0.60000002  0.14082795
   0.00000000  0.60000002  0.21124193
   0.00000000  0.60000002  0.28165590
   0.00000000  0.80000001  0.00000000
   0.00000000  0.80000001  0.07041398
   0.00000000  0.80000001  0.14082795
   0.00000000  0.80000001  0.21124193
   0.00000000  0.80000001  0.28165590
   0.20000000  0.00000000  0.00000000
   0.20000000  0.00000000  0.07041398
   0.20000000  0.00000000  0.14082795
   0.20000000  0.00000000  0.21124193
   0.20000000  0.00000000  0.28165590
   0.20000000  0.20000000  0.00000000
   0.20000000  0.20000000  0.07041398
   0.20000000  0.20000000  0.14082795
   0.20000000  0.20000000  0.21124193
   0.20000000  0.20000000  0.28165590
   0.20000000  0.40000001  0.00000000
   0.20000000  0.40000001  0.07041398
   0.20000000  0.40000001  0.14082795
   0.20000000  0.40000001  0.21124193
   0.20000000  0.40000001  0.28165590
   0.20000000  0.60000002  0.00000000
   0.20000000  0.60000002  0.07041398
   0.20000000  0.60000002  0.14082795
   0.20000000  0.60000002  0.21124193
   0.20000000  0.60000002  0.28165590
   0.20000000  0.80000001  0.00000000
   0.20000000  0.80000001  0.07041398
   0.20000000  0.80000001  0.14082795
   0.20000000  0.80000001  0.21124193
   0.20000000  0.80000001  0.28165590
   0.40000001  0.00000000  0.00000000
   0.40000001  0.00000000  0.07041398
   0.40000001  0.00000000  0.14082795
   0.40000001  0.00000000  0.21124193
   0.40000001  0.00000000  0.28165590
   0.40000001  0.20000000  0.00000000
   0.40000001  0.20000000  0.07041398
   0.40000001  0.20000000  0.14082795
   0.40000001  0.20000000  0.21124193
   0.40000001  0.20000000  0.28165590
   0.40000001  0.40000001  0.00000000
   0.40000001  0.40000001  0.07041398
   0.40000001  0.40000001  0.14082795
   0.40000001  0.40000001  0.21124193
   0.40000001  0.40000001  0.28165590
   0.40000001  0.60000002  0.00000000
   0.40000001  0.60000002  0.07041398
   0.40000001  0.60000002  0.14082795
   0.40000001  0.60000002  0.21124193
   0.40000001  0.60000002  0.28165590
   0.40000001  0.80000001  0.00000000
   0.40000001  0.80000001  0.07041398
   0.40000001  0.80000001  0.14082795
   0.40000001  0.80000001  0.21124193
   0.40000001  0.80000001  0.28165590
   0.60000002  0.00000000  0.00000000
   0.60000002  0.00000000  0.07041398
   0.60000002  0.00000000  0.14082795
   0.60000002  0.00000000  0.21124193
   0.60000002  0.00000000  0.28165590
   0.60000002  0.20000000  0.00000000
   0.60000002  0.20000000  0.07041398
   0.60000002  0.20000000  0.14082795
   0.60000002  0.20000000  0.21124193
   0.60000002  0.20000000  0.28165590
   0.60000002  0.40000001  0.00000000
   0.60000002  0.40000001  0.07041398
   0.60000002  0.40000001  0.14082795
   0.60000002  0.40000001  0.21124193
   0.60000002  0.40000001  0.28165590
   0.60000002  0.60000002  0.00000000
   0.60000002  0.60000002  0.07041398
   0.60000002  0.60000002  0.14082795
   0.60000002  0.60000002  0.21124193
   0.60000002  0.60000002  0.28165590
   0.60000002  0.80000001  0.00000000
   0.60000002  0.80000001  0.07041398
   0.60000002  0.80000001  0.14082795
   0.60000002  0.80000001  0.21124193
   0.60000002  0.80000001  0.28165590
   0.80000001  0.00000000  0.00000000
   0.80000001  0.00000000  0.07041398
   0.80000001  0.00000000  0.14082795
   0.80000001  0.00000000  0.21124193
   0.80000001  0.00000000  0.28165590
   0.80000001  0.20000000  0.00000000
   0.80000001  0.20000000  0.07041398
   0.80000001  0.20000000  0.14082795
   0.80000001  0.20000000  0.21124193
   0.80000001  0.20000000  0.28165590
   0.80000001  0.40000001  0.00000000
   0.80000001  0.40000001  0.07041398
   0.80000001  0.40000001  0.14082795
   0.80000001  0.40000001  0.21124193
   0.80000001  0.40000001  0.28165590
   0.80000001  0.60000002  0.00000000
   0.80000001  0.60000002  0.07041398
   0.80000001  0.60000002  0.14082795
   0.80000001  0.60000002  0.21124193
   0.80000001  0.60000002  0.28165590
   0.80000001  0.80000001  0.00000000
   0.80000001  0.80000001  0.07041398
   0.80000001  0.80000001  0.14082795
   0.80000001  0.80000001  0.21124193
   0.80000001  0.80000001  0.28165590
   0.10000000  0.10000000  0.03520699
   0.10000000  0.10000000  0.10562097
   0.10000000  0.10000000  0.17603494
   0.10000000  0.10000000  0.24644891
   0.10000000  0.10000000  0.31686288
   0.10000000  0.30000001  0.03520699
   0.10000000  0.30000001  0.10562097
   0.10000000  0.30000001  0.17603494
   0.10000000  0.30000001  0.24644891
   0.10000000  0.30000001  0.31686288
   0.10000000  0.50000000  0.03520699
   0.10000000  0.50000000  0.10562097
   0.10000000  0.50000000  0.17603494
   0.10000000  0.50000000  0.24644891
   0.10000000  0.50000000  0.31686288
   0.10000000  0.69999999  0.03520699
   0.10000000  0.69999999  0.10562097
   0.10000000  0.69999999  0.17603494
   0.10000000  0.69999999  0.24644891
   0.10000000  0.69999999  0.31686288
   0.10000000  0.89999998  0.03520699
   0.10000000  0.89999998  0.10562097
   0.10000000  0.89999998  0.17603494
   0.10000000  0.89999998  0.24644891
   0.10000000  0.89999998  0.31686288
   0.30000001  0.10000000  0.03520699
   0.30000001  0.10000000  0.10562097
   0.30000001  0.10000000  0.17603494
   0.30000001  0.10000000  0.24644891
   0.30000001  0.10000000  0.31686288
   0.30000001  0.30000001  0.03520699
   0.30000001  0.30000001  0.10562097
   0.30000001  0.30000001  0.17603494
   0.30000001  0.30000001  0.24644891
   0.30000001  0.30000001  0.31686288
   0.30000001  0.50000000  0.03520699
   0.30000001  0.50000000  0.10562097
   0.30000001  0.50000000  0.17603494
   0.30000001  0.50000000  0.24644891
   0.30000001  0.50000000  0.31686288
   0.30000001  0.69999999  0.03520699
   0.30000001  0.69999999  0.10562097
   0.30000001  0.69999999  0.17603494
   0.30000001  0.69999999  0.24644891
   0.30000001  0.69999999  0.31686288
   0.30000001  0.89999998  0.03520699
   0.30000001  0.89999998  0.10562097
   0.30000001  0.89999998  0.17603494
   0.30000001  0.89999998  0.24644891
   0.30000001  0.89999998  0.31686288
   0.50000000  0.10000000  0.03520699
   0.50000000  0.10000000  0.10562097
   0.50000000  0.10000000  0.17603494
   0.50000000  0.10000000  0.24644891
   0.50000000  0.10000000  0.31686288
   0.50000000  0.30000001  0.03520699
   0.50000000  0.30000001  0.10562097
   0.50000000  0.30000001  0.17603494
   0.50000000  0.30000001  0.24644891
   0.50000000  0.30000001  0.31686288
   0.50000000  0.50000000  0.03520699
   0.50000000  0.50000000  0.10562097
   0.50000000  0.50000000  0.17603494
   0.50000000  0.50000000  0.24644891
   0.50000000  0.50000000  0.31686288
   0.50000000  0.69999999  0.03520699
   0.50000000  0.69999999  0.10562097
   0.50000000  0.69999999  0.17603494
   0.50000000  0.69999999  0.24644891
   0.50000000  0.69999999  0.31686288
   0.50000000  0.89999998  0.03520699
   0.50000000  0.89999998  0.10562097
   0.50000000  0.89999998  0.17603494
   0.50000000  0.89999998  0.24644891
   0.50000000  0.89999998  0.31686288
   0.69999999  0.10000000  0.03520699
   0.69999999  0.10000000  0.10562097
   0.69999999  0.10000000  0.17603494
   0.69999999  0.10000000  0.24644891
   0.69999999  0.10000000  0.31686288
   0.69999999  0.30000001  0.03520699
   0.69999999  0.30000001  0.10562097
   0.69999999  0.30000001  0.17603494
   0.69999999  0.30000001  0.24644891
   0.69999999  0.30000001  0.31686288
   0.69999999  0.50000000  0.03520699
   0.69999999  0.50000000  0.10562097
   0.69999999  0.50000000  0.17603494
   0.69999999  0.50000000  0.24644891
   0.69999999  0.50000000  0.31686288
   0.69999999  0.69999999  0.03520699
   0.69999999  0.69999999  0.10562097
   0.69999999  0.69999999  0.17603494
   0.69999999  0.69999999  0.24644891
   0.69999999  0.69999999  0.31686288
   0.69999999  0.89999998  0.03520699
   0.69999999  0.89999998  0.10562097
   0.69999999  0.89999998  0.17603494
   0.69999999  0.89999998  0.24644891
   0.69999999  0.89999998  0.31686288
   0.89999998  0.10000000  0.03520699
   0.89999998  0.10000000  0.10562097
   0.89999998  0.10000000  0.17603494
   0.89999998  0.10000000  0.24644891
   0.89999998  0.10000000  0.31686288
   0.89999998  0.30000001  0.03520699
   0.89999998  0.30000001  0.10562097
   0.89999998  0.30000001  0.17603494
   0.89999998  0.30000001  0.24644891
   0.89999998  0.30000001  0.31686288
   0.89999998  0.50000000  0.03520699
   0.89999998  0.50000000  0.10562097
   0.89999998  0.50000000  0.17603494
   0.89999998  0.50000000  0.24644891
   0.89999998  0.50000000  0.31686288
   0.89999998  0.69999999  0.03520699
   0.89999998  0.69999999  0.10562097
   0.89999998  0.69999999  0.17603494
   0.89999998  0.69999999  0.24644891
   0.89999998  0.69999999  0.31686288
   0.89999998  0.89999998  0.03520699
   0.89999998  0.89999998  0.10562097
   0.89999998  0.89999998  0.17603494
   0.89999998  0.89999998  0.24644891
   0.89999998  0.89999998  0.31686288
   0.00000000  0.00000000  0.36362072
   0.00000000  0.12500000  0.36362072
   0.00000000  0.25000000  0.36362072
   0.00000000  0.37500000  0.36362072
   0.00000000  0.50000000  0.36362072
   0.00000000  0.62500000  0.36362072
   0.00000000  0.75000000  0.36362072
   0.00000000  0.87500000  0.36362072
   0.12500000  0.00000000  0.36362072
   0.12500000  0.12500000  0.36362072
   0.12500000  0.25000000  0.36362072
   0.12500000  0.37500000  0.36362072
   0.12500000  0.50000000  0.36362072
   0.12500000  0.62500000  0.36362072
   0.12500000  0.75000000  0.36362072
   0.12500000  0.87500000  0.36362072
   0.25000000  0.00000000  0.36362072
   0.25000000  0.12500000  0.36362072
   0.25000000  0.25000000  0.36362072
   0.25000000  0.37500000  0.36362072
   0.25000000  0.50000000  0.36362072
   0.25000000  0.62500000  0.36362072
   0.25000000  0.75000000  0.36362072
   0.25000000  0.87500000  0.36362072
   0.37500000  0.00000000  0.36362072
   0.37500000  0.12500000  0.36362072
   0.37500000  0.25000000  0.36362072
   0.37500000  0.37500000  0.36362072
   0.37500000  0.50000000  0.36362072
   0.37500000  0.62500000  0.36362072
   0.37500000  0.75000000  0.36362072
   0.37500000  0.87500000  0.36362072
   0.50000000  0.00000000  0.36362072
   0.50000000  0.12500000  0.36362072
   0.50000000  0.25000000  0.36362072
   0.50000000  0.37500000  0.36362072
   0.50000000  0.50000000  0.36362072
   0.50000000  0.62500000  0.36362072
   0.50000000  0.75000000  0.36362072
   0.50000000  0.87500000  0.36362072
   0.62500000  0.00000000  0.36362072
   0.62500000  0.12500000  0.36362072
   0.62500000  0.25000000  0.36362072
   0.62500000  0.37500000  0.36362072
   0.62500000  0.50000000  0.36362072
   0.62500000  0.62500000  0.36362072
   0.62500000  0.75000000  0.36362072
   0.62500000  0.87500000  0.36362072
   0.75000000  0.00000000  0.36362072
   0.75000000  0.12500000  0.36362072
   0.75000000  0.25000000  0.36362072
   0.75000000  0.37500000  0.36362072
   0.75000000  0.50000000  0.36362072
   0.75000000  0.62500000  0.36362072
   0.75000000  0.75000000  0.36362072
   0.75000000  0.87500000  0.36362072
   0.87500000  0.00000000  0.36362072
   0.87500000  0.12500000  0.36362072
   0.87500000  0.25000000  0.36362072
   0.87500000  0.37500000  0.36362072
   0.87500000  0.50000000  0.36362072
   0.87500000  0.62500000  0.36362072
   0.87500000  0.75000000  0.36362072
   0.87500000  0.87500000  0.36362072
Direct configuration=     2
   0.00000000 -0.00000000 -0.01868095
   0.00000000 -0.00000000  0.06911458
   0.00000000 -0.00000000  0.14136834
   0.00000000 -0.00000000  0.21098438
   0.00000000 -0.00000000  0.28543452
  -0.00171770  0.19858805 -0.01838994
  -0.00041988  0.19958028  0.06973711
  -0.00023543  0.20022636  0.14103397
  -0.00024323  0.20025779  0.21135415
  -0.00093064  0.20154635  0.28524542
  -0.00009593  0.39842316 -0.01933458
   0.00014635  0.39983189  0.07079108
   0.00011423  0.40063589  0.14117229
   0.00035986  0.39958196  0.21138611
   0.00142084  0.39971022  0.28472599
   0.00009593  0.60157687 -0.01933458
  -0.00014635  0.60016814  0.07079108
  -0.00011423  0.59936414  0.14117229
  -0.00035986  0.60041807  0.21138611
  -0.00142084  0.60028981  0.28472599
   0.00171770  0.80141196 -0.01838994
   0.00041988  0.80041973  0.06973711
   0.00023543  0.79977366  0.14103397
   0.00024323  0.79974222  0.21135415
   0.00093064  0.79845367  0.28524542
   0.19858805 -0.00171770 -0.01838994
   0.19958028 -0.00041988  0.06973711
   0.20022636 -0.00023543  0.14103397
   0.20025779 -0.00024323  0.21135415
   0.20154635 -0.00093064  0.28524542
   0.19875611  0.19875611 -0.01912690
   0.19994253  0.19994253  0.07044375
   0.20036217  0.20036217  0.14105786
   0.19990515  0.19990515  0.21162806
   0.20072020  0.20072020  0.28475579
   0.20038987  0.40094669 -0.01946718
   0.19973063  0.40007035  0.07101750
   0.19971808  0.40027304  0.14093322
   0.19974503  0.40022890  0.21150822
   0.20078572  0.39856993  0.28495371
   0.20425371  0.60052499 -0.01895133
   0.20095671  0.60011368  0.06980281
   0.20056503  0.59960068  0.14119603
   0.20017570  0.60005055  0.21141279
   0.20059609  0.59951563  0.28486842
   0.20190624  0.79809378 -0.01871511
   0.20038821  0.79961180  0.06926533
   0.20034018  0.79965984  0.14135952
   0.20060119  0.79939883  0.21131600
   0.20186265  0.79813737  0.28533651
   0.39842316 -0.00009593 -0.01933458
   0.39983189  0.00014635  0.07079108
   0.40063589  0.00011423  0.14117229
   0.39958196  0.00035986  0.21138611
   0.39971022  0.00142084  0.28472599
   0.40094669  0.20038987 -0.01946718
   0.40007035  0.19973063  0.07101750
   0.40027304  0.19971808  0.14093322
   0.40022890  0.19974503  0.21150822
   0.39856993  0.20078572  0.28495371
   0.40435267  0.40435267 -0.01903724
   0.40084673  0.40084673  0.06958359
   0.40050558  0.40050558  0.14120699
   0.40031140  0.40031140  0.21135554
   0.40065657  0.40065657  0.28468484
   0.40386812  0.59613191 -0.02090680
   0.40069018  0.59930985  0.06911069
   0.40054214  0.59945789  0.14142547
   0.40008748  0.59991255  0.21136920
   0.39942556  0.60057447  0.28454020
   0.39947504  0.79574631 -0.01895133
   0.39988635  0.79904330  0.06980281
   0.40039935  0.79943499  0.14119603
   0.39994948  0.79982431  0.21141279
   0.40048440  0.79940393  0.28486842
   0.60157687  0.00009593 -0.01933458
   0.60016814 -0.00014635  0.07079108
   0.59936414 -0.00011423  0.14117229
   0.60041807 -0.00035986  0.21138611
   0.60028981 -0.00142084  0.28472599
   0.60052499  0.20425371 -0.01895133
   0.60011368  0.20095671  0.06980281
   0.59960068  0.20056503  0.14119603
   0.60005055  0.20017570  0.21141279
   0.59951563  0.20059609  0.28486842
   0.59613191  0.40386812 -0.02090680
   0.59930985  0.40069018  0.06911069
   0.59945789  0.40054214  0.14142547
   0.59991255  0.40008748  0.21136920
   0.60057447  0.39942556  0.28454020
   0.59564736  0.59564736 -0.01903724
   0.59915330  0.59915330  0.06958359
   0.59949445  0.59949445  0.14120699
   0.59968863  0.59968863  0.21135554
   0.59934346  0.59934346  0.28468484
   0.59905334  0.79961015 -0.01946718
   0.59992968  0.80026938  0.07101750
   0.59972699  0.80028193  0.14093322
   0.59977113  0.80025498  0.21150822
   0.60143010  0.79921429  0.28495371
   0.80141196  0.00171770 -0.01838994
   0.80041973  0.00041988  0.06973711
   0.79977366  0.00023543  0.14103397
   0.79974222  0.00024323  0.21135415
   0.79845367  0.00093064  0.28524542
   0.79809378  0.20190624 -0.01871511
   0.79961180  0.20038821  0.06926533
   0.79965984  0.20034018  0.14135952
   0.79939883  0.20060119  0.21131600
   0.79813737  0.20186265  0.28533651
   0.79574631  0.39947504 -0.01895133
   0.79904330  0.39988635  0.06980281
   0.79943499  0.40039935  0.14119603
   0.79982431  0.39994948  0.21141279
   0.79940393  0.40048440  0.28486842
   0.79961015  0.59905334 -0.01946718
   0.80026938  0.59992968  0.07101750
   0.80028193  0.59972699  0.14093322
   0.80025498  0.59977113  0.21150822
   0.79921429  0.60143010  0.28495371
   0.80124391  0.80124391 -0.01912690
   0.80005748  0.80005748  0.07044375
   0.79963784  0.79963784  0.14105786
   0.80009487  0.80009487  0.21162806
   0.79927981  0.79927981  0.28475579
   0.09983794  0.09983794  0.03298784
   0.10016364  0.10016364  0.10623599
   0.09982494  0.09982494  0.17628427
   0.10020975  0.10020975  0.24635673
   0.09931605  0.09931605  0.31350637
   0.10006826  0.29928251  0.03310761
   0.09997121  0.30031144  0.10642259
   0.09972721  0.30034443  0.17597553
   0.10068102  0.29944548  0.24674841
   0.10008925  0.29939391  0.31280926
   0.10007901  0.50004703  0.03287894
   0.09955791  0.50017198  0.10643541
   0.09970924  0.50021329  0.17594728
   0.10056356  0.49956970  0.24658420
   0.10023495  0.49939576  0.31456358
   0.09924178  0.70126813  0.03299071
   0.09999305  0.69960970  0.10634459
   0.10031305  0.69971276  0.17622106
   0.10041184  0.69974577  0.24664397
   0.10004792  0.69910460  0.31170248
   0.10050583  0.89949415  0.03372350
   0.10027312  0.89972686  0.10629226
   0.09968306  0.90031692  0.17595671
   0.10083837  0.89916161  0.24609069
   0.10155031  0.89844966  0.31474138
   0.29928251  0.10006826  0.03310761
   0.30031144  0.09997121  0.10642259
   0.30034443  0.09972721  0.17597553
   0.29944548  0.10068102  0.24674841
   0.29939391  0.10008925  0.31280926
   0.29985179  0.29985179  0.03274685
   0.30002197  0.30002197  0.10629395
   0.30005687  0.30005687  0.17603616
   0.29993104  0.29993104  0.24685405
   0.30056460  0.30056460  0.31155486
   0.29996864  0.50076542  0.03352170
   0.30004465  0.49979865  0.10646645
   0.30032123  0.49990857  0.17607012
   0.29982900  0.50037587  0.24678578
   0.29975127  0.50026442  0.31208775
   0.29685220  0.70314780  0.03525984
   0.30101936  0.69898064  0.10589127
   0.30000464  0.69999536  0.17605195
   0.30015902  0.69984098  0.24668577
   0.30046249  0.69953751  0.31251694
   0.29873187  0.90075819  0.03299071
   0.30039030  0.90000693  0.10634459
   0.30028724  0.89968693  0.17622106
   0.30025423  0.89958814  0.24664397
   0.30089540  0.89995206  0.31170248
   0.50004703  0.10007901  0.03287894
   0.50017198  0.09955791  0.10643541
   0.50021329  0.09970924  0.17594728
   0.49956970  0.10056356  0.24658420
   0.49939576  0.10023495  0.31456358
   0.50076542  0.29996864  0.03352170
   0.49979865  0.30004465  0.10646645
   0.49990857  0.30032123  0.17607012
   0.50037587  0.29982900  0.24678578
   0.50026442  0.29975127  0.31208775
   0.50000000  0.50000000  0.03636756
   0.50000000  0.50000000  0.10573168
   0.50000000  0.50000000  0.17615099
   0.50000000  0.50000000  0.24648945
   0.50000000  0.50000000  0.31536428
   0.49923458  0.70003136  0.03352170
   0.50020135  0.69995535  0.10646645
   0.50009143  0.69967877  0.17607012
   0.49962413  0.70017100  0.24678578
   0.49973558  0.70024873  0.31208775
   0.49995297  0.89992097  0.03287894
   0.49982802  0.90044207  0.10643541
   0.49978671  0.90029073  0.17594728
   0.50043030  0.89943641  0.24658420
   0.50060424  0.89976503  0.31456358
   0.70126813  0.09924178  0.03299071
   0.69960970  0.09999305  0.10634459
   0.69971276  0.10031305  0.17622106
   0.69974577  0.10041184  0.24664397
   0.69910460  0.10004792  0.31170248
   0.70314780  0.29685220  0.03525984
   0.69898064  0.30101936  0.10589127
   0.69999536  0.30000464  0.17605195
   0.69984098  0.30015902  0.24668577
   0.69953751  0.30046249  0.31251694
   0.70003136  0.49923458  0.03352170
   0.69995535  0.50020135  0.10646645
   0.69967877  0.50009143  0.17607012
   0.70017100  0.49962413  0.24678578
   0.70024873  0.49973558  0.31208775
   0.70014821  0.70014821  0.03274685
   0.69997803  0.69997803  0.10629395
   0.69994313  0.69994313  0.17603616
   0.70006896  0.70006896  0.24685405
   0.69943540  0.69943540  0.31155486
   0.70071749  0.89993171  0.03310761
   0.69968856  0.90002876  0.10642259
   0.69965557  0.90027277  0.17597553
   0.70055452  0.89931896  0.24674841
   0.70060609  0.89991072  0.31280926
   0.89949415  0.10050583  0.03372350
   0.89972686  0.10027312  0.10629226
   0.90031692  0.09968306  0.17595671
   0.89916161  0.10083837  0.24609069
   0.89844966  0.10155031  0.31474138
   0.90075819  0.29873187  0.03299071
   0.90000693  0.30039030  0.10634459
   0.89968693  0.30028724  0.17622106
   0.89958814  0.30025423  0.24664397
   0.89995206  0.30089540  0.31170248
   0.89992097  0.49995297  0.03287894
   0.90044207  0.49982802  0.10643541
   0.90029073  0.49978671  0.17594728
   0.89943641  0.50043030  0.24658420
   0.89976503  0.50060424  0.31456358
   0.89993171  0.70071749  0.03310761
   0.90002876  0.69968856  0.10642259
   0.90027277  0.69965557  0.17597553
   0.89931896  0.70055452  0.24674841
   0.89991072  0.70060609  0.31280926
   0.90016204  0.90016204  0.03298784
   0.89983634  0.89983634  0.10623599
   0.90017504  0.90017504  0.17628427
   0.89979023  0.89979023  0.24635673
   0.90068392  0.90068392  0.31350637
   0.00000000 -0.00000000  0.36847412
  -0.00283765  0.12653102  0.36912343
   0.00386264  0.24756389  0.36872275
  -0.00354761  0.37714792  0.36848526
   0.00000000  0.50000000  0.36925145
   0.00354761  0.62285208  0.36848526
  -0.00386264  0.75243611  0.36872275
   0.00283765  0.87346898  0.36912343
   0.12653102 -0.00283765  0.36912343
   0.12824885  0.12824885  0.37434899
   0.12793690  0.24376095  0.37567347
   0.12627409  0.37728584  0.36922433
   0.12880796  0.50068127  0.37753925
   0.12733848  0.61840081  0.37209188
   0.12746629  0.75437973  0.37225213
   0.12850400  0.87149600  0.37707727
   0.24756389  0.00386264  0.36872275
   0.24376095  0.12793690  0.37567347
   0.24782117  0.24782117  0.36921419
   0.24576452  0.38196707  0.37164012
   0.24420840  0.49956413  0.37488474
   0.24864417  0.62534661  0.36759914
   0.24364228  0.75635772  0.37391088
   0.24562027  0.87253371  0.37225213
   0.37714792 -0.00354761  0.36848526
   0.37728584  0.12627409  0.36922433
   0.38196707  0.24576452  0.37164012
   0.37421164  0.37421164  0.36732755
   0.37943364  0.50054903  0.37117933
   0.37998105  0.62001895  0.37036513
   0.37465339  0.75135583  0.36759914
   0.38159919  0.87266152  0.37209188
   0.50000000 -0.00000000  0.36925145
   0.50068127  0.12880796  0.37753925
   0.49956413  0.24420840  0.37488474
   0.50054903  0.37943364  0.37117933
   0.50000000  0.50000000  0.37947959
   0.49945097  0.62056636  0.37117933
   0.50043587  0.75579160  0.37488474
   0.49931873  0.87119204  0.37753925
   0.62285208  0.00354761  0.36848526
   0.61840081  0.12733848  0.37209188
   0.62534661  0.24864417  0.36759914
   0.62001895  0.37998105  0.37036513
   0.62056636  0.49945097  0.37117933
   0.62578836  0.62578836  0.36732755
   0.61803293  0.75423548  0.37164012
   0.62271416  0.87372591  0.36922433
   0.75243611 -0.00386264  0.36872275
   0.75437973  0.12746629  0.37225213
   0.75635772  0.24364228  0.37391088
   0.75135583  0.37465339  0.36759914
   0.75579160  0.50043587  0.37488474
   0.75423548  0.61803293  0.37164012
   0.75217883  0.75217883  0.36921419
   0.75623905  0.87206310  0.37567347
   0.87346898  0.00283765  0.36912343
   0.87149600  0.12850400  0.37707727
   0.87253371  0.24562027  0.37225213
   0.87266152  0.38159919  0.37209188
   0.87119204  0.49931873  0.37753925
   0.87372591  0.62271416  0.36922433
   0.87206310  0.75623905  0.37567347
   0.87175115  0.87175115  0.37434899
Direct configuration=     3
   0.00000000 -0.00000000 -0.01852657
   0.00000000 -0.00000000  0.06912531
   0.00000000 -0.00000000  0.14136388
   0.00000000 -0.00000000  0.21098651
   0.00000000 -0.00000000  0.28540329
  -0.00170351  0.19859972 -0.01823796
  -0.00041641  0.19958375  0.06974271
  -0.00023349  0.20022449  0.14103227
  -0.00024121  0.20025566  0.21135323
  -0.00092295  0.20153357  0.28521575
  -0.00009514  0.39843619 -0.01917480
   0.00014514  0.39983328  0.07078796
   0.00011329  0.40063063  0.14116944
   0.00035689  0.39958541  0.21138492
   0.00140910  0.39971261  0.28470061
   0.00009514  0.60156384 -0.01917480
  -0.00014514  0.60016675  0.07078796
  -0.00011329  0.59936940  0.14116944
  -0.00035689  0.60041462  0.21138492
  -0.00140910  0.60028742  0.28470061
   0.00170351  0.80140029 -0.01823796
   0.00041641  0.80041627  0.06974271
   0.00023349  0.79977553  0.14103227
   0.00024121  0.79974435  0.21135323
   0.00092295  0.79846645  0.28521575
   0.19859972 -0.00170351 -0.01823796
   0.19958375 -0.00041641  0.06974271
   0.20022449 -0.00023349  0.14103227
   0.20025566 -0.00024121  0.21135323
   0.20153357 -0.00092295  0.28521575
   0.19876639  0.19876639 -0.01896883
   0.19994301  0.19994301  0.07044351
   0.20035918  0.20035918  0.14105596
   0.19990593  0.19990593  0.21162487
   0.20071425  0.20071425  0.28473017
   0.20038665  0.40093886 -0.01930630
   0.19973286  0.40006977  0.07101252
   0.19972041  0.40027078  0.14093235
   0.19974714  0.40022701  0.21150602
   0.20077923  0.39858175  0.28492645
   0.20421856  0.60052065 -0.01879471
   0.20094881  0.60011274  0.06980786
   0.20056036  0.59960398  0.14119299
   0.20017425  0.60005014  0.21141138
   0.20059116  0.59951964  0.28484187
   0.20189048  0.79810953 -0.01856044
   0.20038500  0.79961501  0.06927482
   0.20033737  0.79966265  0.14135513
   0.20059622  0.79940379  0.21131539
   0.20184725  0.79815276  0.28530609
   0.39843619 -0.00009514 -0.01917480
   0.39983328  0.00014514  0.07078796
   0.40063063  0.00011329  0.14116944
   0.39958541  0.00035689  0.21138492
   0.39971261  0.00140910  0.28470061
   0.40093886  0.20038665 -0.01930630
   0.40006977  0.19973286  0.07101252
   0.40027078  0.19972041  0.14093235
   0.40022701  0.19974714  0.21150602
   0.39858175  0.20077923  0.28492645
   0.40431670  0.40431670 -0.01887991
   0.40083973  0.40083973  0.06959045
   0.40050140  0.40050140  0.14120385
   0.40030883  0.40030883  0.21135460
   0.40065115  0.40065115  0.28465981
   0.40383615  0.59616388 -0.02073402
   0.40068448  0.59931555  0.06912146
   0.40053766  0.59946237  0.14142053
   0.40008675  0.59991328  0.21136815
   0.39943031  0.60056972  0.28451637
   0.39947938  0.79578146 -0.01879471
   0.39988729  0.79905121  0.06980786
   0.40039605  0.79943966  0.14119299
   0.39994989  0.79982576  0.21141138
   0.40048039  0.79940886  0.28484187
   0.60156384  0.00009514 -0.01917480
   0.60016675 -0.00014514  0.07078796
   0.59936940 -0.00011329  0.14116944
   0.60041462 -0.00035689  0.21138492
   0.60028742 -0.00140910  0.28470061
   0.60052065  0.20421856 -0.01879471
   0.60011274  0.20094881  0.06980786
   0.59960398  0.20056036  0.14119299
   0.60005014  0.20017425  0.21141138
   0.59951964  0.20059116  0.28484187
   0.59616388  0.40383615 -0.02073402
   0.59931555  0.40068448  0.06912146
   0.59946237  0.40053766  0.14142053
   0.59991328  0.40008675  0.21136815
   0.60056972  0.39943031  0.28451637
   0.59568333  0.59568333 -0.01887991
   0.59916030  0.59916030  0.06959045
   0.59949863  0.59949863  0.14120385
   0.59969120  0.59969120  0.21135460
   0.59934888  0.59934888  0.28465981
   0.59906117  0.79961337 -0.01930630
   0.59993026  0.80026716  0.07101252
   0.59972925  0.80027960  0.14093235
   0.59977302  0.80025288  0.21150602
   0.60141828  0.79922078  0.28492645
   0.80140029  0.00170351 -0.01823796
   0.80041627  0.00041641  0.06974271
   0.79977553  0.00023349  0.14103227
   0.79974435  0.00024121  0.21135323
   0.79846645  0.00092295  0.28521575
   0.79810953  0.20189048 -0.01856044
   0.79961501  0.20038500  0.06927482
   0.79966265  0.20033737  0.14135513
   0.79940379  0.20059622  0.21131539
   0.79815276  0.20184725  0.28530609
   0.79578146  0.39947938 -0.01879471
   0.79905121  0.39988729  0.06980786
   0.79943966  0.40039605  0.14119299
   0.79982576  0.39994989  0.21141138
   0.79940886  0.40048039  0.28484187
   0.79961337  0.59906117 -0.01930630
   0.80026716  0.59993026  0.07101252
   0.80027960  0.59972925  0.14093235
   0.80025288  0.59977302  0.21150602
   0.79922078  0.60141828  0.28492645
   0.80123363  0.80123363 -0.01896883
   0.80005701  0.80005701  0.07044351
   0.79964084  0.79964084  0.14105596
   0.80009408  0.80009408  0.21162487
   0.79928576  0.79928576  0.28473017
   0.09983928  0.09983928  0.03300618
   0.10016228  0.10016228  0.10623091
   0.09982638  0.09982638  0.17628221
   0.10020802  0.10020802  0.24635749
   0.09932171  0.09932171  0.31353411
   0.10006770  0.29928844  0.03312496
   0.09997145  0.30030886  0.10641596
   0.09972946  0.30034158  0.17597602
   0.10067539  0.29945006  0.24674593
   0.10008851  0.29939891  0.31284276
   0.10007835  0.50004664  0.03289818
   0.09956156  0.50017056  0.10642868
   0.09971165  0.50021153  0.17594800
   0.10055891  0.49957326  0.24658308
   0.10023301  0.49940075  0.31458258
   0.09924805  0.70125765  0.03300902
   0.09999311  0.69961293  0.10633861
   0.10031046  0.69971514  0.17621952
   0.10040844  0.69974787  0.24664236
   0.10004752  0.69911200  0.31174513
   0.10050165  0.89949833  0.03373576
   0.10027086  0.89972911  0.10628671
   0.09968568  0.90031430  0.17595735
   0.10083144  0.89916854  0.24609365
   0.10153750  0.89846248  0.31475891
   0.29928844  0.10006770  0.03312496
   0.30030886  0.09997145  0.10641596
   0.30034158  0.09972946  0.17597602
   0.29945006  0.10067539  0.24674593