 254 254   0   0
  0.3019211E+02  0.1718057E-08  0.1718057E-08  0.3000000E-08  0.5000000E-15
   1.0000000000000000E-004
  CAR 
 NiAl                                    
      5.33522545    -20.82822431  301      1.79371461      1.00000000
    -20.828  0.0000E+00  0.0000E+00
    -20.741  0.0000E+00  0.0000E+00
    -20.654  0.0000E+00  0.0000E+00
    -20.567  0.0000E+00  0.0000E+00
    -20.479  0.0000E+00  0.0000E+00
    -20.392  0.0000E+00  0.0000E+00
    -20.305  0.0000E+00  0.0000E+00
    -20.218  0.0000E+00  0.0000E+00
    -20.131  0.0000E+00  0.0000E+00
    -20.043  0.0000E+00  0.0000E+00
    -19.956  0.0000E+00  0.0000E+00
    -19.869  0.8695E-09  0.7583E-10
    -19.782  0.6078E-03  0.5301E-04
    -19.694  0.1320E+01  0.1152E+00
    -19.607  0.1734E+02  0.1627E+01
    -19.520  0.4264E+01  0.1999E+01
    -19.433  0.8997E-02  0.2000E+01
    -19.346  0.6555E-07  0.2000E+01
    -19.258  0.0000E+00  0.2000E+01
    -19.171  0.0000E+00  0.2000E+01
    -19.084  0.0000E+00  0.2000E+01
    -18.997  0.0000E+00  0.2000E+01
    -18.910  0.0000E+00  0.2000E+01
    -18.822  0.0000E+00  0.2000E+01
    -18.735  0.0000E+00  0.2000E+01
    -18.648  0.0000E+00  0.2000E+01
    -18.561  0.0000E+00  0.2000E+01
    -18.474  0.0000E+00  0.2000E+01
    -18.386  0.0000E+00  0.2000E+01
    -18.299  0.0000E+00  0.2000E+01
    -18.212  0.0000E+00  0.2000E+01
    -18.125  0.0000E+00  0.2000E+01
    -18.037  0.0000E+00  0.2000E+01
    -17.950  0.0000E+00  0.2000E+01
    -17.863  0.0000E+00  0.2000E+01
    -17.776  0.0000E+00  0.2000E+01
    -17.689  0.0000E+00  0.2000E+01
    -17.601  0.0000E+00  0.2000E+01
    -17.514  0.0000E+00  0.2000E+01
    -17.427  0.0000E+00  0.2000E+01
    -17.340  0.0000E+00  0.2000E+01
    -17.253  0.0000E+00  0.2000E+01
    -17.165  0.0000E+00  0.2000E+01
    -17.078  0.0000E+00  0.2000E+01
    -16.991  0.0000E+00  0.2000E+01
    -16.904  0.0000E+00  0.2000E+01
    -16.816  0.0000E+00  0.2000E+01
    -16.729  0.0000E+00  0.2000E+01
    -16.642  0.0000E+00  0.2000E+01
    -16.555  0.0000E+00  0.2000E+01
    -16.468  0.0000E+00  0.2000E+01
    -16.380  0.0000E+00  0.2000E+01
    -16.293  0.0000E+00  0.2000E+01
    -16.206  0.0000E+00  0.2000E+01
    -16.119  0.0000E+00  0.2000E+01
    -16.032  0.0000E+00  0.2000E+01
    -15.944  0.0000E+00  0.2000E+01
    -15.857  0.6761E-10  0.2000E+01
    -15.770  0.1156E-03  0.2000E+01
    -15.683  0.5884E+00  0.2051E+01
    -15.596  0.1541E+02  0.3396E+01
    -15.508  0.6899E+01  0.3997E+01
    -15.421  0.3255E-01  0.4000E+01
    -15.334  0.5730E-06  0.4000E+01
    -15.247  0.2737E-13  0.4000E+01
    -15.159  0.0000E+00  0.4000E+01
    -15.072  0.0000E+00  0.4000E+01
    -14.985  0.0000E+00  0.4000E+01
    -14.898  0.0000E+00  0.4000E+01
    -14.811  0.0000E+00  0.4000E+01
    -14.723  0.0000E+00  0.4000E+01
    -14.636  0.0000E+00  0.4000E+01
    -14.549  0.0000E+00  0.4000E+01
    -14.462  0.0000E+00  0.4000E+01
    -14.375  0.0000E+00  0.4000E+01
    -14.287  0.0000E+00  0.4000E+01
    -14.200  0.0000E+00  0.4000E+01
    -14.113  0.0000E+00  0.4000E+01
    -14.026  0.0000E+00  0.4000E+01
    -13.939  0.0000E+00  0.4000E+01
    -13.851  0.0000E+00  0.4000E+01
    -13.764  0.0000E+00  0.4000E+01
    -13.677  0.0000E+00  0.4000E+01
    -13.590  0.0000E+00  0.4000E+01
    -13.502  0.0000E+00  0.4000E+01
    -13.415  0.0000E+00  0.4000E+01
    -13.328  0.0000E+00  0.4000E+01
    -13.241  0.0000E+00  0.4000E+01
    -13.154  0.0000E+00  0.4000E+01
    -13.066  0.0000E+00  0.4000E+01
    -12.979  0.0000E+00  0.4000E+01
    -12.892  0.0000E+00  0.4000E+01
    -12.805  0.0000E+00  0.4000E+01
    -12.718  0.0000E+00  0.4000E+01
    -12.630  0.0000E+00  0.4000E+01
    -12.543  0.0000E+00  0.4000E+01
    -12.456  0.0000E+00  0.4000E+01
    -12.369  0.0000E+00  0.4000E+01
    -12.281  0.0000E+00  0.4000E+01
    -12.194  0.0000E+00  0.4000E+01
    -12.107  0.0000E+00  0.4000E+01
    -12.020  0.0000E+00  0.4000E+01
    -11.933  0.0000E+00  0.4000E+01
    -11.845  0.0000E+00  0.4000E+01
    -11.758  0.0000E+00  0.4000E+01
    -11.671  0.0000E+00  0.4000E+01
    -11.584  0.0000E+00  0.4000E+01
    -11.497  0.0000E+00  0.4000E+01
    -11.409  0.0000E+00  0.4000E+01
    -11.322  0.0000E+00  0.4000E+01
    -11.235  0.0000E+00  0.4000E+01
    -11.148  0.0000E+00  0.4000E+01
    -11.061  0.0000E+00  0.4000E+01
    -10.973  0.0000E+00  0.4000E+01
    -10.886  0.0000E+00  0.4000E+01
    -10.799  0.0000E+00  0.4000E+01
    -10.712  0.0000E+00  0.4000E+01
    -10.624  0.0000E+00  0.4000E+01
    -10.537  0.0000E+00  0.4000E+01
    -10.450  0.0000E+00  0.4000E+01
    -10.363  0.0000E+00  0.4000E+01
    -10.276  0.0000E+00  0.4000E+01
    -10.188  0.0000E+00  0.4000E+01
    -10.101  0.0000E+00  0.4000E+01
    -10.014  0.0000E+00  0.4000E+01
     -9.927  0.0000E+00  0.4000E+01
     -9.840  0.0000E+00  0.4000E+01
     -9.752  0.0000E+00  0.4000E+01
     -9.665  0.0000E+00  0.4000E+01
     -9.578  0.0000E+00  0.4000E+01
     -9.491  0.0000E+00  0.4000E+01
     -9.404  0.2196E-13  0.4000E+01
     -9.316  0.3221E-06  0.4000E+01
     -9.229  0.1298E-01  0.4001E+01
     -9.142  0.2022E+01  0.4177E+01
     -9.055  0.3744E+01  0.4504E+01
     -8.967  0.1499E+02  0.5811E+01
     -8.880  0.1901E+02  0.7469E+01
     -8.793  0.2031E+01  0.7646E+01
     -8.706  0.4493E+01  0.8038E+01
     -8.619  0.3353E+02  0.1096E+02
     -8.531  0.3507E+02  0.1402E+02
     -8.444  0.2374E+02  0.1609E+02
     -8.357  0.1073E+02  0.1703E+02
     -8.270  0.1898E+02  0.1868E+02
     -8.183  0.1583E+02  0.2006E+02
     -8.095  0.2604E+02  0.2233E+02
     -8.008  0.2287E+02  0.2433E+02
     -7.921  0.7989E+02  0.3129E+02
     -7.834  0.1380E+02  0.3250E+02
     -7.746  0.5979E-01  0.3250E+02
     -7.659  0.1984E+02  0.3423E+02
     -7.572  0.1052E+03  0.4341E+02
     -7.485  0.2002E+02  0.4515E+02
     -7.398  0.2531E+02  0.4736E+02
     -7.310  0.1130E+02  0.4835E+02
     -7.223  0.2929E+02  0.5090E+02
     -7.136  0.3522E+02  0.5397E+02
     -7.049  0.3611E+02  0.5712E+02
     -6.962  0.7924E+02  0.6403E+02
     -6.874  0.5759E+02  0.6905E+02
     -6.787  0.4177E+02  0.7270E+02
     -6.700  0.3106E+02  0.7541E+02
     -6.613  0.9259E+02  0.8348E+02
     -6.526  0.4394E+02  0.8731E+02
     -6.438  0.2712E+02  0.8968E+02
     -6.351  0.3806E+01  0.9001E+02
     -6.264  0.4572E+01  0.9041E+02
     -6.177  0.4078E+02  0.9396E+02
     -6.089  0.1125E+03  0.1038E+03
     -6.002  0.6848E+02  0.1098E+03
     -5.915  0.8668E+02  0.1173E+03
     -5.828  0.2960E+02  0.1199E+03
     -5.741  0.4420E+02  0.1237E+03
     -5.653  0.8451E+02  0.1311E+03
     -5.566  0.8228E+02  0.1383E+03
     -5.479  0.3899E+02  0.1417E+03
     -5.392  0.3206E+02  0.1445E+03
     -5.305  0.6592E+02  0.1502E+03
     -5.217  0.4667E+02  0.1543E+03
     -5.130  0.6286E+02  0.1598E+03
     -5.043  0.7262E+02  0.1661E+03
     -4.956  0.8272E+02  0.1733E+03
     -4.869  0.2423E+02  0.1755E+03
     -4.781  0.4182E+02  0.1791E+03
     -4.694  0.8381E+02  0.1864E+03
     -4.607  0.1018E+03  0.1953E+03
     -4.520  0.6013E+02  0.2005E+03
     -4.432  0.5783E+02  0.2056E+03
     -4.345  0.3608E+02  0.2087E+03
     -4.258  0.7675E+02  0.2154E+03
     -4.171  0.9795E+02  0.2240E+03
     -4.084  0.1010E+03  0.2328E+03
     -3.996  0.9250E+02  0.2408E+03
     -3.909  0.3433E+02  0.2438E+03
     -3.822  0.7112E+02  0.2500E+03
     -3.735  0.6747E+02  0.2559E+03
     -3.648  0.9246E+02  0.2640E+03
     -3.560  0.5686E+02  0.2689E+03
     -3.473  0.5750E+02  0.2739E+03
     -3.386  0.2934E+02  0.2765E+03
     -3.299  0.1632E+02  0.2779E+03
     -3.212  0.8075E+02  0.2850E+03
     -3.124  0.7915E+02  0.2919E+03
     -3.037  0.1212E+03  0.3024E+03
     -2.950  0.7559E+02  0.3090E+03
     -2.863  0.1229E+03  0.3198E+03
     -2.775  0.1508E+03  0.3329E+03
     -2.688  0.1519E+03  0.3462E+03
     -2.601  0.1900E+02  0.3478E+03
     -2.514  0.1670E+02  0.3493E+03
     -2.427  0.4460E+02  0.3532E+03
     -2.339  0.7970E+02  0.3601E+03
     -2.252  0.1214E+03  0.3707E+03
     -2.165  0.6941E+02  0.3767E+03
     -2.078  0.1110E+03  0.3864E+03
     -1.991  0.4752E+02  0.3906E+03
     -1.903  0.7636E+02  0.3972E+03
     -1.816  0.1112E+03  0.4069E+03
     -1.729  0.1394E+03  0.4191E+03
     -1.642  0.4894E+02  0.4234E+03
     -1.554  0.5948E+02  0.4285E+03
     -1.467  0.9110E+02  0.4365E+03
     -1.380  0.7042E+02  0.4426E+03
     -1.293  0.1737E+03  0.4578E+03
     -1.206  0.1038E+03  0.4668E+03
     -1.118  0.1100E+03  0.4764E+03
     -1.031  0.7100E+02  0.4826E+03
     -0.944  0.7798E+02  0.4894E+03
     -0.857  0.1201E+03  0.4999E+03
     -0.770  0.1110E+03  0.5096E+03
     -0.682  0.7252E+02  0.5159E+03
     -0.595  0.4718E+02  0.5200E+03
     -0.508  0.6770E+02  0.5259E+03
     -0.421  0.1664E+03  0.5404E+03
     -0.334  0.1380E+03  0.5525E+03
     -0.246  0.1168E+03  0.5627E+03
     -0.159  0.9227E+02  0.5707E+03
     -0.072  0.5773E+02  0.5757E+03
      0.015  0.4920E+02  0.5800E+03
      0.103  0.1227E+03  0.5907E+03
      0.190  0.5839E+02  0.5958E+03
      0.277  0.1030E+03  0.6048E+03
      0.364  0.7833E+02  0.6116E+03
      0.451  0.9216E+02  0.6197E+03
      0.539  0.1405E+03  0.6319E+03
      0.626  0.6381E+02  0.6375E+03
      0.713  0.7223E+02  0.6438E+03
      0.800  0.3508E+02  0.6468E+03
      0.887  0.7639E+02  0.6535E+03
      0.975  0.1989E+03  0.6709E+03
      1.062  0.1920E+03  0.6876E+03
      1.149  0.1202E+03  0.6981E+03
      1.236  0.8417E+02  0.7054E+03
      1.323  0.6251E+02  0.7109E+03
      1.411  0.8254E+02  0.7181E+03
      1.498  0.9806E+02  0.7266E+03
      1.585  0.1465E+03  0.7394E+03
      1.672  0.1783E+03  0.7549E+03
      1.760  0.1248E+03  0.7658E+03
      1.847  0.4530E+02  0.7698E+03
      1.934  0.8023E+02  0.7768E+03
      2.021  0.1644E+03  0.7911E+03
      2.108  0.8904E+02  0.7989E+03
      2.196  0.8391E+02  0.8062E+03
      2.283  0.7266E+02  0.8125E+03
      2.370  0.7210E+02  0.8188E+03
      2.457  0.1122E+03  0.8286E+03
      2.544  0.8252E+02  0.8358E+03
      2.632  0.1424E+03  0.8482E+03
      2.719  0.9083E+02  0.8562E+03
      2.806  0.7853E+02  0.8630E+03
      2.893  0.1334E+03  0.8746E+03
      2.981  0.2894E+03  0.8999E+03
      3.068  0.1568E+03  0.9135E+03
      3.155  0.6543E+02  0.9193E+03
      3.242  0.8653E+02  0.9268E+03
      3.329  0.1138E+03  0.9367E+03
      3.417  0.1402E+03  0.9490E+03
      3.504  0.1255E+03  0.9599E+03
      3.591  0.8652E+02  0.9674E+03
      3.678  0.9969E+02  0.9761E+03
      3.765  0.1065E+03  0.9854E+03
      3.853  0.7036E+02  0.9916E+03
      3.940  0.1290E+03  0.1003E+04
      4.027  0.1576E+03  0.1017E+04
      4.114  0.6801E+02  0.1022E+04
      4.201  0.1652E+02  0.1024E+04
      4.289  0.8227E+00  0.1024E+04
      4.376  0.3228E-03  0.1024E+04
      4.463  0.4223E-09  0.1024E+04
      4.550  0.0000E+00  0.1024E+04
      4.638  0.0000E+00  0.1024E+04
      4.725  0.0000E+00  0.1024E+04
      4.812  0.0000E+00  0.1024E+04
      4.899  0.0000E+00  0.1024E+04
      4.986  0.0000E+00  0.1024E+04
      5.074  0.0000E+00  0.1024E+04
      5.161  0.0000E+00  0.1024E+04
      5.248  0.0000E+00  0.1024E+04
      5.335  0.0000E+00  0.1024E+04
