   4   4   0   0
  0.7621563E+03  0.1450000E-08  0.1450000E-08  0.1450000E-08  0.5000000E-15
   1.0000000000000000E-004
  CAR 
 NiAl                                    
      2.28091338    -37.79811500  301     -5.71819270      1.00000000
    -37.798  0.0000E+00  0.0000E+00
    -37.665  0.0000E+00  0.0000E+00
    -37.531  0.0000E+00  0.0000E+00
    -37.397  0.0000E+00  0.0000E+00
    -37.264  0.0000E+00  0.0000E+00
    -37.130  0.0000E+00  0.0000E+00
    -36.997  0.0000E+00  0.0000E+00
    -36.863  0.0000E+00  0.0000E+00
    -36.729  0.0000E+00  0.0000E+00
    -36.596  0.0000E+00  0.0000E+00
    -36.462  0.0000E+00  0.0000E+00
    -36.329  0.0000E+00  0.0000E+00
    -36.195  0.4699E-08  0.6277E-09
    -36.061  0.1212E+00  0.1619E-01
    -35.928  0.1358E+02  0.1831E+01
    -35.794  0.1268E+01  0.2000E+01
    -35.661  0.1921E-05  0.2000E+01
    -35.527  0.0000E+00  0.2000E+01
    -35.393  0.0000E+00  0.2000E+01
    -35.260  0.0000E+00  0.2000E+01
    -35.126  0.0000E+00  0.2000E+01
    -34.993  0.0000E+00  0.2000E+01
    -34.859  0.0000E+00  0.2000E+01
    -34.725  0.0000E+00  0.2000E+01
    -34.592  0.0000E+00  0.2000E+01
    -34.458  0.0000E+00  0.2000E+01
    -34.325  0.0000E+00  0.2000E+01
    -34.191  0.0000E+00  0.2000E+01
    -34.057  0.0000E+00  0.2000E+01
    -33.924  0.0000E+00  0.2000E+01
    -33.790  0.0000E+00  0.2000E+01
    -33.657  0.0000E+00  0.2000E+01
    -33.523  0.0000E+00  0.2000E+01
    -33.389  0.0000E+00  0.2000E+01
    -33.256  0.0000E+00  0.2000E+01
    -33.122  0.0000E+00  0.2000E+01
    -32.989  0.0000E+00  0.2000E+01
    -32.855  0.0000E+00  0.2000E+01
    -32.721  0.0000E+00  0.2000E+01
    -32.588  0.0000E+00  0.2000E+01
    -32.454  0.0000E+00  0.2000E+01
    -32.321  0.0000E+00  0.2000E+01
    -32.187  0.0000E+00  0.2000E+01
    -32.053  0.0000E+00  0.2000E+01
    -31.920  0.0000E+00  0.2000E+01
    -31.786  0.0000E+00  0.2000E+01
    -31.653  0.0000E+00  0.2000E+01
    -31.519  0.0000E+00  0.2000E+01
    -31.385  0.0000E+00  0.2000E+01
    -31.252  0.0000E+00  0.2000E+01
    -31.118  0.1765E-06  0.2000E+01
    -30.985  0.5322E+00  0.2071E+01
    -30.851  0.1408E+02  0.3952E+01
    -30.717  0.3622E+00  0.4000E+01
    -30.584  0.6579E-07  0.4000E+01
    -30.450  0.0000E+00  0.4000E+01
    -30.317  0.0000E+00  0.4000E+01
    -30.183  0.0000E+00  0.4000E+01
    -30.050  0.0000E+00  0.4000E+01
    -29.916  0.0000E+00  0.4000E+01
    -29.782  0.0000E+00  0.4000E+01
    -29.649  0.0000E+00  0.4000E+01
    -29.515  0.0000E+00  0.4000E+01
    -29.382  0.0000E+00  0.4000E+01
    -29.248  0.0000E+00  0.4000E+01
    -29.114  0.0000E+00  0.4000E+01
    -28.981  0.0000E+00  0.4000E+01
    -28.847  0.0000E+00  0.4000E+01
    -28.714  0.0000E+00  0.4000E+01
    -28.580  0.0000E+00  0.4000E+01
    -28.446  0.0000E+00  0.4000E+01
    -28.313  0.0000E+00  0.4000E+01
    -28.179  0.0000E+00  0.4000E+01
    -28.046  0.0000E+00  0.4000E+01
    -27.912  0.0000E+00  0.4000E+01
    -27.778  0.0000E+00  0.4000E+01
    -27.645  0.0000E+00  0.4000E+01
    -27.511  0.0000E+00  0.4000E+01
    -27.378  0.0000E+00  0.4000E+01
    -27.244  0.0000E+00  0.4000E+01
    -27.110  0.0000E+00  0.4000E+01
    -26.977  0.0000E+00  0.4000E+01
    -26.843  0.0000E+00  0.4000E+01
    -26.710  0.0000E+00  0.4000E+01
    -26.576  0.0000E+00  0.4000E+01
    -26.442  0.0000E+00  0.4000E+01
    -26.309  0.0000E+00  0.4000E+01
    -26.175  0.0000E+00  0.4000E+01
    -26.042  0.0000E+00  0.4000E+01
    -25.908  0.0000E+00  0.4000E+01
    -25.774  0.0000E+00  0.4000E+01
    -25.641  0.0000E+00  0.4000E+01
    -25.507  0.0000E+00  0.4000E+01
    -25.374  0.0000E+00  0.4000E+01
    -25.240  0.0000E+00  0.4000E+01
    -25.106  0.0000E+00  0.4000E+01
    -24.973  0.0000E+00  0.4000E+01
    -24.839  0.0000E+00  0.4000E+01
    -24.706  0.0000E+00  0.4000E+01
    -24.572  0.0000E+00  0.4000E+01
    -24.438  0.0000E+00  0.4000E+01
    -24.305  0.0000E+00  0.4000E+01
    -24.171  0.0000E+00  0.4000E+01
    -24.038  0.0000E+00  0.4000E+01
    -23.904  0.0000E+00  0.4000E+01
    -23.770  0.1369E-08  0.4000E+01
    -23.637  0.7052E-01  0.4009E+01
    -23.503  0.1313E+02  0.5763E+01
    -23.370  0.1775E+01  0.6000E+01
    -23.236  0.5249E-05  0.6000E+01
    -23.102  0.0000E+00  0.6000E+01
    -22.969  0.0000E+00  0.6000E+01
    -22.835  0.0000E+00  0.6000E+01
    -22.702  0.0000E+00  0.6000E+01
    -22.568  0.0000E+00  0.6000E+01
    -22.434  0.0000E+00  0.6000E+01
    -22.301  0.0000E+00  0.6000E+01
    -22.167  0.0000E+00  0.6000E+01
    -22.034  0.0000E+00  0.6000E+01
    -21.900  0.0000E+00  0.6000E+01
    -21.767  0.0000E+00  0.6000E+01
    -21.633  0.0000E+00  0.6000E+01
    -21.499  0.0000E+00  0.6000E+01
    -21.366  0.0000E+00  0.6000E+01
    -21.232  0.0000E+00  0.6000E+01
    -21.099  0.0000E+00  0.6000E+01
    -20.965  0.0000E+00  0.6000E+01
    -20.831  0.0000E+00  0.6000E+01
    -20.698  0.0000E+00  0.6000E+01
    -20.564  0.0000E+00  0.6000E+01
    -20.431  0.0000E+00  0.6000E+01
    -20.297  0.0000E+00  0.6000E+01
    -20.163  0.0000E+00  0.6000E+01
    -20.030  0.0000E+00  0.6000E+01
    -19.896  0.0000E+00  0.6000E+01
    -19.763  0.0000E+00  0.6000E+01
    -19.629  0.0000E+00  0.6000E+01
    -19.495  0.0000E+00  0.6000E+01
    -19.362  0.0000E+00  0.6000E+01
    -19.228  0.0000E+00  0.6000E+01
    -19.095  0.0000E+00  0.6000E+01
    -18.961  0.0000E+00  0.6000E+01
    -18.827  0.0000E+00  0.6000E+01
    -18.694  0.0000E+00  0.6000E+01
    -18.560  0.0000E+00  0.6000E+01
    -18.427  0.0000E+00  0.6000E+01
    -18.293  0.0000E+00  0.6000E+01
    -18.159  0.0000E+00  0.6000E+01
    -18.026  0.8310E-15  0.6000E+01
    -17.892  0.4535E-04  0.6000E+01
    -17.759  0.3412E+01  0.6456E+01
    -17.625  0.1154E+02  0.7998E+01
    -17.491  0.1812E-01  0.8000E+01
    -17.358  0.8051E-10  0.8000E+01
    -17.224  0.6337E-02  0.8001E+01
    -17.091  0.1003E+02  0.9341E+01
    -16.957  0.4931E+01  0.1000E+02
    -16.823  0.1826E-03  0.1000E+02
    -16.690  0.0000E+00  0.1000E+02
    -16.556  0.0000E+00  0.1000E+02
    -16.423  0.0000E+00  0.1000E+02
    -16.289  0.0000E+00  0.1000E+02
    -16.155  0.0000E+00  0.1000E+02
    -16.022  0.0000E+00  0.1000E+02
    -15.888  0.0000E+00  0.1000E+02
    -15.755  0.0000E+00  0.1000E+02
    -15.621  0.0000E+00  0.1000E+02
    -15.487  0.0000E+00  0.1000E+02
    -15.354  0.0000E+00  0.1000E+02
    -15.220  0.0000E+00  0.1000E+02
    -15.087  0.3916E-06  0.1000E+02
    -14.953  0.7185E+00  0.1010E+02
    -14.819  0.1399E+02  0.1197E+02
    -14.686  0.2583E+00  0.1200E+02
    -14.552  0.4938E-01  0.1201E+02
    -14.419  0.1276E+02  0.1371E+02
    -14.285  0.2157E+01  0.1400E+02
    -14.151  0.9679E-05  0.1400E+02
    -14.018  0.0000E+00  0.1400E+02
    -13.884  0.0000E+00  0.1400E+02
    -13.751  0.0000E+00  0.1400E+02
    -13.617  0.0000E+00  0.1400E+02
    -13.484  0.0000E+00  0.1400E+02
    -13.350  0.0000E+00  0.1400E+02
    -13.216  0.0000E+00  0.1400E+02
    -13.083  0.0000E+00  0.1400E+02
    -12.949  0.0000E+00  0.1400E+02
    -12.816  0.0000E+00  0.1400E+02
    -12.682  0.0000E+00  0.1400E+02
    -12.548  0.0000E+00  0.1400E+02
    -12.415  0.0000E+00  0.1400E+02
    -12.281  0.1496E-13  0.1400E+02
    -12.148  0.2376E-03  0.1400E+02
    -12.014  0.5259E+01  0.1470E+02
    -11.880  0.9706E+01  0.1600E+02
    -11.747  0.5103E-02  0.1600E+02
    -11.613  0.7391E-11  0.1600E+02
    -11.480  0.3095E-02  0.1600E+02
    -11.346  0.8945E+01  0.1720E+02
    -11.212  0.6022E+01  0.1800E+02
    -11.079  0.4245E-03  0.1800E+02
    -10.945  0.0000E+00  0.1800E+02
    -10.812  0.0000E+00  0.1800E+02
    -10.678  0.0000E+00  0.1800E+02
    -10.544  0.0000E+00  0.1800E+02
    -10.411  0.0000E+00  0.1800E+02
    -10.277  0.0000E+00  0.1800E+02
    -10.144  0.0000E+00  0.1800E+02
    -10.010  0.0000E+00  0.1800E+02
     -9.876  0.0000E+00  0.1800E+02
     -9.743  0.0000E+00  0.1800E+02
     -9.609  0.0000E+00  0.1800E+02
     -9.476  0.0000E+00  0.1800E+02
     -9.342  0.0000E+00  0.1800E+02
     -9.208  0.9888E-05  0.1800E+02
     -9.075  0.2172E+01  0.1829E+02
     -8.941  0.1275E+02  0.1999E+02
     -8.808  0.4874E-01  0.2000E+02
     -8.674  0.6032E-09  0.2000E+02
     -8.540  0.0000E+00  0.2000E+02
     -8.407  0.0000E+00  0.2000E+02
     -8.273  0.0000E+00  0.2000E+02
     -8.140  0.0000E+00  0.2000E+02
     -8.006  0.0000E+00  0.2000E+02
     -7.872  0.1163E-13  0.2000E+02
     -7.739  0.2041E-03  0.2000E+02
     -7.605  0.5068E+01  0.2068E+02
     -7.472  0.9897E+01  0.2200E+02
     -7.338  0.5787E-02  0.2200E+02
     -7.204  0.6941E-11  0.2200E+02
     -7.071  0.0000E+00  0.2200E+02
     -6.937  0.0000E+00  0.2200E+02
     -6.804  0.0000E+00  0.2200E+02
     -6.670  0.0000E+00  0.2200E+02
     -6.536  0.0000E+00  0.2200E+02
     -6.403  0.0000E+00  0.2200E+02
     -6.269  0.0000E+00  0.2200E+02
     -6.136  0.2331E-04  0.2200E+02
     -6.002  0.2818E+01  0.2238E+02
     -5.868  0.1212E+02  0.2400E+02
     -5.735  0.2845E-01  0.2400E+02
     -5.601  0.1877E-09  0.2400E+02
     -5.468  0.0000E+00  0.2400E+02
     -5.334  0.0000E+00  0.2400E+02
     -5.201  0.0000E+00  0.2400E+02
     -5.067  0.0000E+00  0.2400E+02
     -4.933  0.0000E+00  0.2400E+02
     -4.800  0.4332E-10  0.2400E+02
     -4.666  0.1419E-01  0.2400E+02
     -4.533  0.1120E+02  0.2550E+02
     -4.399  0.3752E+01  0.2600E+02
     -4.265  0.6389E-04  0.2600E+02
     -4.132  0.0000E+00  0.2600E+02
     -3.998  0.0000E+00  0.2600E+02
     -3.865  0.0000E+00  0.2600E+02
     -3.731  0.0000E+00  0.2600E+02
     -3.597  0.0000E+00  0.2600E+02
     -3.464  0.0000E+00  0.2600E+02
     -3.330  0.0000E+00  0.2600E+02
     -3.197  0.0000E+00  0.2600E+02
     -3.063  0.0000E+00  0.2600E+02
     -2.929  0.0000E+00  0.2600E+02
     -2.796  0.0000E+00  0.2600E+02
     -2.662  0.0000E+00  0.2600E+02
     -2.529  0.0000E+00  0.2600E+02
     -2.395  0.0000E+00  0.2600E+02
     -2.261  0.0000E+00  0.2600E+02
     -2.128  0.0000E+00  0.2600E+02
     -1.994  0.0000E+00  0.2600E+02
     -1.861  0.0000E+00  0.2600E+02
     -1.727  0.0000E+00  0.2600E+02
     -1.593  0.0000E+00  0.2600E+02
     -1.460  0.0000E+00  0.2600E+02
     -1.326  0.0000E+00  0.2600E+02
     -1.193  0.0000E+00  0.2600E+02
     -1.059  0.0000E+00  0.2600E+02
     -0.925  0.0000E+00  0.2600E+02
     -0.792  0.0000E+00  0.2600E+02
     -0.658  0.0000E+00  0.2600E+02
     -0.525  0.1679E-12  0.2600E+02
     -0.391  0.8586E-03  0.2600E+02
     -0.257  0.7016E+01  0.2694E+02
     -0.124  0.8015E+01  0.2801E+02
      0.010  0.1302E+02  0.2975E+02
      0.143  0.1909E+01  0.3000E+02
      0.277  0.1165E+02  0.3156E+02
      0.411  0.1578E+02  0.3367E+02
      0.544  0.1733E+02  0.3598E+02
      0.678  0.1212E+00  0.3600E+02
      0.811  0.4699E-08  0.3600E+02
      0.945  0.0000E+00  0.3600E+02
      1.079  0.0000E+00  0.3600E+02
      1.212  0.0000E+00  0.3600E+02
      1.346  0.0000E+00  0.3600E+02
      1.479  0.0000E+00  0.3600E+02
      1.613  0.0000E+00  0.3600E+02
      1.747  0.0000E+00  0.3600E+02
      1.880  0.0000E+00  0.3600E+02
      2.014  0.0000E+00  0.3600E+02
      2.147  0.0000E+00  0.3600E+02
      2.281  0.0000E+00  0.3600E+02
