    4    4    1    1
  0.7621563E+03  0.1450000E-08  0.1450000E-08  0.1450000E-08  0.5000000E-15
   1.0000000000000000E-004
  CAR 
 NiAl                                    
     24      1     18
 
  0.1262379E-14  0.1262379E-14  0.1262379E-14  0.1000000E+01
      1        -35.976341   1.000000
      2        -30.920871   1.000000
      3        -23.545063   1.000000
      4        -17.732238   1.000000
      5        -17.106230   1.000000
      6        -14.894217   1.000000
      7        -14.456234   1.000000
      8        -12.000439   1.000000
      9        -11.354703   1.000000
     10         -9.037410   1.000000
     11         -7.590523   1.000000
     12         -5.970816   1.000000
     13         -4.556301   0.000000
     14         -0.254651   0.000000
     15         -0.030699   0.000000
     16          0.249798   0.000000
     17          0.386785   0.000000
     18          0.459139   0.000000
