       N       E                     dE             d eps       ncg     rms          rms(c)
DAV:   1     0.179672513422E+03    0.17967E+03   -0.49073E+03    60   0.515E+02
DAV:   2     0.382495803307E+02   -0.14142E+03   -0.13918E+03    66   0.164E+02
DAV:   3    -0.133499076921E+02   -0.51599E+02   -0.51229E+02    72   0.890E+01
DAV:   4    -0.157695779718E+02   -0.24197E+01   -0.24187E+01    60   0.195E+01
DAV:   5    -0.158186501536E+02   -0.49072E-01   -0.48680E-01    60   0.270E+00    0.830E+01
DAV:   6    -0.151860306338E+02    0.63262E+00   -0.70321E-01    42   0.815E+00    0.508E+01
DAV:   7    -0.151548667355E+02    0.31164E-01   -0.11002E+00    42   0.951E+00    0.159E+00
DAV:   8    -0.151331770295E+02    0.21690E-01   -0.14670E-01    42   0.365E+00    0.446E-01
DAV:   9    -0.151345947389E+02   -0.14177E-02   -0.56381E-03    60   0.555E-01    0.186E-01
DAV:  10    -0.151354791481E+02   -0.88441E-03   -0.40486E-04    54   0.187E-01    0.578E-02
DAV:  11    -0.151362622191E+02   -0.78307E-03   -0.12113E-04    54   0.725E-02    0.156E-02
DAV:  12    -0.151370329131E+02   -0.77069E-03   -0.90124E-05    60   0.426E-02    0.160E-02
DAV:  13    -0.151373770592E+02   -0.34415E-03   -0.54063E-05    60   0.241E-02    0.754E-03
DAV:  14    -0.151375183019E+02   -0.14124E-03   -0.88298E-06    54   0.104E-02    0.420E-03
DAV:  15    -0.151376681609E+02   -0.14986E-03   -0.15918E-05    54   0.133E-02    0.436E-03
DAV:  16    -0.151377001563E+02   -0.31995E-04   -0.14155E-06    60   0.603E-03    0.279E-03
DAV:  17    -0.151377246167E+02   -0.24460E-04   -0.78246E-07    48   0.562E-03    0.177E-03
DAV:  18    -0.151377386566E+02   -0.14040E-04   -0.43119E-07    60   0.359E-03    0.480E-04
DAV:  19    -0.151377457059E+02   -0.70494E-05   -0.98393E-08    48   0.157E-03    0.240E-04
DAV:  20    -0.151377496777E+02   -0.39718E-05   -0.19479E-08    36   0.119E-03    0.179E-04
DAV:  21    -0.151377508188E+02   -0.11411E-05   -0.13890E-08    36   0.852E-04    0.961E-05
DAV:  22    -0.151377511232E+02   -0.30444E-06   -0.92971E-09    36   0.680E-04    0.711E-05
DAV:  23    -0.151377513305E+02   -0.20729E-06   -0.59080E-09    36   0.505E-04    0.531E-05
DAV:  24    -0.151377514315E+02   -0.10093E-06   -0.33658E-09    36   0.347E-04    0.643E-05
DAV:  25    -0.151377514670E+02   -0.35579E-07   -0.20958E-09    36   0.234E-04
   1 F= -.15172896E+02 E0= -.15172896E+02  d E =-.231206E-12
