<?xml version="1.0" encoding="ISO-8859-1"?>
<modeling>
 <generator>
  <i name="program" type="string">vasp </i>
  <i name="version" type="string">6.3.1  </i>
  <i name="subversion" type="string">04May22 (build Jun 29 2022 13:52:15) complex                          parallel </i>
  <i name="platform" type="string">LinuxNV </i>
  <i name="date" type="string">2022 10 05 </i>
  <i name="time" type="string">18:18:06 </i>
 </generator>
 <incar>
  <i type="string" name="SYSTEM">NiAl</i>
  <i type="int" name="ISTART">     0</i>
  <i type="int" name="NELMIN">     6</i>
  <i name="EDIFF">      0.00000010</i>
  <i name="ENCUT">    360.00000000</i>
  <i type="string" name="LREAL">Auto</i>
  <i type="logical" name="LPLANE"> T  </i>
  <i type="int" name="ISMEAR">     0</i>
  <i name="SIGMA">      0.05000000</i>
  <i type="logical" name="LWAVE"> F  </i>
  <i type="logical" name="LCHARG"> F  </i>
  <i type="int" name="IVDW">    12</i>
 </incar>
 <primitive_cell>
  <structure name="primitive_cell" >
   <crystal>
    <varray name="basis" >
     <v>      14.50000000       0.00000000       0.00000000 </v>
     <v>       0.00000000      14.50000000       0.00000000 </v>
     <v>       0.00000000       0.00000000      14.50000000 </v>
    </varray>
    <i name="volume">   3048.62500000 </i>
    <varray name="rec_basis" >
     <v>       0.06896552       0.00000000       0.00000000 </v>
     <v>       0.00000000       0.06896552       0.00000000 </v>
     <v>       0.00000000       0.00000000       0.06896552 </v>
    </varray>
   </crystal>
   <varray name="positions" >
    <v>       0.00000000       0.00000000       0.00000000 </v>
    <v>       0.08324138       0.00000000       0.00000000 </v>
    <v>       0.00000000       0.00000000       0.10344828 </v>
    <v>       0.08324138       0.00000000       0.10344828 </v>
   </varray>
  </structure>
  <varray name="primitive_index" >
   <v type="int" >        1 </v>
   <v type="int" >        2 </v>
   <v type="int" >        3 </v>
   <v type="int" >        4 </v>
  </varray>
 </primitive_cell>
 <kpoints>
  <generation param="Gamma">
   <v type="int" name="divisions">       1        1        1 </v>
   <v name="usershift">      0.00000000       0.00000000       0.00000000 </v>
   <v name="genvec1">      1.00000000       0.00000000       0.00000000 </v>
   <v name="genvec2">      0.00000000       1.00000000       0.00000000 </v>
   <v name="genvec3">      0.00000000       0.00000000       1.00000000 </v>
   <v name="shift">      0.00000000       0.00000000       0.00000000 </v>
  </generation>
  <varray name="kpointlist" >
   <v>       0.00000000       0.00000000       0.00000000 </v>
  </varray>
  <varray name="weights" >
   <v>       1.00000000 </v>
  </varray>
 </kpoints>
 <parameters>
  <separator name="general" >
   <i type="string" name="SYSTEM">NiAl</i>
   <i type="logical" name="LCOMPAT"> F  </i>
  </separator>
  <separator name="electronic" >
   <i type="string" name="PREC">normal</i>
   <i name="ENMAX">    360.00000000</i>
   <i name="ENAUG">   1139.60900000</i>
   <i name="EDIFF">      0.00000010</i>
   <i type="int" name="IALGO">    38</i>
   <i type="int" name="IWAVPR">    10</i>
   <i type="int" name="NBANDS">    18</i>
   <i type="int" name="NBANDSLOW">    -1</i>
   <i type="int" name="NBANDSHIGH">    -1</i>
   <i name="NELECT">     24.00000000</i>
   <i type="int" name="TURBO">     0</i>
   <i type="int" name="IRESTART">     0</i>
   <i type="int" name="NREBOOT">     0</i>
   <i type="int" name="NMIN">     0</i>
   <i name="EREF">      0.00000000</i>
   <separator name="electronic smearing" >
    <i type="int" name="ISMEAR">     0</i>
    <i name="SIGMA">      0.05000000</i>
    <i name="KSPACING">      0.50000000</i>
    <i type="logical" name="KGAMMA"> T  </i>
    <i type="logical" name="KBLOWUP"> T  </i>
   </separator>
   <separator name="electronic projectors" >
    <i type="logical" name="LREAL"> T  </i>
    <v name="ROPT">     -0.00050000</v>
    <i type="int" name="LMAXPAW">  -100</i>
    <i type="int" name="LMAXMIX">     2</i>
    <i type="logical" name="NLSPLINE"> F  </i>
   </separator>
   <separator name="electronic startup" >
    <i type="int" name="ISTART">     0</i>
    <i type="int" name="ICHARG">     2</i>
    <i type="int" name="INIWAV">     1</i>
   </separator>
   <separator name="electronic spin" >
    <i type="int" name="ISPIN">     1</i>
    <i type="logical" name="LNONCOLLINEAR"> F  </i>
    <v name="MAGMOM">      1.00000000      1.00000000      1.00000000      1.00000000</v>
    <i name="NUPDOWN">     -1.00000000</i>
    <i type="logical" name="LSORBIT"> F  </i>
    <v name="SAXIS">      0.00000000      0.00000000      1.00000000</v>
    <i type="logical" name="LSPIRAL"> F  </i>
    <v name="QSPIRAL">      0.00000000      0.00000000      0.00000000</v>
    <i type="logical" name="LZEROZ"> F  </i>
   </separator>
   <separator name="electronic exchange-correlation" >
    <i type="logical" name="LASPH"> F  </i>
    <i type="logical" name="LMETAGGA"> F  </i>
   </separator>
   <separator name="electronic convergence" >
    <i type="int" name="NELM">    60</i>
    <i type="int" name="NELMDL">    -5</i>
    <i type="int" name="NELMIN">     6</i>
    <i name="ENINI">    360.00000000</i>
    <separator name="electronic convergence detail" >
     <i type="logical" name="LDIAG"> T  </i>
     <i type="logical" name="LSUBROT"> F  </i>
     <i name="WEIMIN">      0.00000000</i>
     <i name="EBREAK">      0.00000000</i>
     <i name="DEPER">      0.30000000</i>
     <i type="int" name="NRMM">     4</i>
     <i name="TIME">      0.40000000</i>
    </separator>
   </separator>
   <separator name="electronic mixer" >
    <i name="AMIX">      0.40000000</i>
    <i name="BMIX">      1.00000000</i>
    <i name="AMIN">      0.10000000</i>
    <i name="AMIX_MAG">      1.60000000</i>
    <i name="BMIX_MAG">      1.00000000</i>
    <separator name="electronic mixer details" >
     <i type="int" name="IMIX">     4</i>
     <i type="logical" name="MIXFIRST"> F  </i>
     <i type="int" name="MAXMIX">   -45</i>
     <i name="WC">    100.00000000</i>
     <i type="int" name="INIMIX">     1</i>
     <i type="int" name="MIXPRE">     1</i>
     <i type="int" name="MREMOVE">     5</i>
    </separator>
   </separator>
   <separator name="electronic dipolcorrection" >
    <i type="logical" name="LDIPOL"> F  </i>
    <i type="logical" name="LMONO"> F  </i>
    <i type="int" name="IDIPOL">     0</i>
    <i name="EPSILON">      1.00000000</i>
    <v name="DIPOL">   -100.00000000   -100.00000000   -100.00000000</v>
    <i name="EFIELD">      0.00000000</i>
   </separator>
  </separator>
  <separator name="grids" >
   <i type="int" name="NGX">    70</i>
   <i type="int" name="NGY">    70</i>
   <i type="int" name="NGZ">    70</i>
   <i type="int" name="NGXF">   140</i>
   <i type="int" name="NGYF">   140</i>
   <i type="int" name="NGZF">   140</i>
   <i type="logical" name="ADDGRID"> F  </i>
  </separator>
  <separator name="ionic" >
   <i type="int" name="NSW">     0</i>
   <i type="int" name="IBRION">    -1</i>
   <i type="int" name="MDALGO">     0</i>
   <i type="int" name="ISIF">     2</i>
   <i name="PSTRESS">      0.00000000</i>
   <i name="EDIFFG">      0.00000100</i>
   <i type="int" name="NFREE">     0</i>
   <i name="POTIM">      0.50000000</i>
   <i name="SMASS">     -3.00000000</i>
   <i name="SCALEE">      1.00000000</i>
  </separator>
  <separator name="ionic md" >
   <i name="TEBEG">      0.00010000</i>
   <i name="TEEND">      0.00010000</i>
   <i type="int" name="NBLOCK">     1</i>
   <i type="int" name="KBLOCK">     1</i>
   <i type="int" name="NPACO">   256</i>
   <i name="APACO">     10.00000000</i>
  </separator>
  <separator name="symmetry" >
   <i type="int" name="ISYM">     2</i>
   <i name="SYMPREC">      0.00001000</i>
  </separator>
  <separator name="dos" >
   <i type="int" name="LORBIT">     0</i>
   <v name="RWIGS">     -1.00000000</v>
   <i type="int" name="NEDOS">   301</i>
   <i name="EMIN">     10.00000000</i>
   <i name="EMAX">    -10.00000000</i>
   <i name="EFERMI">      0.00000000</i>
  </separator>
  <separator name="writing" >
   <i type="int" name="NWRITE">     2</i>
   <i type="logical" name="LWAVE"> F  </i>
   <i type="logical" name="LDOWNSAMPLE"> F  </i>
   <i type="logical" name="LCHARG"> F  </i>
   <i type="logical" name="LPARD"> F  </i>
   <i type="logical" name="LVTOT"> F  </i>
   <i type="logical" name="LVHAR"> F  </i>
   <i type="logical" name="LELF"> F  </i>
   <i type="logical" name="LOPTICS"> F  </i>
   <v name="STM">      0.00000000      0.00000000      0.00000000      0.00000000      0.00000000      0.00000000      0.00000000</v>
  </separator>
  <separator name="performance" >
   <i type="int" name="NPAR">     6</i>
   <i type="int" name="NSIM">     4</i>
   <i type="int" name="NBLK">    -1</i>
   <i type="logical" name="LPLANE"> T  </i>
   <i type="logical" name="LSCALAPACK"> T  </i>
   <i type="logical" name="LSCAAWARE"> F  </i>
   <i type="logical" name="LSCALU"> F  </i>
   <i type="logical" name="LASYNC"> F  </i>
   <i type="logical" name="LORBITALREAL"> F  </i>
  </separator>
  <separator name="miscellaneous" >
   <i type="int" name="IDIOT">     3</i>
   <i type="int" name="PHON_NSTRUCT">    -1</i>
   <i type="logical" name="LMUSIC"> F  </i>
   <v name="POMASS">     16.00000000</v>
   <v name="DARWINR">      0.00000000</v>
   <v name="DARWINV">      1.00000000</v>
   <i type="logical" name="LCORR"> T  </i>
  </separator>
  <i type="logical" name="GGA_COMPAT"> T  </i>
  <i type="logical" name="LBERRY"> F  </i>
  <i type="int" name="ICORELEVEL">     0</i>
  <i type="logical" name="LDAU"> F  </i>
  <i type="int" name="I_CONSTRAINED_M">     0</i>
  <separator name="electronic exchange-correlation" >
   <i type="string" name="GGA">--</i>
   <i type="int" name="VOSKOWN">     0</i>
   <i type="logical" name="LHFCALC"> F  </i>
   <i type="string" name="PRECFOCK"></i>
   <i type="logical" name="LSYMGRAD"> F  </i>
   <i type="logical" name="LHFONE"> F  </i>
   <i type="logical" name="LRHFCALC"> F  </i>
   <i type="logical" name="LTHOMAS"> F  </i>
   <i type="logical" name="LMODELHF"> F  </i>
   <i type="logical" name="LFOCKACE"> F  </i>
   <i name="ENCUT4O">     -1.00000000</i>
   <i type="int" name="EXXOEP">     0</i>
   <i type="int" name="FOURORBIT">     0</i>
   <i name="AEXX">      0.00000000</i>
   <i name="HFALPHA">      0.00000000</i>
   <i name="MCALPHA">      0.00000000</i>
   <i name="ALDAX">      1.00000000</i>
   <i name="AGGAX">      1.00000000</i>
   <i name="ALDAC">      1.00000000</i>
   <i name="AGGAC">      1.00000000</i>
   <i type="int" name="NKREDX">     1</i>
   <i type="int" name="NKREDY">     1</i>
   <i type="int" name="NKREDZ">     1</i>
   <i type="logical" name="SHIFTRED"> F  </i>
   <i type="logical" name="ODDONLY"> F  </i>
   <i type="logical" name="EVENONLY"> F  </i>
   <i type="int" name="LMAXFOCK">     0</i>
   <i type="int" name="NMAXFOCKAE">     0</i>
   <i type="logical" name="LFOCKAEDFT"> F  </i>
   <i name="HFSCREEN">      0.00000000</i>
   <i name="HFSCREENC">      0.00000000</i>
   <i type="int" name="NBANDSGWLOW">     0</i>
  </separator>
  <separator name="vdW DFT" >
   <i type="logical" name="LUSE_VDW"> F  </i>
   <i name="Zab_VDW">     -0.84910000</i>
   <i name="PARAM1">      0.12340000</i>
   <i name="PARAM2">      1.00000000</i>
   <i name="PARAM3">      0.00000000</i>
  </separator>
  <separator name="model GW" >
   <i type="int" name="MODEL_GW">     0</i>
   <i name="MODEL_EPS0">    457.29375000</i>
   <i name="MODEL_ALPHA">      1.00000000</i>
  </separator>
  <separator name="linear response parameters" >
   <i type="logical" name="LEPSILON"> F  </i>
   <i type="logical" name="LRPA"> F  </i>
   <i type="logical" name="LNABLA"> F  </i>
   <i type="logical" name="LVEL"> F  </i>
   <i name="CSHIFT">      0.10000000</i>
   <i name="OMEGAMAX">     -1.00000000</i>
   <i name="DEG_THRESHOLD">      0.00200000</i>
   <i name="RTIME">     -0.10000000</i>
   <i name="WPLASMAI">      0.00000000</i>
   <v name="DFIELD">      0.00000000      0.00000000      0.00000000</v>
   <v name="WPLASMA">      0.00000000      0.00000000      0.00000000      0.00000000      0.00000000      0.00000000      0.00000000      0.00000000      0.00000000</v>
  </separator>
  <separator name="orbital magnetization" >
   <i type="logical" name="NUCIND"> F  </i>
   <v name="MAGPOS">      0.00000000      0.00000000      0.00000000</v>
   <i type="logical" name="LNICSALL"> T  </i>
   <i type="logical" name="ORBITALMAG"> F  </i>
   <i type="logical" name="LMAGBLOCH"> F  </i>
   <i type="logical" name="LCHIMAG"> F  </i>
   <i type="logical" name="LGAUGE"> T  </i>
   <i type="int" name="MAGATOM">     0</i>
   <v name="MAGDIPOL">      0.00000000      0.00000000      0.00000000</v>
   <v name="AVECCONST">      0.00000000      0.00000000      0.00000000</v>
  </separator>
  <separator name="response functions" >
   <i type="logical" name="LFINITE_TEMPERATURE"> F  </i>
   <i type="logical" name="LADDER"> F  </i>
   <i type="logical" name="LRPAFORCE"> F  </i>
   <i type="logical" name="LFXC"> F  </i>
   <i type="logical" name="LHARTREE"> T  </i>
   <i type="int" name="IBSE">     0</i>
   <v type="int" name="KPOINT">    -1     0     0     0</v>
   <i type="logical" name="LTCTC"> F  </i>
   <i type="logical" name="LTCTE"> F  </i>
   <i type="logical" name="LTETE"> F  </i>
   <i type="logical" name="LTRIPLET"> F  </i>
   <i type="logical" name="LFXCEPS"> F  </i>
   <i type="logical" name="LFXHEG"> F  </i>
   <i type="int" name="NATURALO">     2</i>
   <i type="logical" name="LHOLEGF"> F  </i>
   <i type="logical" name="L2ORDER"> F  </i>
   <i type="logical" name="LDMP1"> F  </i>
   <i type="logical" name="LMP2LT"> F  </i>
   <i type="logical" name="LSMP2LT"> F  </i>
   <i type="logical" name="LGWLF"> F  </i>
   <i name="ENCUTGW">     -2.00000000</i>
   <i name="ENCUTGWSOFT">     -2.00000000</i>
   <i name="ENCUTLF">     -1.00000000</i>
   <i type="logical" name="LESF_SPLINES"> F  </i>
   <i type="int" name="LMAXMP2">    -1</i>
   <i name="SCISSOR">      0.00000000</i>
   <i type="int" name="NOMEGA">     0</i>
   <i type="int" name="NOMEGAR">     0</i>
   <i type="int" name="NBANDSGW">    -1</i>
   <i type="int" name="NBANDSO">    -1</i>
   <i type="int" name="NBANDSV">    -1</i>
   <i type="int" name="NELMGW">     1</i>
   <i type="int" name="NELMHF">     1</i>
   <i type="int" name="DIM">     3</i>
   <i type="int" name="IESPILON">     4</i>
   <i type="int" name="ANTIRES">     0</i>
   <i name="OMEGAMAX">    -30.00000000</i>
   <i name="OMEGAMIN">    -30.00000000</i>
   <i name="OMEGATL">   -200.00000000</i>
   <i type="int" name="OMEGAGRID">     0</i>
   <i name="CSHIFT">     -0.10000000</i>
   <i type="logical" name="LSELFENERGY"> F  </i>
   <i type="logical" name="LSPECTRAL"> F  </i>
   <i type="logical" name="LSPECTRALGW"> F  </i>
   <i type="logical" name="LSINGLES"> F  </i>
   <i type="logical" name="LFERMIGW"> F  </i>
   <i type="logical" name="ODDONLYGW"> F  </i>
   <i type="logical" name="EVENONLYGW"> F  </i>
   <i type="int" name="NKREDLFX">     1</i>
   <i type="int" name="NKREDLFY">     1</i>
   <i type="int" name="NKREDLFZ">     1</i>
   <i type="int" name="MAXMEM">  2800</i>
   <i type="int" name="TELESCOPE">     0</i>
   <i type="int" name="NTAUPAR">    -1</i>
   <i type="int" name="NOMEGAPAR">    -1</i>
   <i name="DAMP_NEWTON">      0.80000001</i>
   <i name="LAMBDA">      1.00000000</i>
  </separator>
  <separator name="External order field" >
   <i name="OFIELD_KAPPA">      0.00000000</i>
   <v name="OFIELD_K">      0.00000000      0.00000000      0.00000000</v>
   <i name="OFIELD_Q6_NEAR">      0.00000000</i>
   <i name="OFIELD_Q6_FAR">      0.00000000</i>
   <i name="OFIELD_A">      0.00000000</i>
  </separator>
  <separator name="optional k-points parameters" >
   <i type="int" name="KPOINTS_OPT_MODE">     1</i>
   <i type="logical" name="LKPOINTS_OPT"> F  </i>
  </separator>
 </parameters>
 <atominfo>
  <atoms>       4 </atoms>
  <types>       1 </types>
  <array name="atoms" >
   <dimension dim="1">ion</dimension>
   <field type="string">element</field>
   <field type="int">atomtype</field>
   <set>
    <rc><c>O </c><c>   1</c></rc>
    <rc><c>O </c><c>   1</c></rc>
    <rc><c>O </c><c>   1</c></rc>
    <rc><c>O </c><c>   1</c></rc>
   </set>
  </array>
  <array name="atomtypes" >
   <dimension dim="1">type</dimension>
   <field type="int">atomspertype</field>
   <field type="string">element</field>
   <field>mass</field>
   <field>valence</field>
   <field type="string">pseudopotential</field>
   <set>
    <rc><c>   4</c><c>O </c><c>     16.00000000</c><c>      6.00000000</c><c>  PAW O_GW 19Mar2012                    </c></rc>
   </set>
  </array>
 </atominfo>
 <structure name="initialpos" >
  <crystal>
   <varray name="basis" >
    <v>      14.50000000       0.00000000       0.00000000 </v>
    <v>       0.00000000      14.50000000       0.00000000 </v>
    <v>       0.00000000       0.00000000      14.50000000 </v>
   </varray>
   <i name="volume">   3048.62500000 </i>
   <varray name="rec_basis" >
    <v>       0.06896552       0.00000000       0.00000000 </v>
    <v>       0.00000000       0.06896552       0.00000000 </v>
    <v>       0.00000000       0.00000000       0.06896552 </v>
   </varray>
  </crystal>
  <varray name="positions" >
   <v>       0.00000000       0.00000000       0.00000000 </v>
   <v>       0.08324138       0.00000000       0.00000000 </v>
   <v>       0.00000000       0.00000000       0.10344828 </v>
   <v>       0.08324138       0.00000000       0.10344828 </v>
  </varray>
 </structure>
 <calculation>
  <scstep>
   <time name="dav">   12.10    6.57</time>
   <time name="total">   15.56    8.41</time>
   <energy>
    <i name="alphaZ">      0.35861207 </i>
    <i name="ewald">   1282.47567787 </i>
    <i name="hartreedc">  -2720.96316192 </i>
    <i name="XCdc">    104.96180951 </i>
    <i name="pawpsdc">   1396.60603497 </i>
    <i name="pawaedc">  -1393.39258355 </i>
    <i name="eentropy">     -0.00000000 </i>
    <i name="bandstr">   -218.32391781 </i>
    <i name="atom">   1727.95004229 </i>
    <i name="e_fr_energy">    179.67251342 </i>
    <i name="e_wo_entrp">    179.67251342 </i>
    <i name="e_0_energy">    179.67251342 </i>
   </energy>
  </scstep>
  <scstep>
   <time name="dav">   14.68    6.92</time>
   <time name="total">   14.68    6.92</time>
   <energy>
    <i name="e_fr_energy">     38.24958033 </i>
    <i name="e_wo_entrp">     38.24958033 </i>
    <i name="e_0_energy">     38.24958033 </i>
   </energy>
  </scstep>
  <scstep>
   <time name="dav">   16.07    7.70</time>
   <time name="total">   16.07    7.70</time>
   <energy>
    <i name="e_fr_energy">    -13.34990769 </i>
    <i name="e_wo_entrp">    -13.34990769 </i>
    <i name="e_0_energy">    -13.34990769 </i>
   </energy>
  </scstep>
  <scstep>
   <time name="dav">   13.45    6.80</time>
   <time name="total">   13.45    6.80</time>
   <energy>
    <i name="e_fr_energy">    -15.76957797 </i>
    <i name="e_wo_entrp">    -15.76957797 </i>
    <i name="e_0_energy">    -15.76957797 </i>
   </energy>
  </scstep>
  <scstep>
   <time name="dav">   13.61    6.89</time>
   <time name="total">   15.37    7.72</time>
   <energy>
    <i name="e_fr_energy">    -15.81865015 </i>
    <i name="e_wo_entrp">    -15.81865015 </i>
    <i name="e_0_energy">    -15.81865015 </i>
   </energy>
  </scstep>
  <scstep>
   <time name="dav">   10.38    5.30</time>
   <time name="total">   15.67    8.00</time>
   <energy>
    <i name="e_fr_energy">    -15.18603063 </i>
    <i name="e_wo_entrp">    -15.18603063 </i>
    <i name="e_0_energy">    -15.18603063 </i>
   </energy>
  </scstep>
  <scstep>
   <time name="dav">   10.13    5.03</time>
   <time name="total">   16.23    8.05</time>
   <energy>
    <i name="e_fr_energy">    -15.15486674 </i>
    <i name="e_wo_entrp">    -15.15486674 </i>
    <i name="e_0_energy">    -15.15486674 </i>
   </energy>
  </scstep>
  <scstep>
   <time name="dav">    9.98    4.92</time>
   <time name="total">   14.99    7.76</time>
   <energy>
    <i name="e_fr_energy">    -15.13317703 </i>
    <i name="e_wo_entrp">    -15.13317703 </i>
    <i name="e_0_energy">    -15.13317703 </i>
   </energy>
  </scstep>
  <scstep>
   <time name="dav">   12.91    6.66</time>
   <time name="total">   18.46    9.34</time>
   <energy>
    <i name="e_fr_energy">    -15.13459474 </i>
    <i name="e_wo_entrp">    -15.13459474 </i>
    <i name="e_0_energy">    -15.13459474 </i>
   </energy>
  </scstep>
  <scstep>
   <time name="dav">   11.78    5.83</time>
   <time name="total">   17.28    8.57</time>
   <energy>
    <i name="e_fr_energy">    -15.13547915 </i>
    <i name="e_wo_entrp">    -15.13547915 </i>
    <i name="e_0_energy">    -15.13547915 </i>
   </energy>
  </scstep>
  <scstep>
   <time name="dav">   12.01    6.09</time>
   <time name="total">   17.58    8.81</time>
   <energy>
    <i name="e_fr_energy">    -15.13626222 </i>
    <i name="e_wo_entrp">    -15.13626222 </i>
    <i name="e_0_energy">    -15.13626222 </i>
   </energy>
  </scstep>
  <scstep>
   <time name="dav">   13.85    6.73</time>
   <time name="total">   18.97    9.38</time>
   <energy>
    <i name="e_fr_energy">    -15.13703291 </i>
    <i name="e_wo_entrp">    -15.13703291 </i>
    <i name="e_0_energy">    -15.13703291 </i>
   </energy>
  </scstep>
  <scstep>
   <time name="dav">   13.79    6.85</time>
   <time name="total">   19.29    9.66</time>
   <energy>
    <i name="e_fr_energy">    -15.13737706 </i>
    <i name="e_wo_entrp">    -15.13737706 </i>
    <i name="e_0_energy">    -15.13737706 </i>
   </energy>
  </scstep>
  <scstep>
   <time name="dav">   12.65    5.95</time>
   <time name="total">   17.58    8.68</time>
   <energy>
    <i name="e_fr_energy">    -15.13751830 </i>
    <i name="e_wo_entrp">    -15.13751830 </i>
    <i name="e_0_energy">    -15.13751830 </i>
   </energy>
  </scstep>
  <scstep>
   <time name="dav">   12.18    5.91</time>
   <time name="total">   17.86    8.74</time>
   <energy>
    <i name="e_fr_energy">    -15.13766816 </i>
    <i name="e_wo_entrp">    -15.13766816 </i>
    <i name="e_0_energy">    -15.13766816 </i>
   </energy>
  </scstep>
  <scstep>
   <time name="dav">   13.44    6.66</time>
   <time name="total">   19.43    9.51</time>
   <energy>
    <i name="e_fr_energy">    -15.13770016 </i>
    <i name="e_wo_entrp">    -15.13770016 </i>
    <i name="e_0_energy">    -15.13770016 </i>
   </energy>
  </scstep>
  <scstep>
   <time name="dav">   10.97    5.44</time>
   <time name="total">   16.37    8.18</time>
   <energy>
    <i name="e_fr_energy">    -15.13772462 </i>
    <i name="e_wo_entrp">    -15.13772462 </i>
    <i name="e_0_energy">    -15.13772462 </i>
   </energy>
  </scstep>
  <scstep>
   <time name="dav">   12.47    6.53</time>
   <time name="total">   17.83    9.35</time>
   <energy>
    <i name="e_fr_energy">    -15.13773866 </i>
    <i name="e_wo_entrp">    -15.13773866 </i>
    <i name="e_0_energy">    -15.13773866 </i>
   </energy>
  </scstep>
  <scstep>
   <time name="dav">   11.62    5.55</time>
   <time name="total">   17.39    8.35</time>
   <energy>
    <i name="e_fr_energy">    -15.13774571 </i>
    <i name="e_wo_entrp">    -15.13774571 </i>
    <i name="e_0_energy">    -15.13774571 </i>
   </energy>
  </scstep>
  <scstep>
   <time name="dav">    9.10    4.49</time>
   <time name="total">   14.65    7.32</time>
   <energy>
    <i name="e_fr_energy">    -15.13774968 </i>
    <i name="e_wo_entrp">    -15.13774968 </i>
    <i name="e_0_energy">    -15.13774968 </i>
   </energy>
  </scstep>
  <scstep>
   <time name="dav">    9.96    4.85</time>
   <time name="total">   15.22    7.59</time>
   <energy>
    <i name="e_fr_energy">    -15.13775082 </i>
    <i name="e_wo_entrp">    -15.13775082 </i>
    <i name="e_0_energy">    -15.13775082 </i>
   </energy>
  </scstep>
  <scstep>
   <time name="dav">    9.57    4.63</time>
   <time name="total">   15.74    7.68</time>
   <energy>
    <i name="e_fr_energy">    -15.13775112 </i>
    <i name="e_wo_entrp">    -15.13775112 </i>
    <i name="e_0_energy">    -15.13775112 </i>
   </energy>
  </scstep>
  <scstep>
   <time name="dav">    9.11    4.65</time>
   <time name="total">   14.41    7.41</time>
   <energy>
    <i name="e_fr_energy">    -15.13775133 </i>
    <i name="e_wo_entrp">    -15.13775133 </i>
    <i name="e_0_energy">    -15.13775133 </i>
   </energy>
  </scstep>
  <scstep>
   <time name="dav">    9.94    4.65</time>
   <time name="total">   15.50    7.58</time>
   <energy>
    <i name="e_fr_energy">    -15.13775143 </i>
    <i name="e_wo_entrp">    -15.13775143 </i>
    <i name="e_0_energy">    -15.13775143 </i>
   </energy>
  </scstep>
  <scstep>
   <time name="dav">    9.59    4.66</time>
   <time name="total">   13.39    6.67</time>
   <energy>
    <i name="alphaZ">      0.35861207 </i>
    <i name="ewald">   1282.47567787 </i>
    <i name="hartreedc">  -2733.93483347 </i>
    <i name="XCdc">    106.35231662 </i>
    <i name="pawpsdc">   6931.34031459 </i>
    <i name="pawaedc">  -6928.50971164 </i>
    <i name="eentropy">     -0.00000000 </i>
    <i name="bandstr">   -401.17016980 </i>
    <i name="atom">   1727.95004229 </i>
    <i name="e_fr_energy">    -15.13775147 </i>
    <i name="e_wo_entrp">    -15.13775147 </i>
    <i name="e_0_energy">    -15.13775147 </i>
   </energy>
  </scstep>
  <structure>
   <crystal>
    <varray name="basis" >
     <v>      14.50000000       0.00000000       0.00000000 </v>
     <v>       0.00000000      14.50000000       0.00000000 </v>
     <v>       0.00000000       0.00000000      14.50000000 </v>
    </varray>
    <i name="volume">   3048.62500000 </i>
    <varray name="rec_basis" >
     <v>       0.06896552       0.00000000       0.00000000 </v>
     <v>       0.00000000       0.06896552       0.00000000 </v>
     <v>       0.00000000       0.00000000       0.06896552 </v>
    </varray>
   </crystal>
   <varray name="positions" >
    <v>       0.00000000       0.00000000       0.00000000 </v>
    <v>       0.08324138       0.00000000       0.00000000 </v>
    <v>       0.00000000       0.00000000       0.10344828 </v>
    <v>       0.08324138       0.00000000       0.10344828 </v>
   </varray>
  </structure>
  <varray name="forces" >
   <v>      -3.45329098      -0.00000000     -11.02236850 </v>
   <v>       3.45329098       0.00000000     -11.02236850 </v>
   <v>      -3.45329098       0.00000000      11.02236850 </v>
   <v>       3.45329098       0.00000000      11.02236850 </v>
  </varray>
  <varray name="stress" >
   <v>      -3.89593745       0.00000000      -0.00000000 </v>
   <v>       0.00000000      -7.45029425       0.00000000 </v>
   <v>       0.00000000       0.00000000      10.03045865 </v>
  </varray>
  <energy>
   <i name="e_fr_energy">    -15.17289603 </i>
   <i name="e_wo_entrp">    -15.17289603 </i>
   <i name="e_0_energy">    -15.17289603 </i>
  </energy>
  <time name="totalsc">  425.57  212.44</time>
  <eigenvalues>
   <array>
    <dimension dim="1">band</dimension>
    <dimension dim="2">kpoint</dimension>
    <dimension dim="3">spin</dimension>
    <field>eigene</field>
    <field>occ</field>
    <set>
     <set comment="spin 1">
      <set comment="kpoint 1">
       <r>  -35.9763    1.0000 </r>
       <r>  -30.9209    1.0000 </r>
       <r>  -23.5451    1.0000 </r>
       <r>  -17.7322    1.0000 </r>
       <r>  -17.1062    1.0000 </r>
       <r>  -14.8942    1.0000 </r>
       <r>  -14.4562    1.0000 </r>
       <r>  -12.0004    1.0000 </r>
       <r>  -11.3547    1.0000 </r>
       <r>   -9.0374    1.0000 </r>
       <r>   -7.5905    1.0000 </r>
       <r>   -5.9708    1.0000 </r>
       <r>   -4.5563    0.0000 </r>
       <r>   -0.2547    0.0000 </r>
       <r>   -0.0307    0.0000 </r>
       <r>    0.2498    0.0000 </r>
       <r>    0.3868    0.0000 </r>
       <r>    0.4591    0.0000 </r>
      </set>
     </set>
    </set>
   </array>
  </eigenvalues>
  <separator name="orbital magnetization" >
   <v name="MAGDIPOLOUT">      0.00000000      0.00000000      0.00000000</v>
  </separator>
  <dos>
   <i name="efermi">     -5.71819270 </i>
   <total>
    <array>
     <dimension dim="1">gridpoints</dimension>
     <dimension dim="2">spin</dimension>
     <field>energy</field>
     <field>total</field>
     <field>integrated</field>
     <set>
      <set comment="spin 1">
       <r>   -37.7981     0.0000     0.0000 </r>
       <r>   -37.6645     0.0000     0.0000 </r>
       <r>   -37.5309     0.0000     0.0000 </r>
       <r>   -37.3973     0.0000     0.0000 </r>
       <r>   -37.2637     0.0000     0.0000 </r>
       <r>   -37.1301     0.0000     0.0000 </r>
       <r>   -36.9965     0.0000     0.0000 </r>
       <r>   -36.8629     0.0000     0.0000 </r>
       <r>   -36.7293     0.0000     0.0000 </r>
       <r>   -36.5957     0.0000     0.0000 </r>
       <r>   -36.4621     0.0000     0.0000 </r>
       <r>   -36.3286     0.0000     0.0000 </r>
       <r>   -36.1950     0.0000     0.0000 </r>
       <r>   -36.0614     0.1212     0.0162 </r>
       <r>   -35.9278    13.5811     1.8306 </r>
       <r>   -35.7942     1.2681     2.0000 </r>
       <r>   -35.6606     0.0000     2.0000 </r>
       <r>   -35.5270     0.0000     2.0000 </r>
       <r>   -35.3934     0.0000     2.0000 </r>
       <r>   -35.2598     0.0000     2.0000 </r>
       <r>   -35.1262     0.0000     2.0000 </r>
       <r>   -34.9926     0.0000     2.0000 </r>
       <r>   -34.8590     0.0000     2.0000 </r>
       <r>   -34.7254     0.0000     2.0000 </r>
       <r>   -34.5918     0.0000     2.0000 </r>
       <r>   -34.4582     0.0000     2.0000 </r>
       <r>   -34.3246     0.0000     2.0000 </r>
       <r>   -34.1910     0.0000     2.0000 </r>
       <r>   -34.0574     0.0000     2.0000 </r>
       <r>   -33.9238     0.0000     2.0000 </r>
       <r>   -33.7902     0.0000     2.0000 </r>
       <r>   -33.6566     0.0000     2.0000 </r>
       <r>   -33.5230     0.0000     2.0000 </r>
       <r>   -33.3894     0.0000     2.0000 </r>
       <r>   -33.2558     0.0000     2.0000 </r>
       <r>   -33.1222     0.0000     2.0000 </r>
       <r>   -32.9886     0.0000     2.0000 </r>
       <r>   -32.8550     0.0000     2.0000 </r>
       <r>   -32.7214     0.0000     2.0000 </r>
       <r>   -32.5878     0.0000     2.0000 </r>
       <r>   -32.4542     0.0000     2.0000 </r>
       <r>   -32.3206     0.0000     2.0000 </r>
       <r>   -32.1871     0.0000     2.0000 </r>
       <r>   -32.0535     0.0000     2.0000 </r>
       <r>   -31.9199     0.0000     2.0000 </r>
       <r>   -31.7863     0.0000     2.0000 </r>
       <r>   -31.6527     0.0000     2.0000 </r>
       <r>   -31.5191     0.0000     2.0000 </r>
       <r>   -31.3855     0.0000     2.0000 </r>
       <r>   -31.2519     0.0000     2.0000 </r>
       <r>   -31.1183     0.0000     2.0000 </r>
       <r>   -30.9847     0.5322     2.0711 </r>
       <r>   -30.8511    14.0759     3.9516 </r>
       <r>   -30.7175     0.3622     4.0000 </r>
       <r>   -30.5839     0.0000     4.0000 </r>
       <r>   -30.4503     0.0000     4.0000 </r>
       <r>   -30.3167     0.0000     4.0000 </r>
       <r>   -30.1831     0.0000     4.0000 </r>
       <r>   -30.0495     0.0000     4.0000 </r>
       <r>   -29.9159     0.0000     4.0000 </r>
       <r>   -29.7823     0.0000     4.0000 </r>
       <r>   -29.6487     0.0000     4.0000 </r>
       <r>   -29.5151     0.0000     4.0000 </r>
       <r>   -29.3815     0.0000     4.0000 </r>
       <r>   -29.2479     0.0000     4.0000 </r>
       <r>   -29.1143     0.0000     4.0000 </r>
       <r>   -28.9807     0.0000     4.0000 </r>
       <r>   -28.8471     0.0000     4.0000 </r>
       <r>   -28.7135     0.0000     4.0000 </r>
       <r>   -28.5799     0.0000     4.0000 </r>
       <r>   -28.4463     0.0000     4.0000 </r>
       <r>   -28.3127     0.0000     4.0000 </r>
       <r>   -28.1791     0.0000     4.0000 </r>
       <r>   -28.0456     0.0000     4.0000 </r>
       <r>   -27.9120     0.0000     4.0000 </r>
       <r>   -27.7784     0.0000     4.0000 </r>
       <r>   -27.6448     0.0000     4.0000 </r>
       <r>   -27.5112     0.0000     4.0000 </r>
       <r>   -27.3776     0.0000     4.0000 </r>
       <r>   -27.2440     0.0000     4.0000 </r>
       <r>   -27.1104     0.0000     4.0000 </r>
       <r>   -26.9768     0.0000     4.0000 </r>
       <r>   -26.8432     0.0000     4.0000 </r>
       <r>   -26.7096     0.0000     4.0000 </r>
       <r>   -26.5760     0.0000     4.0000 </r>
       <r>   -26.4424     0.0000     4.0000 </r>
       <r>   -26.3088     0.0000     4.0000 </r>
       <r>   -26.1752     0.0000     4.0000 </r>
       <r>   -26.0416     0.0000     4.0000 </r>
       <r>   -25.9080     0.0000     4.0000 </r>
       <r>   -25.7744     0.0000     4.0000 </r>
       <r>   -25.6408     0.0000     4.0000 </r>
       <r>   -25.5072     0.0000     4.0000 </r>
       <r>   -25.3736     0.0000     4.0000 </r>
       <r>   -25.2400     0.0000     4.0000 </r>
       <r>   -25.1064     0.0000     4.0000 </r>
       <r>   -24.9728     0.0000     4.0000 </r>
       <r>   -24.8392     0.0000     4.0000 </r>
       <r>   -24.7056     0.0000     4.0000 </r>
       <r>   -24.5720     0.0000     4.0000 </r>
       <r>   -24.4384     0.0000     4.0000 </r>
       <r>   -24.3048     0.0000     4.0000 </r>
       <r>   -24.1712     0.0000     4.0000 </r>
       <r>   -24.0376     0.0000     4.0000 </r>
       <r>   -23.9041     0.0000     4.0000 </r>
       <r>   -23.7705     0.0000     4.0000 </r>
       <r>   -23.6369     0.0705     4.0094 </r>
       <r>   -23.5033    13.1253     5.7629 </r>
       <r>   -23.3697     1.7746     6.0000 </r>
       <r>   -23.2361     0.0000     6.0000 </r>
       <r>   -23.1025     0.0000     6.0000 </r>
       <r>   -22.9689     0.0000     6.0000 </r>
       <r>   -22.8353     0.0000     6.0000 </r>
       <r>   -22.7017     0.0000     6.0000 </r>
       <r>   -22.5681     0.0000     6.0000 </r>
       <r>   -22.4345     0.0000     6.0000 </r>
       <r>   -22.3009     0.0000     6.0000 </r>
       <r>   -22.1673     0.0000     6.0000 </r>
       <r>   -22.0337     0.0000     6.0000 </r>
       <r>   -21.9001     0.0000     6.0000 </r>
       <r>   -21.7665     0.0000     6.0000 </r>
       <r>   -21.6329     0.0000     6.0000 </r>
       <r>   -21.4993     0.0000     6.0000 </r>
       <r>   -21.3657     0.0000     6.0000 </r>
       <r>   -21.2321     0.0000     6.0000 </r>
       <r>   -21.0985     0.0000     6.0000 </r>
       <r>   -20.9649     0.0000     6.0000 </r>
       <r>   -20.8313     0.0000     6.0000 </r>
       <r>   -20.6977     0.0000     6.0000 </r>
       <r>   -20.5641     0.0000     6.0000 </r>
       <r>   -20.4305     0.0000     6.0000 </r>
       <r>   -20.2969     0.0000     6.0000 </r>
       <r>   -20.1633     0.0000     6.0000 </r>
       <r>   -20.0297     0.0000     6.0000 </r>
       <r>   -19.8961     0.0000     6.0000 </r>
       <r>   -19.7626     0.0000     6.0000 </r>
       <r>   -19.6290     0.0000     6.0000 </r>
       <r>   -19.4954     0.0000     6.0000 </r>
       <r>   -19.3618     0.0000     6.0000 </r>
       <r>   -19.2282     0.0000     6.0000 </r>
       <r>   -19.0946     0.0000     6.0000 </r>
       <r>   -18.9610     0.0000     6.0000 </r>
       <r>   -18.8274     0.0000     6.0000 </r>
       <r>   -18.6938     0.0000     6.0000 </r>
       <r>   -18.5602     0.0000     6.0000 </r>
       <r>   -18.4266     0.0000     6.0000 </r>
       <r>   -18.2930     0.0000     6.0000 </r>
       <r>   -18.1594     0.0000     6.0000 </r>
       <r>   -18.0258     0.0000     6.0000 </r>
       <r>   -17.8922     0.0000     6.0000 </r>
       <r>   -17.7586     3.4123     6.4559 </r>
       <r>   -17.6250    11.5399     7.9976 </r>
       <r>   -17.4914     0.0181     8.0000 </r>
       <r>   -17.3578     0.0000     8.0000 </r>
       <r>   -17.2242     0.0063     8.0008 </r>
       <r>   -17.0906    10.0331     9.3412 </r>
       <r>   -16.9570     4.9308    10.0000 </r>
       <r>   -16.8234     0.0002    10.0000 </r>
       <r>   -16.6898     0.0000    10.0000 </r>
       <r>   -16.5562     0.0000    10.0000 </r>
       <r>   -16.4226     0.0000    10.0000 </r>
       <r>   -16.2890     0.0000    10.0000 </r>
       <r>   -16.1554     0.0000    10.0000 </r>
       <r>   -16.0218     0.0000    10.0000 </r>
       <r>   -15.8882     0.0000    10.0000 </r>
       <r>   -15.7546     0.0000    10.0000 </r>
       <r>   -15.6211     0.0000    10.0000 </r>
       <r>   -15.4875     0.0000    10.0000 </r>
       <r>   -15.3539     0.0000    10.0000 </r>
       <r>   -15.2203     0.0000    10.0000 </r>
       <r>   -15.0867     0.0000    10.0000 </r>
       <r>   -14.9531     0.7185    10.0960 </r>
       <r>   -14.8195    13.9936    11.9655 </r>
       <r>   -14.6859     0.2583    12.0000 </r>
       <r>   -14.5523     0.0494    12.0066 </r>
       <r>   -14.4187    12.7640    13.7118 </r>
       <r>   -14.2851     2.1570    14.0000 </r>
       <r>   -14.1515     0.0000    14.0000 </r>
       <r>   -14.0179     0.0000    14.0000 </r>
       <r>   -13.8843     0.0000    14.0000 </r>
       <r>   -13.7507     0.0000    14.0000 </r>
       <r>   -13.6171     0.0000    14.0000 </r>
       <r>   -13.4835     0.0000    14.0000 </r>
       <r>   -13.3499     0.0000    14.0000 </r>
       <r>   -13.2163     0.0000    14.0000 </r>
       <r>   -13.0827     0.0000    14.0000 </r>
       <r>   -12.9491     0.0000    14.0000 </r>
       <r>   -12.8155     0.0000    14.0000 </r>
       <r>   -12.6819     0.0000    14.0000 </r>
       <r>   -12.5483     0.0000    14.0000 </r>
       <r>   -12.4147     0.0000    14.0000 </r>
       <r>   -12.2811     0.0000    14.0000 </r>
       <r>   -12.1475     0.0002    14.0000 </r>
       <r>   -12.0139     5.2586    14.7026 </r>
       <r>   -11.8803     9.7065    15.9993 </r>
       <r>   -11.7467     0.0051    16.0000 </r>
       <r>   -11.6131     0.0000    16.0000 </r>
       <r>   -11.4796     0.0031    16.0004 </r>
       <r>   -11.3460     8.9447    17.1954 </r>
       <r>   -11.2124     6.0222    17.9999 </r>
       <r>   -11.0788     0.0004    18.0000 </r>
       <r>   -10.9452     0.0000    18.0000 </r>
       <r>   -10.8116     0.0000    18.0000 </r>
       <r>   -10.6780     0.0000    18.0000 </r>
       <r>   -10.5444     0.0000    18.0000 </r>
       <r>   -10.4108     0.0000    18.0000 </r>
       <r>   -10.2772     0.0000    18.0000 </r>
       <r>   -10.1436     0.0000    18.0000 </r>
       <r>   -10.0100     0.0000    18.0000 </r>
       <r>    -9.8764     0.0000    18.0000 </r>
       <r>    -9.7428     0.0000    18.0000 </r>
       <r>    -9.6092     0.0000    18.0000 </r>
       <r>    -9.4756     0.0000    18.0000 </r>
       <r>    -9.3420     0.0000    18.0000 </r>
       <r>    -9.2084     0.0000    18.0000 </r>
       <r>    -9.0748     2.1715    18.2901 </r>
       <r>    -8.9412    12.7501    19.9935 </r>
       <r>    -8.8076     0.0487    20.0000 </r>
       <r>    -8.6740     0.0000    20.0000 </r>
       <r>    -8.5404     0.0000    20.0000 </r>
       <r>    -8.4068     0.0000    20.0000 </r>
       <r>    -8.2732     0.0000    20.0000 </r>
       <r>    -8.1396     0.0000    20.0000 </r>
       <r>    -8.0060     0.0000    20.0000 </r>
       <r>    -7.8724     0.0000    20.0000 </r>
       <r>    -7.7388     0.0002    20.0000 </r>
       <r>    -7.6052     5.0678    20.6771 </r>
       <r>    -7.4717     9.8966    21.9992 </r>
       <r>    -7.3381     0.0058    22.0000 </r>
       <r>    -7.2045     0.0000    22.0000 </r>
       <r>    -7.0709     0.0000    22.0000 </r>
       <r>    -6.9373     0.0000    22.0000 </r>
       <r>    -6.8037     0.0000    22.0000 </r>
       <r>    -6.6701     0.0000    22.0000 </r>
       <r>    -6.5365     0.0000    22.0000 </r>
       <r>    -6.4029     0.0000    22.0000 </r>
       <r>    -6.2693     0.0000    22.0000 </r>
       <r>    -6.1357     0.0000    22.0000 </r>
       <r>    -6.0021     2.8178    22.3765 </r>
       <r>    -5.8685    12.1241    23.9962 </r>
       <r>    -5.7349     0.0284    24.0000 </r>
       <r>    -5.6013     0.0000    24.0000 </r>
       <r>    -5.4677     0.0000    24.0000 </r>
       <r>    -5.3341     0.0000    24.0000 </r>
       <r>    -5.2005     0.0000    24.0000 </r>
       <r>    -5.0669     0.0000    24.0000 </r>
       <r>    -4.9333     0.0000    24.0000 </r>
       <r>    -4.7997     0.0000    24.0000 </r>
       <r>    -4.6661     0.0142    24.0019 </r>
       <r>    -4.5325    11.2046    25.4988 </r>
       <r>    -4.3989     3.7516    26.0000 </r>
       <r>    -4.2653     0.0001    26.0000 </r>
       <r>    -4.1317     0.0000    26.0000 </r>
       <r>    -3.9981     0.0000    26.0000 </r>
       <r>    -3.8645     0.0000    26.0000 </r>
       <r>    -3.7309     0.0000    26.0000 </r>
       <r>    -3.5973     0.0000    26.0000 </r>
       <r>    -3.4637     0.0000    26.0000 </r>
       <r>    -3.3302     0.0000    26.0000 </r>
       <r>    -3.1966     0.0000    26.0000 </r>
       <r>    -3.0630     0.0000    26.0000 </r>
       <r>    -2.9294     0.0000    26.0000 </r>
       <r>    -2.7958     0.0000    26.0000 </r>
       <r>    -2.6622     0.0000    26.0000 </r>
       <r>    -2.5286     0.0000    26.0000 </r>
       <r>    -2.3950     0.0000    26.0000 </r>
       <r>    -2.2614     0.0000    26.0000 </r>
       <r>    -2.1278     0.0000    26.0000 </r>
       <r>    -1.9942     0.0000    26.0000 </r>
       <r>    -1.8606     0.0000    26.0000 </r>
       <r>    -1.7270     0.0000    26.0000 </r>
       <r>    -1.5934     0.0000    26.0000 </r>
       <r>    -1.4598     0.0000    26.0000 </r>
       <r>    -1.3262     0.0000    26.0000 </r>
       <r>    -1.1926     0.0000    26.0000 </r>
       <r>    -1.0590     0.0000    26.0000 </r>
       <r>    -0.9254     0.0000    26.0000 </r>
       <r>    -0.7918     0.0000    26.0000 </r>
       <r>    -0.6582     0.0000    26.0000 </r>
       <r>    -0.5246     0.0000    26.0000 </r>
       <r>    -0.3910     0.0009    26.0001 </r>
       <r>    -0.2574     7.0162    26.9375 </r>
       <r>    -0.1238     8.0149    28.0082 </r>
       <r>     0.0098    13.0198    29.7476 </r>
       <r>     0.1434     1.9086    30.0026 </r>
       <r>     0.2770    11.6543    31.5596 </r>
       <r>     0.4106    15.7827    33.6681 </r>
       <r>     0.5442    17.3335    35.9838 </r>
       <r>     0.6778     0.1212    36.0000 </r>
       <r>     0.8113     0.0000    36.0000 </r>
       <r>     0.9449     0.0000    36.0000 </r>
       <r>     1.0785     0.0000    36.0000 </r>
       <r>     1.2121     0.0000    36.0000 </r>
       <r>     1.3457     0.0000    36.0000 </r>
       <r>     1.4793     0.0000    36.0000 </r>
       <r>     1.6129     0.0000    36.0000 </r>
       <r>     1.7465     0.0000    36.0000 </r>
       <r>     1.8801     0.0000    36.0000 </r>
       <r>     2.0137     0.0000    36.0000 </r>
       <r>     2.1473     0.0000    36.0000 </r>
       <r>     2.2809     0.0000    36.0000 </r>
      </set>
     </set>
    </array>
   </total>
  </dos>
 </calculation>
 <structure name="finalpos" >
  <crystal>
   <varray name="basis" >
    <v>      14.50000000       0.00000000       0.00000000 </v>
    <v>       0.00000000      14.50000000       0.00000000 </v>
    <v>       0.00000000       0.00000000      14.50000000 </v>
   </varray>
   <i name="volume">   3048.62500000 </i>
   <varray name="rec_basis" >
    <v>       0.06896552       0.00000000       0.00000000 </v>
    <v>       0.00000000       0.06896552       0.00000000 </v>
    <v>       0.00000000       0.00000000       0.06896552 </v>
   </varray>
  </crystal>
  <varray name="positions" >
   <v>       0.00000000       0.00000000       0.00000000 </v>
   <v>       0.08324138       0.00000000       0.00000000 </v>
   <v>       0.00000000       0.00000000       0.10344828 </v>
   <v>       0.08324138       0.00000000       0.10344828 </v>
  </varray>
 </structure>
</modeling>
