 254 254   0   0
  0.2268316E+02  0.1514622E-08  0.1514622E-08  0.2900000E-08  0.5000000E-15
   1.0000000000000000E-004
  CAR 
 NiAl                                    
      5.87376318    -22.96049148  301     -0.63614040      1.00000000
    -22.960  0.0000E+00  0.0000E+00
    -22.864  0.0000E+00  0.0000E+00
    -22.768  0.0000E+00  0.0000E+00
    -22.672  0.0000E+00  0.0000E+00
    -22.576  0.0000E+00  0.0000E+00
    -22.480  0.0000E+00  0.0000E+00
    -22.384  0.0000E+00  0.0000E+00
    -22.288  0.0000E+00  0.0000E+00
    -22.192  0.0000E+00  0.0000E+00
    -22.095  0.0000E+00  0.0000E+00
    -21.999  0.0000E+00  0.0000E+00
    -21.903  0.7718E-11  0.7418E-12
    -21.807  0.8810E-04  0.8468E-05
    -21.711  0.8617E+00  0.8283E-01
    -21.615  0.1656E+02  0.1675E+01
    -21.519  0.3380E+01  0.2000E+01
    -21.423  0.2221E-02  0.2000E+01
    -21.327  0.1409E-08  0.2000E+01
    -21.230  0.0000E+00  0.2000E+01
    -21.134  0.0000E+00  0.2000E+01
    -21.038  0.0000E+00  0.2000E+01
    -20.942  0.0000E+00  0.2000E+01
    -20.846  0.0000E+00  0.2000E+01
    -20.750  0.0000E+00  0.2000E+01
    -20.654  0.0000E+00  0.2000E+01
    -20.558  0.0000E+00  0.2000E+01
    -20.462  0.0000E+00  0.2000E+01
    -20.365  0.0000E+00  0.2000E+01
    -20.269  0.0000E+00  0.2000E+01
    -20.173  0.0000E+00  0.2000E+01
    -20.077  0.0000E+00  0.2000E+01
    -19.981  0.0000E+00  0.2000E+01
    -19.885  0.0000E+00  0.2000E+01
    -19.789  0.0000E+00  0.2000E+01
    -19.693  0.0000E+00  0.2000E+01
    -19.596  0.0000E+00  0.2000E+01
    -19.500  0.0000E+00  0.2000E+01
    -19.404  0.0000E+00  0.2000E+01
    -19.308  0.0000E+00  0.2000E+01
    -19.212  0.0000E+00  0.2000E+01
    -19.116  0.0000E+00  0.2000E+01
    -19.020  0.0000E+00  0.2000E+01
    -18.924  0.0000E+00  0.2000E+01
    -18.828  0.0000E+00  0.2000E+01
    -18.731  0.0000E+00  0.2000E+01
    -18.635  0.0000E+00  0.2000E+01
    -18.539  0.0000E+00  0.2000E+01
    -18.443  0.0000E+00  0.2000E+01
    -18.347  0.0000E+00  0.2000E+01
    -18.251  0.0000E+00  0.2000E+01
    -18.155  0.0000E+00  0.2000E+01
    -18.059  0.0000E+00  0.2000E+01
    -17.963  0.0000E+00  0.2000E+01
    -17.866  0.0000E+00  0.2000E+01
    -17.770  0.0000E+00  0.2000E+01
    -17.674  0.0000E+00  0.2000E+01
    -17.578  0.0000E+00  0.2000E+01
    -17.482  0.0000E+00  0.2000E+01
    -17.386  0.0000E+00  0.2000E+01
    -17.290  0.0000E+00  0.2000E+01
    -17.194  0.0000E+00  0.2000E+01
    -17.098  0.0000E+00  0.2000E+01
    -17.001  0.0000E+00  0.2000E+01
    -16.905  0.0000E+00  0.2000E+01
    -16.809  0.0000E+00  0.2000E+01
    -16.713  0.0000E+00  0.2000E+01
    -16.617  0.0000E+00  0.2000E+01
    -16.521  0.0000E+00  0.2000E+01
    -16.425  0.0000E+00  0.2000E+01
    -16.329  0.0000E+00  0.2000E+01
    -16.232  0.0000E+00  0.2000E+01
    -16.136  0.0000E+00  0.2000E+01
    -16.040  0.0000E+00  0.2000E+01
    -15.944  0.0000E+00  0.2000E+01
    -15.848  0.0000E+00  0.2000E+01
    -15.752  0.0000E+00  0.2000E+01
    -15.656  0.0000E+00  0.2000E+01
    -15.560  0.0000E+00  0.2000E+01
    -15.464  0.0000E+00  0.2000E+01
    -15.367  0.0000E+00  0.2000E+01
    -15.271  0.0000E+00  0.2000E+01
    -15.175  0.9897E-11  0.2000E+01
    -15.079  0.1032E-03  0.2000E+01
    -14.983  0.9266E+00  0.2089E+01
    -14.887  0.1667E+02  0.3691E+01
    -14.791  0.3209E+01  0.4000E+01
    -14.695  0.1940E-02  0.4000E+01
    -14.599  0.1124E-08  0.4000E+01
    -14.502  0.0000E+00  0.4000E+01
    -14.406  0.0000E+00  0.4000E+01
    -14.310  0.0000E+00  0.4000E+01
    -14.214  0.0000E+00  0.4000E+01
    -14.118  0.0000E+00  0.4000E+01
    -14.022  0.0000E+00  0.4000E+01
    -13.926  0.0000E+00  0.4000E+01
    -13.830  0.0000E+00  0.4000E+01
    -13.734  0.0000E+00  0.4000E+01
    -13.637  0.0000E+00  0.4000E+01
    -13.541  0.0000E+00  0.4000E+01
    -13.445  0.0000E+00  0.4000E+01
    -13.349  0.0000E+00  0.4000E+01
    -13.253  0.0000E+00  0.4000E+01
    -13.157  0.0000E+00  0.4000E+01
    -13.061  0.0000E+00  0.4000E+01
    -12.965  0.0000E+00  0.4000E+01
    -12.869  0.0000E+00  0.4000E+01
    -12.772  0.0000E+00  0.4000E+01
    -12.676  0.0000E+00  0.4000E+01
    -12.580  0.0000E+00  0.4000E+01
    -12.484  0.0000E+00  0.4000E+01
    -12.388  0.0000E+00  0.4000E+01
    -12.292  0.0000E+00  0.4000E+01
    -12.196  0.0000E+00  0.4000E+01
    -12.100  0.0000E+00  0.4000E+01
    -12.003  0.0000E+00  0.4000E+01
    -11.907  0.0000E+00  0.4000E+01
    -11.811  0.0000E+00  0.4000E+01
    -11.715  0.0000E+00  0.4000E+01
    -11.619  0.0000E+00  0.4000E+01
    -11.523  0.0000E+00  0.4000E+01
    -11.427  0.0000E+00  0.4000E+01
    -11.331  0.0000E+00  0.4000E+01
    -11.235  0.0000E+00  0.4000E+01
    -11.138  0.0000E+00  0.4000E+01
    -11.042  0.0000E+00  0.4000E+01
    -10.946  0.0000E+00  0.4000E+01
    -10.850  0.0000E+00  0.4000E+01
    -10.754  0.0000E+00  0.4000E+01
    -10.658  0.0000E+00  0.4000E+01
    -10.562  0.0000E+00  0.4000E+01
    -10.466  0.0000E+00  0.4000E+01
    -10.370  0.0000E+00  0.4000E+01
    -10.273  0.0000E+00  0.4000E+01
    -10.177  0.0000E+00  0.4000E+01
    -10.081  0.0000E+00  0.4000E+01
     -9.985  0.0000E+00  0.4000E+01
     -9.889  0.0000E+00  0.4000E+01
     -9.793  0.0000E+00  0.4000E+01
     -9.697  0.0000E+00  0.4000E+01
     -9.601  0.0000E+00  0.4000E+01
     -9.505  0.0000E+00  0.4000E+01
     -9.408  0.4430E-08  0.4000E+01
     -9.312  0.2467E-02  0.4000E+01
     -9.216  0.1447E+01  0.4139E+01
     -9.120  0.3667E+01  0.4492E+01
     -9.024  0.1454E+01  0.4632E+01
     -8.928  0.2497E+02  0.7032E+01
     -8.832  0.4868E+01  0.7500E+01
     -8.736  0.1284E+00  0.7512E+01
     -8.639  0.3890E+01  0.7886E+01
     -8.543  0.6432E+01  0.8504E+01
     -8.447  0.3738E+02  0.1210E+02
     -8.351  0.2072E+02  0.1409E+02
     -8.255  0.2473E+02  0.1647E+02
     -8.159  0.5554E+01  0.1700E+02
     -8.063  0.9208E+00  0.1709E+02
     -7.967  0.2394E+02  0.1939E+02
     -7.871  0.7413E+01  0.2010E+02
     -7.774  0.2201E+02  0.2222E+02
     -7.678  0.2443E+02  0.2457E+02
     -7.582  0.7495E+02  0.3177E+02
     -7.486  0.7598E+01  0.3250E+02
     -7.390  0.3694E-02  0.3250E+02
     -7.294  0.2184E+01  0.3271E+02
     -7.198  0.4964E+02  0.3748E+02
     -7.102  0.7008E+02  0.4422E+02
     -7.006  0.1423E+02  0.4558E+02
     -6.909  0.1966E+02  0.4747E+02
     -6.813  0.8747E+01  0.4832E+02
     -6.717  0.2773E+02  0.5098E+02
     -6.621  0.3243E+02  0.5410E+02
     -6.525  0.3700E+02  0.5765E+02
     -6.429  0.7556E+02  0.6492E+02
     -6.333  0.4204E+02  0.6896E+02
     -6.237  0.1738E+02  0.7063E+02
     -6.141  0.4935E+02  0.7537E+02
     -6.044  0.9224E+02  0.8424E+02
     -5.948  0.6446E+02  0.9043E+02
     -5.852  0.1611E+02  0.9198E+02
     -5.756  0.4713E+01  0.9243E+02
     -5.660  0.2491E+02  0.9483E+02
     -5.564  0.6318E+02  0.1009E+03
     -5.468  0.1583E+03  0.1161E+03
     -5.372  0.4785E+02  0.1207E+03
     -5.275  0.6589E+02  0.1270E+03
     -5.179  0.1167E+03  0.1383E+03
     -5.083  0.1012E+03  0.1480E+03
     -4.987  0.5705E+02  0.1535E+03
     -4.891  0.5711E+02  0.1590E+03
     -4.795  0.2631E+03  0.1842E+03
     -4.699  0.1561E+03  0.1992E+03
     -4.603  0.2263E+03  0.2210E+03
     -4.507  0.2269E+03  0.2428E+03
     -4.410  0.3141E+03  0.2730E+03
     -4.314  0.2536E+03  0.2974E+03
     -4.218  0.2899E+03  0.3252E+03
     -4.122  0.1827E+03  0.3428E+03
     -4.026  0.4384E+03  0.3849E+03
     -3.930  0.4437E+03  0.4276E+03
     -3.834  0.5094E+03  0.4765E+03
     -3.738  0.4119E+03  0.5161E+03
     -3.642  0.4681E+03  0.5611E+03
     -3.545  0.4001E+03  0.5996E+03
     -3.449  0.3552E+03  0.6337E+03
     -3.353  0.3363E+03  0.6660E+03
     -3.257  0.4528E+03  0.7096E+03
     -3.161  0.5202E+03  0.7595E+03
     -3.065  0.3698E+03  0.7951E+03
     -2.969  0.4623E+03  0.8395E+03
     -2.873  0.6096E+03  0.8981E+03
     -2.777  0.4835E+03  0.9446E+03
     -2.680  0.5601E+03  0.9984E+03
     -2.584  0.5442E+03  0.1051E+04
     -2.488  0.6961E+03  0.1118E+04
     -2.392  0.7356E+03  0.1188E+04
     -2.296  0.9215E+03  0.1277E+04
     -2.200  0.7997E+03  0.1354E+04
     -2.104  0.8742E+03  0.1438E+04
     -2.008  0.9148E+03  0.1526E+04
     -1.911  0.5854E+03  0.1582E+04
     -1.815  0.6105E+03  0.1641E+04
     -1.719  0.5450E+03  0.1693E+04
     -1.623  0.5284E+03  0.1744E+04
     -1.527  0.6251E+03  0.1804E+04
     -1.431  0.8375E+03  0.1884E+04
     -1.335  0.7038E+03  0.1952E+04
     -1.239  0.4718E+03  0.1997E+04
     -1.143  0.7671E+03  0.2071E+04
     -1.046  0.7553E+03  0.2144E+04
     -0.950  0.8770E+03  0.2228E+04
     -0.854  0.6292E+03  0.2288E+04
     -0.758  0.9132E+03  0.2376E+04
     -0.662  0.1266E+04  0.2498E+04
     -0.566  0.1098E+04  0.2603E+04
     -0.470  0.4918E+03  0.2651E+04
     -0.374  0.1827E+03  0.2668E+04
     -0.278  0.1208E+03  0.2680E+04
     -0.181  0.1582E+03  0.2695E+04
     -0.085  0.1688E+03  0.2711E+04
      0.011  0.8513E+02  0.2719E+04
      0.107  0.4524E+02  0.2724E+04
      0.203  0.4800E+02  0.2728E+04
      0.299  0.3834E+02  0.2732E+04
      0.395  0.1442E+03  0.2746E+04
      0.491  0.8349E+02  0.2754E+04
      0.587  0.9616E+02  0.2763E+04
      0.684  0.6755E+02  0.2770E+04
      0.780  0.1133E+03  0.2781E+04
      0.876  0.1450E+03  0.2795E+04
      0.972  0.7651E+02  0.2802E+04
      1.068  0.1356E+02  0.2803E+04
      1.164  0.6681E+02  0.2810E+04
      1.260  0.1307E+03  0.2822E+04
      1.356  0.1964E+02  0.2824E+04
      1.453  0.5382E+02  0.2829E+04
      1.549  0.1144E+03  0.2840E+04
      1.645  0.8900E+02  0.2849E+04
      1.741  0.7235E+02  0.2856E+04
      1.837  0.1022E+03  0.2866E+04
      1.933  0.7744E+02  0.2873E+04
      2.029  0.3408E+02  0.2876E+04
      2.125  0.8287E+02  0.2884E+04
      2.221  0.1380E+03  0.2898E+04
      2.318  0.7994E+02  0.2905E+04
      2.414  0.2451E+02  0.2908E+04
      2.510  0.6588E+02  0.2914E+04
      2.606  0.3362E+02  0.2917E+04
      2.702  0.1109E+02  0.2918E+04
      2.798  0.4371E+02  0.2922E+04
      2.894  0.8468E+02  0.2931E+04
      2.990  0.2230E+03  0.2952E+04
      3.086  0.1248E+03  0.2964E+04
      3.183  0.2096E+02  0.2966E+04
      3.279  0.2554E+02  0.2968E+04
      3.375  0.8490E+02  0.2977E+04
      3.471  0.7127E+02  0.2983E+04
      3.567  0.2307E+02  0.2986E+04
      3.663  0.9396E+02  0.2995E+04
      3.759  0.8669E+01  0.2996E+04
      3.855  0.2135E+02  0.2998E+04
      3.951  0.9935E+01  0.2999E+04
      4.048  0.4824E+02  0.3003E+04
      4.144  0.6415E+02  0.3009E+04
      4.240  0.3054E+02  0.3012E+04
      4.336  0.7333E+02  0.3019E+04
      4.432  0.6032E+02  0.3025E+04
      4.528  0.7505E+02  0.3032E+04
      4.624  0.5796E+02  0.3038E+04
      4.720  0.8570E+00  0.3038E+04
      4.817  0.4828E-04  0.3038E+04
      4.913  0.3664E-11  0.3038E+04
      5.009  0.0000E+00  0.3038E+04
      5.105  0.0000E+00  0.3038E+04
      5.201  0.0000E+00  0.3038E+04
      5.297  0.0000E+00  0.3038E+04
      5.393  0.0000E+00  0.3038E+04
      5.489  0.0000E+00  0.3038E+04
      5.585  0.0000E+00  0.3038E+04
      5.682  0.0000E+00  0.3038E+04
      5.778  0.0000E+00  0.3038E+04
      5.874  0.0000E+00  0.3038E+04
