  254  254    1    1
  0.2268316E+02  0.1514622E-08  0.1514622E-08  0.2900000E-08  0.5000000E-15
   1.0000000000000000E-004
  CAR 
 NiAl                                    
   2532      4   1519
 
  0.1262379E-14  0.1262379E-14  0.1262379E-14  0.2500000E+00
    1      -21.649844   1.000000
    2      -14.922949   1.000000
    3       -9.195416   1.000000
    4       -8.665748   1.000000
    5       -8.287693   1.000000
    6       -8.287685   1.000000
    7       -8.287665   1.000000
    8       -8.287635   1.000000
    9       -8.287621   1.000000
   10       -8.287572   1.000000
   11       -7.836645   1.000000
   12       -7.781584   1.000000
   13       -7.781557   1.000000
   14       -7.781546   1.000000
   15       -7.781454   1.000000
   16       -7.781433   1.000000
   17       -7.781274   1.000000
   18       -6.993268   1.000000
   19       -6.993184   1.000000
   20       -6.993182   1.000000
   21       -6.992937   1.000000
   22       -6.992915   1.000000
   23       -6.992588   1.000000
   24       -6.806118   1.000000
   25       -6.647241   1.000000
   26       -6.647232   1.000000
   27       -6.647230   1.000000
   28       -6.647219   1.000000
   29       -6.647201   1.000000
   30       -6.647187   1.000000
   31       -6.224497   1.000000
   32       -6.224490   1.000000
   33       -6.224475   1.000000
   34       -6.224451   1.000000
   35       -6.224438   1.000000
   36       -6.224427   1.000000
   37       -6.021333   1.000000
   38       -6.021251   1.000000
   39       -6.021221   1.000000
   40       -6.020910   1.000000
   41       -6.020829   1.000000
   42       -6.020788   1.000000
   43       -6.016617   1.000000
   44       -6.016607   1.000000
   45       -6.016595   1.000000
   46       -6.016587   1.000000
   47       -6.016583   1.000000
   48       -6.016577   1.000000
   49       -5.928210   1.000000
   50       -5.781073   1.000000
   51       -5.681516   1.000000
   52       -5.681509   1.000000
   53       -5.681508   1.000000
   54       -5.681496   1.000000
   55       -5.681490   1.000000
   56       -5.681474   1.000000
   57       -5.591286   1.000000
   58       -5.591268   1.000000
   59       -5.591252   1.000000
   60       -5.591207   1.000000
   61       -5.591198   1.000000
   62       -5.591191   1.000000
   63       -5.224074   1.000000
   64       -5.224058   1.000000
   65       -5.224046   1.000000
   66       -5.224032   1.000000
   67       -5.224027   1.000000
   68       -5.223990   1.000000
   69       -5.126180   1.000000
   70       -5.070537   1.000000
   71       -5.070416   1.000000
   72       -5.070407   1.000000
   73       -5.069987   1.000000
   74       -5.069915   1.000000
   75       -5.069851   1.000000
   76       -4.936416   1.000000
   77       -4.878824   1.000000
   78       -4.878823   1.000000
   79       -4.878763   1.000000
   80       -4.860177   1.000000
   81       -4.860100   1.000000
   82       -4.860061   1.000000
   83       -4.860051   1.000000
   84       -4.860003   1.000000
   85       -4.859960   1.000000
   86       -4.756315   1.000000
   87       -4.756236   1.000000
   88       -4.756231   1.000000
   89       -4.756220   1.000000
   90       -4.756187   1.000000
   91       -4.756153   1.000000
   92       -4.722753   1.000000
   93       -4.722749   1.000000
   94       -4.722651   1.000000
   95       -4.646627   1.000000
   96       -4.646618   1.000000
   97       -4.646612   1.000000
   98       -4.646598   1.000000
   99       -4.646590   1.000000
  100       -4.646574   1.000000
  101       -4.646554   1.000000
  102       -4.646548   1.000000
  103       -4.646542   1.000000
  104       -4.646535   1.000000
  105       -4.646529   1.000000
  106       -4.646527   1.000000
  107       -4.600759   1.000000
  108       -4.600757   1.000000
  109       -4.600689   1.000000
  110       -4.514373   1.000000
  111       -4.514366   1.000000
  112       -4.514266   1.000000
  113       -4.496734   1.000000
  114       -4.492512   1.000000
  115       -4.492426   1.000000
  116       -4.492416   1.000000
  117       -4.492391   1.000000
  118       -4.492112   1.000000
  119       -4.448142   1.000000
  120       -4.448139   1.000000
  121       -4.448128   1.000000
  122       -4.448124   1.000000
  123       -4.448103   1.000000
  124       -4.448091   1.000000
  125       -4.448085   1.000000
  126       -4.448074   1.000000
  127       -4.448064   1.000000
  128       -4.448062   1.000000
  129       -4.448032   1.000000
  130       -4.448027   1.000000
  131       -4.413645   1.000000
  132       -4.413641   1.000000
  133       -4.413633   1.000000
  134       -4.413620   1.000000
  135       -4.413612   1.000000
  136       -4.413593   1.000000
  137       -4.413592   1.000000
  138       -4.413585   1.000000
  139       -4.413571   1.000000
  140       -4.413568   1.000000
  141       -4.413554   1.000000
  142       -4.413551   1.000000
  143       -4.405181   1.000000
  144       -4.393492   1.000000
  145       -4.368763   1.000000
  146       -4.368735   1.000000
  147       -4.368717   1.000000
  148       -4.368602   1.000000
  149       -4.368167   1.000000
  150       -4.363406   1.000000
  151       -4.332403   1.000000
  152       -4.332396   1.000000
  153       -4.332344   1.000000
  154       -4.332338   1.000000
  155       -4.332078   1.000000
  156       -4.331435   1.000000
  157       -4.312643   1.000000
  158       -4.312631   1.000000
  159       -4.312530   1.000000
  160       -4.275606   1.000000
  161       -4.275594   1.000000
  162       -4.275587   1.000000
  163       -4.275580   1.000000
  164       -4.275561   1.000000
  165       -4.275549   1.000000
  166       -4.275542   1.000000
  167       -4.275540   1.000000
  168       -4.275533   1.000000
  169       -4.275528   1.000000
  170       -4.275488   1.000000
  171       -4.275466   1.000000
  172       -4.205430   1.000000
  173       -4.205402   1.000000
  174       -4.205392   1.000000
  175       -4.205314   1.000000
  176       -4.205198   1.000000
  177       -4.204514   1.000000
  178       -4.166400   1.000000
  179       -4.166396   1.000000
  180       -4.166226   1.000000
  181       -4.097971   1.000000
  182       -4.097962   1.000000
  183       -4.097850   1.000000
  184       -4.075652   1.000000
  185       -4.075644   1.000000
  186       -4.075635   1.000000
  187       -4.075624   1.000000
  188       -4.075614   1.000000
  189       -4.075604   1.000000
  190       -4.075591   1.000000
  191       -4.075580   1.000000
  192       -4.075562   1.000000
  193       -4.075552   1.000000
  194       -4.075541   1.000000
  195       -4.075508   1.000000
  196       -4.012575   1.000000
  197       -4.012564   1.000000
  198       -4.012427   1.000000
  199       -3.958169   1.000000
  200       -3.958165   1.000000
  201       -3.958020   1.000000
  202       -3.955717   1.000000
  203       -3.955703   1.000000
  204       -3.955672   1.000000
  205       -3.955646   1.000000
  206       -3.955525   1.000000
  207       -3.955441   1.000000
  208       -3.886456   1.000000
  209       -3.886455   1.000000
  210       -3.886431   1.000000
  211       -3.886426   1.000000
  212       -3.886412   1.000000
  213       -3.886404   1.000000
  214       -3.886393   1.000000
  215       -3.886384   1.000000
  216       -3.886254   1.000000
  217       -3.886246   1.000000
  218       -3.886223   1.000000
  219       -3.886203   1.000000
  220       -3.880288   1.000000
  221       -3.880267   1.000000
  222       -3.880259   1.000000
  223       -3.880247   1.000000
  224       -3.880125   1.000000
  225       -3.880116   1.000000
  226       -3.827263   1.000000
  227       -3.827253   1.000000
  228       -3.827217   1.000000
  229       -3.827212   1.000000
  230       -3.827201   1.000000
  231       -3.827193   1.000000
  232       -3.827169   1.000000
  233       -3.827149   1.000000
  234       -3.827137   1.000000
  235       -3.827116   1.000000
  236       -3.827099   1.000000
  237       -3.827079   1.000000
  238       -3.804218   1.000000
  239       -3.804198   1.000000
  240       -3.804165   1.000000
  241       -3.804146   1.000000
  242       -3.804114   1.000000
  243       -3.803986   1.000000
  244       -3.764866   1.000000
  245       -3.764849   1.000000
  246       -3.764842   1.000000
  247       -3.764820   1.000000
  248       -3.764746   1.000000
  249       -3.764711   1.000000
  250       -3.761064   1.000000
  251       -3.761051   1.000000
  252       -3.760931   1.000000
  253       -3.760925   1.000000
  254       -3.752725   1.000000
  255       -3.752701   1.000000
  256       -3.698311   1.000000
  257       -3.698307   1.000000
  258       -3.698269   1.000000
  259       -3.698239   1.000000
  260       -3.698236   1.000000
  261       -3.698230   1.000000
  262       -3.698204   1.000000
  263       -3.698201   1.000000
  264       -3.698124   1.000000
  265       -3.698079   1.000000
  266       -3.698061   1.000000
  267       -3.698053   1.000000
  268       -3.689453   1.000000
  269       -3.689439   1.000000
  270       -3.689337   1.000000
  271       -3.665012   1.000000
  272       -3.665005   1.000000
  273       -3.664968   1.000000
  274       -3.664960   1.000000
  275       -3.642760   1.000000
  276       -3.642742   1.000000
  277       -3.642721   1.000000
  278       -3.642699   1.000000
  279       -3.642547   1.000000
  280       -3.642535   1.000000
  281       -3.631414   1.000000
  282       -3.631394   1.000000
  283       -3.621048   1.000000
  284       -3.621041   1.000000
  285       -3.620959   1.000000
  286       -3.620952   1.000000
  287       -3.619262   1.000000
  288       -3.619242   1.000000
  289       -3.615974   1.000000
  290       -3.615957   1.000000
  291       -3.615931   1.000000
  292       -3.615917   1.000000
  293       -3.615905   1.000000
  294       -3.615828   1.000000
  295       -3.547242   1.000000
  296       -3.547236   1.000000
  297       -3.547153   1.000000
  298       -3.547144   1.000000
  299       -3.539755   1.000000
  300       -3.539746   1.000000
  301       -3.539704   1.000000
  302       -3.539693   1.000000
  303       -3.539664   1.000000
  304       -3.539656   1.000000
  305       -3.539643   1.000000
  306       -3.539621   1.000000
  307       -3.539590   1.000000
  308       -3.539560   1.000000
  309       -3.539549   1.000000
  310       -3.539504   1.000000
  311       -3.468256   1.000000
  312       -3.468248   1.000000
  313       -3.468186   1.000000
  314       -3.468180   1.000000
  315       -3.468165   1.000000
  316       -3.468160   1.000000
  317       -3.432097   1.000000
  318       -3.432070   1.000000
  319       -3.432031   1.000000
  320       -3.432019   1.000000
  321       -3.432000   1.000000
  322       -3.431992   1.000000
  323       -3.431974   1.000000
  324       -3.431961   1.000000
  325       -3.431901   1.000000
  326       -3.431876   1.000000
  327       -3.431864   1.000000
  328       -3.431833   1.000000
  329       -3.421517   1.000000
  330       -3.421495   1.000000
  331       -3.421442   1.000000
  332       -3.421431   1.000000
  333       -3.421411   1.000000
  334       -3.421401   1.000000
  335       -3.414174   1.000000
  336       -3.414141   1.000000
  337       -3.414106   1.000000
  338       -3.414079   1.000000
  339       -3.414002   1.000000
  340       -3.413932   1.000000
  341       -3.326157   1.000000
  342       -3.326148   1.000000
  343       -3.326116   1.000000
  344       -3.286567   1.000000
  345       -3.286514   1.000000
  346       -3.286464   1.000000
  347       -3.286459   1.000000
  348       -3.286423   1.000000
  349       -3.286418   1.000000
  350       -3.275046   1.000000
  351       -3.274994   1.000000
  352       -3.251986   1.000000
  353       -3.251958   1.000000
  354       -3.251916   1.000000
  355       -3.251899   1.000000
  356       -3.251872   1.000000
  357       -3.251859   1.000000
  358       -3.251846   1.000000
  359       -3.251805   1.000000
  360       -3.251786   1.000000
  361       -3.251747   1.000000
  362       -3.251714   1.000000
  363       -3.251676   1.000000
  364       -3.242697   1.000000
  365       -3.242640   1.000000
  366       -3.180796   1.000000
  367       -3.180780   1.000000
  368       -3.180743   1.000000
  369       -3.180697   1.000000
  370       -3.180658   1.000000
  371       -3.180597   1.000000
  372       -3.155667   1.000000
  373       -3.155623   1.000000
  374       -3.155547   1.000000
  375       -3.155540   1.000000
  376       -3.155508   1.000000
  377       -3.155498   1.000000
  378       -3.155080   1.000000
  379       -3.155053   1.000000
  380       -3.155031   1.000000
  381       -3.155020   1.000000
  382       -3.154939   1.000000
  383       -3.154914   1.000000
  384       -3.103391   1.000000
  385       -3.103385   1.000000
  386       -3.103349   1.000000
  387       -3.103338   1.000000
  388       -3.103326   1.000000
  389       -3.103322   1.000000
  390       -3.103285   1.000000
  391       -3.103275   1.000000
  392       -3.103225   1.000000
  393       -3.103220   1.000000
  394       -3.103187   1.000000
  395       -3.103144   1.000000
  396       -3.048295   1.000000
  397       -3.048288   1.000000
  398       -3.048193   1.000000
  399       -3.048185   1.000000
  400       -3.048173   1.000000
  401       -3.048166   1.000000
  402       -2.989082   1.000000
  403       -2.989060   1.000000
  404       -2.988981   1.000000
  405       -2.988900   1.000000
  406       -2.988846   1.000000
  407       -2.988611   1.000000
  408       -2.979075   1.000000
  409       -2.979047   1.000000
  410       -2.979020   1.000000
  411       -2.979005   1.000000
  412       -2.978979   1.000000
  413       -2.978933   1.000000
  414       -2.952730   1.000000
  415       -2.952712   1.000000
  416       -2.952697   1.000000
  417       -2.952678   1.000000
  418       -2.952669   1.000000
  419       -2.952637   1.000000
  420       -2.946147   1.000000
  421       -2.946132   1.000000
  422       -2.946051   1.000000
  423       -2.946000   1.000000
  424       -2.945950   1.000000
  425       -2.945781   1.000000
  426       -2.922882   1.000000
  427       -2.922877   1.000000
  428       -2.922873   1.000000
  429       -2.922804   1.000000
  430       -2.922796   1.000000
  431       -2.922744   1.000000
  432       -2.918820   1.000000
  433       -2.918808   1.000000
  434       -2.918798   1.000000
  435       -2.918782   1.000000
  436       -2.918766   1.000000
  437       -2.918764   1.000000
  438       -2.918727   1.000000
  439       -2.918719   1.000000
  440       -2.918701   1.000000
  441       -2.918676   1.000000
  442       -2.918669   1.000000
  443       -2.918624   1.000000
  444       -2.855103   1.000000
  445       -2.855087   1.000000
  446       -2.855042   1.000000
  447       -2.845741   1.000000
  448       -2.845726   1.000000
  449       -2.845718   1.000000
  450       -2.845703   1.000000
  451       -2.845689   1.000000
  452       -2.845680   1.000000
  453       -2.845667   1.000000
  454       -2.845647   1.000000
  455       -2.845630   1.000000
  456       -2.845629   1.000000
  457       -2.845608   1.000000
  458       -2.845590   1.000000
  459       -2.842165   1.000000
  460       -2.842142   1.000000
  461       -2.842071   1.000000
  462       -2.842033   1.000000
  463       -2.841981   1.000000
  464       -2.841884   1.000000
  465       -2.804737   1.000000
  466       -2.804725   1.000000
  467       -2.804531   1.000000
  468       -2.804523   1.000000
  469       -2.754653   1.000000
  470       -2.754651   1.000000
  471       -2.754619   1.000000
  472       -2.754600   1.000000
  473       -2.754569   1.000000
  474       -2.754529   1.000000
  475       -2.751377   1.000000
  476       -2.751336   1.000000
  477       -2.749245   1.000000
  478       -2.749231   1.000000
  479       -2.749181   1.000000
  480       -2.749146   1.000000
  481       -2.749127   1.000000
  482       -2.749103   1.000000
  483       -2.748575   1.000000
  484       -2.748555   1.000000
  485       -2.748463   1.000000
  486       -2.748453   1.000000
  487       -2.748434   1.000000
  488       -2.748425   1.000000
  489       -2.742970   1.000000
  490       -2.742962   1.000000
  491       -2.742946   1.000000
  492       -2.742924   1.000000
  493       -2.742912   1.000000
  494       -2.742909   1.000000
  495       -2.742889   1.000000
  496       -2.742881   1.000000
  497       -2.742874   1.000000
  498       -2.742865   1.000000
  499       -2.742850   1.000000
  500       -2.742840   1.000000
  501       -2.690682   1.000000
  502       -2.690679   1.000000
  503       -2.690616   1.000000
  504       -2.690514   1.000000
  505       -2.690417   1.000000
  506       -2.689935   1.000000
  507       -2.682732   1.000000
  508       -2.682723   1.000000
  509       -2.682690   1.000000
  510       -2.682681   1.000000
  511       -2.682667   1.000000
  512       -2.682650   1.000000
  513       -2.656903   1.000000
  514       -2.656901   1.000000
  515       -2.656744   1.000000
  516       -2.656744   1.000000
  517       -2.646624   1.000000
  518       -2.628227   1.000000
  519       -2.628215   1.000000
  520       -2.628163   1.000000
  521       -2.628110   1.000000
  522       -2.628030   1.000000
  523       -2.627798   1.000000
  524       -2.607427   1.000000
  525       -2.583927   1.000000
  526       -2.583872   1.000000
  527       -2.583850   1.000000
  528       -2.583828   1.000000
  529       -2.583820   1.000000
  530       -2.583812   1.000000
  531       -2.583764   1.000000
  532       -2.583726   1.000000
  533       -2.583700   1.000000
  534       -2.583681   1.000000
  535       -2.583627   1.000000
  536       -2.583598   1.000000
  537       -2.566472   1.000000
  538       -2.566419   1.000000
  539       -2.566378   1.000000
  540       -2.566200   1.000000
  541       -2.566120   1.000000
  542       -2.565674   1.000000
  543       -2.540696   1.000000
  544       -2.540686   1.000000
  545       -2.540546   1.000000
  546       -2.525590   1.000000
  547       -2.525563   1.000000
  548       -2.525493   1.000000
  549       -2.525328   1.000000
  550       -2.525218   1.000000
  551       -2.524541   1.000000
  552       -2.512124   1.000000
  553       -2.512100   1.000000
  554       -2.512078   1.000000
  555       -2.512065   1.000000
  556       -2.512054   1.000000
  557       -2.512040   1.000000
  558       -2.512027   1.000000
  559       -2.512007   1.000000
  560       -2.512005   1.000000
  561       -2.512001   1.000000
  562       -2.511980   1.000000
  563       -2.511972   1.000000
  564       -2.502680   1.000000
  565       -2.502607   1.000000
  566       -2.502580   1.000000
  567       -2.502402   1.000000
  568       -2.502374   1.000000
  569       -2.502180   1.000000
  570       -2.502103   1.000000
  571       -2.502098   1.000000
  572       -2.501998   1.000000
  573       -2.451427   1.000000
  574       -2.451392   1.000000
  575       -2.451343   1.000000
  576       -2.451318   1.000000
  577       -2.451253   1.000000
  578       -2.451193   1.000000
  579       -2.450131   1.000000
  580       -2.449963   1.000000
  581       -2.448517   1.000000
  582       -2.448298   1.000000
  583       -2.436726   1.000000
  584       -2.436705   1.000000
  585       -2.436699   1.000000
  586       -2.436641   1.000000
  587       -2.436572   1.000000
  588       -2.436437   1.000000
  589       -2.418644   1.000000
  590       -2.408234   1.000000
  591       -2.408223   1.000000
  592       -2.408204   1.000000
  593       -2.408194   1.000000
  594       -2.408174   1.000000
  595       -2.408095   1.000000
  596       -2.394949   1.000000
  597       -2.394935   1.000000
  598       -2.394927   1.000000
  599       -2.394919   1.000000
  600       -2.394872   1.000000
  601       -2.394869   1.000000
  602       -2.389764   1.000000
  603       -2.389757   1.000000
  604       -2.389583   1.000000
  605       -2.376013   1.000000
  606       -2.376007   1.000000
  607       -2.375938   1.000000
  608       -2.375929   1.000000
  609       -2.375919   1.000000
  610       -2.375909   1.000000
  611       -2.360494   1.000000
  612       -2.360274   1.000000
  613       -2.335577   1.000000
  614       -2.335562   1.000000
  615       -2.335533   1.000000
  616       -2.331399   1.000000
  617       -2.331363   1.000000
  618       -2.331350   1.000000
  619       -2.331318   1.000000
  620       -2.331254   1.000000
  621       -2.331243   1.000000
  622       -2.330953   1.000000
  623       -2.315671   1.000000
  624       -2.315490   1.000000
  625       -2.301109   1.000000
  626       -2.301107   1.000000
  627       -2.301016   1.000000
  628       -2.301010   1.000000
  629       -2.301000   1.000000
  630       -2.300981   1.000000
  631       -2.294297   1.000000
  632       -2.294290   1.000000
  633       -2.294276   1.000000
  634       -2.277489   1.000000
  635       -2.277477   1.000000
  636       -2.277444   1.000000
  637       -2.277437   1.000000
  638       -2.277335   1.000000
  639       -2.277290   1.000000
  640       -2.266343   1.000000
  641       -2.266255   1.000000
  642       -2.266250   1.000000
  643       -2.253801   1.000000
  644       -2.253580   1.000000
  645       -2.253254   1.000000
  646       -2.253244   1.000000
  647       -2.252017   1.000000
  648       -2.252012   1.000000
  649       -2.249186   1.000000
  650       -2.249173   1.000000
  651       -2.249154   1.000000
  652       -2.249148   1.000000
  653       -2.249140   1.000000
  654       -2.249100   1.000000
  655       -2.249089   1.000000
  656       -2.249052   1.000000
  657       -2.249041   1.000000
  658       -2.249021   1.000000
  659       -2.248987   1.000000
  660       -2.248949   1.000000
  661       -2.239947   1.000000
  662       -2.239919   1.000000
  663       -2.239881   1.000000
  664       -2.239866   1.000000
  665       -2.239786   1.000000
  666       -2.239755   1.000000
  667       -2.234510   1.000000
  668       -2.234427   1.000000
  669       -2.234405   1.000000
  670       -2.234392   1.000000
  671       -2.234289   1.000000
  672       -2.234279   1.000000
  673       -2.188026   1.000000
  674       -2.187991   1.000000
  675       -2.187936   1.000000
  676       -2.187919   1.000000
  677       -2.187793   1.000000
  678       -2.187733   1.000000
  679       -2.181424   1.000000
  680       -2.166121   1.000000
  681       -2.166069   1.000000
  682       -2.166019   1.000000
  683       -2.166000   1.000000
  684       -2.165991   1.000000
  685       -2.165972   1.000000
  686       -2.141346   1.000000
  687       -2.141340   1.000000
  688       -2.139774   1.000000
  689       -2.139766   1.000000
  690       -2.136191   1.000000
  691       -2.136166   1.000000
  692       -2.136134   1.000000
  693       -2.136090   1.000000
  694       -2.136075   1.000000
  695       -2.136035   1.000000
  696       -2.135952   1.000000
  697       -2.135935   1.000000
  698       -2.135861   1.000000
  699       -2.135822   1.000000
  700       -2.135625   1.000000
  701       -2.135541   1.000000
  702       -2.130574   1.000000
  703       -2.130368   1.000000
  704       -2.122038   1.000000
  705       -2.121995   1.000000
  706       -2.121947   1.000000
  707       -2.121913   1.000000
  708       -2.121894   1.000000
  709       -2.121887   1.000000
  710       -2.121824   1.000000
  711       -2.121799   1.000000
  712       -2.121797   1.000000
  713       -2.121778   1.000000
  714       -2.121726   1.000000
  715       -2.121713   1.000000
  716       -2.118639   1.000000
  717       -2.118423   1.000000
  718       -2.096068   1.000000
  719       -2.096061   1.000000
  720       -2.095930   1.000000
  721       -2.095916   1.000000
  722       -2.095890   1.000000
  723       -2.095873   1.000000
  724       -2.071460   1.000000
  725       -2.071425   1.000000
  726       -2.071337   1.000000
  727       -2.071297   1.000000
  728       -2.071240   1.000000
  729       -2.071036   1.000000
  730       -2.049839   1.000000
  731       -2.049832   1.000000
  732       -2.049793   1.000000
  733       -2.049787   1.000000
  734       -2.049696   1.000000
  735       -2.049675   1.000000
  736       -2.049661   1.000000
  737       -2.049625   1.000000
  738       -2.049449   1.000000
  739       -2.049356   1.000000
  740       -2.049348   1.000000
  741       -2.049131   1.000000
  742       -2.006463   1.000000
  743       -2.006443   1.000000
  744       -2.006323   1.000000
  745       -2.006298   1.000000
  746       -2.006283   1.000000
  747       -2.006246   1.000000
  748       -1.999046   1.000000
  749       -1.999004   1.000000
  750       -1.998984   1.000000
  751       -1.998825   1.000000
  752       -1.998821   1.000000
  753       -1.998466   1.000000
  754       -1.950910   1.000000
  755       -1.950897   1.000000
  756       -1.950887   1.000000
  757       -1.950877   1.000000
  758       -1.950831   1.000000
  759       -1.950817   1.000000
  760       -1.950794   1.000000
  761       -1.950761   1.000000
  762       -1.950614   1.000000
  763       -1.950542   1.000000
  764       -1.950530   1.000000
  765       -1.950424   1.000000
  766       -1.946981   1.000000
  767       -1.946953   1.000000
  768       -1.946915   1.000000
  769       -1.946883   1.000000
  770       -1.946857   1.000000
  771       -1.946740   1.000000
  772       -1.940422   1.000000
  773       -1.940406   1.000000
  774       -1.940347   1.000000
  775       -1.940328   1.000000
  776       -1.940298   1.000000
  777       -1.940197   1.000000
  778       -1.908641   1.000000
  779       -1.908561   1.000000
  780       -1.908542   1.000000
  781       -1.904871   1.000000
  782       -1.904853   1.000000
  783       -1.904741   1.000000
  784       -1.904721   1.000000
  785       -1.904711   1.000000
  786       -1.904686   1.000000
  787       -1.884032   1.000000
  788       -1.883933   1.000000
  789       -1.883792   1.000000
  790       -1.883744   1.000000
  791       -1.883741   1.000000
  792       -1.883194   1.000000
  793       -1.879892   1.000000
  794       -1.879853   1.000000
  795       -1.879748   1.000000
  796       -1.879730   1.000000
  797       -1.879717   1.000000
  798       -1.879702   1.000000
  799       -1.859212   1.000000
  800       -1.859186   1.000000
  801       -1.859136   1.000000
  802       -1.859102   1.000000
  803       -1.859092   1.000000
  804       -1.859051   1.000000
  805       -1.850733   1.000000
  806       -1.850708   1.000000
  807       -1.850686   1.000000
  808       -1.850662   1.000000
  809       -1.850592   1.000000
  810       -1.850502   1.000000
  811       -1.850484   1.000000
  812       -1.850473   1.000000
  813       -1.850300   1.000000
  814       -1.850181   1.000000
  815       -1.850121   1.000000
  816       -1.849954   1.000000
  817       -1.811707   1.000000
  818       -1.811683   1.000000
  819       -1.811639   1.000000
  820       -1.811630   1.000000
  821       -1.811615   1.000000
  822       -1.811548   1.000000
  823       -1.811475   1.000000
  824       -1.811416   1.000000
  825       -1.811287   1.000000
  826       -1.811172   1.000000
  827       -1.811128   1.000000
  828       -1.810949   1.000000
  829       -1.778224   1.000000
  830       -1.778175   1.000000
  831       -1.778061   1.000000
  832       -1.778057   1.000000
  833       -1.778028   1.000000
  834       -1.778012   1.000000
  835       -1.776819   1.000000
  836       -1.776768   1.000000
  837       -1.776757   1.000000
  838       -1.772908   1.000000
  839       -1.772884   1.000000
  840       -1.772871   1.000000
  841       -1.772864   1.000000
  842       -1.772850   1.000000
  843       -1.772811   1.000000
  844       -1.761336   1.000000
  845       -1.761295   1.000000
  846       -1.761249   1.000000
  847       -1.761236   1.000000
  848       -1.761181   1.000000
  849       -1.761137   1.000000
  850       -1.751627   1.000000
  851       -1.751417   1.000000
  852       -1.751336   1.000000
  853       -1.750655   1.000000
  854       -1.750511   1.000000
  855       -1.749010   1.000000
  856       -1.747290   1.000000
  857       -1.747163   1.000000
  858       -1.747024   1.000000
  859       -1.746976   1.000000
  860       -1.746853   1.000000
  861       -1.745731   1.000000
  862       -1.727873   1.000000
  863       -1.727825   1.000000
  864       -1.727793   1.000000
  865       -1.693436   1.000000
  866       -1.693387   1.000000
  867       -1.693367   1.000000
  868       -1.693345   1.000000
  869       -1.693185   1.000000
  870       -1.693002   1.000000
  871       -1.662849   1.000000
  872       -1.662811   1.000000
  873       -1.662785   1.000000
  874       -1.662778   1.000000
  875       -1.662753   1.000000
  876       -1.662739   1.000000
  877       -1.662731   1.000000
  878       -1.662701   1.000000
  879       -1.662691   1.000000
  880       -1.662659   1.000000
  881       -1.662646   1.000000
  882       -1.662597   1.000000
  883       -1.649469   1.000000
  884       -1.640354   1.000000
  885       -1.639863   1.000000
  886       -1.639822   1.000000
  887       -1.638330   1.000000
  888       -1.637950   1.000000
  889       -1.631786   1.000000
  890       -1.590652   1.000000
  891       -1.590639   1.000000
  892       -1.590529   1.000000
  893       -1.590516   1.000000
  894       -1.590511   1.000000
  895       -1.590491   1.000000
  896       -1.535687   1.000000
  897       -1.535591   1.000000
  898       -1.535539   1.000000
  899       -1.535533   1.000000
  900       -1.535410   1.000000
  901       -1.535293   1.000000