 254 254   0   0
  0.3019211E+02  0.1718057E-08  0.1718057E-08  0.3000000E-08  0.2000000E-15
   1.0000000000000000E-004
  CAR 
 NiAl                                    
      5.20037978    -19.21222917  301      1.85759150      1.00000000
    -19.212  0.0000E+00  0.0000E+00
    -19.131  0.0000E+00  0.0000E+00
    -19.049  0.0000E+00  0.0000E+00
    -18.968  0.0000E+00  0.0000E+00
    -18.887  0.0000E+00  0.0000E+00
    -18.805  0.0000E+00  0.0000E+00
    -18.724  0.0000E+00  0.0000E+00
    -18.643  0.0000E+00  0.0000E+00
    -18.561  0.0000E+00  0.0000E+00
    -18.480  0.0000E+00  0.0000E+00
    -18.398  0.3411E-16  0.2776E-17
    -18.317  0.3904E-09  0.3177E-10
    -18.236  0.5027E-04  0.4091E-05
    -18.154  0.4362E-01  0.3554E-02
    -18.073  0.4465E+00  0.3989E-01
    -17.992  0.1237E+00  0.4996E-01
    -17.910  0.8676E-03  0.5003E-01
    -17.829  0.1032E+00  0.5843E-01
    -17.747  0.4557E+00  0.9551E-01
    -17.666  0.5511E-01  0.9999E-01
    -17.585  0.8263E-04  0.1000E+00
    -17.503  0.8486E-09  0.1000E+00
    -17.422  0.0000E+00  0.1000E+00
    -17.341  0.0000E+00  0.1000E+00
    -17.259  0.0000E+00  0.1000E+00
    -17.178  0.0000E+00  0.1000E+00
    -17.096  0.0000E+00  0.1000E+00
    -17.015  0.0000E+00  0.1000E+00
    -16.934  0.0000E+00  0.1000E+00
    -16.852  0.0000E+00  0.1000E+00
    -16.771  0.0000E+00  0.1000E+00
    -16.690  0.0000E+00  0.1000E+00
    -16.608  0.0000E+00  0.1000E+00
    -16.527  0.0000E+00  0.1000E+00
    -16.445  0.0000E+00  0.1000E+00
    -16.364  0.0000E+00  0.1000E+00
    -16.283  0.0000E+00  0.1000E+00
    -16.201  0.0000E+00  0.1000E+00
    -16.120  0.0000E+00  0.1000E+00
    -16.039  0.0000E+00  0.1000E+00
    -15.957  0.0000E+00  0.1000E+00
    -15.876  0.0000E+00  0.1000E+00
    -15.794  0.0000E+00  0.1000E+00
    -15.713  0.0000E+00  0.1000E+00
    -15.632  0.0000E+00  0.1000E+00
    -15.550  0.0000E+00  0.1000E+00
    -15.469  0.0000E+00  0.1000E+00
    -15.388  0.0000E+00  0.1000E+00
    -15.306  0.0000E+00  0.1000E+00
    -15.225  0.0000E+00  0.1000E+00
    -15.143  0.0000E+00  0.1000E+00
    -15.062  0.0000E+00  0.1000E+00
    -14.981  0.0000E+00  0.1000E+00
    -14.899  0.0000E+00  0.1000E+00
    -14.818  0.0000E+00  0.1000E+00
    -14.737  0.0000E+00  0.1000E+00
    -14.655  0.0000E+00  0.1000E+00
    -14.574  0.0000E+00  0.1000E+00
    -14.492  0.0000E+00  0.1000E+00
    -14.411  0.0000E+00  0.1000E+00
    -14.330  0.0000E+00  0.1000E+00
    -14.248  0.0000E+00  0.1000E+00
    -14.167  0.0000E+00  0.1000E+00
    -14.086  0.0000E+00  0.1000E+00
    -14.004  0.0000E+00  0.1000E+00
    -13.923  0.0000E+00  0.1000E+00
    -13.841  0.0000E+00  0.1000E+00
    -13.760  0.0000E+00  0.1000E+00
    -13.679  0.0000E+00  0.1000E+00
    -13.597  0.0000E+00  0.1000E+00
    -13.516  0.0000E+00  0.1000E+00
    -13.435  0.0000E+00  0.1000E+00
    -13.353  0.0000E+00  0.1000E+00
    -13.272  0.0000E+00  0.1000E+00
    -13.190  0.0000E+00  0.1000E+00
    -13.109  0.0000E+00  0.1000E+00
    -13.028  0.0000E+00  0.1000E+00
    -12.946  0.0000E+00  0.1000E+00
    -12.865  0.0000E+00  0.1000E+00
    -12.784  0.0000E+00  0.1000E+00
    -12.702  0.0000E+00  0.1000E+00
    -12.621  0.0000E+00  0.1000E+00
    -12.539  0.0000E+00  0.1000E+00
    -12.458  0.0000E+00  0.1000E+00
    -12.377  0.0000E+00  0.1000E+00
    -12.295  0.0000E+00  0.1000E+00
    -12.214  0.0000E+00  0.1000E+00
    -12.133  0.0000E+00  0.1000E+00
    -12.051  0.0000E+00  0.1000E+00
    -11.970  0.0000E+00  0.1000E+00
    -11.888  0.0000E+00  0.1000E+00
    -11.807  0.0000E+00  0.1000E+00
    -11.726  0.0000E+00  0.1000E+00
    -11.644  0.0000E+00  0.1000E+00
    -11.563  0.0000E+00  0.1000E+00
    -11.482  0.0000E+00  0.1000E+00
    -11.400  0.0000E+00  0.1000E+00
    -11.319  0.0000E+00  0.1000E+00
    -11.237  0.0000E+00  0.1000E+00
    -11.156  0.0000E+00  0.1000E+00
    -11.075  0.0000E+00  0.1000E+00
    -10.993  0.0000E+00  0.1000E+00
    -10.912  0.0000E+00  0.1000E+00
    -10.831  0.0000E+00  0.1000E+00
    -10.749  0.0000E+00  0.1000E+00
    -10.668  0.0000E+00  0.1000E+00
    -10.586  0.0000E+00  0.1000E+00
    -10.505  0.0000E+00  0.1000E+00
    -10.424  0.0000E+00  0.1000E+00
    -10.342  0.0000E+00  0.1000E+00
    -10.261  0.0000E+00  0.1000E+00
    -10.180  0.0000E+00  0.1000E+00
    -10.098  0.0000E+00  0.1000E+00
    -10.017  0.0000E+00  0.1000E+00
     -9.935  0.0000E+00  0.1000E+00
     -9.854  0.0000E+00  0.1000E+00
     -9.773  0.0000E+00  0.1000E+00
     -9.691  0.0000E+00  0.1000E+00
     -9.610  0.0000E+00  0.1000E+00
     -9.529  0.4519E-14  0.1000E+00
     -9.447  0.1458E-07  0.1000E+00
     -9.366  0.2799E-03  0.1000E+00
     -9.284  0.4155E-01  0.1034E+00
     -9.203  0.1062E+00  0.1120E+00
     -9.122  0.2259E+00  0.1304E+00
     -9.040  0.6478E+00  0.1831E+00
     -8.959  0.5360E-01  0.1875E+00
     -8.878  0.2012E-01  0.1891E+00
     -8.796  0.2831E+00  0.2122E+00
     -8.715  0.8009E+00  0.2774E+00
     -8.633  0.8794E+00  0.3489E+00
     -8.552  0.8340E+00  0.4168E+00
     -8.471  0.1009E+00  0.4250E+00
     -8.389  0.6973E-01  0.4307E+00
     -8.308  0.6682E+00  0.4850E+00
     -8.227  0.2825E+00  0.5080E+00
     -8.145  0.8809E+00  0.5797E+00
     -8.064  0.1680E+01  0.7164E+00
     -7.982  0.8597E+00  0.7863E+00
     -7.901  0.3152E+00  0.8120E+00
     -7.820  0.7985E-01  0.8185E+00
     -7.738  0.8231E+00  0.8855E+00
     -7.657  0.1841E+01  0.1035E+01
     -7.576  0.9378E+00  0.1112E+01
     -7.494  0.5893E+00  0.1160E+01
     -7.413  0.3465E+00  0.1188E+01
     -7.331  0.6936E+00  0.1244E+01
     -7.250  0.1036E+01  0.1328E+01
     -7.169  0.6514E+00  0.1381E+01
     -7.087  0.1891E+01  0.1535E+01
     -7.006  0.1489E+01  0.1657E+01
     -6.925  0.8346E+00  0.1724E+01
     -6.843  0.8123E+00  0.1791E+01
     -6.762  0.1048E+01  0.1876E+01
     -6.680  0.1873E+01  0.2028E+01
     -6.599  0.2163E+01  0.2204E+01
     -6.518  0.5364E+00  0.2248E+01
     -6.436  0.2486E-01  0.2250E+01
     -6.355  0.6009E-03  0.2250E+01
     -6.274  0.1525E+00  0.2262E+01
     -6.192  0.1840E+01  0.2412E+01
     -6.111  0.3153E+01  0.2669E+01
     -6.029  0.2300E+01  0.2856E+01
     -5.948  0.9103E+00  0.2930E+01
     -5.867  0.4733E+00  0.2969E+01
     -5.785  0.2028E+01  0.3134E+01
     -5.704  0.2229E+01  0.3315E+01
     -5.623  0.1308E+01  0.3421E+01
     -5.541  0.1002E+01  0.3503E+01
     -5.460  0.8627E+00  0.3573E+01
     -5.378  0.1395E+01  0.3687E+01
     -5.297  0.1376E+01  0.3799E+01
     -5.216  0.8198E+00  0.3865E+01
     -5.134  0.2288E+01  0.4052E+01
     -5.053  0.2113E+01  0.4224E+01
     -4.972  0.1150E+01  0.4317E+01
     -4.890  0.7532E+00  0.4378E+01
     -4.809  0.1439E+01  0.4495E+01
     -4.727  0.2789E+01  0.4722E+01
     -4.646  0.2690E+01  0.4941E+01
     -4.565  0.1357E+01  0.5052E+01
     -4.483  0.7977E+00  0.5117E+01
     -4.402  0.1279E+01  0.5221E+01
     -4.321  0.1225E+01  0.5320E+01
     -4.239  0.2523E+01  0.5526E+01
     -4.158  0.3381E+01  0.5801E+01
     -4.076  0.2302E+01  0.5988E+01
     -3.995  0.1116E+01  0.6079E+01
     -3.914  0.7203E+00  0.6138E+01
     -3.832  0.1574E+01  0.6266E+01
     -3.751  0.2704E+01  0.6486E+01
     -3.670  0.1644E+01  0.6620E+01
     -3.588  0.1920E+01  0.6776E+01
     -3.507  0.8495E+00  0.6845E+01
     -3.425  0.9332E+00  0.6921E+01
     -3.344  0.1177E+01  0.7017E+01
     -3.263  0.1230E+01  0.7117E+01
     -3.181  0.2935E+01  0.7356E+01
     -3.100  0.2531E+01  0.7562E+01
     -3.019  0.1636E+01  0.7695E+01
     -2.937  0.2156E+01  0.7870E+01
     -2.856  0.4102E+01  0.8204E+01
     -2.774  0.3946E+01  0.8525E+01
     -2.693  0.1923E+01  0.8682E+01
     -2.612  0.1058E+01  0.8768E+01
     -2.530  0.9486E+00  0.8845E+01
     -2.449  0.1504E+01  0.8967E+01
     -2.368  0.1379E+01  0.9080E+01
     -2.286  0.2042E+01  0.9246E+01
     -2.205  0.2975E+01  0.9488E+01
     -2.123  0.2879E+01  0.9722E+01
     -2.042  0.1264E+01  0.9825E+01
     -1.961  0.5806E+00  0.9872E+01
     -1.879  0.2542E+01  0.1008E+02
     -1.798  0.3394E+01  0.1036E+02
     -1.717  0.2492E+01  0.1056E+02
     -1.635  0.1445E+01  0.1068E+02
     -1.554  0.1243E+01  0.1078E+02
     -1.472  0.1920E+01  0.1093E+02
     -1.391  0.2657E+01  0.1115E+02
     -1.310  0.3887E+01  0.1147E+02
     -1.228  0.4304E+01  0.1182E+02
     -1.147  0.2024E+01  0.1198E+02
     -1.066  0.1605E+01  0.1211E+02
     -0.984  0.1886E+01  0.1226E+02
     -0.903  0.2284E+01  0.1245E+02
     -0.821  0.3276E+01  0.1272E+02
     -0.740  0.2322E+01  0.1291E+02
     -0.659  0.9975E+00  0.1299E+02
     -0.577  0.1258E+01  0.1309E+02
     -0.496  0.2707E+01  0.1331E+02
     -0.415  0.3647E+01  0.1361E+02
     -0.333  0.2921E+01  0.1384E+02
     -0.252  0.3109E+01  0.1410E+02
     -0.170  0.2287E+01  0.1428E+02
     -0.089  0.1305E+01  0.1439E+02
     -0.008  0.2207E+01  0.1457E+02
      0.074  0.1481E+01  0.1469E+02
      0.155  0.1731E+01  0.1483E+02
      0.236  0.3021E+01  0.1508E+02
      0.318  0.1824E+01  0.1522E+02
      0.399  0.1850E+01  0.1538E+02
      0.481  0.2985E+01  0.1562E+02
      0.562  0.3101E+01  0.1587E+02
      0.643  0.2014E+01  0.1603E+02
      0.725  0.1126E+01  0.1613E+02
      0.806  0.1236E+01  0.1623E+02
      0.887  0.3097E+01  0.1648E+02
      0.969  0.3947E+01  0.1680E+02
      1.050  0.4138E+01  0.1714E+02
      1.132  0.3808E+01  0.1745E+02
      1.213  0.2149E+01  0.1762E+02
      1.294  0.9500E+00  0.1770E+02
      1.376  0.1219E+01  0.1780E+02
      1.457  0.3676E+01  0.1810E+02
      1.538  0.4238E+01  0.1844E+02
      1.620  0.2663E+01  0.1866E+02
      1.701  0.2376E+01  0.1885E+02
      1.783  0.1917E+01  0.1901E+02
      1.864  0.2569E+01  0.1922E+02
      1.945  0.3222E+01  0.1948E+02
      2.027  0.3141E+01  0.1973E+02
      2.108  0.2402E+01  0.1993E+02
      2.189  0.2369E+01  0.2012E+02
      2.271  0.1407E+01  0.2024E+02
      2.352  0.1210E+01  0.2034E+02
      2.434  0.2398E+01  0.2053E+02
      2.515  0.3676E+01  0.2083E+02
      2.596  0.2968E+01  0.2107E+02
      2.678  0.2689E+01  0.2129E+02
      2.759  0.1720E+01  0.2143E+02
      2.840  0.2316E+01  0.2162E+02
      2.922  0.4941E+01  0.2202E+02
      3.003  0.5591E+01  0.2248E+02
      3.085  0.4010E+01  0.2280E+02
      3.166  0.2191E+01  0.2298E+02
      3.247  0.2182E+01  0.2316E+02
      3.329  0.2263E+01  0.2334E+02
      3.410  0.3539E+01  0.2363E+02
      3.491  0.3680E+01  0.2393E+02
      3.573  0.2358E+01  0.2412E+02
      3.654  0.2643E+01  0.2434E+02
      3.736  0.1801E+01  0.2448E+02
      3.817  0.1841E+01  0.2463E+02
      3.898  0.2040E+01  0.2480E+02
      3.980  0.3309E+01  0.2507E+02
      4.061  0.4982E+01  0.2547E+02
      4.143  0.1497E+01  0.2560E+02
      4.224  0.5354E-01  0.2560E+02
      4.305  0.4310E-04  0.2560E+02
      4.387  0.2869E-09  0.2560E+02
      4.468  0.0000E+00  0.2560E+02
      4.549  0.0000E+00  0.2560E+02
      4.631  0.0000E+00  0.2560E+02
      4.712  0.0000E+00  0.2560E+02
      4.794  0.0000E+00  0.2560E+02
      4.875  0.0000E+00  0.2560E+02
      4.956  0.0000E+00  0.2560E+02
      5.038  0.0000E+00  0.2560E+02
      5.119  0.0000E+00  0.2560E+02
      5.200  0.0000E+00  0.2560E+02
