         262
 Energy:  -999.42228969999996      en  -926.62796969999999      edisp  -72.794319999999999     
 X   0.00000000       0.00000000       0.00000000    
 X   0.00000000      -17.1805725       0.00000000    
 X   0.00000000      -8.59028625      -14.8788128    
 X   30.0000000       0.00000000       0.00000000    
 X   0.00000000      -25.7708588      -14.8788128    
 X   30.0000000      -17.1805725       0.00000000    
 X   30.0000000      -8.59028625      -14.8788128    
 X   30.0000000      -25.7708588      -14.8788128    
 Al   16.4439507      -12.9376402      -9.12275028    
 Al   16.2822094      -14.3899899      -6.57075024    
 Al   16.3373108      -15.7641802      -4.11330986    
 Al   16.3367100      -17.1810398      -1.65347004    
 Al   16.3318901      -18.6155605      -4.13111019    
 Al   16.3367100      -20.0440006      -6.61226988    
 Al   16.3431492      -18.6112709      -9.09716988    
 Al   16.3515396      -17.1690807      -11.5657701    
 Al   16.3431492      -15.7523003      -14.0490503    
 Al   16.3271103      -18.6119003      -14.0524397    
 Al   16.3271103      -21.4761105      -14.0524397    
 Al   16.3515396      -22.9189301      -11.5657701    
 Al   16.3431492      -21.4767399      -9.09716988    
 Al   13.9885502      -20.0440006      -9.91751957    
 Al   13.9873304      -18.6103497      -12.3978901    
 Al   11.6967001      -20.0440006      -13.2256098    
 Al   11.6911297      -21.4792805      -10.7430801    
 Al   9.35289001      -22.9064407      -11.5729799    
 Al   9.35383034      -21.4744492      -14.0514803    
 Al   9.35109997      -24.3428993      -14.0538397    
 Al   11.6911297      -22.9115696      -13.2238903    
 Al   13.9873304      -21.4776497      -12.3978901    
 Al   16.3271103      -20.0440006      -11.5719604    
 Al   16.3373108      -17.2052898      -6.60937977    
 Al   13.9794598      -15.7666998      -7.43983984    
 Al   13.9853201      -17.1907597      -4.95372009    
 Al   11.6883602      -18.6108704      -5.78883982    
 Al   11.6867304      -17.1757698      -8.26881981    
 Al   9.35109997      -18.6118202      -9.08854961    
 Al   9.35289001      -17.1815701      -11.5729799    
 Al   7.01515007      -18.6151505      -12.4006596    
 Al   7.01658010      -20.0440006      -9.92591953    
 Al   4.71038008      -21.4766293      -10.7481604    
 Al   4.70238018      -20.0440006      -13.2256098    
 Al   2.35502005      -21.4790592      -14.0541401    
 Al   2.36761999      -22.9097805      -11.5710497    
 Al   2.37217999      -24.3370609      -14.0507698    
 Al   4.71038008      -22.9058495      -13.2236404    
 Al   7.01515007      -21.4728508      -12.4006596    
 Al   9.35383034      -20.0440006      -11.5738697    
 Al   11.6911297      -18.6087208      -10.7430801    
 Al   13.9984198      -17.1803207      -9.92306995    
 Al   11.6980696      -15.7425098      -10.7421398    
 Al   13.9984198      -15.7520800      -12.3968601    
 Al   13.9794598      -12.8947296      -12.4142504    
 Al   16.2822094      -11.4537201      -11.6565304    
 Al   16.3373108      -10.0126104      -14.0753298    
 Al   16.3373108      -12.8948202      -14.0753298    
 Al   16.3567696      -14.3030796      -11.5800600    
 Al   14.0103703      -14.3057699      -9.91263962    
 Al   16.3567696      -15.7484503      -9.07660007    
 Al   9.35383034      -18.6135502      -14.0514803    
 Al   9.35109997      -15.7451096      -14.0538397    
 Al   11.6867304      -14.3171797      -13.2200403    
 Al   11.6997299      -12.8813400      -10.7392101    
 Al   11.6997299      -10.0260897      -10.7392101    
 Al   11.6867304      -8.59025002      -13.2200403    
 Al   13.9984198      -24.3359203      -12.3968601    
 Al   14.0103703      -8.60165977      -9.91263962    
 Al   16.4439507      -9.96979046      -9.12275028    
 Al   16.3567696      -7.15897989      -9.07660007    
 Al   16.2822094      -8.51743984      -6.57075024    
 Al   16.3567696      -10.0083504      -4.14135981    
 Al   16.3515396      -11.4537201      -1.66647995    
 Al   13.9984198      -12.8819599      -2.47809005    
 Al   13.9885502      -14.3186102      -8.50000011E-04
 Al   11.6878796      -15.7479897     -0.826099992    
 Al   11.6867304      -14.3122997      -3.30914998    
 Al   9.35138035      -15.7456102      -4.13579988    
 Al   9.35929012      -14.3099699      -6.61695004    
 Al   7.01747990      -15.7408199      -7.44076014    
 Al   7.01268005      -14.3104696      -9.91534996    
 Al   4.71907997      -15.7468700      -10.7446604    
 Al   4.71726990      -14.3157101      -13.2254295    
 Al   7.01747990      -12.8825798      -12.3913698    
 Al   9.35929012      -11.4537201      -11.5641203    
 Al   9.35138035      -10.0228004      -14.0480003    
 Al   9.35138035      -12.8846302      -14.0480003    
 Al   11.6863604      -11.4537201      -13.2257996    
 Al   13.9794598      -10.0127001      -12.4142504    
 Al   16.3567696      -8.60435009      -11.5800600    
 Al   9.35109997      -21.4761791      -9.08854961    
 Al   9.35517025      -20.0440006      -6.60957003    
 Al   9.35816956      -18.6119804      -4.13318014    
 Al   9.35517025      -17.1833706      -1.65481997    
 Al   7.01823997      -15.7497196      -2.48123002    
 Al   7.02108002      -12.8839197      -2.47949004    
 Al   7.01268005      -11.4537201      -4.96730995    
 Al   4.71093988      -12.8825598      -5.79212999    
 Al   4.70695019      -11.4537201      -8.26601028    
 Al   2.35477996      -12.8813896      -9.09027958    
 Al   2.35466003      -14.3178701      -6.61239004    
 Al   2.36887002      -15.7508698      -4.13240004    
 Al   4.71726990      -14.3177099      -3.30773997    
 Al   4.71038008      -12.8829403     -0.826219976    
 Al   4.71707010      -15.7511396     -0.827920020    
 Al   7.01658010      -22.9016209      -14.8754501    
 Al   9.35109997      -14.3204298      -1.65564001    
 Al   9.35289001      -11.4537201      -1.65205002    
 Al   11.6911297      -10.0214195     -0.831049979    
 Al   13.9885397      -8.58882046      -8.50000011E-04
 Al   13.9934797      -7.16161013      -2.47666001    
 Al   13.9853096      -5.71667004      -4.95372009    
 Al   13.9934797      -21.4745102      -7.44361019    
 Al   11.6867199      -5.73165989      -8.26881981    
 Al   11.6863499      -7.15841007      -5.78610992    
 Al   9.35929012      -8.59745979      -6.61695004    
 Al   9.35268021      -7.16559982      -9.09202003    
 Al   7.01267004      -8.59696007      -9.91534996    
 Al   7.02107000      -24.3381195      -12.3978596    
 Al   4.71725988      -8.59171963      -13.2254295    
 Al   4.71093988      -10.0256996      -10.7403603    
 Al   2.35465002      -11.4537201      -11.5732498    
 Al   2.36886001      -10.0224895      -14.0542603    
 Al   2.36886001      -12.8849401      -14.0542603    
 Al   2.37217999      -15.7509403      -14.0507698    
 Al   2.36761999      -17.1782303      -11.5710497    
 Al   2.37217999      -18.6120796      -9.09512997    
 Al   4.71726990      -17.1797009      -8.26484966    
 Al   7.01823997      -18.6114807      -7.43795013    
 Al   4.71341991      -18.6116104      -5.78355980    
 Al   7.01683998      -17.1808109      -4.95946980    
 Al   4.71456003      -15.7461004      -5.78779984    
 Al   7.01747990      -14.3119497      -4.96588993    
 Al   9.35268974      -12.8824301      -4.13938999    
 Al   11.6980600      -11.4537201      -3.31374002    
 Al   9.35268021      -10.0249996      -4.13938999    
 Al   11.6997204      -10.0256701      -5.79304981    
 Al   14.0103598      -11.4537096      -4.97273016    
 Al   13.9966698      -10.0158005      -7.43582010    
 Al   11.6742401      -11.4537096      -8.26601028    
 Al   9.36065960      -12.8851900      -9.09247971    
 Al   9.36065006      -10.0222197      -9.09247971    
 Al   7.01771021      -10.0253496      -7.44133997    
 Al   7.01746988      -7.16660976      -7.44075012    
 Al   7.01822996      -4.29594994      -7.43794012    
 Al   7.01682997      -5.72662020      -4.95945978    
 Al   4.71455002      -7.16133022      -5.78779984    
 Al   4.71725988      -8.58971977      -3.30773997    
 Al   4.71037006      -10.0244999     -0.826219976    
 Al   7.01657009      -17.1863899      -14.8754501    
 Al   7.01822996      -7.15772009      -2.48123002    
 Al   9.35136986      -7.16181993      -4.13578987    
 Al   9.35816002      -4.29545021      -4.13317013    
 Al   11.6849804      -2.86342001      -3.30639005    
 Al   13.9863997      -1.43262994      -2.48032999    
 Al   13.9853096      -2.86342001      -1.17499996E-02
 Al   11.6883497      -4.29671001     -0.824039996    
 Al   9.35515976      -5.72406006      -1.65480995    
 Al   11.6878700      -7.15944004     -0.826089978    
 Al   11.6867199      -8.59512043      -3.30913997    
 Al   13.9984102      -10.0254602      -2.47809005    
 Al   16.3431396      -8.59473991      -1.65179002    
 Al   16.3367004      -5.72637987      -1.65346003    
 Al   16.3318806      -4.29186010      -4.13110018    
 Al   16.3372993      -7.14323997      -4.11329985    
 Al   16.3372993      -5.70212984      -6.60937023    
 Al   13.9794502      -7.14071989      -7.43982983    
 Al   13.9794502      -8.58172989      -4.94393015    
 Al   7.01772022      -12.8820801      -7.44133997    
 Al   9.36065960      -11.4537201      -6.61307001    
 Al   11.6911297      -12.8860102     -0.831049979    
 Al   13.9873304      -11.4537201      -2.24000006E-03
 Al   13.9934902      -18.6134892      -7.44361019    
 Al   11.6878796      -20.0440006      -8.26700974    
 Al   2.37468004      -14.3126297      -11.5728397    
 Al   4.71093988      -12.8817396      -10.7403603    
 Al   7.01772022      -11.4537096      -9.91534042    
 Al   7.01746988      -10.0248404      -12.3913698    
 Al   9.35268021      -8.59430027      -11.5666199    
 Al   11.6980600      -7.16490984      -10.7421398    
 Al   13.9984102      -22.9076691      -9.92306995    
 Al   2.37468004      -15.7469702      -9.08848953    
 Al   4.71093988      -14.3105803      -8.26552963    
 Al   4.71455002      -11.4537201      -13.2224197    
 Al   2.36888003      -17.1821003      -6.61136007    
 Al   2.36664009      -20.0440006      -6.61328983    
 Al   2.37219000      -21.4759197      -9.09512997    
 Al   4.71708012      -20.0439892      -8.26336956    
 Al   4.71038008      -18.6113701      -10.7481604    
 Al   7.02108002      -17.1800804      -9.92066956    
 Al   9.35268974      -15.7418203      -9.09202003    
 Al   11.6997299      -14.3093700      -8.26576042    
 Al   13.9966803      -12.8915997      -7.43583012    
 Al   11.6997299      -12.8817501      -5.79304981    
 Al   11.6863604      -15.7490196      -5.78610992    
 Al   13.9794598      -14.3256702      -4.94393015    
 Al   16.3567696      -12.8990698      -4.14136982    
 Al   16.3431606      -14.3126602      -1.65181005    
 Al   13.9934998      -15.7458000      -2.47666001    
 Al   11.6883698      -17.1775703      -3.30631995    
 Al   2.35909009      -18.6111698      -4.13364983    
 Al   2.36664009      -17.1801605      -1.65295994    
 Al   4.71342993      -17.1825294      -3.30831003    
 Al   7.02108002      -15.7498798      -12.3978596    
 Al   9.35268974      -14.3131104      -11.5666199    
 Al   2.35503006      -20.0440006      -11.5685396    
 Al   2.35502005      -18.6089401      -14.0541401    
 Al   4.71038008      -17.1821404      -13.2236404    
 Al   2.37217999      -14.3148699      -1.65211999    
 Al   2.36760998      -11.4537296      -1.65591002    
 Al   2.37466002      -10.0193901      -4.13670015    
 Al   2.35462999      -8.58957005      -6.61239004    
 Al   2.37463999      -7.16047001      -9.08848953    
 Al   4.71722984      -5.72772980      -8.26484966    
 Al   4.71903992      -7.16056013      -10.7446604    
 Al   7.02103996      -22.9078999      -9.92066956    
 Al   2.37467003      -12.8880596      -4.13670015    
 Al   4.71906996      -11.4537201      -3.30870008    
 Al   7.02105999      -10.0235004      -2.47949004    
 Al   9.35107994      -8.58699036      -1.65565002    
 Al   4.71091986      -10.0248699      -5.79212999    
 Al   7.01745987      -8.59547043      -4.96588993    
 Al   2.35475993      -11.4537296      -6.61746979    
 Al   2.35474992      -10.0260496      -9.09027958    
 Al   4.71090984      -8.59685040      -8.26552963    
 Al   2.37465000      -8.59480953      -11.5728397    
 Al   7.01514006      -20.0440006      -14.8755198    
 Al   9.35136986      -17.1765099      -6.61422014    
 Al   9.35138035      -5.73090982      -6.61422014    
 Al   11.6883602      -4.29657984      -5.78883982    
 Al   13.9864197      -2.86345005      -4.95852995    
 Al   13.9869099      -4.29483986      -2.48069000    
 Al   16.3323994      -2.86405993      -1.65734005    
 Al   11.6911297      -17.1764297      -13.2238903    
 Al   11.6997204      -8.59805012      -8.26574993    
 Al   11.6883602      -5.72984982      -3.30631995    
 Al   13.9966898      -11.4537201      -9.92636013    
 Al   13.9934902      -14.3213902      -14.8777399    
 Al   16.4439507      -11.4537001      -6.55251980    
 Al   2.36882997      -5.72533989      -6.61135006    
 Al   2.35904002      -4.29626989      -4.13364983    
 Al   4.70754004      -2.86343002      -3.30640006    
 Al   7.01859999      -1.43467999      -2.48151994    
 Al   7.01679993      -2.86342001      -2.69999990E-04
 Al   4.71338987      -4.29251003     -0.827340007    
 Al   2.36660004      -5.72728014      -1.65295994    
 Al   4.71705008      -7.15629005     -0.827920020    
 Al   7.01820993      -5.72518015      -2.99999992E-05
 Al   7.01859999      -4.29216003      -2.48151994    
 Al   9.35813046      -2.86342001      -1.65285003    
 Al   11.6883202      -1.43011999     -0.824060023    
 Al   13.9934397      -25.7665901      -14.8777704    
 Al   2.36883998      -7.15656996      -4.13240004    
 Al   4.71338987      -5.72489977      -3.30831003    
 Al   4.71337986      -4.29582024      -5.78355980    
 Al   7.01859999      -2.86342001      -4.95617008    
 Al   2.37215996      -8.59257984      -1.65211999    
 Al   2.35904002      -2.86344004      -1.65190995    
 Al   4.71337986      -1.43434000     -0.827340007    
 Al   7.01819992      -1.67000003E-03  -2.99999992E-05
 Al   16.3431492      -24.3356991      -14.0490503    
 O    17.1457996      -11.4537201      -8.26601028    
 O    18.1471004      -11.2140903      -7.87874985    
         262
 Energy:  -1003.3234600000000      en  -930.49153999999999      edisp  -72.831919999999997     
 X   0.00000000       0.00000000       0.00000000    
 X   0.00000000      -17.1805725       0.00000000    
 X   0.00000000      -8.59028625      -14.8788128    
 X   30.0000000       0.00000000       0.00000000    
 X   0.00000000      -25.7708588      -14.8788128    
 X   30.0000000      -17.1805725       0.00000000    
 X   30.0000000      -8.59028625      -14.8788128    
 X   30.0000000      -25.7708588      -14.8788128    
 Al   16.4193306      -12.9680500      -9.14050961    
 Al   16.2827206      -14.3858805      -6.57291985    
 Al   16.3357792      -15.7640200      -4.11356020    
 Al   16.3350296      -17.1810894      -1.65350997    
 Al   16.3301697      -18.6158295      -4.13103008    
 Al   16.3350201      -20.0440407      -6.61220980    
 Al   16.3413506      -18.6114902      -9.09727955    
 Al   16.3496895      -17.1689396      -11.5656796    
 Al   16.3414497      -15.7523899      -14.0490999    
 Al   16.3254910      -18.6119194      -14.0525703    
 Al   16.3253994      -21.4760208      -14.0523996    
 Al   16.3497791      -22.9189091      -11.5658197    
 Al   16.3413391      -21.4765091      -9.09724045    
 Al   13.9879599      -20.0441494      -9.91749954    
 Al   13.9863100      -18.6106491      -12.3980904    
 Al   11.6969995      -20.0440903      -13.2256403    
 Al   11.6907701      -21.4795704      -10.7431898    
 Al   9.35276031      -22.9063206      -11.5729599    
 Al   9.35373020      -21.4748192      -14.0516300    
 Al   9.35103035      -24.3426800      -14.0538702    
 Al   11.6908598      -22.9114704      -13.2235203    
 Al   13.9863596      -21.4772797      -12.3982401    
 Al   16.3254395      -20.0440807      -11.5718403    
 Al   16.3356094      -17.2050991      -6.60933018    
 Al   13.9789896      -15.7660599      -7.44006014    
 Al   13.9846802      -17.1905003      -4.95390987    
 Al   11.6880703      -18.6110497      -5.78888988    
 Al   11.6864796      -17.1759701      -8.26887989    
 Al   9.35118961      -18.6119099      -9.08878994    
 Al   9.35280991      -17.1815796      -11.5729399    
 Al   7.01521015      -18.6149693      -12.4006395    
 Al   7.01653004      -20.0440102      -9.92562962    
 Al   4.71155977      -21.4766407      -10.7481699    
 Al   4.70355988      -20.0440502      -13.2256002    
 Al   2.35689998      -21.4790707      -14.0541096    
 Al   2.36922002      -22.9097691      -11.5710802    
 Al   2.37399006      -24.3372803      -14.0508499    
 Al   4.71154022      -22.9057693      -13.2235899    
 Al   7.01513004      -21.4729900      -12.4006796    
 Al   9.35389996      -20.0440598      -11.5732803    
 Al   11.6907396      -18.6085701      -10.7432804    
 Al   13.9973497      -17.1804295      -9.92310047    
 Al   11.6979504      -15.7424402      -10.7421198    
 Al   13.9973402      -15.7522001      -12.3968801    
 Al   13.9789200      -12.8944702      -12.4135599    
 Al   16.2824593      -11.4536600      -11.6522303    
 Al   16.3356609      -10.0126400      -14.0752602    
 Al   16.3355598      -12.8947601      -14.0752602    
 Al   16.3550396      -14.3036900      -11.5799799    
 Al   14.0092201      -14.3070803      -9.91335964    
 Al   16.3550091      -15.7486000      -9.07723999    
 Al   9.35379982      -18.6130199      -14.0517797    
 Al   9.35103035      -15.7454004      -14.0538101    
 Al   11.6864901      -14.3173304      -13.2201405    
 Al   11.6992102      -12.8816900      -10.7395897    
 Al   11.6991901      -10.0257301      -10.7396603    
 Al   11.6864996      -8.59006977      -13.2202101    
 Al   13.9972801      -24.3357506      -12.3970900    
 Al   14.0089397      -8.60066986      -9.91333008    
 Al   16.4169693      -9.93758965      -9.14243984    
 Al   16.3549900      -7.15844011      -9.07744980    
 Al   16.2825794      -8.52223969      -6.57349014    
 Al   16.3543396      -10.0086498      -4.13992023    
 Al   16.3496399      -11.4537802      -1.66603994    
 Al   13.9972000      -12.8820295      -2.47779989    
 Al   13.9878597      -14.3185797      -9.69999994E-04
 Al   11.6875095      -15.7482100     -0.826139987    
 Al   11.6864004      -14.3121500      -3.30890989    
 Al   9.35114002      -15.7458601      -4.13582993    
 Al   9.35925961      -14.3103199      -6.61677980    
 Al   7.01741982      -15.7409801      -7.44081020    
 Al   7.01284981      -14.3106804      -9.91547966    
 Al   4.72000980      -15.7470703      -10.7447996    
 Al   4.71815014      -14.3156700      -13.2254400    
 Al   7.01745987      -12.8827400      -12.3916197    
 Al   9.35914040      -11.4538002      -11.5645399    
 Al   9.35116005      -10.0228596      -14.0482197    
 Al   9.35118961      -12.8845501      -14.0480099    
 Al   11.6864595      -11.4537096      -13.2255697    
 Al   13.9789000      -10.0129204      -12.4136000    
 Al   16.3551102      -8.60375023      -11.5798702    
 Al   9.35109997      -21.4760799      -9.08870029    
 Al   9.35511971      -20.0440197      -6.60956001    
 Al   9.35816002      -18.6117897      -4.13335991    
 Al   9.35501003      -17.1834297      -1.65480006    
 Al   7.01840019      -15.7496004      -2.48099995    
 Al   7.02115011      -12.8840399      -2.47950006    
 Al   7.01295996      -11.4537296      -4.96703005    
 Al   4.71190977      -12.8827105      -5.79168987    
 Al   4.70826006      -11.4537096      -8.26595020    
 Al   2.35687995      -12.8814802      -9.09025002    
 Al   2.35657001      -14.3178596      -6.61232996    
 Al   2.37055993      -15.7505903      -4.13242006    
 Al   4.71802998      -14.3177004      -3.30791998    
 Al   4.71157980      -12.8829098     -0.826160014    
 Al   4.71802998      -15.7512798     -0.827910006    
 Al   7.01656008      -22.9017696      -14.8755703    
 Al   9.35103989      -14.3203497      -1.65543997    
 Al   9.35264015      -11.4536896      -1.65188003    
 Al   11.6909304      -10.0217600     -0.831110001    
 Al   13.9878197      -8.58895016      -1.04999996E-03
 Al   13.9926701      -7.16152000      -2.47642994    
 Al   13.9847202      -5.71700001      -4.95386982    
 Al   13.9926004      -21.4743004      -7.44364023    
 Al   11.6864004      -5.73152018      -8.26896000    
 Al   11.6864300      -7.15871000      -5.78629017    
 Al   9.35941029      -8.59702969      -6.61663008    
 Al   9.35291958      -7.16545010      -9.09214020    
 Al   7.01292992      -8.59683037      -9.91543961    
 Al   7.02118015      -24.3381405      -12.3979502    
 Al   4.71814013      -8.59177017      -13.2254400    
 Al   4.71206999      -10.0253401      -10.7407598    
 Al   2.35675001      -11.4537601      -11.5733995    
 Al   2.37052011      -10.0222998      -14.0540800    
 Al   2.37053990      -12.8850603      -14.0540705    
 Al   2.37395000      -15.7508497      -14.0508204    
 Al   2.36924005      -17.1781998      -11.5710001    
 Al   2.37384009      -18.6120796      -9.09504986    
 Al   4.71820021      -17.1796894      -8.26482010    
 Al   7.01839018      -18.6114807      -7.43814993    
 Al   4.71442986      -18.6117096      -5.78361988    
 Al   7.01684999      -17.1808605      -4.95944023    
 Al   4.71545982      -15.7461796      -5.78774977    
 Al   7.01757002      -14.3118496      -4.96577978    
 Al   9.35295963      -12.8823500      -4.13929987    
 Al   11.6981497      -11.4537001      -3.31394005    
 Al   9.35301018      -10.0249901      -4.13933992    
 Al   11.6987495      -10.0253696      -5.79260015    
 Al   14.0083199      -11.4537601      -4.97128010    
 Al   13.9989901      -10.0178604      -7.43678999    
 Al   11.6759005      -11.4537201      -8.26609039    
 Al   9.35997963      -12.8852196      -9.09243965    
 Al   9.36013985      -10.0221796      -9.09251022    
 Al   7.01776981      -10.0250902      -7.44122982    
 Al   7.01745987      -7.16660976      -7.44077015    
 Al   7.01851988      -4.29585981      -7.43818998    
 Al   7.01684999      -5.72658014      -4.95938015    
 Al   4.71545982      -7.16140985      -5.78775978    
 Al   4.71794987      -8.58977032      -3.30803990    
 Al   4.71156979      -10.0244799     -0.826150000    
 Al   7.01664019      -17.1862202      -14.8755703    
 Al   7.01842022      -7.15785980      -2.48106003    
 Al   9.35116959      -7.16182995      -4.13589001    
 Al   9.35814953      -4.29559994      -4.13329983    
 Al   11.6853399      -2.86356997      -3.30647993    
 Al   13.9856100      -1.43273997      -2.48042989    
 Al   13.9845600      -2.86346006      -1.14700003E-02
 Al   11.6881199      -4.29673004     -0.824310005    
 Al   9.35517025      -5.72396994      -1.65485001    
 Al   11.6875401      -7.15916014     -0.826160014    
 Al   11.6864100      -8.59535980      -3.30900002    
 Al   13.9972401      -10.0254297      -2.47793007    
 Al   16.3413601      -8.59463978      -1.65166998    
 Al   16.3349800      -5.72641993      -1.65359998    
 Al   16.3301792      -4.29164982      -4.13097000    
 Al   16.3358707      -7.14339018      -4.11348009    
 Al   16.3358707      -5.70235014      -6.60938978    
 Al   13.9789400      -7.14162016      -7.43990993    
 Al   13.9788799      -8.58224964      -4.94464016    
 Al   7.01778984      -12.8822498      -7.44125986    
 Al   9.36007023      -11.4537497      -6.61304998    
 Al   11.6910105      -12.8856897     -0.831149995    
 Al   13.9864502      -11.4537401      -1.93999999E-03
 Al   13.9924002      -18.6136208      -7.44352007    
 Al   11.6874905      -20.0439396      -8.26667976    
 Al   2.37658000      -14.3126802      -11.5731697    
 Al   4.71201992      -12.8820105      -10.7409000    
 Al   7.01765013      -11.4536896      -9.91543961    
 Al   7.01760006      -10.0247602      -12.3915005    
 Al   9.35280991      -8.59416962      -11.5666704    
 Al   11.6979704      -7.16496992      -10.7420597    
 Al   13.9972296      -22.9073296      -9.92306042    
 Al   2.37648010      -15.7473698      -9.08839989    
 Al   4.71191978      -14.3109798      -8.26539993    
 Al   4.71546984      -11.4538002      -13.2225504    
 Al   2.37054992      -17.1820107      -6.61148977    
 Al   2.36849999      -20.0440502      -6.61334991    
 Al   2.37402010      -21.4759007      -9.09496975    
 Al   4.71802998      -20.0439701      -8.26344013    
 Al   4.71150017      -18.6112995      -10.7481098    
 Al   7.02113008      -17.1801205      -9.92064953    
 Al   9.35280991      -15.7419796      -9.09214020    
 Al   11.6993504      -14.3098202      -8.26566029    
 Al   13.9986897      -12.8895197      -7.43692017    
 Al   11.6990004      -12.8821697      -5.79256010    
 Al   11.6863298      -15.7487001      -5.78633022    
 Al   13.9790802      -14.3250399      -4.94449997    
 Al   16.3546600      -12.8985701      -4.14025021    
 Al   16.3413391      -14.3126402      -1.65165997    
 Al   13.9926395      -15.7457895      -2.47655010    
 Al   11.6880798      -17.1775894      -3.30625010    
 Al   2.36086011      -18.6114006      -4.13361979    
 Al   2.36853004      -17.1800900      -1.65278995    
 Al   4.71452999      -17.1824608      -3.30813003    
 Al   7.02119017      -15.7498398      -12.3979397    
 Al   9.35282993      -14.3131800      -11.5668001    
 Al   2.35694003      -20.0440102      -11.5684605    
 Al   2.35692000      -18.6088200      -14.0541801    
 Al   4.71145010      -17.1821194      -13.2236099    
 Al   2.37389994      -14.3149796      -1.65227997    
 Al   2.36925006      -11.4538097      -1.65596998    
 Al   2.37614012      -10.0191603      -4.13674021    
 Al   2.35637999      -8.58955002      -6.61224985    
 Al   2.37620997      -7.16027021      -9.08827019    
 Al   4.71809006      -5.72784996      -8.26476002    
 Al   4.71996021      -7.16054010      -10.7447395    
 Al   7.02114010      -22.9078293      -9.92066956    
 Al   2.37624002      -12.8881702      -4.13655996    
 Al   4.71988010      -11.4537296      -3.30870008    
 Al   7.02117014      -10.0234299      -2.47950006    
 Al   9.35097027      -8.58705044      -1.65540004    
 Al   4.71186018      -10.0245504      -5.79163980    
 Al   7.01744986      -8.59554005      -4.96583986    
 Al   2.35665989      -11.4536896      -6.61720991    
 Al   2.35684991      -10.0257397      -9.09027004    
 Al   4.71186018      -8.59638977      -8.26539993    
 Al   2.37638998      -8.59477043      -11.5730896    
 Al   7.01515007      -20.0440407      -14.8755798    
 Al   9.35122967      -17.1766109      -6.61398983    
 Al   9.35118961      -5.73082018      -6.61418009    
 Al   11.6881800      -4.29641008      -5.78882980    
 Al   13.9857702      -2.86350989      -4.95849991    
 Al   13.9861403      -4.29479980      -2.48080993    
 Al   16.3305397      -2.86403990      -1.65761995    
 Al   11.6907501      -17.1766491      -13.2236404    
 Al   11.6989603      -8.59757996      -8.26572990    
 Al   11.6881599      -5.72959995      -3.30616999    
 Al   14.0005398      -11.4537201      -9.92354965    
 Al   13.9923496      -14.3213902      -14.8779297    
 Al   16.4325294      -11.4518404      -6.51824999    
 Al   2.37052011      -5.72544003      -6.61158991    
 Al   2.36080003      -4.29603004      -4.13353014    
 Al   4.70864010      -2.86343002      -3.30640006    
 Al   7.01869011      -1.43456995      -2.48155999    
 Al   7.01690006      -2.86348009      -1.19999997E-04
 Al   4.71439981      -4.29262018     -0.827400029    
 Al   2.36842990      -5.72733021      -1.65289998    
 Al   4.71799994      -7.15629005     -0.827830017    
 Al   7.01837015      -5.72525978       1.19999997E-04
 Al   7.01862001      -4.29228020      -2.48150992    
 Al   9.35818005      -2.86343002      -1.65262997    
 Al   11.6880703      -1.43011999     -0.824119985    
 Al   13.9924097      -25.7664909      -14.8778200    
 Al   2.37054992      -7.15696001      -4.13243008    
 Al   4.71449995      -5.72490978      -3.30818009    
 Al   4.71439981      -4.29568005      -5.78360987    
 Al   7.01857996      -2.86338997      -4.95612001    
 Al   2.37400007      -8.59241962      -1.65222001    
 Al   2.36085010      -2.86347008      -1.65215003    
 Al   4.71439981      -1.43415999     -0.827419996    
 Al   7.01843977      -1.47000002E-03  -1.99999995E-05
 Al   16.3414307      -24.3356400      -14.0490398    
 O    16.6553497      -11.5804796      -8.48750019    
 O    18.6801491      -11.0902300      -7.65502977    
         262
 Energy:  -1003.4169704000000      en  -930.58649040000000      edisp  -72.830479999999994     
 X   0.00000000       0.00000000       0.00000000    
 X   0.00000000      -17.1805725       0.00000000    
 X   0.00000000      -8.59028625      -14.8788128    
 X   30.0000000       0.00000000       0.00000000    
 X   0.00000000      -25.7708588      -14.8788128    
 X   30.0000000      -17.1805725       0.00000000    
 X   30.0000000      -8.59028625      -14.8788128    
 X   30.0000000      -25.7708588      -14.8788128    
 Al   16.4209309      -12.9660797      -9.13936043    
 Al   16.2826900      -14.3861399      -6.57278013    
 Al   16.3358803      -15.7640305      -4.11355019    
 Al   16.3351402      -17.1810799      -1.65350997    
 Al   16.3302803      -18.6158104      -4.13103008    
 Al   16.3351307      -20.0440407      -6.61220980    
 Al   16.3414707      -18.6114807      -9.09727001    