NiAl                                    
            1
     0.000000  -17.180573    0.000000
     0.000000   -8.590287  -14.878813
    30.000000    0.000000    0.000000
   Al   O 
   252     2
Direct configuration=     1
   0.44647042  0.61313695  0.54813167
   0.61676438  0.44161789  0.54274033
   0.77933134  0.27645418  0.54457700
   0.94446263  0.11112916  0.54455700
   0.94469853  0.27765051  0.54439633
   0.94446231  0.44440843  0.54455703
   0.77756522  0.61141772  0.54477170
   0.61066527  0.77733149  0.54505137
   0.44475100  0.94423190  0.54477170
   0.61108088  0.94445975  0.54423703
   0.77779301  0.94445975  0.54423703
   0.94533687  0.77733149  0.54505140
   0.94435069  0.61141772  0.54477170
   0.83338994  0.66655317  0.46628503
   0.66659154  0.83325800  0.46624437
   0.72222214  0.88888878  0.38989003
   0.88918804  0.72203871  0.38970437
   0.94436763  0.77781601  0.31176303
   0.77772874  0.94439516  0.31179437
   0.94460836  0.94455377  0.31170337
   0.88918767  0.88877311  0.38970437
   0.83348356  0.83325793  0.46624437
   0.77779271  0.77774752  0.54423703
   0.77933153  0.44421420  0.54457700
   0.66769054  0.50002913  0.46598200
   0.83412399  0.33293785  0.46617733
   0.88871778  0.38906605  0.38961200
   0.72184811  0.55574460  0.38955770
   0.77788688  0.61083844  0.31170337
   0.61114991  0.77781608  0.31176303
   0.66677775  0.83344424  0.23383837
   0.83310763  0.66711780  0.23388603
   0.88886298  0.72238034  0.15701270
   0.72222205  0.88888885  0.15674603
   0.77790746  0.94457414  0.07850070
   0.94462679  0.77768650  0.07892070
   0.94437139  0.94434764  0.07907270
   0.88886298  0.88875651  0.15701270
   0.83311096  0.83344424  0.23383837
   0.77772849  0.77787596  0.31179433
   0.72210616  0.72203878  0.38970433
   0.66652204  0.66692618  0.46661397
   0.55530926  0.72197560  0.38993563
   0.50025968  0.83318871  0.46661397
   0.33336245  0.83435748  0.46598197
   0.27495109  0.78343131  0.54274027
   0.10978752  0.94599804  0.54457697
   0.27754735  0.94599804  0.54457697
   0.44336860  0.77829185  0.54522563
   0.49955860  0.66622512  0.46701230
   0.61162511  0.61003515  0.54522563
   0.61120903  0.94439529  0.31179433
   0.44417142  0.94455384  0.31170333
   0.38907810  0.88851436  0.38955763
   0.38887251  0.72177861  0.38999097
   0.22268194  0.72177854  0.38999097
   0.05574060  0.88851429  0.38955763
   0.99988468  0.83318864  0.46661397
   0.16754934  0.66622505  0.46701230
   0.27372584  0.61313681  0.54813163
   0.11167277  0.61003502  0.54522560
   0.27495100  0.44161775  0.54274027
   0.44336913  0.27833927  0.54522560
   0.61066523  0.11200349  0.54505127
   0.66652232  0.16655152  0.46661393
   0.83339018  0.00005713  0.46628493
   0.88885516  0.05552197  0.38959593
   0.72184793  0.22240685  0.38955760
   0.77749466  0.27796579  0.31171260
   0.61055419  0.44472297  0.31197627
   0.66615318  0.50009103  0.23391593
   0.49974106  0.66640732  0.23375593
   0.55547826  0.72214504  0.15730260
   0.38881138  0.88887668  0.15724227
   0.33342410  0.83281979  0.23391593
   0.27805654  0.77722053  0.31197627
   0.11129902  0.94416127  0.31171260
   0.27787259  0.94416133  0.31171260
   0.22221603  0.88890155  0.38954527
   0.16561310  0.83435748  0.46598193
   0.11167251  0.77829185  0.54522560
   0.94460768  0.61083844  0.31170333
   0.94455295  0.44422703  0.31183900
   0.94442060  0.27778963  0.31193897
   0.94455283  0.11121989  0.31183893
   0.83333552  0.16676263  0.23394127
   0.66658932  0.16664569  0.23403587
   0.49974140  0.33385116  0.23375590
   0.55518945  0.38928710  0.15703123
   0.38888911  0.55555574  0.15689827
   0.44428755  0.61095472  0.07849263
   0.61116739  0.44441657  0.07848860
   0.77791516  0.27773734  0.07896227
   0.72221023  0.22231216  0.15724223
   0.72209020  0.05552997  0.15701253
   0.88897740  0.05564429  0.15723557
   0.83310787  0.99977418  0.23388587
   0.77788709  0.11127494  0.31170323
   0.61115009  0.11103366  0.31176287
   0.55537222  0.05585446  0.38970417
   0.49988611  0.00005693  0.46628480
   0.33361572  0.16645528  0.46644947
   0.16627138  0.33293758  0.46617713
   0.99978866  0.50028224  0.46644947
   0.05574051  0.55574433  0.38955747
   0.22221596  0.38888230  0.38954517
   0.27805602  0.44472277  0.31197617
   0.11153985  0.61107139  0.31175613
   0.16718468  0.66640712  0.23375580
   0.99997910  0.83325578  0.23403580
   0.05564501  0.88887648  0.15724213
   0.22262062  0.72185577  0.15703117
   0.27774979  0.77783402  0.07848850
   0.11107074  0.94458187  0.07896217
   0.27768042  0.94458187  0.07896217
   0.44461397  0.94434730  0.07907253
   0.61102037  0.77768623  0.07892053
   0.77768087  0.61128048  0.07907257
   0.72221020  0.55547757  0.15724220
   0.83333518  0.49990191  0.23394123
   0.88893830  0.38871091  0.15711390
   0.83335154  0.33332410  0.23389453
   0.72200796  0.38899588  0.15715187
   0.66615301  0.33375559  0.23391587
   0.61072178  0.27820673  0.31175617
   0.55530915  0.22271508  0.38993547
   0.44440428  0.27820673  0.31175613
   0.38887225  0.38934866  0.38999080
   0.49955895  0.33421523  0.46701213
   0.33309298  0.49975929  0.46655580
   0.38888884  0.55555547  0.38914117
   0.44443520  0.61110224  0.31202187
   0.27779524  0.61110224  0.31202180
   0.33346324  0.50012968  0.23392380
   0.16708902  0.50009063  0.23391577
   0.00009589  0.49990177  0.23394103
   0.16665739  0.33332397  0.23389437
   0.22232922  0.38899581  0.15715173
   0.38881110  0.22231182  0.15724210
   0.55571389  0.05552977  0.15701243
   0.50045135  0.99977391  0.23388573
   0.33323580  0.16676229  0.23394107
   0.27787278  0.27796538  0.31171240
   0.11112300  0.27778923  0.31193867
   0.05555560  0.22222156  0.38949930
   0.00003566  0.16670228  0.46621327
   0.16627146  0.00078985  0.46617693
   0.22239965  0.05538365  0.38961167
   0.27756057  0.11121949  0.31183870
   0.38895613  0.05552150  0.38959573
   0.38907830  0.22240652  0.38955743
   0.50025917  0.16655132  0.46661380
   0.44475103  0.11101658  0.54477143
   0.27774129  0.11112869  0.54455670
   0.11098393  0.27765004  0.54439600
   0.27754742  0.27645377  0.54457673
   0.10978712  0.44421373  0.54457673
   0.16561323  0.50002880  0.46598177
   0.33336230  0.33227953  0.46598177
   0.49974012  0.50012988  0.23392397
   0.44443589  0.44446207  0.31202193
   0.72210653  0.05585446  0.38970420
   0.66659178  0.00015028  0.46624420
   0.83326199  0.50028251  0.46644963
   0.88885496  0.55562302  0.38959600
   0.44416718  0.77780653  0.07915597
   0.38885698  0.72185590  0.15703123
   0.33346313  0.66640665  0.23392387
   0.16708879  0.83281979  0.23391573
   0.11153913  0.77738869  0.31175600
   0.05604740  0.72197573  0.38993530
   0.99988377  0.66692638  0.46661357
   0.61113950  0.61083421  0.07915607
   0.55518924  0.55552341  0.15703137
   0.22232947  0.88867431  0.15715180
   0.77791523  0.44434714  0.07896253
   0.94442801  0.44447692  0.07888800
   0.94437144  0.61128055  0.07907300
   0.88897708  0.55537831  0.15723597
   0.72208951  0.72238020  0.15701283
   0.66658892  0.66676495  0.23403613
   0.61072104  0.61107173  0.31175643
   0.55511101  0.55553914  0.38999103
   0.50047935  0.49975989  0.46655600
   0.55511109  0.38934907  0.38999103
   0.72223451  0.38888270  0.38954550
   0.66768973  0.33228013  0.46598210
   0.61162410  0.27833974  0.54522573
   0.77756380  0.11101726  0.54477187
   0.83326097  0.16645575  0.46644990
   0.88871658  0.22221685  0.38961227
   0.94435766  0.27782109  0.07863630
   0.94442850  0.11109475  0.07888793
   0.88893848  0.22235033  0.15711423
   0.50009816  0.83325598  0.23403603
   0.44440404  0.77738869  0.31175633
   0.77790761  0.77751760  0.07850090
   0.61085136  0.94457387  0.07850077
   0.55571326  0.88875631  0.15701273
   0.77768183  0.11103823  0.07907267
   0.61102103  0.11129295  0.07892033
   0.44416832  0.27802594  0.07915537
   0.27775011  0.44441623  0.07848777
   0.11135997  0.61083407  0.07915480
   0.05564524  0.55547771  0.15724100
   0.05570985  0.72214490  0.15730137
   0.99997833  0.66676508  0.23403457
   0.61114001  0.27802601  0.07915570
   0.55547867  0.22237661  0.15730227
   0.50009777  0.16664595  0.23403547
   0.44417008  0.11127548  0.31170267
   0.38885682  0.38928710  0.15703063
   0.33342384  0.33375606  0.23391517
   0.44428858  0.44475772  0.07849207
   0.27809169  0.61095438  0.07849180
   0.22262034  0.55552348  0.15703033
   0.11135996  0.77780640  0.07915483
   0.66677737  0.99977841  0.23383807
   0.77749393  0.44453922  0.31171240
   0.11129962  0.44453949  0.31171260
   0.05555034  0.38906632  0.38961210
   0.00003705  0.33326146  0.46621397
   0.16661913  0.16672654  0.46623047
   0.11100844  0.11138933  0.54441333
   0.55537212  0.88877318  0.38970433
   0.22268253  0.55553820  0.38999077
   0.22239932  0.22221658  0.38961190
   0.33309350  0.66714730  0.46655623
   0.33361674  0.99992795  0.46644957
   0.44646926  0.44039299  0.54813160
   0.11107146  0.44434694  0.07896110
   0.11115508  0.27782088  0.07863473
   0.05555587  0.22222196  0.15691797
   0.00011505  0.16678226  0.23395320
   0.16665724  0.00001828  0.23389347
   0.22204425  0.05560517  0.15711293
   0.27781057  0.11109455  0.07888670
   0.38871183  0.05564422  0.15723490
   0.33323480  0.00000222  0.23394047
   0.16643546  0.16678226  0.23395350
   0.11112230  0.11108722  0.31193773
   0.05554805  0.05538473  0.38961060
   0.99978668  0.99992956  0.46644813
   0.27768160  0.27773694  0.07896140
   0.22204433  0.22235033  0.15711293
   0.05568395  0.38871098  0.15711267
   0.00011506  0.33310265  0.23395323
   0.44461440  0.11103816  0.07907200
   0.11115527  0.11102398  0.07863473
   0.05568368  0.05560517  0.15711263
   0.00009584  0.00000215  0.23393987
   0.94435015  0.94423190  0.54477173
   0.38888905  0.55555574  0.57152667
   0.38795474  0.52952833  0.60490343
Direct configuration=     2
   0.44764353  0.61433033  0.54731108
   0.61645196  0.44176390  0.54275732
   0.77931366  0.27647107  0.54452604
   0.94446396  0.11113173  0.54450096
   0.94471686  0.27764489  0.54433895
   0.94446693  0.44440414  0.54450054
   0.77757440  0.61142502  0.54471176
   0.61066016  0.77732511  0.54498957
   0.44475449  0.94423531  0.54471498
   0.61107796  0.94446823  0.54418292
   0.77778887  0.94445707  0.54418004
   0.94533429  0.77733475  0.54499259
   0.94433473  0.61142231  0.54471140
   0.83339894  0.66655215  0.46626540
   0.66660214  0.83327173  0.46621043
   0.72222602  0.88889092  0.38989995
   0.88920132  0.72204638  0.38969232
   0.94436167  0.77781447  0.31175880
   0.77774527  0.94440526  0.31179108
   0.94459476  0.94455556  0.31170107
   0.88919446  0.88874798  0.38969527
   0.83344997  0.83328161  0.46621200
   0.77780189  0.77773916  0.54418148
   0.77932222  0.44421076  0.54452044
   0.66764576  0.50004402  0.46596649
   0.83410268  0.33295070  0.46615600
   0.88872671  0.38906936  0.38960225
   0.72185773  0.55574845  0.38954923
   0.77788405  0.61085437  0.31170617
   0.61115186  0.77781309  0.31176031
   0.66676807  0.83344262  0.23384040
   0.83311821  0.66709796  0.23388417
   0.88886333  0.72238113  0.15705184
   0.72222556  0.88888828  0.15678534
   0.77790921  0.94457173  0.07856317
   0.94462554  0.77768814  0.07897411
   0.94438175  0.94435290  0.07913304
   0.88885987  0.88875313  0.15705131
   0.83311853  0.83344534  0.23383754
   0.77775169  0.77783629  0.31179659
   0.72209064  0.72205222  0.38969133
   0.66652739  0.66692816  0.46657823
   0.55530603  0.72197442  0.38993168
   0.50026585  0.83319034  0.46657796
   0.33337028  0.83431127  0.46596401
   0.27509230  0.78314226  0.54274872
   0.10979158  0.94599331  0.54452201
   0.27754632  0.94599379  0.54451867
   0.44340655  0.77828674  0.54516801
   0.49961069  0.66627352  0.46697383
   0.61161246  0.61007822  0.54516715
   0.61116839  0.94441529  0.31179349
   0.44418959  0.94455157  0.31170095
   0.38908374  0.88852086  0.38954979
   0.38888002  0.72180414  0.38997372
   0.22264599  0.72180888  0.38997297
   0.05572426  0.88852615  0.38954993
   0.99986658  0.83320454  0.46657605
   0.16746845  0.66627184  0.46696455
   0.27119019  0.61446043  0.54723239
   0.11161243  0.61009268  0.54516634
   0.27513833  0.44180209  0.54275255
   0.44343466  0.27824289  0.54514473
   0.61068371  0.11197383  0.54498816
   0.66653579  0.16653228  0.46657322
   0.83338457  0.00006519  0.46626192
   0.88886666  0.05552429  0.38958376
   0.72184686  0.22239102  0.38954650
   0.77750847  0.27796747  0.31170461
   0.61058045  0.44471159  0.31197545
   0.66616118  0.50009418  0.23391394
   0.49974922  0.66641625  0.23376171
   0.55548523  0.72215460  0.15733352
   0.38880879  0.88887754  0.15727171
   0.33342508  0.83283631  0.23391547
   0.27804716  0.77724882  0.31197145
   0.11129504  0.94417632  0.31170520
   0.27786749  0.94416223  0.31170640
   0.22222330  0.88888595  0.38954851
   0.16564776  0.83431362  0.46596340
   0.11164384  0.77827941  0.54517019
   0.94459684  0.61084870  0.31170337
   0.94455452  0.44422607  0.31183736
   0.94440312  0.27780191  0.31193858
   0.94455721  0.11121824  0.31183374
   0.83333639  0.16674701  0.23394675
   0.66659569  0.16664643  0.23403834
   0.49975092  0.33383269  0.23376550
   0.55521281  0.38925763  0.15706366
   0.38889028  0.55555160  0.15694184
   0.44429395  0.61095255  0.07856261
   0.61116891  0.44441249  0.07855224
   0.77789819  0.27773888  0.07901882
   0.72220329  0.22232435  0.15726761
   0.72209016  0.05552591  0.15705269
   0.88898571  0.05564329  0.15726758
   0.83311307  0.99978172  0.23388518
   0.77788936  0.11126132  0.31170131
   0.61115400  0.11102249  0.31175461
   0.55538991  0.05585858  0.38969754
   0.49988695  0.00007039  0.46626067
   0.33361821  0.16643976  0.46642226
   0.16628538  0.33294801  0.46615738
   0.99977526  0.50028483  0.46641989
   0.05572734  0.55575421  0.38954681
   0.22222716  0.38889458  0.38954757
   0.27804214  0.44470124  0.31198023
   0.11152714  0.61107998  0.31176390
   0.16717405  0.66641313  0.23376440
   0.99997740  0.83326202  0.23403947
   0.05564777  0.88887715  0.15727130
   0.22258615  0.72188281  0.15706892
   0.27774717  0.77784424  0.07855840
   0.11106586  0.94456987  0.07901735
   0.27769398  0.94456898  0.07901799
   0.44460754  0.94435057  0.07913180
   0.61102049  0.77768285  0.07897461
   0.77768354  0.61127518  0.07912801
   0.72221095  0.55547552  0.15727337
   0.83332819  0.49991576  0.23394643
   0.88894239  0.38871482  0.15714761
   0.83335512  0.33332258  0.23389500
   0.72201437  0.38899284  0.15718196
   0.66615071  0.33374834  0.23391900
   0.61071992  0.27820118  0.31176541
   0.55530175  0.22272858  0.38993838
   0.44440520  0.27820388  0.31176692
   0.38887018  0.38931848  0.38995835
   0.49961001  0.33411837  0.46694406
   0.33318030  0.49982413  0.46663292
   0.38888600  0.55556141  0.38919678
   0.44443767  0.61109996  0.31199925
   0.27779129  0.61110480  0.31200479
   0.33345158  0.50012249  0.23392557
   0.16708859  0.50009194  0.23391525
   0.00008269  0.49991830  0.23395080
   0.16665790  0.33331840  0.23389496
   0.22233539  0.38899309  0.15718201
   0.38880408  0.22233210  0.15726503
   0.55571490  0.05552508  0.15705218
   0.50043781  0.99978223  0.23388807
   0.33324945  0.16675098  0.23394749
   0.27787066  0.27797147  0.31170580
   0.11112769  0.27779781  0.31193846
   0.05556145  0.22222716  0.38951137
   0.00003854  0.16670856  0.46618716
   0.16628324  0.00077080  0.46615184
   0.22239145  0.05540161  0.38960408
   0.27755451  0.11122181  0.31183903
   0.38893771  0.05552575  0.38958480
   0.38909712  0.22239652  0.38954705
   0.50026234  0.16654086  0.46657457
   0.44474902  0.11100820  0.54471189
   0.27773899  0.11113770  0.54449938
   0.11097607  0.27764119  0.54433950
   0.27755034  0.27646542  0.54452913
   0.10979954  0.44421518  0.54452911
   0.16566276  0.50003388  0.46596461
   0.33336874  0.33232725  0.46596255
   0.49975286  0.50012452  0.23392636
   0.44443838  0.44446085  0.31200245
   0.72208436  0.05586134  0.38970029
   0.66660319  0.00013008  0.46621491
   0.83327254  0.50027624  0.46641349
   0.88886251  0.55560083  0.38958288
   0.44415927  0.77782867  0.07921938
   0.38885493  0.72189199  0.15706736
   0.33345830  0.66641333  0.23392166
   0.16707973  0.83282859  0.23391995
   0.11152984  0.77739183  0.31176036
   0.05605378  0.72197011  0.38993217
   0.99986481  0.66692544  0.46657438
   0.61116604  0.61082843  0.07921614
   0.55521696  0.55551498  0.15706410
   0.22232996  0.88868320  0.15718219
   0.77790572  0.44435576  0.07901817
   0.94442896  0.44448130  0.07895005
   0.94437588  0.61126991  0.07913410
   0.88897333  0.55538311  0.15726782
   0.72208700  0.72237710  0.15705012
   0.66659187  0.66676379  0.23403779
   0.61072641  0.61107994  0.31176034
   0.55514093  0.55553201  0.38997826
   0.50032189  0.49983283  0.46662302
   0.55515210  0.38931607  0.38996652
   0.72220873  0.38889731  0.38954440
   0.66763344  0.33231835  0.46596924
   0.61163232  0.27826485  0.54515522
   0.77756713  0.11100776  0.54471121
   0.83326404  0.16644808  0.46642143
   0.88872047  0.22221217  0.38960252
   0.94437234  0.27781900  0.07869532
   0.94443018  0.11108355  0.07895095
   0.88894045  0.22233854  0.15715106
   0.50009293  0.83326112  0.23403961
   0.44440240  0.77740053  0.31176108
   0.77791091  0.77751205  0.07856474
   0.61084310  0.94457646  0.07856416
   0.55571265  0.88875465  0.15704836
   0.77768262  0.11104943  0.07913010
   0.61102370  0.11129722  0.07897500
   0.44415364  0.27802870  0.07920463
   0.27775330  0.44440735  0.07854600
   0.11135578  0.61081924  0.07920704
   0.05565517  0.55547143  0.15726953
   0.05570574  0.72215058  0.15733210
   0.99997422  0.66676470  0.23403790
   0.61115109  0.27801705  0.07920791
   0.55547931  0.22237669  0.15732930
   0.50009303  0.16664652  0.23403896
   0.44418253  0.11125855  0.31169888
   0.38885489  0.38925404  0.15706215
   0.33342970  0.33375227  0.23391487
   0.44429481  0.44474029  0.07855535
   0.27807394  0.61095385  0.07856153
   0.22259795  0.55551463  0.15706207
   0.11134929  0.77782342  0.07921291
   0.66677734  0.99978260  0.23383849
   0.77750732  0.44452409  0.31170761
   0.11129561  0.44453693  0.31170648
   0.05554118  0.38906523  0.38960614
   0.00004181  0.33325939  0.46619219
   0.16661254  0.16673441  0.46620463
   0.11099834  0.11140823  0.54435126
   0.55539351  0.88875653  0.38969164
   0.22265604  0.55553716  0.38996543
   0.22238969  0.22220632  0.38960540
   0.33318759  0.66695845  0.46668473
   0.33361030  0.99994043  0.46641180
   0.44751293  0.43808905  0.54775108
   0.11106979  0.44436259  0.07901733
   0.11114500  0.27781345  0.07869331
   0.05555557  0.22222177  0.15695480
   0.00010718  0.16678510  0.23395621
   0.16666529  0.00000819  0.23389671
   0.22204877  0.05560915  0.15714651
   0.27781522  0.11109073  0.07894777
   0.38871465  0.05563825  0.15726676
   0.33324428 -0.00000787  0.23394559
   0.16644236  0.16678151  0.23395402
   0.11113042  0.11107245  0.31193946
   0.05554614  0.05538851  0.38960245
   0.99977929  0.99993323  0.46641368
   0.27770340  0.27773903  0.07901836
   0.22204898  0.22234151  0.15715004
   0.05567387  0.38871474  0.15714676
   0.00011487  0.33309937  0.23395259
   0.44460139  0.11104511  0.07913340
   0.11114906  0.11104048  0.07869502
   0.05567073  0.05561036  0.15714652
   0.00008514  0.00000117  0.23394806
   0.94434665  0.94423137  0.54471442
   0.38882373  0.57044226  0.55517837
   0.38826375  0.51449224  0.62267165
Direct configuration=     3
   0.44756763  0.61425312  0.54736417
   0.61647218  0.44175446  0.54275622
   0.77931481  0.27646997  0.54452934
   0.94446387  0.11113157  0.54450458
   0.94471568  0.27764525  0.54434266
   0.94446663  0.44440442  0.54450420
   0.77757381  0.61142455  0.54471564
   0.61066049  0.77732552  0.54499356
   0.44475426  0.94423509  0.54471865
   0.61107815  0.94446768  0.54418642
   0.77778913  0.94445724  0.54418373
   0.94533446  0.77733454  0.54499639
   0.94433576  0.61142201  0.54471530
   0.83339836  0.66655221  0.46626667
   0.66660145  0.83327084  0.46621263
   0.72222577  0.88889078  0.38989931
   0.88920046  0.72204588  0.38969310
   0.94436206  0.77781457  0.31175908
   0.77774420  0.94440461  0.31179130
   0.94459564  0.94455545  0.31170122
   0.88919402  0.88874960  0.38969586
   0.83345214  0.83328008  0.46621409
   0.77780130  0.77773970  0.54418507
   0.77932282  0.44421098  0.54452410
   0.66764866  0.50004306  0.46596749
   0.83410406  0.33294987  0.46615738
   0.88872613  0.38906915  0.38960288
   0.72185711  0.55574820  0.38954978
   0.77788423  0.61085334  0.31170599
   0.61115173  0.77781328  0.31176048
   0.66676870  0.83344273  0.23384027
   0.83311753  0.66709924  0.23388429
   0.88886331  0.72238108  0.15704930
   0.72222533  0.88888832  0.15678279
   0.77790909  0.94457188  0.07855913
   0.94462562  0.77768803  0.07897066
   0.94438108  0.94435256  0.07912913
   0.88886007  0.88875335  0.15704881
   0.83311804  0.83344527  0.23383759
   0.77775019  0.77783886  0.31179645
   0.72209165  0.72205135  0.38969217
   0.66652704  0.66692803  0.46658054
   0.55530624  0.72197449  0.38993193
   0.50026545  0.83319024  0.46658029
   0.33336977  0.83431426  0.46596517
   0.27508317  0.78316096  0.54274817
   0.10979132  0.94599361  0.54452556
   0.27754638  0.94599406  0.54452244
   0.44340410  0.77828707  0.54517174
   0.49960732  0.66627038  0.46697632
   0.61161328  0.61007544  0.54517094
   0.61117102  0.94441400  0.31179354
   0.44418841  0.94455172  0.31170111
   0.38908337  0.88852044  0.38955030
   0.38887953  0.72180249  0.38997483
   0.22264832  0.72180691  0.38997413
   0.05572532  0.88852539  0.38955043
   0.99986775  0.83320351  0.46657850
   0.16747368  0.66626881  0.46696764
   0.27135425  0.61437479  0.54729057
   0.11161633  0.61008895  0.54517018
   0.27512621  0.44179017  0.54275176
   0.44343042  0.27824913  0.54514996
   0.61068251  0.11197575  0.54499224
   0.66653492  0.16653353  0.46657586
   0.83338493  0.00006466  0.46626341
   0.88886592  0.05552414  0.38958454
   0.72184693  0.22239205  0.38954722
   0.77750758  0.27796736  0.31170513
   0.61057875  0.44471233  0.31197551
   0.66616066  0.50009397  0.23391407
   0.49974869  0.66641567  0.23376133
   0.55548478  0.72215398  0.15733152
   0.38880896  0.88887749  0.15726981
   0.33342502  0.83283524  0.23391550
   0.27804777  0.77724699  0.31197176
   0.11129529  0.94417534  0.31170568
   0.27786782  0.94416217  0.31170680
   0.22222283  0.88888696  0.38954830
   0.16564551  0.83431645  0.46596459
   0.11164570  0.77828021  0.54517378
   0.94459754  0.61084804  0.31170337
   0.94455442  0.44422614  0.31183747
   0.94440425  0.27780112  0.31193861
   0.94455692  0.11121835  0.31183408
   0.83333634  0.16674802  0.23394639
   0.66659528  0.16664638  0.23403818
   0.49975030  0.33383388  0.23376488
   0.55521130  0.38925954  0.15706156
   0.38889020  0.55555187  0.15693902
   0.44429354  0.61095269  0.07855808
   0.61116881  0.44441276  0.07854812
   0.77789929  0.27773878  0.07901516
   0.72220374  0.22232356  0.15726597
   0.72209016  0.05552617  0.15705009
   0.88898517  0.05564336  0.15726551
   0.83311273  0.99978123  0.23388522
   0.77788921  0.11126220  0.31170144
   0.61115375  0.11102321  0.31175515
   0.55538876  0.05585832  0.38969797
   0.49988690  0.00006952  0.46626223
   0.33361805  0.16644077  0.46642402
   0.16628448  0.33294733  0.46615866
   0.99977613  0.50028466  0.46642180
   0.05572819  0.55575357  0.38954750
   0.22222643  0.38889379  0.38954741
   0.27804304  0.44470263  0.31197996
   0.11152796  0.61107942  0.31176340
   0.16717474  0.66641274  0.23376385
   0.99997751  0.83326161  0.23403923
   0.05564759  0.88887710  0.15726941
   0.22258838  0.72188106  0.15706648
   0.27774734  0.77784357  0.07855388
   0.11106618  0.94457065  0.07901378
   0.27769310  0.94456982  0.07901438
   0.44460796  0.94435036  0.07912797
   0.61102048  0.77768307  0.07897111
   0.77768337  0.61127552  0.07912442
   0.72221090  0.55547565  0.15727136
   0.83332864  0.49991487  0.23394609
   0.88894212  0.38871457  0.15714543
   0.83335489  0.33332267  0.23389497
   0.72201395  0.38899304  0.15718001
   0.66615086  0.33374881  0.23391879
   0.61072004  0.27820154  0.31176482
   0.55530223  0.22272771  0.38993819
   0.44440514  0.27820406  0.31176622
   0.38887031  0.38932043  0.38996045
   0.49960670  0.33412463  0.46694847
   0.33317465  0.49981993  0.46662793
   0.38888618  0.55556103  0.38919318
   0.44443751  0.61110011  0.31200071
   0.27779154  0.61110463  0.31200589
   0.33345234  0.50012296  0.23392545
   0.16708862  0.50009186  0.23391528
   0.00008354  0.49991723  0.23395017
   0.16665787  0.33331876  0.23389492
   0.22233499  0.38899326  0.15718005
   0.38880453  0.22233079  0.15726355
   0.55571483  0.05552538  0.15704960
   0.50043869  0.99978170  0.23388792
   0.33324857  0.16675171  0.23394708
   0.27787080  0.27797107  0.31170623
   0.11112739  0.27779725  0.31193847
   0.05556107  0.22222680  0.38951059
   0.00003835  0.16670816  0.46618885
   0.16628248  0.00077204  0.46615346
   0.22239198  0.05540045  0.38960457
   0.27755490  0.11122166  0.31183901
   0.38893890  0.05552547  0.38958551
   0.38909590  0.22239717  0.38954773
   0.50026213  0.16654153  0.46657711
   0.44474915  0.11100874  0.54471574
   0.27773914  0.11113712  0.54450309
   0.11097658  0.27764176  0.54434315
   0.27755015  0.27646467  0.54453221
   0.10979873  0.44421509  0.54453219
   0.16565955  0.50003355  0.46596572
   0.33336832  0.33232416  0.46596379
   0.49975204  0.50012487  0.23392620
   0.44443822  0.44446092  0.31200371
   0.72208580  0.05586090  0.38970054
   0.66660245  0.00013139  0.46621681
   0.83327185  0.50027665  0.46641582
   0.88886202  0.55560227  0.38958373
   0.44415978  0.77782724  0.07921528
   0.38885506  0.72188966  0.15706502
   0.33345861  0.66641290  0.23392181
   0.16708032  0.83282803  0.23391968
   0.11153044  0.77739163  0.31176008
   0.05605336  0.72197047  0.38993237
   0.99986604  0.66692550  0.46657691
   0.61116432  0.61082880  0.07921226
   0.55521517  0.55551552  0.15706198
   0.22232993  0.88868263  0.15718023
   0.77790633  0.44435520  0.07901457
   0.94442890  0.44448102  0.07894604
   0.94437560  0.61127060  0.07913015
   0.88897358  0.55538280  0.15726576
   0.72208716  0.72237730  0.15704771
   0.66659168  0.66676386  0.23403768
   0.61072607  0.61107941  0.31176009
   0.55513900  0.55553247  0.38997908
   0.50033208  0.49982811  0.46661869
   0.55514945  0.38931821  0.38996811
   0.72221040  0.38889637  0.38954447
   0.66763708  0.33231588  0.46597007
   0.61163179  0.27826970  0.54515978
   0.77756692  0.11100837  0.54471513
   0.83326384  0.16644857  0.46642327
   0.88872022  0.22221247  0.38960315
   0.94437139  0.27781913  0.07869150
   0.94443008  0.11108427  0.07894687
   0.88894032  0.22233930  0.15714868
   0.50009327  0.83326078  0.23403938
   0.44440251  0.77739976  0.31176077
   0.77791070  0.77751241  0.07856061
   0.61084363  0.94457629  0.07856006
   0.55571269  0.88875475  0.15704605
   0.77768257  0.11104870  0.07912638
   0.61102352  0.11129695  0.07897147
   0.44415459  0.27802852  0.07920144
   0.27775309  0.44440793  0.07854223
   0.11135605  0.61082020  0.07920366
   0.05565453  0.55547183  0.15726768
   0.05570601  0.72215021  0.15733011
   0.99997449  0.66676473  0.23403768
   0.61115037  0.27801763  0.07920453
   0.55547927  0.22237668  0.15732755
   0.50009334  0.16664648  0.23403874
   0.44418173  0.11125964  0.31169912
   0.38885501  0.38925618  0.15706011
   0.33342932  0.33375252  0.23391489
   0.44429441  0.44474142  0.07855125
   0.27807509  0.61095388  0.07855702
   0.22259940  0.55551520  0.15706001
   0.11134998  0.77782231  0.07920915
   0.66677734  0.99978233  0.23383846
   0.77750646  0.44452507  0.31170792
   0.11129587  0.44453710  0.31170688
   0.05554178  0.38906530  0.38960653
   0.00004150  0.33325952  0.46619360
   0.16661296  0.16673390  0.46620630
   0.11099899  0.11140700  0.54435527
   0.55539213  0.88875761  0.38969246
   0.22265776  0.55553723  0.38996707
   0.22239031  0.22220698  0.38960582
   0.33318150  0.66697067  0.46667642
   0.33361071  0.99993962  0.46641424
   0.44744540  0.43823812  0.54777570
   0.11106990  0.44436158  0.07901369
   0.11114565  0.27781393  0.07868952
   0.05555559  0.22222178  0.15695242
   0.00010769  0.16678492  0.23395601
   0.16666477  0.00000884  0.23389650
   0.22204848  0.05560889  0.15714433
   0.27781492  0.11109098  0.07894382
   0.38871447  0.05563864  0.15726470
   0.33324366 -0.00000722  0.23394526
   0.16644192  0.16678156  0.23395398
   0.11112989  0.11107340  0.31193935
   0.05554626  0.05538826  0.38960297
   0.99977977  0.99993300  0.46641591
   0.27770199  0.27773890  0.07901467
   0.22204868  0.22234208  0.15714764
   0.05567452  0.38871449  0.15714455
   0.00011488  0.33309958  0.23395264
   0.44460223  0.11104466  0.07912943
   0.11114946  0.11103941  0.07869112
   0.05567157  0.05561002  0.15714432
   0.00008583  0.00000123  0.23394753
   0.94434687  0.94423141  0.54471812
   0.38882796  0.56947909  0.55623612
   0.38824376  0.51546508  0.62152203
Direct configuration=     4
   0.44752015  0.61420481  0.54739739
   0.61648482  0.44174855  0.54275553
   0.77931552  0.27646929  0.54453140
   0.94446382  0.11113146  0.54450685
   0.94471494  0.27764548  0.54434498
   0.94446644  0.44440459  0.54450648
   0.77757344  0.61142425  0.54471807
   0.61066069  0.77732578  0.54499607
   0.44475412  0.94423495  0.54472095
   0.61107827  0.94446734  0.54418861
   0.77778930  0.94445735  0.54418603
   0.94533456  0.77733441  0.54499877
   0.94433641  0.61142183  0.54471774
   0.83339799  0.66655225  0.46626746
   0.66660102  0.83327028  0.46621400
   0.72222561  0.88889070  0.38989891
   0.88919993  0.72204557  0.38969359
   0.94436230  0.77781463  0.31175925
   0.77774353  0.94440420  0.31179143