ITEM: TIMESTEP
0
ITEM: NUMBER OF ATOMS
108
ITEM: BOX BOUNDS xy xz yz pp pp pp
-7.2075420000000001e+00 1.4415084000000000e+01 -7.2075420000000001e+00
0.0000000000000000e+00 1.2483828000000001e+01 0.0000000000000000e+00
0.0000000000000000e+00 3.1116254000000001e+01 0.0000000000000000e+00
ITEM: ATOMS id type xs ys zs
1 1 0.999877 0.99993 0.0635666
2 1 0.110871 0.222068 0.0325318
3 1 0.110786 0.222087 0.133464
4 1 0.222162 0.111091 0.0721818
5 1 0.221718 0.111026 0.201764
6 1 0.999581 0.999769 0.148014
7 1 0.99971 0.00020663 0.273471
8 1 0.110092 0.222003 0.218854
9 1 0.110841 0.222353 0.348494
10 1 0.221769 0.111019 0.28737
11 1 0.222103 0.112053 0.389007
12 1 0.999429 0.999935 0.358311
13 1 0.999895 0.3333 0.0634871
14 1 0.111022 0.555517 0.0325826
15 1 0.110791 0.555518 0.133658
16 1 0.222118 0.44441 0.0721393
17 1 0.221571 0.444518 0.201554
18 1 0.999352 0.333154 0.14798
19 1 0.998855 0.333146 0.273504
20 1 0.109851 0.555542 0.219186
21 1 0.110563 0.555588 0.34945
22 1 0.220474 0.443803 0.286977
23 1 0.222405 0.443976 0.389202
24 1 0.999335 0.333122 0.35827
25 1 0.999957 0.666594 0.0636605
26 1 0.110948 0.888817 0.0326041
27 1 0.110904 0.888887 0.133703
28 1 0.222085 0.777796 0.0722794
29 1 0.221852 0.777796 0.202225
30 1 0.999572 0.666584 0.148174
31 1 0.99936 0.66651 0.274198
32 1 0.11055 0.8886 0.219314
33 1 0.110806 0.888983 0.349723
34 1 0.221351 0.777844 0.288029
35 1 0.222236 0.778303 0.389724
36 1 0.999092 0.666512 0.359022
37 1 0.333268 7.677e-05 0.0634269
38 1 0.444612 0.222313 0.0324274
39 1 0.44426 0.222198 0.13351
40 1 0.555579 0.111158 0.072266
41 1 0.555123 0.111087 0.202261
42 1 0.333023 0.99985 0.147933
43 1 0.332772 0.999973 0.27327
44 1 0.444168 0.221942 0.218959
45 1 0.44471 0.223411 0.34823
46 1 0.555293 0.111201 0.28802
47 1 0.554683 0.111459 0.38979
48 1 0.332985 0.00064726 0.357856
49 1 0.333371 0.333393 0.0632042
50 1 0.444512 0.555756 0.0323942
51 1 0.444251 0.555577 0.133228
52 1 0.555554 0.444399 0.0722521
53 1 0.554958 0.444279 0.202156
54 1 0.332976 0.333173 0.147653
55 1 0.332506 0.333463 0.271919
56 1 0.443821 0.555264 0.218456
57 1 0.441957 0.554805 0.345787
58 1 0.555273 0.443648 0.288276
59 1 0.553779 0.438907 0.401918
60 1 0.33461 0.33451 0.356032
61 1 0.333324 0.666814 0.0632799
62 1 0.444324 0.889032 0.0325084
63 1 0.444324 0.889013 0.13355
64 1 0.555532 0.777936 0.072198
65 1 0.555266 0.777722 0.201643
66 1 0.332798 0.666776 0.147727
67 1 0.332568 0.666408 0.272383
68 1 0.44406 0.889111 0.21903
69 1 0.443753 0.889014 0.349039
70 1 0.555198 0.778265 0.287267
71 1 0.554314 0.777383 0.38841
72 1 0.332738 0.666785 0.356913
73 1 0.666599 0.999955 0.0635103
74 1 0.777815 0.222264 0.0324931
75 1 0.777578 0.222248 0.133808
76 1 0.88872 0.111013 0.0723235
77 1 0.88841 0.111175 0.202374
78 1 0.666506 0.00026134 0.147972
79 1 0.666114 0.00015686 0.273782
80 1 0.777231 0.222449 0.21942
81 1 0.777018 0.222336 0.350007
82 1 0.888002 0.110929 0.288176
83 1 0.888443 0.110807 0.389782
84 1 0.666068 0.99983 0.358619
85 1 0.666728 0.333345 0.0635451
86 1 0.777859 0.555467 0.0326111
87 1 0.777543 0.555553 0.133774
88 1 0.888789 0.444424 0.0724441
89 1 0.8885 0.444364 0.202693
90 1 0.666537 0.333366 0.14808
91 1 0.665532 0.332663 0.273669
92 1 0.777516 0.555323 0.219332
93 1 0.776003 0.554593 0.350754
94 1 0.887973 0.444427 0.288604
95 1 0.888286 0.443999 0.390472
96 1 0.665339 0.333659 0.358602
97 1 0.666649 0.666611 0.0634182
98 1 0.77774 0.888743 0.0325296
99 1 0.777704 0.889027 0.133662
100 1 0.888862 0.777675 0.0723916
101 1 0.888543 0.777714 0.202461
102 1 0.666686 0.666732 0.147923
103 1 0.665708 0.666565 0.272491
104 1 0.777794 0.889319 0.219173
105 1 0.777404 0.888885 0.349428
106 1 0.888594 0.77778 0.28837
107 1 0.888737 0.777859 0.390401
108 1 0.66834 0.667766 0.356585
ITEM: TIMESTEP
10
ITEM: NUMBER OF ATOMS
108
ITEM: BOX BOUNDS xy xz yz pp pp pp
-7.2075420000000001e+00 1.4415084000000000e+01 -7.2075420000000001e+00
0.0000000000000000e+00 1.2483828000000001e+01 0.0000000000000000e+00
0.0000000000000000e+00 3.1116254000000001e+01 0.0000000000000000e+00
ITEM: ATOMS id type xs ys zs
1 1 0.992717 0.0033442 0.0696306
2 1 0.106595 0.215738 0.0490967
3 1 0.10669 0.227573 0.13308
4 1 0.208522 0.112326 0.0973068
5 1 0.220125 0.101266 0.17483
6 1 0.985438 0.0118556 0.167862
7 1 0.984659 0.961753 0.24851
8 1 0.0916311 0.185746 0.243461
9 1 0.112236 0.239253 0.321105
10 1 0.222917 0.104758 0.282028
11 1 0.234231 0.118703 0.373146
12 1 0.0190598 0.0161618 0.344841
13 1 0.998723 0.325065 0.0760074
14 1 0.107287 0.556044 0.0481959
15 1 0.116974 0.556219 0.140959
16 1 0.235418 0.43978 0.107355
17 1 0.214065 0.429336 0.185419
18 1 0.987922 0.343596 0.171338
19 1 0.994399 0.314569 0.251298
20 1 0.123621 0.563145 0.238177
21 1 0.114528 0.56316 0.327534
22 1 0.231298 0.4591 0.296509
23 1 0.194918 0.42546 0.38165
24 1 0.992583 0.329256 0.347112
25 1 0.996235 0.673488 0.0786373
26 1 0.113695 0.901434 0.0481258
27 1 0.109812 0.894557 0.127978
28 1 0.214414 0.774954 0.108868
29 1 0.233949 0.779706 0.194848
30 1 0.0322297 0.70057 0.168651
31 1 0.980815 0.633159 0.24995
32 1 0.114919 0.87078 0.250528
33 1 0.109393 0.900277 0.326516
34 1 0.204168 0.775626 0.28622
35 1 0.231461 0.780872 0.376588
36 1 0.00493756 0.682724 0.336575
37 1 0.331328 0.983272 0.0815759
38 1 0.444995 0.210135 0.0399736
39 1 0.43016 0.205958 0.133753
40 1 0.562275 0.12195 0.0865756
41 1 0.551574 0.103622 0.164346
42 1 0.329418 0.986761 0.163834
43 1 0.337042 0.00319307 0.250765
44 1 0.446627 0.223455 0.245234
45 1 0.439589 0.218799 0.326075
46 1 0.551941 0.118417 0.289183
47 1 0.566042 0.104615 0.370343
48 1 0.337856 0.998747 0.338043
49 1 0.322582 0.321196 0.0689539
50 1 0.436092 0.545181 0.0397454
51 1 0.447973 0.572747 0.132988
52 1 0.550912 0.443106 0.108237
53 1 0.549074 0.427597 0.183903
54 1 0.327716 0.326033 0.16351
55 1 0.331035 0.345455 0.24833
56 1 0.424163 0.56323 0.22879
57 1 0.465817 0.565227 0.308252
58 1 0.557995 0.427389 0.283126
59 1 0.550201 0.452881 0.366781
60 1 0.324492 0.34343 0.34192
61 1 0.335626 0.670234 0.0812116
62 1 0.456024 0.885522 0.0421194
63 1 0.465299 0.910202 0.128364
64 1 0.552736 0.787558 0.0925377
65 1 0.559925 0.781408 0.185856
66 1 0.347637 0.678381 0.177628
67 1 0.341634 0.689661 0.259632
68 1 0.465715 0.897154 0.24968
69 1 0.435451 0.873232 0.324893
70 1 0.560635 0.787199 0.291416
71 1 0.572696 0.780459 0.379196
72 1 0.341568 0.644468 0.355469
73 1 0.670463 0.0109101 0.0767672
74 1 0.782267 0.227446 0.0453848
75 1 0.763842 0.214476 0.131259
76 1 0.881977 0.104938 0.109773
77 1 0.892841 0.123047 0.191387
78 1 0.683732 0.99168 0.170271
79 1 0.682246 0.0202423 0.250217
80 1 0.768214 0.238573 0.240681
81 1 0.77369 0.205683 0.3198
82 1 0.894263 0.0938151 0.294041
83 1 0.883612 0.111445 0.378763
84 1 0.672742 0.994425 0.338285
85 1 0.663198 0.345923 0.0751654
86 1 0.778495 0.568359 0.0469539
87 1 0.786478 0.55265 0.13611
88 1 0.889406 0.451918 0.0923227
89 1 0.8891 0.463369 0.171298
90 1 0.661656 0.326776 0.168598
91 1 0.666097 0.34943 0.2467
92 1 0.76697 0.56621 0.240154
93 1 0.76937 0.543249 0.324422
94 1 0.894954 0.42392 0.289055
95 1 0.898407 0.466841 0.371406
96 1 0.668761 0.338434 0.341247
97 1 0.660263 0.665698 0.0806925
98 1 0.76422 0.892527 0.0395982
99 1 0.763379 0.861921 0.127659
100 1 0.89076 0.782398 0.10681
101 1 0.892269 0.791497 0.183946
102 1 0.661792 0.662538 0.177892
103 1 0.641955 0.652821 0.259311
104 1 0.772612 0.893094 0.240631
105 1 0.784892 0.875342 0.317094
106 1 0.869996 0.748905 0.294463
107 1 0.902248 0.798514 0.375376
108 1 0.676406 0.666156 0.352818
ITEM: TIMESTEP
20
ITEM: NUMBER OF ATOMS
108
ITEM: BOX BOUNDS xy xz yz pp pp pp
-7.2075420000000001e+00 1.4415084000000000e+01 -7.2075420000000001e+00
0.0000000000000000e+00 1.2483828000000001e+01 0.0000000000000000e+00
0.0000000000000000e+00 3.1116254000000001e+01 0.0000000000000000e+00
ITEM: ATOMS id type xs ys zs
1 1 0.969666 0.976818 0.0829646
2 1 0.105649 0.214277 0.0732446
3 1 0.0954528 0.241235 0.147671
4 1 0.215068 0.102863 0.0972372
5 1 0.242301 0.12435 0.183294
6 1 0.966027 0.00428921 0.181424
7 1 0.997686 0.936198 0.256291
8 1 0.0736107 0.148468 0.238469
9 1 0.122735 0.254356 0.31915
10 1 0.236073 0.138387 0.276395
11 1 0.224038 0.128555 0.352036
12 1 0.0276867 0.0431733 0.333501
13 1 0.011784 0.334696 0.0929167
14 1 0.112262 0.54825 0.0854137
15 1 0.113029 0.578519 0.158288
16 1 0.227843 0.439786 0.106809
17 1 0.198118 0.405504 0.19259
18 1 0.992412 0.362857 0.187691
19 1 0.045291 0.294227 0.254056
20 1 0.099513 0.511515 0.240543
21 1 0.12333 0.568614 0.323341
22 1 0.24363 0.470026 0.292821
23 1 0.181202 0.429705 0.363663
24 1 0.982086 0.351592 0.337006
25 1 0.0157121 0.67024 0.076985
26 1 0.0941332 0.88626 0.0714534
27 1 0.0909967 0.916837 0.147456
28 1 0.229775 0.789525 0.115437
29 1 0.248862 0.770164 0.210363
30 1 0.994535 0.670151 0.165183
31 1 0.994095 0.644928 0.256773
32 1 0.106801 0.841452 0.233327
33 1 0.125506 0.921193 0.320503
34 1 0.203075 0.806823 0.290177
35 1 0.202623 0.747071 0.373757
36 1 0.00583839 0.69273 0.334466
37 1 0.315865 0.980751 0.0595873
38 1 0.430451 0.212337 0.067813
39 1 0.444694 0.212464 0.141559
40 1 0.553107 0.122745 0.075374
41 1 0.572986 0.100101 0.169482
42 1 0.326607 0.975875 0.16106
43 1 0.306207 0.97982 0.249288
44 1 0.420221 0.213188 0.233395
45 1 0.449207 0.214717 0.323822
46 1 0.564332 0.152311 0.257887
47 1 0.542864 0.0700713 0.334284
48 1 0.340427 0.98432 0.341833
49 1 0.348831 0.346012 0.0668792
50 1 0.438616 0.56717 0.0743407
51 1 0.47393 0.560868 0.153537
52 1 0.56602 0.457453 0.105742
53 1 0.542449 0.411997 0.186628
54 1 0.338974 0.349788 0.156909
55 1 0.325374 0.342761 0.239891
56 1 0.429604 0.582939 0.235947
57 1 0.459455 0.579493 0.317629
58 1 0.54192 0.4781 0.270479
59 1 0.568151 0.431217 0.351975
60 1 0.344022 0.340007 0.327399
61 1 0.334346 0.670886 0.0845019
62 1 0.435509 0.885348 0.0743219
63 1 0.4318 0.844506 0.146018
64 1 0.546027 0.788465 0.105141
65 1 0.551855 0.754392 0.186786
66 1 0.323789 0.640818 0.181531
67 1 0.332562 0.699896 0.266009
68 1 0.475012 0.928318 0.232341
69 1 0.457126 0.860463 0.330471
70 1 0.567725 0.836208 0.268022
71 1 0.564027 0.74622 0.345523
72 1 0.34158 0.632553 0.361954
73 1 0.665198 0.0210459 0.0798449
74 1 0.784726 0.238174 0.0576071
75 1 0.799632 0.210725 0.128807
76 1 0.89217 0.108179 0.113751
77 1 0.875178 0.158774 0.195979
78 1 0.675279 0.974745 0.170769
79 1 0.691775 0.0533479 0.248039
80 1 0.773661 0.263225 0.213595
81 1 0.765233 0.191604 0.304782
82 1 0.880608 0.0656323 0.274738
83 1 0.886775 0.1314 0.353106
84 1 0.68018 0.983581 0.334251
85 1 0.656973 0.359033 0.0664848
86 1 0.770677 0.572335 0.0670923
87 1 0.788911 0.547662 0.142235
88 1 0.884452 0.443552 0.0976835
89 1 0.882735 0.468565 0.191468
90 1 0.661628 0.325151 0.163503
91 1 0.685622 0.372746 0.2475
92 1 0.726316 0.552219 0.229929
93 1 0.775923 0.524062 0.302972
94 1 0.899316 0.396199 0.274671
95 1 0.888789 0.480292 0.348201
96 1 0.666005 0.296687 0.33664
97 1 0.653669 0.67787 0.0932121
98 1 0.751823 0.883791 0.068698
99 1 0.781211 0.864162 0.139538
100 1 0.882017 0.767085 0.105271
101 1 0.892821 0.786463 0.185316
102 1 0.666786 0.667321 0.179302
103 1 0.65829 0.696661 0.259837
104 1 0.786163 0.897225 0.230531
105 1 0.795918 0.883168 0.314824
106 1 0.873541 0.727105 0.284784
107 1 0.924857 0.825156 0.354863
108 1 0.709027 0.659241 0.350645
ITEM: TIMESTEP
30
ITEM: NUMBER OF ATOMS
108
ITEM: BOX BOUNDS xy xz yz pp pp pp
-7.2075420000000001e+00 1.4415084000000000e+01 -7.2075420000000001e+00
0.0000000000000000e+00 1.2483828000000001e+01 0.0000000000000000e+00
0.0000000000000000e+00 3.1116254000000001e+01 0.0000000000000000e+00
ITEM: ATOMS id type xs ys zs
1 1 0.996234 0.966401 0.09279
2 1 0.116634 0.197424 0.0759016
3 1 0.110697 0.264939 0.166429
4 1 0.253566 0.106988 0.106902
5 1 0.23738 0.138978 0.197202
6 1 0.973564 0.00360282 0.171313
7 1 0.96851 0.961201 0.259109
8 1 0.0870327 0.153262 0.241644
9 1 0.158213 0.277279 0.322698
10 1 0.260188 0.174398 0.291929
11 1 0.273161 0.142309 0.384479
12 1 0.047499 0.0503867 0.335344
13 1 0.9616 0.27541 0.0949708
14 1 0.102797 0.532967 0.0736775
15 1 0.0735344 0.577557 0.157901
16 1 0.237336 0.458622 0.117204
17 1 0.22331 0.427411 0.206791
18 1 0.980064 0.364551 0.178152
19 1 0.0411566 0.318682 0.253521
20 1 0.15726 0.547698 0.237415
21 1 0.132686 0.570614 0.341774
22 1 0.244886 0.47313 0.305388
23 1 0.21568 0.436839 0.389443
24 1 0.0144354 0.356421 0.337323
25 1 0.949913 0.59836 0.0632963
26 1 0.0782921 0.844806 0.0568774
27 1 0.116312 0.956787 0.151676
28 1 0.178778 0.760808 0.103815
29 1 0.226613 0.788733 0.197296
30 1 0.00973792 0.71722 0.155046
31 1 0.992078 0.623235 0.2659
32 1 0.0851503 0.824703 0.246794
33 1 0.140061 0.941852 0.315041
34 1 0.211644 0.775841 0.303356
35 1 0.198893 0.762337 0.406811
36 1 0.021147 0.7057 0.350185
37 1 0.312443 0.0136312 0.0496653
38 1 0.419277 0.253864 0.039266
39 1 0.455217 0.192848 0.14558
40 1 0.541832 0.152275 0.0682085
41 1 0.545962 0.0408503 0.16887
42 1 0.335955 0.97735 0.139902
43 1 0.3408 0.0579506 0.26241
44 1 0.453655 0.277223 0.23364
45 1 0.449138 0.18386 0.329916
46 1 0.546296 0.142948 0.239476
47 1 0.555042 0.062143 0.321152
48 1 0.307489 0.958242 0.360889
49 1 0.316721 0.368803 0.0335106
50 1 0.462265 0.577905 0.0720509
51 1 0.425098 0.515682 0.153272
52 1 0.527084 0.412865 0.0875047
53 1 0.557821 0.423756 0.170986
54 1 0.326257 0.301051 0.126288
55 1 0.328139 0.339859 0.244516
56 1 0.424608 0.574259 0.249081
57 1 0.489901 0.559463 0.349781
58 1 0.541672 0.457063 0.278707
59 1 0.565086 0.397248 0.352118
60 1 0.360597 0.314317 0.34038
61 1 0.331728 0.704363 0.0947267
62 1 0.438397 0.914214 0.0844595
63 1 0.437328 0.85042 0.172461
64 1 0.578246 0.801809 0.0924532
65 1 0.536401 0.726307 0.185774
66 1 0.301783 0.637946 0.175968
67 1 0.343367 0.698181 0.268302
68 1 0.409145 0.914739 0.243556
69 1 0.43067 0.857553 0.332317
70 1 0.550351 0.83654 0.272843
71 1 0.590159 0.783307 0.362784
72 1 0.33196 0.649526 0.372758
73 1 0.657909 0.044139 0.074459
74 1 0.785795 0.244569 0.0285612
75 1 0.757982 0.202429 0.124542
76 1 0.865095 0.0705946 0.102608
77 1 0.849155 0.131525 0.186416
78 1 0.66463 0.950405 0.158364
79 1 0.664675 0.0320492 0.234521
80 1 0.756726 0.255046 0.212289
81 1 0.795387 0.19774 0.303094
82 1 0.897537 0.101112 0.275413
83 1 0.911284 0.136729 0.363806
84 1 0.706389 0.995393 0.329117
85 1 0.679371 0.369174 0.0532064
86 1 0.761639 0.565825 0.0343676
87 1 0.735512 0.547473 0.124356
88 1 0.878886 0.421241 0.112663
89 1 0.846525 0.470799 0.193469
90 1 0.668445 0.321299 0.140677
91 1 0.657476 0.368346 0.240116
92 1 0.777733 0.574352 0.224617
93 1 0.788529 0.514629 0.312754
94 1 0.900987 0.40502 0.277401
95 1 0.931914 0.485213 0.360667
96 1 0.697309 0.299914 0.331826
97 1 0.670756 0.660206 0.0864612
98 1 0.782873 0.93049 0.0397789
99 1 0.79164 0.854437 0.124578
100 1 0.886261 0.743567 0.101766
101 1 0.897653 0.792021 0.19814
102 1 0.649872 0.643176 0.179145
103 1 0.637684 0.678493 0.269387
104 1 0.741161 0.870448 0.222815
105 1 0.821467 0.898713 0.315976
106 1 0.866048 0.734646 0.289994
107 1 0.936319 0.826095 0.36196
108 1 0.695442 0.64928 0.348251
ITEM: TIMESTEP
40
ITEM: NUMBER OF ATOMS
108
ITEM: BOX BOUNDS xy xz yz pp pp pp
-7.2075420000000001e+00 1.4415084000000000e+01 -7.2075420000000001e+00
0.0000000000000000e+00 1.2483828000000001e+01 0.0000000000000000e+00
0.0000000000000000e+00 3.1116254000000001e+01 0.0000000000000000e+00
ITEM: ATOMS id type xs ys zs
1 1 0.988611 0.957637 0.0816794
2 1 0.13738 0.197723 0.0746879
3 1 0.0692696 0.260349 0.165156
4 1 0.213015 0.0575879 0.100489
5 1 0.229455 0.104435 0.196245
6 1 0.982776 0.0409242 0.17467
7 1 0.00140184 0.950562 0.26307
8 1 0.10584 0.182903 0.241369
9 1 0.15182 0.277921 0.327713
10 1 0.260253 0.156427 0.294042
11 1 0.240006 0.0998626 0.373461
12 1 0.998134 0.0293404 0.339997
13 1 0.00872839 0.296734 0.0856761
14 1 0.103925 0.51959 0.0690297
15 1 0.073713 0.579051 0.155479
16 1 0.223481 0.428188 0.11334
17 1 0.198236 0.427904 0.207344
18 1 0.991957 0.386087 0.166181
19 1 0.0298928 0.332237 0.260985
20 1 0.108015 0.545878 0.24568
21 1 0.170698 0.614565 0.336456
22 1 0.236328 0.47668 0.295904
23 1 0.267835 0.419514 0.394322
24 1 0.0388915 0.38466 0.346381
25 1 0.955355 0.602051 0.0802951
26 1 0.0877141 0.832227 0.0667761
27 1 0.124944 0.916852 0.166883
28 1 0.207945 0.746406 0.110764
29 1 0.201165 0.766537 0.204147
30 1 0.968688 0.693764 0.167005
31 1 0.93884 0.610635 0.257115
32 1 0.0721988 0.816522 0.24046
33 1 0.124681 0.907724 0.333373
34 1 0.207107 0.794679 0.290248
35 1 0.216835 0.783304 0.384208
36 1 0.0121405 0.696407 0.346284
37 1 0.342682 0.00252677 0.045034
38 1 0.387313 0.231397 0.0501486
39 1 0.415433 0.199004 0.149001
40 1 0.569388 0.159742 0.0743306
41 1 0.543023 0.0872189 0.152334
42 1 0.340287 0.968851 0.14573
43 1 0.284767 0.989863 0.279398
44 1 0.434706 0.261034 0.245795
45 1 0.452176 0.213045 0.33582
46 1 0.545608 0.139045 0.242935
47 1 0.560664 0.0526122 0.31443
48 1 0.375265 0.998579 0.355694
49 1 0.299117 0.380439 0.0404317
50 1 0.431829 0.573364 0.080112
51 1 0.409797 0.487906 0.180085
52 1 0.539885 0.471129 0.0670254
53 1 0.536958 0.398708 0.176627
54 1 0.338232 0.322998 0.116197
55 1 0.311929 0.357452 0.265382
56 1 0.468707 0.610996 0.25542
57 1 0.504404 0.569848 0.349464
58 1 0.552808 0.4731 0.281009
59 1 0.63593 0.442082 0.366696
60 1 0.365851 0.329421 0.347058
61 1 0.334626 0.687607 0.0947195
62 1 0.463083 0.937228 0.0803234
63 1 0.426556 0.85456 0.168305
64 1 0.55524 0.806669 0.0790901
65 1 0.515513 0.712223 0.176059
66 1 0.275614 0.639771 0.179258
67 1 0.308955 0.695822 0.269378
68 1 0.432718 0.924705 0.256877
69 1 0.414355 0.845088 0.346925
70 1 0.550287 0.808576 0.272183
71 1 0.606154 0.795533 0.361745
72 1 0.36931 0.652008 0.353479
73 1 0.661148 0.0132308 0.0436964
74 1 0.790932 0.220332 0.0407508
75 1 0.759098 0.155049 0.130583
76 1 0.871446 0.0822876 0.0984977
77 1 0.875269 0.161764 0.206074
78 1 0.644429 0.959806 0.156529
79 1 0.674205 0.0357492 0.2379
80 1 0.763012 0.258507 0.209065
81 1 0.837882 0.196867 0.297019
82 1 0.879629 0.0414974 0.273325
83 1 0.90732 0.136984 0.358945
84 1 0.705691 0.991355 0.338343
85 1 0.703453 0.36415 0.0426796
86 1 0.745908 0.608918 0.0182524
87 1 0.73626 0.510076 0.106697
88 1 0.873026 0.392504 0.0994668
89 1 0.845551 0.500772 0.179108
90 1 0.676301 0.302257 0.144378
91 1 0.695777 0.409153 0.236124
92 1 0.768139 0.602829 0.230458
93 1 0.784967 0.533678 0.311111
94 1 0.897703 0.408379 0.280157
95 1 0.935073 0.473894 0.374921
96 1 0.690429 0.28726 0.309517
97 1 0.640394 0.686023 0.0729962
98 1 0.781026 0.906083 0.0406857
99 1 0.754193 0.849207 0.128796
100 1 0.856707 0.733137 0.0916926
101 1 0.897962 0.818784 0.174859
102 1 0.666512 0.643426 0.158835
103 1 0.675595 0.708692 0.275988
104 1 0.754819 0.892134 0.216274
105 1 0.797844 0.866636 0.324358
106 1 0.889742 0.751951 0.303225
107 1 0.955502 0.856515 0.385996
108 1 0.718617 0.660499 0.359811
ITEM: TIMESTEP
50
ITEM: NUMBER OF ATOMS
108
ITEM: BOX BOUNDS xy xz yz pp pp pp
-7.2075420000000001e+00 1.4415084000000000e+01 -7.2075420000000001e+00
0.0000000000000000e+00 1.2483828000000001e+01 0.0000000000000000e+00
0.0000000000000000e+00 3.1116254000000001e+01 0.0000000000000000e+00
ITEM: ATOMS id type xs ys zs
1 1 0.974816 0.943998 0.107653
2 1 0.141334 0.213508 0.0870277
3 1 0.056422 0.235091 0.150615
4 1 0.209043 0.0900281 0.118816
5 1 0.21711 0.108579 0.200121
6 1 0.00804231 0.0411908 0.176133
7 1 0.998641 0.968304 0.250768
8 1 0.0920047 0.195927 0.230263
9 1 0.1626 0.247679 0.326786
10 1 0.225968 0.131055 0.287157
11 1 0.231118 0.121823 0.375415
12 1 0.0183787 0.0222887 0.342047
13 1 0.0149191 0.332513 0.0838745
14 1 0.11347 0.544171 0.097879
15 1 0.0604385 0.590806 0.166998
16 1 0.204832 0.419875 0.123091
17 1 0.175058 0.375569 0.213915
18 1 0.991334 0.353365 0.178573
19 1 0.00280048 0.30322 0.275006
20 1 0.0865565 0.525816 0.238422
21 1 0.107839 0.581511 0.325894
22 1 0.224032 0.479442 0.288013
23 1 0.276955 0.426516 0.364701
24 1 0.0678599 0.39485 0.356249
25 1 0.975631 0.631193 0.0822702
26 1 0.0871065 0.863637 0.0779003
27 1 0.0687228 0.893563 0.167518
28 1 0.211381 0.771153 0.123323
29 1 0.222055 0.799406 0.209314
30 1 0.904069 0.670033 0.162688
31 1 0.937555 0.620451 0.240724
32 1 0.0803417 0.841323 0.245098
33 1 0.142092 0.924274 0.326584
34 1 0.173158 0.759 0.286266
35 1 0.240948 0.835482 0.369066
36 1 0.0122819 0.702423 0.341793
37 1 0.313414 0.988715 0.0718585
38 1 0.407803 0.209818 0.0759331
39 1 0.444796 0.189778 0.162709
40 1 0.569367 0.1294 0.0691038
41 1 0.5341 0.0777968 0.170709
42 1 0.28951 0.986244 0.162938
43 1 0.305811 0.0332098 0.246857
44 1 0.406108 0.271231 0.224812
45 1 0.493014 0.216732 0.312382
46 1 0.530322 0.151709 0.247203
47 1 0.585357 0.0785791 0.316947
48 1 0.356883 0.0447509 0.348495
49 1 0.334843 0.379105 0.0542913
50 1 0.446215 0.556363 0.111754
51 1 0.438243 0.525608 0.195677
52 1 0.530417 0.420996 0.0656594
53 1 0.582137 0.444815 0.164956
54 1 0.354837 0.33086 0.141394
55 1 0.354718 0.397006 0.263633
56 1 0.465923 0.618369 0.259559
57 1 0.494089 0.519573 0.338824
58 1 0.572546 0.463401 0.273175
59 1 0.562987 0.389078 0.370576
60 1 0.376625 0.296589 0.328953
61 1 0.333828 0.671341 0.0935825
62 1 0.435797 0.920795 0.0942423
63 1 0.385693 0.823423 0.164808
64 1 0.566651 0.79203 0.0829382
65 1 0.521974 0.726717 0.171925
66 1 0.28993 0.600918 0.179691
67 1 0.332738 0.700175 0.255697
68 1 0.44051 0.940343 0.24784
69 1 0.466167 0.856111 0.333983
70 1 0.594889 0.82556 0.263098
71 1 0.596053 0.750505 0.341842
72 1 0.395068 0.657912 0.333083
73 1 0.688756 0.00926038 0.0734737
74 1 0.807291 0.232274 0.0514415
75 1 0.79432 0.194756 0.132872
76 1 0.92101 0.102861 0.0780885
77 1 0.867324 0.135384 0.199967
78 1 0.609862 0.962783 0.143681
79 1 0.673929 0.0537136 0.237963
80 1 0.752641 0.256803 0.208516
81 1 0.81134 0.207278 0.299773
82 1 0.901069 0.0814828 0.280242
83 1 0.941198 0.178373 0.351266
84 1 0.71497 0.992776 0.332197
85 1 0.70112 0.366657 0.0402953
86 1 0.756113 0.573412 0.0351985
87 1 0.76595 0.497961 0.116423
88 1 0.887182 0.422563 0.0955668
89 1 0.857963 0.454025 0.183337
90 1 0.632414 0.275936 0.12856
91 1 0.674803 0.380582 0.231457
92 1 0.735523 0.598444 0.213657
93 1 0.776613 0.542632 0.309742
94 1 0.889132 0.425797 0.269736
95 1 0.894762 0.448287 0.355621
96 1 0.716431 0.330053 0.318433
97 1 0.609552 0.635579 0.0507346
98 1 0.802419 0.878221 0.0469204
99 1 0.77247 0.911823 0.133455
100 1 0.851651 0.728582 0.0990681
101 1 0.841727 0.80976 0.188712
102 1 0.634498 0.644228 0.141452
103 1 0.676288 0.684654 0.28332
104 1 0.756885 0.909995 0.226249
105 1 0.819608 0.880913 0.324557
106 1 0.903857 0.766943 0.289763
107 1 0.945917 0.811209 0.391522
108 1 0.745143 0.663779 0.366179
ITEM: TIMESTEP
60
ITEM: NUMBER OF ATOMS
108
ITEM: BOX BOUNDS xy xz yz pp pp pp
-7.2075420000000001e+00 1.4415084000000000e+01 -7.2075420000000001e+00
0.0000000000000000e+00 1.2483828000000001e+01 0.0000000000000000e+00
0.0000000000000000e+00 3.1116254000000001e+01 0.0000000000000000e+00
ITEM: ATOMS id type xs ys zs
1 1 0.992808 0.992447 0.0786674
2 1 0.128704 0.213604 0.0762759
3 1 0.0451503 0.255775 0.157928
4 1 0.191309 0.088326 0.109689
5 1 0.197699 0.085098 0.20111
6 1 0.964922 0.0227095 0.177835
7 1 0.984565 0.956128 0.257562
8 1 0.084814 0.202795 0.234582
9 1 0.135584 0.272634 0.331002
10 1 0.199352 0.122108 0.286315
11 1 0.224217 0.155547 0.376854
12 1 0.0331763 0.0712092 0.336744
13 1 0.0247107 0.344915 0.0733643
14 1 0.129375 0.547512 0.113181
15 1 0.04939 0.623913 0.164355
16 1 0.272386 0.436002 0.11725
17 1 0.204039 0.38447 0.200456
18 1 0.993446 0.397654 0.182612
19 1 0.0394263 0.358767 0.274496
20 1 0.129552 0.567304 0.22555
21 1 0.0996041 0.567234 0.318193
22 1 0.227463 0.515944 0.293977
23 1 0.299044 0.44633 0.365013
24 1 0.0732989 0.372367 0.373451
25 1 0.973509 0.638628 0.0878456
26 1 0.0613226 0.853905 0.0759622
27 1 0.0477878 0.90718 0.156896
28 1 0.208812 0.787842 0.101423
29 1 0.222389 0.786526 0.202558
30 1 0.931989 0.70556 0.181334
31 1 0.991214 0.608016 0.258324
32 1 0.089302 0.846853 0.233766
33 1 0.154691 0.91902 0.316936
34 1 0.207807 0.781955 0.285036
35 1 0.249549 0.785736 0.362565
36 1 0.991463 0.684829 0.33524
37 1 0.33072 0.99854 0.0761918
38 1 0.454361 0.227682 0.0823877
39 1 0.443032 0.178966 0.165492
40 1 0.56256 0.100797 0.0755362
41 1 0.554843 0.0380499 0.152919
42 1 0.334112 0.967788 0.16346
43 1 0.33624 0.014997 0.251984
44 1 0.36491 0.252686 0.237159
45 1 0.488976 0.252304 0.283988
46 1 0.535946 0.127787 0.219758
47 1 0.565741 0.110182 0.319924
48 1 0.367804 0.0540809 0.336347
49 1 0.396554 0.362783 0.0635836
50 1 0.491408 0.583017 0.10255
51 1 0.420329 0.493658 0.185806
52 1 0.593082 0.459693 0.0805718
53 1 0.556619 0.38664 0.177903
54 1 0.300575 0.275731 0.154243
55 1 0.300842 0.395404 0.272878
56 1 0.4439 0.599678 0.274056
57 1 0.505582 0.535294 0.340838
58 1 0.555047 0.480414 0.267642
59 1 0.57986 0.417078 0.365606
60 1 0.373332 0.316432 0.335301
61 1 0.368419 0.689799 0.100115
62 1 0.44911 0.891211 0.0941085
63 1 0.40562 0.818681 0.174668
64 1 0.600191 0.79397 0.0903803
65 1 0.542897 0.687249 0.206312
66 1 0.301092 0.611046 0.176711
67 1 0.352445 0.702692 0.255576
68 1 0.446176 0.940598 0.239865
69 1 0.448374 0.88074 0.332526
70 1 0.546586 0.828523 0.27063
71 1 0.571135 0.754701 0.347538
72 1 0.36591 0.684133 0.34434
73 1 0.66917 0.985308 0.0790592
74 1 0.797838 0.250269 0.0370661
75 1 0.814135 0.214217 0.110775
76 1 0.915022 0.117988 0.089954
77 1 0.824141 0.109251 0.184561
78 1 0.630553 0.917216 0.185707
79 1 0.674287 0.0614343 0.249788
80 1 0.759336 0.237118 0.202152
81 1 0.798783 0.213146 0.322317
82 1 0.887011 0.12052 0.287169
83 1 0.924214 0.156433 0.374755
84 1 0.71938 0.00129544 0.321659
85 1 0.639016 0.303066 0.0441818
86 1 0.77225 0.534909 0.0322072
87 1 0.77547 0.539852 0.126877
88 1 0.889157 0.431676 0.11068
89 1 0.831642 0.47397 0.191147
90 1 0.665738 0.275376 0.13901
91 1 0.646986 0.353798 0.237822
92 1 0.734351 0.571918 0.207947
93 1 0.773823 0.522991 0.299433
94 1 0.863465 0.377803 0.266232
95 1 0.896213 0.436955 0.360432
96 1 0.713147 0.332503 0.317783
97 1 0.595523 0.59727 0.0280949
98 1 0.75324 0.844486 0.036919
99 1 0.777111 0.908295 0.127861
100 1 0.832152 0.734198 0.0999605
101 1 0.818824 0.790868 0.201208
102 1 0.661971 0.670192 0.146323
103 1 0.658576 0.694023 0.264352
104 1 0.764602 0.910992 0.238191
105 1 0.808824 0.858476 0.320088
106 1 0.88987 0.732419 0.273351
107 1 0.964998 0.859768 0.359974
108 1 0.708982 0.634534 0.350249
ITEM: TIMESTEP
70
ITEM: NUMBER OF ATOMS
108
ITEM: BOX BOUNDS xy xz yz pp pp pp
-7.2075420000000001e+00 1.4415084000000000e+01 -7.2075420000000001e+00
0.0000000000000000e+00 1.2483828000000001e+01 0.0000000000000000e+00
0.0000000000000000e+00 3.1116254000000001e+01 0.0000000000000000e+00
ITEM: ATOMS id type xs ys zs
1 1 0.96715 0.980331 0.061206
2 1 0.141281 0.203816 0.0606138
3 1 0.0574158 0.243481 0.15081
4 1 0.232614 0.0670876 0.0980355
5 1 0.173902 0.0269728 0.180444
6 1 0.974276 0.058181 0.181612
7 1 0.0255832 0.961119 0.253522
8 1 0.125453 0.191618 0.23526
9 1 0.119864 0.264688 0.337468
10 1 0.217759 0.151344 0.300717
11 1 0.1705 0.0857156 0.383228
12 1 0.00719232 0.058334 0.33048
13 1 0.987158 0.314066 0.0835188
14 1 0.146585 0.537164 0.113328
15 1 0.0372516 0.581616 0.162697
16 1 0.238293 0.426877 0.109614
17 1 0.16328 0.393762 0.198284
18 1 0.976711 0.373343 0.165109
19 1 0.0227997 0.328694 0.26823
20 1 0.135686 0.541834 0.231742
21 1 0.108666 0.589031 0.307479
22 1 0.213183 0.477682 0.305623
23 1 0.280687 0.447867 0.387792
24 1 0.0520845 0.413359 0.366132
25 1 0.982273 0.649072 0.0813421
26 1 0.147676 0.876282 0.0649546
27 1 0.00674528 0.905208 0.141367
28 1 0.236185 0.767501 0.106032
29 1 0.229874 0.738945 0.192034
30 1 0.944139 0.713953 0.173707
31 1 0.0421224 0.657988 0.248863
32 1 0.114705 0.848021 0.227779
33 1 0.141324 0.93161 0.322888
34 1 0.22966 0.826633 0.287985
35 1 0.188804 0.765298 0.370651
36 1 0.976211 0.676255 0.345352
37 1 0.374006 0.0194214 0.0653288
38 1 0.456182 0.250975 0.0880498
39 1 0.390801 0.143034 0.164096
40 1 0.613169 0.144274 0.0703914
41 1 0.606902 0.0644624 0.161033
42 1 0.388772 0.958632 0.154586
43 1 0.324905 0.0488885 0.259074
44 1 0.335834 0.242971 0.224095
45 1 0.472391 0.221834 0.295096
46 1 0.540762 0.144742 0.220678
47 1 0.559102 0.0878038 0.306448
48 1 0.347488 0.0607511 0.356466
49 1 0.367359 0.363864 0.0538061
50 1 0.464881 0.535396 0.111062
51 1 0.385688 0.441831 0.201459
52 1 0.595692 0.451326 0.0967558
53 1 0.517872 0.373486 0.172092
54 1 0.257701 0.240891 0.135304
55 1 0.27701 0.369801 0.271356
56 1 0.434659 0.605526 0.269748
57 1 0.542552 0.573007 0.358013
58 1 0.48593 0.425983 0.267949
59 1 0.628897 0.4487 0.335439
60 1 0.387725 0.347041 0.344513
61 1 0.349827 0.649144 0.0672841
62 1 0.454628 0.889985 0.0652157
63 1 0.421419 0.79933 0.142317
64 1 0.563922 0.760707 0.112348
65 1 0.529092 0.659634 0.196541
66 1 0.335774 0.588086 0.164141
67 1 0.336165 0.704531 0.266499
68 1 0.444646 0.943171 0.237768
69 1 0.408888 0.866895 0.338589
70 1 0.567579 0.849477 0.272956
71 1 0.574065 0.76602 0.351795
72 1 0.335444 0.660947 0.355608
73 1 0.686078 0.996205 0.0819163
74 1 0.839758 0.320323 0.0284207
75 1 0.796614 0.224213 0.123189
76 1 0.900511 0.0990068 0.105613
77 1 0.805277 0.0965208 0.179234
78 1 0.643015 0.889074 0.179596
79 1 0.713158 0.0926514 0.263819
80 1 0.776336 0.251661 0.211261
81 1 0.841804 0.245492 0.324733
82 1 0.91757 0.147447 0.270361
83 1 0.916177 0.141129 0.382223
84 1 0.666786 0.998751 0.362537
85 1 0.662947 0.349104 0.04891
86 1 0.792049 0.566735 0.0453345
87 1 0.784336 0.555868 0.135085
88 1 0.819122 0.407078 0.100183
89 1 0.838478 0.475391 0.199019
90 1 0.614306 0.278201 0.150234
91 1 0.654167 0.354135 0.247566
92 1 0.732816 0.602806 0.226411
93 1 0.808812 0.533747 0.289973
94 1 0.887308 0.404364 0.270026
95 1 0.880305 0.473882 0.359425
96 1 0.678483 0.28771 0.350094
97 1 0.643817 0.628516 0.0407922
98 1 0.742696 0.853582 0.0538464
99 1 0.776983 0.878092 0.132558
100 1 0.858492 0.744347 0.0850632
101 1 0.847691 0.835102 0.208437