  254  254    1    1
  0.2268316E+02  0.1514622E-08  0.1514622E-08  0.2900000E-08  0.5000000E-15
   1.0000000000000000E-004
  CAR 
 NiAl                                    
   2532      4   1519
 
  0.1262379E-14  0.1262379E-14  0.1262379E-14  0.2500000E+00
    1      -25.423609   1.000000
    2      -14.735669   1.000000
    3       -9.117475   1.000000
    4       -8.589430   1.000000
    5       -8.212037   1.000000
    6       -8.209488   1.000000
    7       -8.209449   1.000000
    8       -8.209399   1.000000
    9       -8.209395   1.000000
   10       -8.209365   1.000000
   11       -7.776420   1.000000
   12       -7.722274   1.000000
   13       -7.703727   1.000000
   14       -7.703555   1.000000
   15       -7.703380   1.000000
   16       -7.703347   1.000000
   17       -7.703320   1.000000
   18       -7.457686   1.000000
   19       -6.966105   1.000000
   20       -6.918044   1.000000
   21       -6.915412   1.000000
   22       -6.915168   1.000000
   23       -6.915115   1.000000
   24       -6.914969   1.000000
   25       -6.788456   1.000000
   26       -6.677782   1.000000
   27       -6.573976   1.000000
   28       -6.569135   1.000000
   29       -6.569026   1.000000
   30       -6.568898   1.000000
   31       -6.568854   1.000000
   32       -6.564999   1.000000
   33       -6.528462   1.000000
   34       -6.146710   1.000000
   35       -6.146342   1.000000
   36       -6.146246   1.000000
   37       -6.146241   1.000000
   38       -6.144340   1.000000
   39       -6.141965   1.000000
   40       -5.943595   1.000000
   41       -5.943352   1.000000
   42       -5.943332   1.000000
   43       -5.943206   1.000000
   44       -5.940384   1.000000
   45       -5.938470   1.000000
   46       -5.938394   1.000000
   47       -5.938357   1.000000
   48       -5.938302   1.000000
   49       -5.938189   1.000000
   50       -5.937676   1.000000
   51       -5.910169   1.000000
   52       -5.695530   1.000000
   53       -5.603722   1.000000
   54       -5.603420   1.000000
   55       -5.603309   1.000000
   56       -5.603152   1.000000
   57       -5.602639   1.000000
   58       -5.601859   1.000000
   59       -5.513949   1.000000
   60       -5.513261   1.000000
   61       -5.513156   1.000000
   62       -5.513137   1.000000
   63       -5.511764   1.000000
   64       -5.507022   1.000000
   65       -5.146560   1.000000
   66       -5.146086   1.000000
   67       -5.145924   1.000000
   68       -5.145787   1.000000
   69       -5.145151   1.000000
   70       -5.144419   1.000000
   71       -5.045748   1.000000
   72       -4.993081   1.000000
   73       -4.992617   1.000000
   74       -4.992557   1.000000
   75       -4.992460   1.000000
   76       -4.991213   1.000000
   77       -4.970806   1.000000
   78       -4.857016   1.000000
   79       -4.800521   1.000000
   80       -4.800516   1.000000
   81       -4.800447   1.000000
   82       -4.782967   1.000000
   83       -4.782196   1.000000
   84       -4.782093   1.000000
   85       -4.782066   1.000000
   86       -4.781003   1.000000
   87       -4.775935   1.000000
   88       -4.678815   1.000000
   89       -4.678283   1.000000
   90       -4.678218   1.000000
   91       -4.678103   1.000000
   92       -4.677531   1.000000
   93       -4.676191   1.000000
   94       -4.644553   1.000000
   95       -4.644514   1.000000
   96       -4.644338   1.000000
   97       -4.568573   1.000000
   98       -4.568431   1.000000
   99       -4.568400   1.000000
  100       -4.568305   1.000000
  101       -4.568296   1.000000
  102       -4.568249   1.000000
  103       -4.568241   1.000000
  104       -4.568196   1.000000
  105       -4.568182   1.000000
  106       -4.568181   1.000000
  107       -4.568151   1.000000
  108       -4.568137   1.000000
  109       -4.522605   1.000000
  110       -4.522502   1.000000
  111       -4.522423   1.000000
  112       -4.436393   1.000000
  113       -4.436190   1.000000
  114       -4.436040   1.000000
  115       -4.415408   1.000000
  116       -4.414440   1.000000
  117       -4.414390   1.000000
  118       -4.414343   1.000000
  119       -4.414014   1.000000
  120       -4.403362   1.000000
  121       -4.370352   1.000000
  122       -4.370184   1.000000
  123       -4.370012   1.000000
  124       -4.369843   1.000000
  125       -4.369827   1.000000
  126       -4.369799   1.000000
  127       -4.369773   1.000000
  128       -4.369745   1.000000
  129       -4.369723   1.000000
  130       -4.369720   1.000000
  131       -4.369661   1.000000
  132       -4.369644   1.000000
  133       -4.335699   1.000000
  134       -4.335609   1.000000
  135       -4.335582   1.000000
  136       -4.335470   1.000000
  137       -4.335410   1.000000
  138       -4.335381   1.000000
  139       -4.335313   1.000000
  140       -4.335282   1.000000
  141       -4.335228   1.000000
  142       -4.335202   1.000000
  143       -4.335150   1.000000
  144       -4.334980   1.000000
  145       -4.291069   1.000000
  146       -4.290557   1.000000
  147       -4.290542   1.000000
  148       -4.290447   1.000000
  149       -4.290430   1.000000
  150       -4.286442   1.000000
  151       -4.255237   1.000000
  152       -4.254409   1.000000
  153       -4.254372   1.000000
  154       -4.254350   1.000000
  155       -4.253948   1.000000
  156       -4.251840   1.000000
  157       -4.234551   1.000000
  158       -4.234429   1.000000
  159       -4.234261   1.000000
  160       -4.198234   1.000000
  161       -4.197938   1.000000
  162       -4.197885   1.000000
  163       -4.197695   1.000000
  164       -4.197676   1.000000
  165       -4.197516   1.000000
  166       -4.197321   1.000000
  167       -4.197236   1.000000
  168       -4.197202   1.000000
  169       -4.197189   1.000000
  170       -4.197179   1.000000
  171       -4.197015   1.000000
  172       -4.128295   1.000000
  173       -4.127515   1.000000
  174       -4.127361   1.000000
  175       -4.127325   1.000000
  176       -4.126782   1.000000
  177       -4.123061   1.000000
  178       -4.088132   1.000000
  179       -4.088080   1.000000
  180       -4.087896   1.000000
  181       -4.021358   1.000000
  182       -4.020154   1.000000
  183       -4.019958   1.000000
  184       -3.999079   1.000000
  185       -3.998122   1.000000
  186       -3.998075   1.000000
  187       -3.997773   1.000000
  188       -3.997693   1.000000
  189       -3.997623   1.000000
  190       -3.997607   1.000000
  191       -3.997387   1.000000
  192       -3.997343   1.000000
  193       -3.997245   1.000000
  194       -3.997197   1.000000
  195       -3.997042   1.000000
  196       -3.934798   1.000000
  197       -3.934511   1.000000
  198       -3.934143   1.000000
  199       -3.881189   1.000000
  200       -3.880379   1.000000
  201       -3.880352   1.000000
  202       -3.878171   1.000000
  203       -3.877813   1.000000
  204       -3.877681   1.000000
  205       -3.877616   1.000000
  206       -3.877179   1.000000
  207       -3.875624   1.000000
  208       -3.808386   1.000000
  209       -3.808307   1.000000
  210       -3.808201   1.000000
  211       -3.808155   1.000000
  212       -3.808086   1.000000
  213       -3.808066   1.000000
  214       -3.808039   1.000000
  215       -3.808003   1.000000
  216       -3.807956   1.000000
  217       -3.807923   1.000000
  218       -3.807852   1.000000
  219       -3.807793   1.000000
  220       -3.802332   1.000000
  221       -3.802263   1.000000
  222       -3.802140   1.000000
  223       -3.801950   1.000000
  224       -3.801833   1.000000
  225       -3.801617   1.000000
  226       -3.751195   1.000000
  227       -3.749904   1.000000
  228       -3.749558   1.000000
  229       -3.749203   1.000000
  230       -3.749192   1.000000
  231       -3.749159   1.000000
  232       -3.749107   1.000000
  233       -3.748897   1.000000
  234       -3.748863   1.000000
  235       -3.748800   1.000000
  236       -3.748629   1.000000
  237       -3.748621   1.000000
  238       -3.726697   1.000000
  239       -3.726148   1.000000
  240       -3.726067   1.000000
  241       -3.726048   1.000000
  242       -3.725879   1.000000
  243       -3.724402   1.000000
  244       -3.686829   1.000000
  245       -3.686603   1.000000
  246       -3.686565   1.000000
  247       -3.686500   1.000000
  248       -3.686388   1.000000
  249       -3.686042   1.000000
  250       -3.682828   1.000000
  251       -3.682768   1.000000
  252       -3.682673   1.000000
  253       -3.682656   1.000000
  254       -3.674431   1.000000
  255       -3.674357   1.000000
  256       -3.620961   1.000000
  257       -3.620649   1.000000
  258       -3.620478   1.000000
  259       -3.620099   1.000000
  260       -3.620058   1.000000
  261       -3.619969   1.000000
  262       -3.619930   1.000000
  263       -3.619864   1.000000
  264       -3.619819   1.000000
  265       -3.619789   1.000000
  266       -3.619729   1.000000
  267       -3.619638   1.000000
  268       -3.611902   1.000000
  269       -3.611651   1.000000
  270       -3.611498   1.000000
  271       -3.587180   1.000000
  272       -3.586789   1.000000
  273       -3.586715   1.000000
  274       -3.586703   1.000000
  275       -3.565724   1.000000
  276       -3.565051   1.000000
  277       -3.564977   1.000000
  278       -3.564639   1.000000
  279       -3.564461   1.000000
  280       -3.564030   1.000000
  281       -3.553179   1.000000
  282       -3.553049   1.000000
  283       -3.542894   1.000000
  284       -3.542756   1.000000
  285       -3.542708   1.000000
  286       -3.542663   1.000000
  287       -3.541023   1.000000
  288       -3.540887   1.000000
  289       -3.538393   1.000000
  290       -3.537931   1.000000
  291       -3.537768   1.000000
  292       -3.537619   1.000000
  293       -3.537546   1.000000
  294       -3.536719   1.000000
  295       -3.470260   1.000000
  296       -3.469740   1.000000
  297       -3.469015   1.000000
  298       -3.468974   1.000000
  299       -3.463320   1.000000
  300       -3.462283   1.000000
  301       -3.461889   1.000000
  302       -3.461638   1.000000
  303       -3.461623   1.000000
  304       -3.461477   1.000000
  305       -3.461458   1.000000
  306       -3.461397   1.000000
  307       -3.461245   1.000000
  308       -3.461235   1.000000
  309       -3.460916   1.000000
  310       -3.460844   1.000000
  311       -3.390102   1.000000
  312       -3.390003   1.000000
  313       -3.389923   1.000000
  314       -3.389837   1.000000
  315       -3.389814   1.000000
  316       -3.389726   1.000000
  317       -3.356347   1.000000
  318       -3.355658   1.000000
  319       -3.355560   1.000000
  320       -3.353978   1.000000
  321       -3.353904   1.000000
  322       -3.353895   1.000000
  323       -3.353789   1.000000
  324       -3.353690   1.000000
  325       -3.353665   1.000000
  326       -3.353619   1.000000
  327       -3.353495   1.000000
  328       -3.353410   1.000000
  329       -3.344001   1.000000
  330       -3.343467   1.000000
  331       -3.343218   1.000000
  332       -3.343178   1.000000
  333       -3.343145   1.000000
  334       -3.343005   1.000000
  335       -3.336992   1.000000
  336       -3.336851   1.000000
  337       -3.336586   1.000000
  338       -3.336190   1.000000
  339       -3.335966   1.000000
  340       -3.334716   1.000000
  341       -3.249233   1.000000
  342       -3.248471   1.000000
  343       -3.247791   1.000000
  344       -3.209496   1.000000
  345       -3.208971   1.000000
  346       -3.208678   1.000000
  347       -3.208343   1.000000
  348       -3.208193   1.000000
  349       -3.207965   1.000000
  350       -3.197400   1.000000
  351       -3.197001   1.000000
  352       -3.176643   1.000000
  353       -3.175535   1.000000
  354       -3.175120   1.000000
  355       -3.174215   1.000000
  356       -3.174048   1.000000
  357       -3.173864   1.000000
  358       -3.173694   1.000000
  359       -3.173651   1.000000
  360       -3.173517   1.000000
  361       -3.173429   1.000000
  362       -3.173258   1.000000
  363       -3.172856   1.000000
  364       -3.165086   1.000000
  365       -3.164644   1.000000
  366       -3.104111   1.000000
  367       -3.103457   1.000000
  368       -3.103077   1.000000
  369       -3.102982   1.000000
  370       -3.102343   1.000000
  371       -3.101226   1.000000
  372       -3.078679   1.000000
  373       -3.078392   1.000000
  374       -3.077451   1.000000
  375       -3.077373   1.000000
  376       -3.077229   1.000000
  377       -3.077067   1.000000
  378       -3.076960   1.000000
  379       -3.076831   1.000000
  380       -3.076710   1.000000
  381       -3.076666   1.000000
  382       -3.076610   1.000000
  383       -3.076305   1.000000
  384       -3.028172   1.000000
  385       -3.026747   1.000000
  386       -3.025519   1.000000
  387       -3.025347   1.000000
  388       -3.025277   1.000000
  389       -3.025196   1.000000
  390       -3.025143   1.000000
  391       -3.025108   1.000000
  392       -3.024985   1.000000
  393       -3.024940   1.000000
  394       -3.024660   1.000000
  395       -3.024567   1.000000
  396       -2.970651   1.000000
  397       -2.970261   1.000000
  398       -2.970092   1.000000
  399       -2.969999   1.000000
  400       -2.969881   1.000000
  401       -2.969733   1.000000
  402       -2.913033   1.000000
  403       -2.911480   1.000000
  404       -2.911104   1.000000
  405       -2.911020   1.000000
  406       -2.910661   1.000000
  407       -2.907956   1.000000
  408       -2.901381   1.000000
  409       -2.900950   1.000000
  410       -2.900869   1.000000
  411       -2.900776   1.000000
  412       -2.900722   1.000000
  413       -2.900152   1.000000
  414       -2.874736   1.000000
  415       -2.874580   1.000000
  416       -2.874491   1.000000
  417       -2.874342   1.000000
  418       -2.874297   1.000000
  419       -2.874142   1.000000
  420       -2.870075   1.000000
  421       -2.868662   1.000000
  422       -2.868252   1.000000
  423       -2.868014   1.000000
  424       -2.867896   1.000000
  425       -2.865638   1.000000
  426       -2.847132   1.000000
  427       -2.845765   1.000000
  428       -2.844901   1.000000
  429       -2.844731   1.000000
  430       -2.844403   1.000000
  431       -2.843526   1.000000
  432       -2.842014   1.000000
  433       -2.841699   1.000000
  434       -2.840906   1.000000
  435       -2.840677   1.000000
  436       -2.840654   1.000000
  437       -2.840540   1.000000
  438       -2.840512   1.000000
  439       -2.840467   1.000000
  440       -2.840391   1.000000
  441       -2.840357   1.000000
  442       -2.840217   1.000000
  443       -2.839597   1.000000
  444       -2.778874   1.000000
  445       -2.777942   1.000000
  446       -2.776760   1.000000
  447       -2.768221   1.000000
  448       -2.768000   1.000000
  449       -2.767961   1.000000
  450       -2.767678   1.000000
  451       -2.767657   1.000000
  452       -2.767617   1.000000
  453       -2.767444   1.000000
  454       -2.767368   1.000000
  455       -2.767296   1.000000
  456       -2.767240   1.000000
  457       -2.767136   1.000000
  458       -2.767124   1.000000
  459       -2.765282   1.000000
  460       -2.764270   1.000000
  461       -2.764008   1.000000
  462       -2.763911   1.000000
  463       -2.763623   1.000000
  464       -2.762998   1.000000
  465       -2.726640   1.000000
  466       -2.726566   1.000000
  467       -2.726462   1.000000
  468       -2.726454   1.000000
  469       -2.677694   1.000000
  470       -2.676876   1.000000
  471       -2.676841   1.000000
  472       -2.676782   1.000000
  473       -2.676443   1.000000
  474       -2.675487   1.000000
  475       -2.673032   1.000000
  476       -2.672880   1.000000
  477       -2.672032   1.000000
  478       -2.671701   1.000000
  479       -2.671324   1.000000
  480       -2.670970   1.000000
  481       -2.670875   1.000000
  482       -2.670869   1.000000
  483       -2.670785   1.000000
  484       -2.670753   1.000000
  485       -2.670496   1.000000
  486       -2.670388   1.000000
  487       -2.670292   1.000000
  488       -2.670030   1.000000
  489       -2.665893   1.000000
  490       -2.665827   1.000000
  491       -2.665474   1.000000
  492       -2.664786   1.000000
  493       -2.664746   1.000000
  494       -2.664716   1.000000
  495       -2.664696   1.000000
  496       -2.664662   1.000000
  497       -2.664560   1.000000
  498       -2.664526   1.000000
  499       -2.664453   1.000000
  500       -2.664287   1.000000
  501       -2.613356   1.000000
  502       -2.612734   1.000000
  503       -2.612657   1.000000
  504       -2.612555   1.000000
  505       -2.612420   1.000000
  506       -2.609566   1.000000
  507       -2.605258   1.000000
  508       -2.604809   1.000000
  509       -2.604567   1.000000
  510       -2.604410   1.000000
  511       -2.604367   1.000000
  512       -2.603950   1.000000
  513       -2.579221   1.000000
  514       -2.579195   1.000000
  515       -2.578634   1.000000
  516       -2.578591   1.000000
  517       -2.568275   1.000000
  518       -2.555562   1.000000
  519       -2.551611   1.000000
  520       -2.550893   1.000000
  521       -2.550686   1.000000
  522       -2.550050   1.000000
  523       -2.548109   1.000000
  524       -2.529338   1.000000
  525       -2.509821   1.000000
  526       -2.507341   1.000000
  527       -2.506125   1.000000
  528       -2.506007   1.000000
  529       -2.505838   1.000000
  530       -2.505754   1.000000
  531       -2.505643   1.000000
  532       -2.505602   1.000000
  533       -2.505551   1.000000
  534       -2.505367   1.000000
  535       -2.505115   1.000000
  536       -2.505017   1.000000
  537       -2.494548   1.000000
  538       -2.490205   1.000000
  539       -2.489332   1.000000
  540       -2.489319   1.000000
  541       -2.488731   1.000000
  542       -2.483311   1.000000
  543       -2.463213   1.000000
  544       -2.462976   1.000000
  545       -2.462438   1.000000
  546       -2.448416   1.000000
  547       -2.447793   1.000000
  548       -2.447617   1.000000
  549       -2.447435   1.000000
  550       -2.447234   1.000000
  551       -2.443251   1.000000
  552       -2.434745   1.000000
  553       -2.434578   1.000000
  554       -2.434545   1.000000
  555       -2.434227   1.000000
  556       -2.434173   1.000000
  557       -2.433893   1.000000
  558       -2.433841   1.000000
  559       -2.433812   1.000000
  560       -2.433777   1.000000
  561       -2.433622   1.000000
  562       -2.433563   1.000000
  563       -2.433542   1.000000
  564       -2.427898   1.000000
  565       -2.425862   1.000000
  566       -2.425106   1.000000
  567       -2.425024   1.000000
  568       -2.424587   1.000000
  569       -2.423959   1.000000
  570       -2.423878   1.000000
  571       -2.423788   1.000000
  572       -2.417494   1.000000
  573       -2.375051   1.000000
  574       -2.374580   1.000000
  575       -2.373956   1.000000
  576       -2.373749   1.000000
  577       -2.373216   1.000000
  578       -2.371811   1.000000
  579       -2.371598   1.000000
  580       -2.371275   1.000000
  581       -2.370166   1.000000
  582       -2.369959   1.000000
  583       -2.359580   1.000000
  584       -2.359501   1.000000
  585       -2.358481   1.000000
  586       -2.358392   1.000000
  587       -2.358299   1.000000
  588       -2.357515   1.000000
  589       -2.339873   1.000000
  590       -2.331257   1.000000
  591       -2.330367   1.000000
  592       -2.330258   1.000000
  593       -2.330049   1.000000
  594       -2.330004   1.000000
  595       -2.328926   1.000000
  596       -2.316843   1.000000
  597       -2.316813   1.000000
  598       -2.316729   1.000000
  599       -2.316651   1.000000
  600       -2.316629   1.000000
  601       -2.316576   1.000000
  602       -2.311894   1.000000
  603       -2.311767   1.000000
  604       -2.311484   1.000000
  605       -2.297918   1.000000
  606       -2.297795   1.000000
  607       -2.297729   1.000000
  608       -2.297699   1.000000
  609       -2.297634   1.000000
  610       -2.297571   1.000000
  611       -2.282194   1.000000
  612       -2.281975   1.000000
  613       -2.258214   1.000000
  614       -2.258097   1.000000
  615       -2.257891   1.000000
  616       -2.256366   1.000000
  617       -2.255292   1.000000
  618       -2.254627   1.000000
  619       -2.253269   1.000000
  620       -2.252960   1.000000
  621       -2.252888   1.000000
  622       -2.252221   1.000000
  623       -2.237422   1.000000
  624       -2.237167   1.000000
  625       -2.222883   1.000000
  626       -2.222865   1.000000
  627       -2.222764   1.000000
  628       -2.222728   1.000000
  629       -2.222622   1.000000
  630       -2.222601   1.000000
  631       -2.218278   1.000000
  632       -2.217519   1.000000
  633       -2.216261   1.000000
  634       -2.199687   1.000000
  635       -2.199511   1.000000
  636       -2.199404   1.000000
  637       -2.199131   1.000000
  638       -2.199094   1.000000
  639       -2.199002   1.000000
  640       -2.189003   1.000000
  641       -2.188962   1.000000
  642       -2.188172   1.000000
  643       -2.187787   1.000000
  644       -2.178635   1.000000
  645       -2.175588   1.000000
  646       -2.175379   1.000000
  647       -2.175046   1.000000
  648       -2.175036   1.000000
  649       -2.173870   1.000000
  650       -2.172691   1.000000
  651       -2.172009   1.000000
  652       -2.171707   1.000000
  653       -2.171330   1.000000
  654       -2.171282   1.000000
  655       -2.171173   1.000000
  656       -2.171091   1.000000
  657       -2.170918   1.000000
  658       -2.170790   1.000000
  659       -2.170756   1.000000
  660       -2.170399   1.000000
  661       -2.164403   1.000000
  662       -2.163186   1.000000
  663       -2.162271   1.000000
  664       -2.161600   1.000000
  665       -2.161532   1.000000
  666       -2.161477   1.000000
  667       -2.157515   1.000000
  668       -2.157296   1.000000
  669       -2.157048   1.000000
  670       -2.156440   1.000000
  671       -2.156024   1.000000
  672       -2.155458   1.000000
  673       -2.111626   1.000000
  674       -2.110883   1.000000
  675       -2.110177   1.000000
  676       -2.109820   1.000000
  677       -2.109684   1.000000
  678       -2.109457   1.000000
  679       -2.102382   1.000000
  680       -2.088958   1.000000
  681       -2.088242   1.000000
  682       -2.087986   1.000000
  683       -2.087902   1.000000
  684       -2.087751   1.000000
  685       -2.087588   1.000000
  686       -2.084754   1.000000
  687       -2.071989   1.000000
  688       -2.063190   1.000000
  689       -2.063146   1.000000
  690       -2.060585   1.000000
  691       -2.060502   1.000000
  692       -2.059330   1.000000
  693       -2.058775   1.000000
  694       -2.058591   1.000000
  695       -2.058122   1.000000
  696       -2.058067   1.000000
  697       -2.058005   1.000000
  698       -2.057897   1.000000
  699       -2.057645   1.000000
  700       -2.057410   1.000000
  701       -2.056669   1.000000
  702       -2.052994   1.000000
  703       -2.052772   1.000000
  704       -2.044602   1.000000
  705       -2.044286   1.000000
  706       -2.044265   1.000000
  707       -2.043812   1.000000
  708       -2.043744   1.000000
  709       -2.043706   1.000000
  710       -2.043622   1.000000
  711       -2.043580   1.000000
  712       -2.043529   1.000000
  713       -2.043509   1.000000
  714       -2.043416   1.000000
  715       -2.043289   1.000000
  716       -2.040727   1.000000
  717       -2.040541   1.000000
  718       -2.017843   1.000000
  719       -2.017711   1.000000
  720       -2.017669   1.000000
  721       -2.017560   1.000000
  722       -2.017514   1.000000
  723       -2.017406   1.000000
  724       -2.001292   1.000000
  725       -1.997531   1.000000
  726       -1.994706   1.000000
  727       -1.993857   1.000000
  728       -1.993027   1.000000
  729       -1.990652   1.000000
  730       -1.980798   1.000000
  731       -1.976256   1.000000
  732       -1.972149   1.000000
  733       -1.972103   1.000000
  734       -1.971913   1.000000
  735       -1.971844   1.000000
  736       -1.971725   1.000000
  737       -1.971709   1.000000
  738       -1.971596   1.000000
  739       -1.971560   1.000000
  740       -1.971219   1.000000
  741       -1.968798   1.000000
  742       -1.928511   1.000000
  743       -1.928200   1.000000
  744       -1.928125   1.000000
  745       -1.927974   1.000000
  746       -1.927928   1.000000
  747       -1.927794   1.000000
  748       -1.922021   1.000000
  749       -1.921834   1.000000
  750       -1.921783   1.000000
  751       -1.921139   1.000000
  752       -1.920798   1.000000
  753       -1.918574   1.000000
  754       -1.888829   1.000000
  755       -1.878625   1.000000
  756       -1.873587   1.000000
  757       -1.873398   1.000000
  758       -1.873085   1.000000
  759       -1.872932   1.000000
  760       -1.872862   1.000000
  761       -1.872853   1.000000
  762       -1.872750   1.000000
  763       -1.872729   1.000000
  764       -1.872529   1.000000
  765       -1.872036   1.000000
  766       -1.869714   1.000000
  767       -1.869693   1.000000
  768       -1.869213   1.000000
  769       -1.869183   1.000000
  770       -1.869089   1.000000
  771       -1.867572   1.000000
  772       -1.863342   1.000000
  773       -1.863049   1.000000
  774       -1.862563   1.000000
  775       -1.862533   1.000000
  776       -1.862440   1.000000
  777       -1.861263   1.000000
  778       -1.831357   1.000000
  779       -1.830823   1.000000
  780       -1.830721   1.000000
  781       -1.827092   1.000000
  782       -1.826666   1.000000
  783       -1.826591   1.000000
  784       -1.826449   1.000000
  785       -1.826383   1.000000
  786       -1.826233   1.000000
  787       -1.822142   1.000000
  788       -1.813366   1.000000
  789       -1.807760   1.000000
  790       -1.807088   1.000000
  791       -1.806205   1.000000
  792       -1.802625   1.000000
  793       -1.802417   1.000000
  794       -1.801852   1.000000
  795       -1.801540   1.000000
  796       -1.801422   1.000000
  797       -1.801343   1.000000
  798       -1.800550   1.000000
  799       -1.782849   1.000000
  800       -1.782536   1.000000
  801       -1.781656   1.000000
  802       -1.781359   1.000000
  803       -1.781199   1.000000
  804       -1.781038   1.000000
  805       -1.780912   1.000000
  806       -1.777025   1.000000
  807       -1.773948   1.000000
  808       -1.773408   1.000000
  809       -1.773000   1.000000
  810       -1.772935   1.000000
  811       -1.772790   1.000000
  812       -1.772636   1.000000
  813       -1.772539   1.000000
  814       -1.772346   1.000000
  815       -1.772161   1.000000
  816       -1.770244   1.000000
  817       -1.744025   1.000000
  818       -1.738195   1.000000
  819       -1.734907   1.000000
  820       -1.734848   1.000000
  821       -1.734026   1.000000
  822       -1.733906   1.000000
  823       -1.733806   1.000000
  824       -1.733507   1.000000
  825       -1.733468   1.000000
  826       -1.733435   1.000000
  827       -1.733349   1.000000
  828       -1.732448   1.000000
  829       -1.701857   1.000000
  830       -1.701307   1.000000
  831       -1.701094   1.000000
  832       -1.699904   1.000000
  833       -1.699745   1.000000
  834       -1.699677   1.000000
  835       -1.699644   1.000000
  836       -1.699440   1.000000
  837       -1.699158   1.000000
  838       -1.695447   1.000000
  839       -1.695378   1.000000
  840       -1.695178   1.000000
  841       -1.695045   1.000000
  842       -1.694792   1.000000
  843       -1.694534   1.000000
  844       -1.686644   1.000000
  845       -1.683775   1.000000
  846       -1.683414   1.000000
  847       -1.683231   1.000000
  848       -1.683202   1.000000
  849       -1.683029   1.000000
  850       -1.679773   1.000000
  851       -1.676460   1.000000
  852       -1.674469   1.000000
  853       -1.674325   1.000000
  854       -1.673895   1.000000
  855       -1.673620   1.000000
  856       -1.672643   1.000000
  857       -1.672341   1.000000
  858       -1.671420   1.000000
  859       -1.670247   1.000000
  860       -1.669200   1.000000
  861       -1.656356   1.000000
  862       -1.650990   1.000000
  863       -1.650951   1.000000
  864       -1.649514   1.000000
  865       -1.619357   1.000000
  866       -1.615900   1.000000
  867       -1.615807   1.000000
  868       -1.615388   1.000000
  869       -1.615254   1.000000
  870       -1.613378   1.000000
  871       -1.588881   1.000000
  872       -1.587805   1.000000
  873       -1.585926   1.000000
  874       -1.585626   1.000000
  875       -1.585543   1.000000
  876       -1.585023   1.000000
  877       -1.584919   1.000000
  878       -1.584791   1.000000
  879       -1.584731   1.000000
  880       -1.584579   1.000000
  881       -1.584227   1.000000
  882       -1.584041   1.000000
  883       -1.573371   1.000000
  884       -1.568005   1.000000
  885       -1.564562   1.000000
  886       -1.563718   1.000000
  887       -1.563538   1.000000
  888       -1.561943   1.000000
  889       -1.522307   1.000000
  890       -1.513373   1.000000
  891       -1.513194   1.000000
  892       -1.512481   1.000000
  893       -1.512220   1.000000
  894       -1.512169   1.000000
  895       -1.512146   1.000000
  896       -1.464536   1.000000
  897       -1.459455   1.000000
  898       -1.459405   1.000000
  899       -1.458509   1.000000
  900       -1.457710   1.000000
  901       -1.457072   1.000000