       N       E                     dE             d eps       ncg     rms          rms(c)
DAV:   1     0.223422156754E+05    0.22342E+05   -0.98550E+05 12200   0.134E+03
DAV:   2     0.968932559001E+02   -0.22245E+05   -0.21256E+05 12152   0.469E+02
DAV:   3    -0.133507323729E+04   -0.14320E+04   -0.12019E+04 13496   0.131E+02
DAV:   4    -0.155740138696E+04   -0.22233E+03   -0.18769E+03 21184   0.490E+01
DAV:   5    -0.157065707601E+04   -0.13256E+02   -0.12133E+02 20096   0.118E+01    0.145E+02
DAV:   6    -0.194219109959E+04   -0.37153E+03   -0.27760E+03 15760   0.168E+02    0.289E+02
DAV:   7    -0.175853185723E+04    0.18366E+03   -0.10532E+03 13224   0.145E+02    0.240E+02
DAV:   8    -0.227470884617E+04   -0.51618E+03   -0.59481E+02 16776   0.139E+02    0.333E+02
DAV:   9    -0.177616281095E+04    0.49855E+03   -0.27710E+02 14392   0.932E+01    0.257E+02
DAV:  10    -0.169860998922E+04    0.77553E+02   -0.24293E+02 15312   0.761E+01    0.223E+02
DAV:  11    -0.151428886039E+04    0.18432E+03   -0.25685E+02 13896   0.698E+01    0.172E+02
DAV:  12    -0.158300755612E+04   -0.68719E+02   -0.47650E+02 16784   0.106E+02    0.205E+02
DAV:  13    -0.152974580081E+04    0.53262E+02   -0.24296E+02 14776   0.594E+01    0.177E+02
DAV:  14    -0.156051111871E+04   -0.30765E+02   -0.16308E+02 13192   0.823E+01    0.187E+02
DAV:  15    -0.149848495626E+04    0.62026E+02   -0.86400E+01 12784   0.529E+01    0.164E+02
DAV:  16    -0.151139781241E+04   -0.12913E+02   -0.74047E+01 13024   0.638E+01    0.188E+02
DAV:  17    -0.146788912802E+04    0.43509E+02   -0.55814E+01 12944   0.433E+01    0.168E+02
DAV:  18    -0.141829740209E+04    0.49592E+02   -0.64913E+01 12856   0.506E+01    0.146E+02
DAV:  19    -0.139548174856E+04    0.22816E+02   -0.44231E+01 12784   0.366E+01    0.140E+02
DAV:  20    -0.137078142318E+04    0.24700E+02   -0.32247E+01 12824   0.312E+01    0.110E+02
DAV:  21    -0.135359940155E+04    0.17182E+02   -0.21407E+01 12912   0.279E+01    0.841E+01
DAV:  22    -0.134112599378E+04    0.12473E+02   -0.13042E+01 12864   0.208E+01    0.664E+01
DAV:  23    -0.133581816968E+04    0.53078E+01   -0.74722E+00 14400   0.100E+01    0.540E+01
DAV:  24    -0.133645105673E+04   -0.63289E+00   -0.40271E+00 13336   0.926E+00    0.606E+01
DAV:  25    -0.133483117185E+04    0.16199E+01   -0.37322E+00 13216   0.102E+01    0.529E+01
DAV:  26    -0.133223484104E+04    0.25963E+01   -0.26191E+00 13200   0.808E+00    0.436E+01
DAV:  27    -0.133254144400E+04   -0.30660E+00   -0.17873E+00 13296   0.736E+00    0.459E+01
DAV:  28    -0.133256379657E+04   -0.22353E-01   -0.19636E+00 13336   0.756E+00    0.439E+01
DAV:  29    -0.133109807760E+04    0.14657E+01   -0.16664E+00 13272   0.735E+00    0.413E+01
DAV:  30    -0.133021648277E+04    0.88159E+00   -0.16036E+00 13312   0.724E+00    0.392E+01
DAV:  31    -0.133009654748E+04    0.11994E+00   -0.14189E+00 13432   0.719E+00    0.398E+01
DAV:  32    -0.133102832287E+04   -0.93178E+00   -0.16349E+00 13488   0.788E+00    0.461E+01
DAV:  33    -0.132900241554E+04    0.20259E+01   -0.15207E+00 13456   0.730E+00    0.381E+01
DAV:  34    -0.132802810196E+04    0.97431E+00   -0.84871E-01 13360   0.537E+00    0.338E+01
DAV:  35    -0.132784626931E+04    0.18183E+00   -0.94815E-01 13440   0.538E+00    0.302E+01
DAV:  36    -0.132766249508E+04    0.18377E+00   -0.11392E+00 13472   0.628E+00    0.297E+01
DAV:  37    -0.132719774520E+04    0.46475E+00   -0.10568E+00 13488   0.594E+00    0.273E+01
DAV:  38    -0.132733873153E+04   -0.14099E+00   -0.86515E-01 13440   0.557E+00    0.285E+01
DAV:  39    -0.132725429097E+04    0.84441E-01   -0.89208E-01 13408   0.527E+00    0.281E+01
DAV:  40    -0.132636819195E+04    0.88610E+00   -0.62111E-01 13408   0.428E+00    0.198E+01
DAV:  41    -0.132651821262E+04   -0.15002E+00   -0.59262E-01 13496   0.440E+00    0.211E+01
DAV:  42    -0.132691979495E+04   -0.40158E+00   -0.72292E-01 13448   0.508E+00    0.254E+01
DAV:  43    -0.132657660561E+04    0.34319E+00   -0.76967E-01 13424   0.513E+00    0.229E+01
DAV:  44    -0.132626047791E+04    0.31613E+00   -0.45199E-01 13416   0.373E+00    0.194E+01
DAV:  45    -0.132599703929E+04    0.26344E+00   -0.32819E-01 13424   0.264E+00    0.163E+01
DAV:  46    -0.132576842027E+04    0.22862E+00   -0.28579E-01 13376   0.239E+00    0.129E+01
DAV:  47    -0.132557636439E+04    0.19206E+00   -0.18821E-01 13424   0.210E+00    0.944E+00
DAV:  48    -0.132558311940E+04   -0.67550E-02   -0.15259E-01 13416   0.186E+00    0.884E+00
DAV:  49    -0.132558692388E+04   -0.38045E-02   -0.13925E-01 13472   0.198E+00    0.881E+00
DAV:  50    -0.132554882124E+04    0.38103E-01   -0.14651E-01 13520   0.202E+00    0.830E+00
DAV:  51    -0.132570575442E+04   -0.15693E+00   -0.24474E-01 17536   0.224E+00    0.134E+01
DAV:  52    -0.132548992210E+04    0.21583E+00   -0.12195E-01 13576   0.182E+00    0.786E+00
DAV:  53    -0.132553857747E+04   -0.48655E-01   -0.11092E-01 13568   0.187E+00    0.764E+00
DAV:  54    -0.132545846291E+04    0.80115E-01   -0.93136E-02 13568   0.169E+00    0.482E+00
DAV:  55    -0.132544382186E+04    0.14641E-01   -0.51550E-02 13552   0.121E+00    0.438E+00
DAV:  56    -0.132547204595E+04   -0.28224E-01   -0.69665E-02 13920   0.134E+00    0.584E+00
DAV:  57    -0.132545769807E+04    0.14348E-01   -0.54147E-02 13552   0.117E+00    0.487E+00
DAV:  58    -0.132548271879E+04   -0.25021E-01   -0.50062E-02 13648   0.123E+00    0.637E+00
DAV:  59    -0.132542911350E+04    0.53605E-01   -0.35507E-02 13600   0.102E+00    0.353E+00
DAV:  60    -0.132543488680E+04   -0.57733E-02   -0.26255E-02 13600   0.956E-01    0.385E+00
DAV:  61    -0.132552027211E+04   -0.85385E-01   -0.68531E-02 13840   0.158E+00    0.673E+00
DAV:  62    -0.132541070639E+04    0.10957E+00   -0.52489E-02 13648   0.138E+00    0.333E+00
DAV:  63    -0.132542170625E+04   -0.11000E-01   -0.19075E-02 13616   0.839E-01    0.297E+00
DAV:  64    -0.132542244061E+04   -0.73436E-03   -0.13896E-02 13600   0.709E-01    0.296E+00
DAV:  65    -0.132541838095E+04    0.40597E-02   -0.97396E-03 13536   0.585E-01    0.222E+00
DAV:  66    -0.132543975524E+04   -0.21374E-01   -0.27344E-02 14152   0.980E-01    0.336E+00
DAV:  67    -0.132542006608E+04    0.19689E-01   -0.22569E-02 13976   0.922E-01    0.226E+00
DAV:  68    -0.132541045483E+04    0.96113E-02   -0.72966E-03 13568   0.476E-01    0.128E+00
DAV:  69    -0.132540987058E+04    0.58424E-03   -0.32762E-03 13552   0.325E-01    0.109E+00
DAV:  70    -0.132541169388E+04   -0.18233E-02   -0.29810E-03 13568   0.315E-01    0.104E+00
DAV:  71    -0.132543231600E+04   -0.20622E-01   -0.10167E-02 14176   0.629E-01    0.305E+00
DAV:  72    -0.132541110538E+04    0.21211E-01   -0.95996E-03 13744   0.600E-01    0.873E-01
DAV:  73    -0.132541184939E+04   -0.74402E-03   -0.17360E-03 14136   0.228E-01    0.863E-01
DAV:  74    -0.132541189155E+04   -0.42156E-04   -0.11566E-03 13496   0.199E-01    0.645E-01
DAV:  75    -0.132541207508E+04   -0.18353E-03   -0.75592E-04 13496   0.158E-01    0.635E-01
DAV:  76    -0.132541510476E+04   -0.30297E-02   -0.16717E-03 14264   0.248E-01    0.126E+00
DAV:  77    -0.132541227236E+04    0.28324E-02   -0.15900E-03 13760   0.240E-01    0.507E-01
DAV:  78    -0.132541233294E+04   -0.60571E-04   -0.40643E-04 13712   0.113E-01    0.396E-01
DAV:  79    -0.132541270108E+04   -0.36814E-03   -0.30757E-04 13296   0.905E-02    0.328E-01
DAV:  80    -0.132541283976E+04   -0.13868E-03   -0.19241E-04 13400   0.770E-02    0.254E-01
DAV:  81    -0.132541352154E+04   -0.68178E-03   -0.37461E-04 13936   0.115E-01    0.561E-01
DAV:  82    -0.132541303944E+04    0.48210E-03   -0.39209E-04 13672   0.110E-01    0.314E-01
DAV:  83    -0.132541358587E+04   -0.54643E-03   -0.17911E-04 14232   0.718E-02    0.246E-01
DAV:  84    -0.132541396824E+04   -0.38236E-03   -0.10348E-04 14016   0.581E-02    0.143E-01
DAV:  85    -0.132541408680E+04   -0.11856E-03   -0.49735E-05 13248   0.345E-02    0.101E-01
DAV:  86    -0.132541455260E+04   -0.46580E-03   -0.14793E-04 14976   0.703E-02    0.318E-01
DAV:  87    -0.132541447422E+04    0.78377E-04   -0.14565E-04 14272   0.715E-02    0.132E-01
DAV:  88    -0.132541477553E+04   -0.30131E-03   -0.47790E-05 13432   0.328E-02    0.123E-01
DAV:  89    -0.132541509089E+04   -0.31537E-03   -0.30043E-05 11448   0.270E-02    0.885E-02
DAV:  90    -0.132541538054E+04   -0.28965E-03   -0.29735E-05 11856   0.261E-02    0.108E-01
DAV:  91    -0.132541549475E+04   -0.11420E-03   -0.40294E-05 11464   0.368E-02    0.184E-01
DAV:  92    -0.132541553490E+04   -0.40154E-04   -0.39730E-05 11312   0.361E-02    0.928E-02
DAV:  93    -0.132541572603E+04   -0.19113E-03   -0.25757E-05  9776   0.245E-02    0.104E-01
DAV:  94    -0.132541593808E+04   -0.21205E-03   -0.25228E-05 10768   0.240E-02    0.595E-02
DAV:  95    -0.132541604206E+04   -0.10397E-03   -0.13943E-05  9336   0.178E-02    0.630E-02
DAV:  96    -0.132541609757E+04   -0.55509E-04   -0.39415E-05 11680   0.353E-02    0.183E-01
DAV:  97    -0.132541621147E+04   -0.11390E-03   -0.41795E-05 11280   0.346E-02    0.859E-02
DAV:  98    -0.132541627734E+04   -0.65876E-04   -0.14324E-05  9160   0.183E-02    0.494E-02
DAV:  99    -0.132541630969E+04   -0.32351E-04   -0.86332E-06  8168   0.141E-02    0.438E-02
DAV: 100    -0.132541636554E+04   -0.55847E-04   -0.93709E-06  8176   0.150E-02    0.627E-02
DAV: 101    -0.132541639104E+04   -0.25505E-04   -0.12804E-05  7848   0.188E-02    0.783E-02
DAV: 102    -0.132541643099E+04   -0.39946E-04   -0.12730E-05  8960   0.166E-02    0.457E-02
DAV: 103    -0.132541645471E+04   -0.23720E-04   -0.49295E-06  7856   0.943E-03    0.295E-02
DAV: 104    -0.132541647259E+04   -0.17880E-04   -0.42359E-06  7512   0.809E-03    0.402E-02
DAV: 105    -0.132541649281E+04   -0.20221E-04   -0.39541E-06  7304   0.842E-03    0.308E-02
DAV: 106    -0.132541650522E+04   -0.12410E-04   -0.94776E-06  6984   0.187E-02    0.849E-02
DAV: 107    -0.132541649307E+04    0.12147E-04   -0.85197E-06  6584   0.176E-02    0.195E-02
DAV: 108    -0.132541650313E+04   -0.10055E-04   -0.18607E-06  6928   0.681E-03    0.242E-02
DAV: 109    -0.132541651254E+04   -0.94119E-05   -0.25642E-06  7409   0.614E-03    0.197E-02
DAV: 110    -0.132541651799E+04   -0.54527E-05   -0.16676E-06  7112   0.540E-03    0.160E-02
DAV: 111    -0.132541653127E+04   -0.13278E-04   -0.23860E-06  6713   0.894E-03    0.387E-02
DAV: 112    -0.132541653265E+04   -0.13786E-05   -0.23148E-06  6640   0.876E-03
   1 F= -.14227610E+04 E0= -.14220060E+04  d E =-.151012E+01
