  254  254    1    1
  0.2268316E+02  0.1514622E-08  0.1514622E-08  0.2900000E-08  0.5000000E-15
   1.0000000000000000E-004
  CAR 
 NiAl                                    
   2532      4   1519
 
  0.1262379E-14  0.1262379E-14  0.1262379E-14  0.2500000E+00
    1      -34.651395   1.000000
    2      -18.835484   1.000000
    3      -14.147200   1.000000
    4      -14.144386   1.000000
    5      -12.383268   1.000000
    6       -9.036451   1.000000
    7       -8.502589   1.000000
    8       -8.130772   1.000000
    9       -8.130717   1.000000
   10       -8.130553   1.000000
   11       -8.130476   1.000000
   12       -8.130426   1.000000
   13       -8.125295   1.000000
   14       -7.672027   1.000000
   15       -7.625900   1.000000
   16       -7.624800   1.000000
   17       -7.624678   1.000000
   18       -7.624603   1.000000
   19       -7.624588   1.000000
   20       -7.601833   1.000000
   21       -6.839363   1.000000
   22       -6.837457   1.000000
   23       -6.836775   1.000000
   24       -6.836546   1.000000
   25       -6.836457   1.000000
   26       -6.802309   1.000000
   27       -6.631374   1.000000
   28       -6.630834   1.000000
   29       -6.492327   1.000000
   30       -6.490559   1.000000
   31       -6.490457   1.000000
   32       -6.490124   1.000000
   33       -6.489758   1.000000
   34       -6.489686   1.000000
   35       -6.079027   1.000000
   36       -6.069522   1.000000
   37       -6.069195   1.000000
   38       -6.068644   1.000000
   39       -6.067607   1.000000
   40       -6.067168   1.000000
   41       -5.879984   1.000000
   42       -5.867556   1.000000
   43       -5.865959   1.000000
   44       -5.865597   1.000000
   45       -5.864881   1.000000
   46       -5.862489   1.000000
   47       -5.861196   1.000000
   48       -5.859827   1.000000
   49       -5.859813   1.000000
   50       -5.859529   1.000000
   51       -5.859222   1.000000
   52       -5.813263   1.000000
   53       -5.727877   1.000000
   54       -5.608897   1.000000
   55       -5.531917   1.000000
   56       -5.529331   1.000000
   57       -5.525760   1.000000
   58       -5.525175   1.000000
   59       -5.524767   1.000000
   60       -5.507230   1.000000
   61       -5.438137   1.000000
   62       -5.437561   1.000000
   63       -5.436648   1.000000
   64       -5.434005   1.000000
   65       -5.432754   1.000000
   66       -5.431821   1.000000
   67       -5.078606   1.000000
   68       -5.076699   1.000000
   69       -5.069782   1.000000
   70       -5.069100   1.000000
   71       -5.068134   1.000000
   72       -5.055690   1.000000
   73       -4.966297   1.000000
   74       -4.924204   1.000000
   75       -4.915326   1.000000
   76       -4.914943   1.000000
   77       -4.914251   1.000000
   78       -4.912449   1.000000
   79       -4.865830   1.000000
   80       -4.777450   1.000000
   81       -4.725103   1.000000
   82       -4.722700   1.000000
   83       -4.722515   1.000000
   84       -4.711339   1.000000
   85       -4.710255   1.000000
   86       -4.707950   1.000000
   87       -4.704924   1.000000
   88       -4.703098   1.000000
   89       -4.697812   1.000000
   90       -4.610965   1.000000
   91       -4.608219   1.000000
   92       -4.606946   1.000000
   93       -4.600799   1.000000
   94       -4.599754   1.000000
   95       -4.588871   1.000000
   96       -4.566388   1.000000
   97       -4.566016   1.000000
   98       -4.565721   1.000000
   99       -4.496253   1.000000
  100       -4.495149   1.000000
  101       -4.493132   1.000000
  102       -4.489873   1.000000
  103       -4.489555   1.000000
  104       -4.489430   1.000000
  105       -4.489312   1.000000
  106       -4.489222   1.000000
  107       -4.489005   1.000000
  108       -4.488932   1.000000
  109       -4.488653   1.000000
  110       -4.488483   1.000000
  111       -4.449739   1.000000
  112       -4.448021   1.000000
  113       -4.446416   1.000000
  114       -4.371846   1.000000
  115       -4.368545   1.000000
  116       -4.361020   1.000000
  117       -4.352474   1.000000
  118       -4.338958   1.000000
  119       -4.336679   1.000000
  120       -4.336371   1.000000
  121       -4.335641   1.000000
  122       -4.327027   1.000000
  123       -4.309378   1.000000
  124       -4.305627   1.000000
  125       -4.298307   1.000000
  126       -4.291814   1.000000
  127       -4.291747   1.000000
  128       -4.291066   1.000000
  129       -4.290790   1.000000
  130       -4.290644   1.000000
  131       -4.290151   1.000000
  132       -4.290123   1.000000
  133       -4.289800   1.000000
  134       -4.288042   1.000000
  135       -4.267848   1.000000
  136       -4.263840   1.000000
  137       -4.262182   1.000000
  138       -4.258649   1.000000
  139       -4.256717   1.000000
  140       -4.256659   1.000000
  141       -4.256543   1.000000
  142       -4.256413   1.000000
  143       -4.256101   1.000000
  144       -4.255872   1.000000
  145       -4.255673   1.000000
  146       -4.255395   1.000000
  147       -4.228570   1.000000
  148       -4.214456   1.000000
  149       -4.212606   1.000000
  150       -4.212087   1.000000
  151       -4.211737   1.000000
  152       -4.211362   1.000000
  153       -4.200880   1.000000
  154       -4.183899   1.000000
  155       -4.181764   1.000000
  156       -4.177745   1.000000
  157       -4.177588   1.000000
  158       -4.162707   1.000000
  159       -4.160374   1.000000
  160       -4.156715   1.000000
  161       -4.152303   1.000000
  162       -4.141063   1.000000
  163       -4.138721   1.000000
  164       -4.133333   1.000000
  165       -4.125277   1.000000
  166       -4.120192   1.000000
  167       -4.119115   1.000000
  168       -4.118295   1.000000
  169       -4.118269   1.000000
  170       -4.117515   1.000000
  171       -4.116761   1.000000
  172       -4.116413   1.000000
  173       -4.113229   1.000000
  174       -4.069668   1.000000
  175       -4.052792   1.000000
  176       -4.051799   1.000000
  177       -4.049505   1.000000
  178       -4.049084   1.000000
  179       -4.041881   1.000000
  180       -4.017391   1.000000
  181       -4.009871   1.000000
  182       -4.009030   1.000000
  183       -4.007951   1.000000
  184       -3.953508   1.000000
  185       -3.935335   1.000000
  186       -3.933379   1.000000
  187       -3.932465   1.000000
  188       -3.928577   1.000000
  189       -3.927359   1.000000
  190       -3.921113   1.000000
  191       -3.918876   1.000000
  192       -3.918656   1.000000
  193       -3.918372   1.000000
  194       -3.918119   1.000000
  195       -3.917127   1.000000
  196       -3.915611   1.000000
  197       -3.898148   1.000000
  198       -3.871679   1.000000
  199       -3.858462   1.000000
  200       -3.851124   1.000000
  201       -3.844861   1.000000
  202       -3.816711   1.000000
  203       -3.803314   1.000000
  204       -3.803093   1.000000
  205       -3.800954   1.000000
  206       -3.799019   1.000000
  207       -3.798534   1.000000
  208       -3.788223   1.000000
  209       -3.769044   1.000000
  210       -3.746420   1.000000
  211       -3.736500   1.000000
  212       -3.732586   1.000000
  213       -3.730733   1.000000
  214       -3.730150   1.000000
  215       -3.729366   1.000000
  216       -3.729331   1.000000
  217       -3.729237   1.000000
  218       -3.729116   1.000000
  219       -3.728960   1.000000
  220       -3.728885   1.000000
  221       -3.726710   1.000000
  222       -3.726241   1.000000
  223       -3.725698   1.000000
  224       -3.723788   1.000000
  225       -3.723511   1.000000
  226       -3.722414   1.000000
  227       -3.711898   1.000000
  228       -3.703264   1.000000
  229       -3.688666   1.000000
  230       -3.683065   1.000000
  231       -3.678136   1.000000
  232       -3.673531   1.000000
  233       -3.671671   1.000000
  234       -3.671288   1.000000
  235       -3.670508   1.000000
  236       -3.670091   1.000000
  237       -3.669610   1.000000
  238       -3.668600   1.000000
  239       -3.663933   1.000000
  240       -3.658325   1.000000
  241       -3.651187   1.000000
  242       -3.649420   1.000000
  243       -3.648010   1.000000
  244       -3.647302   1.000000
  245       -3.628048   1.000000
  246       -3.611122   1.000000
  247       -3.610231   1.000000
  248       -3.609602   1.000000
  249       -3.608462   1.000000
  250       -3.607385   1.000000
  251       -3.607068   1.000000
  252       -3.606690   1.000000
  253       -3.603629   1.000000
  254       -3.602909   1.000000
  255       -3.602866   1.000000
  256       -3.595375   1.000000
  257       -3.595237   1.000000
  258       -3.590412   1.000000
  259       -3.574849   1.000000
  260       -3.551878   1.000000
  261       -3.544789   1.000000
  262       -3.544696   1.000000
  263       -3.542369   1.000000
  264       -3.541566   1.000000
  265       -3.541376   1.000000
  266       -3.541092   1.000000
  267       -3.540925   1.000000
  268       -3.540814   1.000000
  269       -3.537171   1.000000
  270       -3.535359   1.000000
  271       -3.534808   1.000000
  272       -3.519759   1.000000
  273       -3.518146   1.000000
  274       -3.512089   1.000000
  275       -3.507831   1.000000
  276       -3.507669   1.000000
  277       -3.503232   1.000000
  278       -3.496329   1.000000
  279       -3.489683   1.000000
  280       -3.489499   1.000000
  281       -3.488289   1.000000
  282       -3.473405   1.000000
  283       -3.473249   1.000000
  284       -3.466935   1.000000
  285       -3.466591   1.000000
  286       -3.465226   1.000000
  287       -3.464307   1.000000
  288       -3.464218   1.000000
  289       -3.462189   1.000000
  290       -3.461784   1.000000
  291       -3.461205   1.000000
  292       -3.461026   1.000000
  293       -3.459671   1.000000
  294       -3.459571   1.000000
  295       -3.458889   1.000000
  296       -3.454837   1.000000
  297       -3.442282   1.000000
  298       -3.424342   1.000000
  299       -3.398146   1.000000
  300       -3.390465   1.000000
  301       -3.390396   1.000000
  302       -3.389715   1.000000
  303       -3.389015   1.000000
  304       -3.387786   1.000000
  305       -3.384652   1.000000
  306       -3.384539   1.000000
  307       -3.383163   1.000000
  308       -3.382712   1.000000
  309       -3.382237   1.000000
  310       -3.380730   1.000000
  311       -3.379737   1.000000
  312       -3.367005   1.000000
  313       -3.344126   1.000000
  314       -3.332683   1.000000
  315       -3.314485   1.000000
  316       -3.313517   1.000000
  317       -3.310848   1.000000
  318       -3.309206   1.000000
  319       -3.308505   1.000000
  320       -3.307198   1.000000
  321       -3.297320   1.000000
  322       -3.288246   1.000000
  323       -3.279950   1.000000
  324       -3.279761   1.000000
  325       -3.278942   1.000000
  326       -3.275925   1.000000
  327       -3.274896   1.000000
  328       -3.274828   1.000000
  329       -3.273675   1.000000
  330       -3.270938   1.000000
  331       -3.268986   1.000000
  332       -3.268361   1.000000
  333       -3.266792   1.000000
  334       -3.265459   1.000000
  335       -3.264100   1.000000
  336       -3.263175   1.000000
  337       -3.262897   1.000000
  338       -3.260834   1.000000
  339       -3.260578   1.000000
  340       -3.260053   1.000000
  341       -3.248541   1.000000
  342       -3.199662   1.000000
  343       -3.194821   1.000000
  344       -3.179083   1.000000
  345       -3.164891   1.000000
  346       -3.158460   1.000000
  347       -3.153584   1.000000
  348       -3.148172   1.000000
  349       -3.143507   1.000000
  350       -3.129370   1.000000
  351       -3.129365   1.000000
  352       -3.124809   1.000000
  353       -3.122614   1.000000
  354       -3.121443   1.000000
  355       -3.120635   1.000000
  356       -3.109737   1.000000
  357       -3.107935   1.000000
  358       -3.107091   1.000000
  359       -3.097169   1.000000
  360       -3.096954   1.000000
  361       -3.095801   1.000000
  362       -3.094667   1.000000
  363       -3.091241   1.000000
  364       -3.090610   1.000000
  365       -3.088918   1.000000
  366       -3.086194   1.000000
  367       -3.056025   1.000000
  368       -3.049294   1.000000
  369       -3.040999   1.000000
  370       -3.037516   1.000000
  371       -3.033860   1.000000
  372       -3.028996   1.000000
  373       -3.017015   1.000000
  374       -3.012122   1.000000
  375       -3.006227   1.000000
  376       -3.001037   1.000000
  377       -2.999120   1.000000
  378       -2.999064   1.000000
  379       -2.998756   1.000000
  380       -2.998308   1.000000
  381       -2.997984   1.000000
  382       -2.997622   1.000000
  383       -2.997161   1.000000
  384       -2.996958   1.000000
  385       -2.978181   1.000000
  386       -2.964156   1.000000
  387       -2.958064   1.000000
  388       -2.956393   1.000000
  389       -2.955100   1.000000
  390       -2.950452   1.000000
  391       -2.949779   1.000000
  392       -2.947984   1.000000
  393       -2.947515   1.000000
  394       -2.946435   1.000000
  395       -2.946214   1.000000
  396       -2.944315   1.000000
  397       -2.934001   1.000000
  398       -2.900117   1.000000
  399       -2.899227   1.000000
  400       -2.892506   1.000000
  401       -2.892085   1.000000
  402       -2.891595   1.000000
  403       -2.890735   1.000000
  404       -2.859958   1.000000
  405       -2.851377   1.000000
  406       -2.847684   1.000000
  407       -2.842862   1.000000
  408       -2.839185   1.000000
  409       -2.834063   1.000000
  410       -2.827564   1.000000
  411       -2.825293   1.000000
  412       -2.824577   1.000000
  413       -2.823431   1.000000
  414       -2.822737   1.000000
  415       -2.820114   1.000000
  416       -2.814826   1.000000
  417       -2.809284   1.000000
  418       -2.808427   1.000000
  419       -2.804952   1.000000
  420       -2.799086   1.000000
  421       -2.796717   1.000000
  422       -2.795044   1.000000
  423       -2.795039   1.000000
  424       -2.794520   1.000000
  425       -2.793835   1.000000
  426       -2.791342   1.000000
  427       -2.787415   1.000000
  428       -2.785999   1.000000
  429       -2.782827   1.000000
  430       -2.771557   1.000000
  431       -2.769063   1.000000
  432       -2.768233   1.000000
  433       -2.767598   1.000000
  434       -2.765988   1.000000
  435       -2.764553   1.000000
  436       -2.763534   1.000000
  437       -2.762997   1.000000
  438       -2.761769   1.000000
  439       -2.761705   1.000000
  440       -2.761340   1.000000
  441       -2.761266   1.000000
  442       -2.761154   1.000000
  443       -2.760039   1.000000
  444       -2.759490   1.000000
  445       -2.735163   1.000000
  446       -2.723122   1.000000
  447       -2.718474   1.000000
  448       -2.706729   1.000000
  449       -2.703451   1.000000
  450       -2.697488   1.000000
  451       -2.695902   1.000000
  452       -2.693500   1.000000
  453       -2.691828   1.000000
  454       -2.689766   1.000000
  455       -2.689501   1.000000
  456       -2.688629   1.000000
  457       -2.688581   1.000000
  458       -2.688238   1.000000
  459       -2.688016   1.000000
  460       -2.687853   1.000000
  461       -2.687763   1.000000
  462       -2.687034   1.000000
  463       -2.686880   1.000000
  464       -2.684366   1.000000
  465       -2.684321   1.000000
  466       -2.676656   1.000000
  467       -2.662730   1.000000
  468       -2.653552   1.000000
  469       -2.651192   1.000000
  470       -2.646638   1.000000
  471       -2.638534   1.000000
  472       -2.636978   1.000000
  473       -2.632466   1.000000
  474       -2.631067   1.000000
  475       -2.611124   1.000000
  476       -2.604762   1.000000
  477       -2.599389   1.000000
  478       -2.598615   1.000000
  479       -2.596765   1.000000
  480       -2.596418   1.000000
  481       -2.596156   1.000000
  482       -2.594510   1.000000
  483       -2.594268   1.000000
  484       -2.593803   1.000000
  485       -2.592943   1.000000
  486       -2.592893   1.000000
  487       -2.592609   1.000000
  488       -2.591573   1.000000
  489       -2.591367   1.000000
  490       -2.590650   1.000000
  491       -2.589308   1.000000
  492       -2.588949   1.000000
  493       -2.588110   1.000000
  494       -2.587017   1.000000
  495       -2.586514   1.000000
  496       -2.586317   1.000000
  497       -2.585877   1.000000
  498       -2.585530   1.000000
  499       -2.585339   1.000000
  500       -2.584413   1.000000
  501       -2.580062   1.000000
  502       -2.565191   1.000000
  503       -2.558787   1.000000
  504       -2.547316   1.000000
  505       -2.545645   1.000000
  506       -2.542246   1.000000
  507       -2.537238   1.000000
  508       -2.530063   1.000000
  509       -2.529773   1.000000
  510       -2.529167   1.000000
  511       -2.527624   1.000000
  512       -2.526343   1.000000
  513       -2.525680   1.000000
  514       -2.524699   1.000000
  515       -2.524571   1.000000
  516       -2.523593   1.000000
  517       -2.518218   1.000000
  518       -2.502328   1.000000
  519       -2.501105   1.000000
  520       -2.499806   1.000000
  521       -2.495608   1.000000
  522       -2.489398   1.000000
  523       -2.484753   1.000000
  524       -2.472372   1.000000
  525       -2.454843   1.000000
  526       -2.450899   1.000000
  527       -2.447884   1.000000
  528       -2.438173   1.000000
  529       -2.435602   1.000000
  530       -2.434549   1.000000
  531       -2.433856   1.000000
  532       -2.432790   1.000000
  533       -2.428166   1.000000
  534       -2.427326   1.000000
  535       -2.427106   1.000000
  536       -2.426468   1.000000
  537       -2.425890   1.000000
  538       -2.425382   1.000000
  539       -2.424306   1.000000
  540       -2.421692   1.000000
  541       -2.419865   1.000000
  542       -2.418783   1.000000
  543       -2.412146   1.000000
  544       -2.395491   1.000000
  545       -2.390299   1.000000
  546       -2.382359   1.000000
  547       -2.379763   1.000000
  548       -2.379256   1.000000
  549       -2.373033   1.000000
  550       -2.372462   1.000000
  551       -2.372010   1.000000
  552       -2.371131   1.000000
  553       -2.367598   1.000000
  554       -2.366681   1.000000
  555       -2.362563   1.000000
  556       -2.361334   1.000000
  557       -2.360074   1.000000
  558       -2.358998   1.000000
  559       -2.356609   1.000000
  560       -2.355969   1.000000
  561       -2.355317   1.000000
  562       -2.354527   1.000000
  563       -2.354472   1.000000
  564       -2.353450   1.000000
  565       -2.352991   1.000000
  566       -2.351948   1.000000
  567       -2.350320   1.000000
  568       -2.350296   1.000000
  569       -2.347384   1.000000
  570       -2.344757   1.000000
  571       -2.344572   1.000000
  572       -2.344023   1.000000
  573       -2.336691   1.000000
  574       -2.327524   1.000000
  575       -2.320647   1.000000
  576       -2.314435   1.000000
  577       -2.307141   1.000000
  578       -2.301767   1.000000
  579       -2.297184   1.000000
  580       -2.294537   1.000000
  581       -2.292491   1.000000
  582       -2.291424   1.000000
  583       -2.290993   1.000000
  584       -2.290528   1.000000
  585       -2.288191   1.000000
  586       -2.284768   1.000000
  587       -2.282759   1.000000
  588       -2.280807   1.000000
  589       -2.275950   1.000000
  590       -2.268043   1.000000
  591       -2.262031   1.000000
  592       -2.260031   1.000000
  593       -2.259391   1.000000
  594       -2.252612   1.000000
  595       -2.252292   1.000000
  596       -2.251573   1.000000
  597       -2.250904   1.000000
  598       -2.240999   1.000000
  599       -2.240544   1.000000
  600       -2.239501   1.000000
  601       -2.238450   1.000000
  602       -2.237630   1.000000
  603       -2.237435   1.000000
  604       -2.234674   1.000000
  605       -2.233662   1.000000
  606       -2.228738   1.000000
  607       -2.226891   1.000000
  608       -2.224061   1.000000
  609       -2.220316   1.000000
  610       -2.219210   1.000000
  611       -2.218765   1.000000
  612       -2.218459   1.000000
  613       -2.218397   1.000000
  614       -2.215319   1.000000
  615       -2.213994   1.000000
  616       -2.205555   1.000000
  617       -2.203287   1.000000
  618       -2.201422   1.000000
  619       -2.184976   1.000000
  620       -2.182284   1.000000
  621       -2.180232   1.000000
  622       -2.177353   1.000000
  623       -2.175168   1.000000
  624       -2.170193   1.000000
  625       -2.163539   1.000000
  626       -2.160139   1.000000
  627       -2.158614   1.000000
  628       -2.151322   1.000000
  629       -2.148436   1.000000
  630       -2.145063   1.000000
  631       -2.144202   1.000000
  632       -2.143955   1.000000
  633       -2.143846   1.000000
  634       -2.143591   1.000000
  635       -2.142543   1.000000
  636       -2.136111   1.000000
  637       -2.130050   1.000000
  638       -2.124048   1.000000
  639       -2.123181   1.000000
  640       -2.121406   1.000000
  641       -2.120301   1.000000
  642       -2.120155   1.000000
  643       -2.119948   1.000000
  644       -2.116196   1.000000
  645       -2.115802   1.000000
  646       -2.113092   1.000000
  647       -2.110062   1.000000
  648       -2.109391   1.000000
  649       -2.107054   1.000000
  650       -2.103919   1.000000
  651       -2.098662   1.000000
  652       -2.097659   1.000000
  653       -2.097608   1.000000
  654       -2.096685   1.000000
  655       -2.096452   1.000000
  656       -2.095769   1.000000
  657       -2.094491   1.000000
  658       -2.093301   1.000000
  659       -2.092613   1.000000
  660       -2.091951   1.000000
  661       -2.091359   1.000000
  662       -2.090233   1.000000
  663       -2.086547   1.000000
  664       -2.086260   1.000000
  665       -2.085030   1.000000
  666       -2.083828   1.000000
  667       -2.082722   1.000000
  668       -2.081756   1.000000
  669       -2.080910   1.000000
  670       -2.080633   1.000000
  671       -2.078784   1.000000
  672       -2.075734   1.000000
  673       -2.072987   1.000000
  674       -2.058444   1.000000
  675       -2.053598   1.000000
  676       -2.046404   1.000000
  677       -2.035968   1.000000
  678       -2.034242   1.000000
  679       -2.030915   1.000000
  680       -2.030784   1.000000
  681       -2.028823   1.000000
  682       -2.021146   1.000000
  683       -2.016526   1.000000
  684       -2.015876   1.000000
  685       -2.015349   1.000000
  686       -2.010257   1.000000
  687       -2.008977   1.000000
  688       -2.007520   1.000000
  689       -2.007456   1.000000
  690       -2.001633   1.000000
  691       -1.994926   1.000000
  692       -1.988079   1.000000
  693       -1.987895   1.000000
  694       -1.985641   1.000000
  695       -1.984709   1.000000
  696       -1.984595   1.000000
  697       -1.984012   1.000000
  698       -1.982765   1.000000
  699       -1.981325   1.000000
  700       -1.981095   1.000000
  701       -1.980317   1.000000
  702       -1.979133   1.000000
  703       -1.979088   1.000000
  704       -1.971733   1.000000
  705       -1.970068   1.000000
  706       -1.969581   1.000000
  707       -1.968468   1.000000
  708       -1.968379   1.000000
  709       -1.967519   1.000000
  710       -1.966845   1.000000
  711       -1.965208   1.000000
  712       -1.964829   1.000000
  713       -1.964478   1.000000
  714       -1.964381   1.000000
  715       -1.963922   1.000000
  716       -1.962794   1.000000
  717       -1.962598   1.000000
  718       -1.950595   1.000000
  719       -1.943508   1.000000
  720       -1.941698   1.000000
  721       -1.939489   1.000000
  722       -1.939135   1.000000
  723       -1.938910   1.000000
  724       -1.938608   1.000000
  725       -1.936685   1.000000
  726       -1.933424   1.000000
  727       -1.925651   1.000000
  728       -1.919528   1.000000
  729       -1.918974   1.000000
  730       -1.913525   1.000000
  731       -1.912801   1.000000
  732       -1.911603   1.000000
  733       -1.901923   1.000000
  734       -1.899276   1.000000
  735       -1.897946   1.000000
  736       -1.897509   1.000000
  737       -1.895294   1.000000
  738       -1.894517   1.000000
  739       -1.893975   1.000000
  740       -1.893191   1.000000
  741       -1.888019   1.000000
  742       -1.878025   1.000000
  743       -1.871632   1.000000
  744       -1.860602   1.000000
  745       -1.858901   1.000000
  746       -1.854235   1.000000
  747       -1.852742   1.000000
  748       -1.850139   1.000000
  749       -1.850053   1.000000
  750       -1.849271   1.000000
  751       -1.848050   1.000000
  752       -1.845736   1.000000
  753       -1.844773   1.000000
  754       -1.840145   1.000000
  755       -1.838565   1.000000
  756       -1.836479   1.000000
  757       -1.827297   1.000000
  758       -1.820355   1.000000
  759       -1.817537   1.000000
  760       -1.811053   1.000000
  761       -1.810060   1.000000
  762       -1.804741   1.000000
  763       -1.799816   1.000000
  764       -1.797155   1.000000
  765       -1.795222   1.000000
  766       -1.793953   1.000000
  767       -1.793662   1.000000
  768       -1.792450   1.000000
  769       -1.791293   1.000000
  770       -1.790366   1.000000
  771       -1.787862   1.000000
  772       -1.787302   1.000000
  773       -1.786972   1.000000
  774       -1.786182   1.000000
  775       -1.786028   1.000000
  776       -1.785611   1.000000
  777       -1.785209   1.000000
  778       -1.782687   1.000000
  779       -1.776802   1.000000
  780       -1.770465   1.000000
  781       -1.769249   1.000000
  782       -1.769138   1.000000
  783       -1.759119   1.000000
  784       -1.758866   1.000000
  785       -1.751325   1.000000
  786       -1.749871   1.000000
  787       -1.748274   1.000000
  788       -1.747720   1.000000
  789       -1.747447   1.000000
  790       -1.746655   1.000000
  791       -1.746234   1.000000
  792       -1.745287   1.000000
  793       -1.741416   1.000000
  794       -1.736616   1.000000
  795       -1.735501   1.000000
  796       -1.732300   1.000000
  797       -1.726906   1.000000
  798       -1.724240   1.000000
  799       -1.722199   1.000000
  800       -1.719264   1.000000
  801       -1.719092   1.000000
  802       -1.714653   1.000000
  803       -1.713499   1.000000
  804       -1.709347   1.000000
  805       -1.707506   1.000000
  806       -1.705564   1.000000
  807       -1.703367   1.000000
  808       -1.701919   1.000000
  809       -1.701205   1.000000
  810       -1.698576   1.000000
  811       -1.696663   1.000000
  812       -1.696364   1.000000
  813       -1.695837   1.000000
  814       -1.694173   1.000000
  815       -1.691977   1.000000
  816       -1.684112   1.000000
  817       -1.679195   1.000000
  818       -1.674951   1.000000
  819       -1.674059   1.000000
  820       -1.670233   1.000000
  821       -1.669399   1.000000
  822       -1.666961   1.000000
  823       -1.666757   1.000000
  824       -1.658690   1.000000
  825       -1.657217   1.000000
  826       -1.656094   1.000000
  827       -1.654796   1.000000
  828       -1.654632   1.000000
  829       -1.651548   1.000000
  830       -1.647565   1.000000
  831       -1.642658   1.000000
  832       -1.636249   1.000000
  833       -1.628224   1.000000
  834       -1.626994   1.000000
  835       -1.626485   1.000000
  836       -1.625382   1.000000
  837       -1.623443   1.000000
  838       -1.621714   1.000000
  839       -1.620782   1.000000
  840       -1.619954   1.000000
  841       -1.618555   1.000000
  842       -1.617871   1.000000
  843       -1.616677   1.000000
  844       -1.614148   1.000000
  845       -1.613149   1.000000
  846       -1.612469   1.000000
  847       -1.608929   1.000000
  848       -1.608898   1.000000
  849       -1.608116   1.000000
  850       -1.606395   1.000000
  851       -1.604479   1.000000
  852       -1.603881   1.000000
  853       -1.602971   1.000000
  854       -1.601373   1.000000
  855       -1.600493   1.000000
  856       -1.600183   1.000000
  857       -1.597563   1.000000
  858       -1.594628   1.000000
  859       -1.594398   1.000000
  860       -1.594081   1.000000
  861       -1.582084   1.000000
  862       -1.578355   1.000000
  863       -1.574471   1.000000
  864       -1.559163   1.000000
  865       -1.555784   1.000000
  866       -1.552345   1.000000
  867       -1.544706   1.000000
  868       -1.541510   1.000000
  869       -1.536575   1.000000
  870       -1.534295   1.000000
  871       -1.524377   1.000000
  872       -1.521683   1.000000
  873       -1.517788   1.000000
  874       -1.516250   1.000000
  875       -1.514455   1.000000
  876       -1.512978   1.000000
  877       -1.510665   1.000000
  878       -1.510396   1.000000
  879       -1.508216   1.000000
  880       -1.507122   1.000000
  881       -1.505482   1.000000
  882       -1.504546   1.000000
  883       -1.503347   1.000000
  884       -1.500318   1.000000
  885       -1.493074   1.000000
  886       -1.488258   1.000000
  887       -1.487691   1.000000
  888       -1.486416   1.000000
  889       -1.464940   1.000000
  890       -1.445882   1.000000
  891       -1.442887   1.000000
  892       -1.437145   1.000000
  893       -1.434571   1.000000
  894       -1.434123   1.000000
  895       -1.425792   1.000000
  896       -1.408857   1.000000
  897       -1.407435   1.000000
  898       -1.402861   1.000000
  899       -1.400559   1.000000
  900       -1.388929   1.000000
  901       -1.388452   1.000000