         388
 Energy:  -1386.9088182999999     
 X   0.00000000       0.00000000       0.00000000    
 X   15.1462221       0.00000000       0.00000000    
 X   7.57311106       13.1170130       0.00000000    
 X   0.00000000       0.00000000       37.5999985    
 X   22.7193336       13.1170130       0.00000000    
 X   15.1462221       0.00000000       37.5999985    
 X   7.57311106       13.1170130       37.5999985    
 X   22.7193336       13.1170130       37.5999985    
 Ni   10.0974798       5.82978010       2.25640011    
 Ni   12.6218500       10.2021198       2.25640011    
 Ni   7.57311010       1.45745003       2.25640011    
 Ni   15.1462202       5.82978010       2.25640011    
 Ni   17.6705894       10.2021198       2.25640011    
 Ni   12.6218500       1.45745003       2.25640011    
 Ni   5.04873991       5.82978010       2.25640011    
 Ni   7.57311010       10.2021198       2.25640011    
 Ni   2.52436996       1.45745003       2.25640011    
 Ni   12.6218500       7.28723001       4.54539013    
 Ni   15.1462202       11.6595697       4.54539013    
 Ni   10.0974798       2.91489005       4.54539013    
 Ni   17.6705894       7.28723001       4.54539013    
 Ni   20.1949596       11.6595697       4.54539013    
 Ni   15.1462202       2.91489005       4.54539013    
 Ni   7.57311010       7.28723001       4.54539013    
 Ni   10.0974798       11.6595697       4.54539013    
 Ni   5.04873991       2.91489005       4.54539013    
 Ni   15.1462202       8.74468040       6.76043987    
 Ni   10.0974798       0.00000000       6.76043987    
 Ni   12.6218500       4.37234020       6.76043987    
 Ni   5.04873991       8.74468040       6.76043987    
 Ni   0.00000000       0.00000000       6.76043987    
 Ni   2.52436996       4.37234020       6.76043987    
 Ni   10.0974798       8.74468040       6.76043987    
 Ni   5.04873991       0.00000000       6.76043987    
 Ni   7.57311010       4.37234020       6.76043987    
 Ni   17.6705894       10.2021198       9.04018974    
 Ni   12.6218500       1.45745003       9.04018974    
 Ni   15.1462202       5.82978010       9.04018974    
 Ni   7.57311010       10.2021198       9.04018974    
 Ni   2.52436996       1.45745003       9.04018974    
 Ni   5.04873991       5.82978010       9.04018974    
 Ni   12.6218500       10.2021198       9.04018974    
 Ni   7.57311010       1.45745003       9.04018974    
 Ni   10.0974798       5.82978010       9.04018974    
 Ni   20.1949596       11.6595697       11.3199396    
 Ni   15.1462202       2.91489005       11.3199396    
 Ni   17.6705894       7.28723001       11.3199396    
 Ni   10.0974798       11.6595697       11.3199396    
 Ni   5.04873991       2.91489005       11.3199396    
 Ni   7.57311010       7.28723001       11.3199396    
 Ni   15.1462202       11.6595697       11.3199396    
 Ni   10.0974798       2.91489005       11.3199396    
 Ni   12.6218500       7.28723001       11.3199396    
 Ni   0.00000000       0.00000000       13.5349903    
 Ni   2.52436996       4.37234020       13.5349903    
 Ni   5.04873991       8.74468040       13.5349903    
 Ni   5.04873991       0.00000000       13.5349903    
 Ni   7.57311010       4.37234020       13.5349903    
 Ni   10.0974798       8.74468040       13.5349903    
 Ni   10.0974798       0.00000000       13.5349903    
 Ni   12.6218500       4.37234020       13.5349903    
 Ni   15.1462202       8.74468040       13.5349903    
 Ni   2.52436996       1.45745003       15.8239803    
 Ni   5.04873991       5.82978010       15.8239803    
 Ni   7.57311010       10.2021198       15.8239803    
 Ni   7.57311010       1.45745003       15.8239803    
 Ni   10.0974798       5.82978010       15.8239803    
 Ni   12.6218500       10.2021198       15.8239803    
 Ni   12.6218500       1.45745003       15.8239803    
 Ni   15.1462202       5.82978010       15.8239803    
 Ni   17.6705894       10.2021198       15.8239803    
 Ni   6.31092978       3.64361000       2.25640011    
 Ni   8.83530045       8.01595020       2.25640011    
 Ni   11.3596697       12.3882904       2.25640011    
 Ni   11.3596697       3.64361000       2.25640011    
 Ni   13.8840399       8.01595020       2.25640011    
 Ni   16.4084091       12.3882904       2.25640011    
 Ni   16.4084091       3.64361000       2.25640011    
 Ni   18.9327793       8.01595020       2.25640011    
 Ni   21.4571495       12.3882904       2.25640011    
 Ni   8.83530045       5.10105991       4.54539013    
 Ni   11.3596697       9.47340012       4.54539013    
 Ni   6.31092978      0.728720009       4.54539013    
 Ni   13.8840399       5.10105991       4.54539013    
 Ni   16.4084091       9.47340012       4.54539013    
 Ni   11.3596697      0.728720009       4.54539013    
 Ni   3.78656006       5.10105991       4.54539013    
 Ni   6.31092978       9.47340012       4.54539013    
 Ni   1.26218998      0.728720009       4.54539013    
 Ni   11.3596697       6.55850983       6.76043987    
 Ni   13.8840399       10.9308395       6.76043987    
 Ni   8.83530045       2.18617010       6.76043987    
 Ni   16.4084091       6.55850983       6.76043987    
 Ni   18.9327793       10.9308395       6.76043987    
 Ni   13.8840399       2.18617010       6.76043987    
 Ni   6.31092978       6.55850983       6.76043987    
 Ni   8.83530045       10.9308395       6.76043987    
 Ni   3.78656006       2.18617010       6.76043987    
 Ni   13.8840399       8.01595020       9.04018974    
 Ni   16.4084091       12.3882904       9.04018974    
 Ni   11.3596697       3.64361000       9.04018974    
 Ni   18.9327793       8.01595020       9.04018974    
 Ni   21.4571495       12.3882904       9.04018974    
 Ni   16.4084091       3.64361000       9.04018974    
 Ni   8.83530045       8.01595020       9.04018974    
 Ni   11.3596697       12.3882904       9.04018974    
 Ni   6.31092978       3.64361000       9.04018974    
 Ni   16.4084091       9.47340012       11.3199396    
 Ni   11.3596697      0.728720009       11.3199396    
 Ni   13.8840399       5.10105991       11.3199396    
 Ni   6.31092978       9.47340012       11.3199396    
 Ni   1.26218998      0.728720009       11.3199396    
 Ni   3.78656006       5.10105991       11.3199396    
 Ni   11.3596697       9.47340012       11.3199396    
 Ni   6.31092978      0.728720009       11.3199396    
 Ni   8.83530045       5.10105991       11.3199396    
 Ni   18.9327793       10.9308395       13.5349903    
 Ni   13.8840399       2.18617010       13.5349903    
 Ni   16.4084091       6.55850983       13.5349903    
 Ni   8.83530045       10.9308395       13.5349903    
 Ni   3.78656006       2.18617010       13.5349903    
 Ni   6.31092978       6.55850983       13.5349903    
 Ni   13.8840399       10.9308395       13.5349903    
 Ni   8.83530045       2.18617010       13.5349903    
 Ni   11.3596697       6.55850983       13.5349903    
 Ni   21.4571495       12.3882904       15.8239803    
 Ni   16.4084091       3.64361000       15.8239803    
 Ni   18.9327793       8.01595020       15.8239803    
 Ni   11.3596697       12.3882904       15.8239803    
 Ni   6.31092978       3.64361000       15.8239803    
 Ni   8.83530045       8.01595020       15.8239803    
 Ni   16.4084091       12.3882904       15.8239803    
 Ni   11.3596697       3.64361000       15.8239803    
 Ni   13.8840399       8.01595020       15.8239803    
 Ni   7.57311010       5.82978010       2.25640011    
 Ni   10.0974798       10.2021198       2.25640011    
 Ni   5.04873991       1.45745003       2.25640011    
 Ni   12.6218500       5.82978010       2.25640011    
 Ni   15.1462202       10.2021198       2.25640011    
 Ni   10.0974798       1.45745003       2.25640011    
 Ni   17.6705894       5.82978010       2.25640011    
 Ni   20.1949596       10.2021198       2.25640011    
 Ni   15.1462202       1.45745003       2.25640011    
 Ni   10.0974798       7.28723001       4.54539013    
 Ni   12.6218500       11.6595697       4.54539013    
 Ni   7.57311010       2.91489005       4.54539013    
 Ni   15.1462202       7.28723001       4.54539013    
 Ni   17.6705894       11.6595697       4.54539013    
 Ni   12.6218500       2.91489005       4.54539013    
 Ni   5.04873991       7.28723001       4.54539013    
 Ni   7.57311010       11.6595697       4.54539013    
 Ni   2.52436996       2.91489005       4.54539013    
 Ni   12.6218500       8.74468040       6.76043987    
 Ni   7.57311010       0.00000000       6.76043987    
 Ni   10.0974798       4.37234020       6.76043987    
 Ni   17.6705894       8.74468040       6.76043987    
 Ni   12.6218500       0.00000000       6.76043987    
 Ni   15.1462202       4.37234020       6.76043987    
 Ni   7.57311010       8.74468040       6.76043987    
 Ni   2.52436996       0.00000000       6.76043987    
 Ni   5.04873991       4.37234020       6.76043987    
 Ni   15.1462202       10.2021198       9.04018974    
 Ni   10.0974798       1.45745003       9.04018974    
 Ni   12.6218500       5.82978010       9.04018974    
 Ni   20.1949596       10.2021198       9.04018974    
 Ni   15.1462202       1.45745003       9.04018974    
 Ni   17.6705894       5.82978010       9.04018974    
 Ni   10.0974798       10.2021198       9.04018974    
 Ni   5.04873991       1.45745003       9.04018974    
 Ni   7.57311010       5.82978010       9.04018974    
 Ni   17.6705894       11.6595697       11.3199396    
 Ni   12.6218500       2.91489005       11.3199396    
 Ni   15.1462202       7.28723001       11.3199396    
 Ni   7.57311010       11.6595697       11.3199396    
 Ni   2.52436996       2.91489005       11.3199396    
 Ni   5.04873991       7.28723001       11.3199396    
 Ni   12.6218500       11.6595697       11.3199396    
 Ni   7.57311010       2.91489005       11.3199396    
 Ni   10.0974798       7.28723001       11.3199396    
 Ni   12.6218500       0.00000000       13.5349903    
 Ni   15.1462202       4.37234020       13.5349903    
 Ni   17.6705894       8.74468040       13.5349903    
 Ni   2.52436996       0.00000000       13.5349903    
 Ni   5.04873991       4.37234020       13.5349903    
 Ni   7.57311010       8.74468040       13.5349903    
 Ni   7.57311010       0.00000000       13.5349903    
 Ni   10.0974798       4.37234020       13.5349903    
 Ni   12.6218500       8.74468040       13.5349903    
 Ni   15.1462202       1.45745003       15.8239803    
 Ni   17.6705894       5.82978010       15.8239803    
 Ni   20.1949596       10.2021198       15.8239803    
 Ni   5.04873991       1.45745003       15.8239803    
 Ni   7.57311010       5.82978010       15.8239803    
 Ni   10.0974798       10.2021198       15.8239803    
 Ni   10.0974798       1.45745003       15.8239803    
 Ni   12.6218500       5.82978010       15.8239803    
 Ni   15.1462202       10.2021198       15.8239803    
 Ni   8.83530045       3.64361000       2.25640011    
 Ni   11.3596697       8.01595020       2.25640011    
 Ni   13.8840399       12.3882904       2.25640011    
 Ni   13.8840399       3.64361000       2.25640011    
 Ni   16.4084091       8.01595020       2.25640011    
 Ni   18.9327793       12.3882904       2.25640011    
 Ni   3.78656006       3.64361000       2.25640011    
 Ni   6.31092978       8.01595020       2.25640011    
 Ni   8.83530045       12.3882904       2.25640011    
 Ni   11.3596697       5.10105991       4.54539013    
 Ni   13.8840399       9.47340012       4.54539013    
 Ni   8.83530045      0.728720009       4.54539013    
 Ni   16.4084091       5.10105991       4.54539013    
 Ni   18.9327793       9.47340012       4.54539013    
 Ni   13.8840399      0.728720009       4.54539013    
 Ni   6.31092978       5.10105991       4.54539013    
 Ni   8.83530045       9.47340012       4.54539013    
 Ni   3.78656006      0.728720009       4.54539013    
 Ni   13.8840399       6.55850983       6.76043987    
 Ni   16.4084091       10.9308395       6.76043987    
 Ni   11.3596697       2.18617010       6.76043987    
 Ni   3.78656006       6.55850983       6.76043987    
 Ni   6.31092978       10.9308395       6.76043987    
 Ni   1.26218998       2.18617010       6.76043987    
 Ni   8.83530045       6.55850983       6.76043987    
 Ni   11.3596697       10.9308395       6.76043987    
 Ni   6.31092978       2.18617010       6.76043987    
 Ni   16.4084091       8.01595020       9.04018974    
 Ni   18.9327793       12.3882904       9.04018974    
 Ni   13.8840399       3.64361000       9.04018974    
 Ni   6.31092978       8.01595020       9.04018974    
 Ni   8.83530045       12.3882904       9.04018974    
 Ni   3.78656006       3.64361000       9.04018974    
 Ni   11.3596697       8.01595020       9.04018974    
 Ni   13.8840399       12.3882904       9.04018974    
 Ni   8.83530045       3.64361000       9.04018974    
 Ni   18.9327793       9.47340012       11.3199396    
 Ni   13.8840399      0.728720009       11.3199396    
 Ni   16.4084091       5.10105991       11.3199396    
 Ni   8.83530045       9.47340012       11.3199396    
 Ni   3.78656006      0.728720009       11.3199396    
 Ni   6.31092978       5.10105991       11.3199396    
 Ni   13.8840399       9.47340012       11.3199396    
 Ni   8.83530045      0.728720009       11.3199396    
 Ni   11.3596697       5.10105991       11.3199396    
 Ni   6.31092978       10.9308395       13.5349903    
 Ni   1.26218998       2.18617010       13.5349903    
 Ni   3.78656006       6.55850983       13.5349903    
 Ni   11.3596697       10.9308395       13.5349903    
 Ni   6.31092978       2.18617010       13.5349903    
 Ni   8.83530045       6.55850983       13.5349903    
 Ni   16.4084091       10.9308395       13.5349903    
 Ni   11.3596697       2.18617010       13.5349903    
 Ni   13.8840399       6.55850983       13.5349903    
 Ni   8.83530045       12.3882904       15.8239803    
 Ni   3.78656006       3.64361000       15.8239803    
 Ni   6.31092978       8.01595020       15.8239803    
 Ni   13.8840399       12.3882904       15.8239803    
 Ni   8.83530045       3.64361000       15.8239803    
 Ni   11.3596697       8.01595020       15.8239803    
 Ni   18.9327793       12.3882904       15.8239803    
 Ni   13.8840399       3.64361000       15.8239803    
 Ni   16.4084091       8.01595020       15.8239803    
 O    0.00000000       0.00000000       17.2239799    
 O    0.00000000       0.00000000       18.4239807    
 O   0.946640015       1.63962996       17.2239799    
 O   0.946640015       1.63962996       18.4239807    
 O    1.89328003       3.27924991       17.2239799    
 O    1.89328003       3.27924991       18.4239807    
 O    2.83992004       4.91887999       17.2239799    
 O    2.83992004       4.91887999       18.4239807    
 O    3.78656006       6.55850983       17.2239799    
 O    3.78656006       6.55850983       18.4239807    
 O    4.73319006       8.19812965       17.2239799    
 O    4.73319006       8.19812965       18.4239807    
 O    5.67983007       9.83775997       17.2239799    
 O    5.67983007       9.83775997       18.4239807    
 O    6.62647009       11.4773903       17.2239799    
 O    6.62647009       11.4773903       18.4239807    
 O    1.89328003       0.00000000       17.2239799    
 O    1.89328003       0.00000000       18.4239807    
 O    2.83992004       1.63962996       17.2239799    
 O    2.83992004       1.63962996       18.4239807    
 O    3.78656006       3.27924991       17.2239799    
 O    3.78656006       3.27924991       18.4239807    
 O    4.73319006       4.91887999       17.2239799    
 O    4.73319006       4.91887999       18.4239807    
 O    5.67983007       6.55850983       17.2239799    
 O    5.67983007       6.55850983       18.4239807    
 O    6.62647009       8.19812965       17.2239799    
 O    6.62647009       8.19812965       18.4239807    
 O    7.57311010       9.83775997       17.2239799    
 O    7.57311010       9.83775997       18.4239807    
 O    8.51974964       11.4773903       17.2239799    
 O    8.51974964       11.4773903       18.4239807    
 O    3.78656006       0.00000000       17.2239799    
 O    3.78656006       0.00000000       18.4239807    
 O    4.73319006       1.63962996       17.2239799    
 O    4.73319006       1.63962996       18.4239807    
 O    5.67983007       3.27924991       17.2239799    
 O    5.67983007       3.27924991       18.4239807    
 O    6.62647009       4.91887999       17.2239799    
 O    6.62647009       4.91887999       18.4239807    
 O    7.57311010       6.55850983       17.2239799    
 O    7.57311010       6.55850983       18.4239807    
 O    8.51974964       8.19812965       17.2239799    
 O    8.51974964       8.19812965       18.4239807    
 O    9.46638966       9.83775997       17.2239799    
 O    9.46638966       9.83775997       18.4239807    
 O    10.4130297       11.4773903       17.2239799    
 O    10.4130297       11.4773903       18.4239807    
 O    5.67983007       0.00000000       17.2239799    
 O    5.67983007       0.00000000       18.4239807    
 O    6.62647009       1.63962996       17.2239799    
 O    6.62647009       1.63962996       18.4239807    
 O    7.57311010       3.27924991       17.2239799    
 O    7.57311010       3.27924991       18.4239807    
 O    8.51974964       4.91887999       17.2239799    
 O    8.51974964       4.91887999       18.4239807    
 O    9.46638966       6.55850983       17.2239799    
 O    9.46638966       6.55850983       18.4239807    
 O    10.4130297       8.19812965       17.2239799    
 O    10.4130297       8.19812965       18.4239807    
 O    11.3596697       9.83775997       17.2239799    
 O    11.3596697       9.83775997       18.4239807    
 O    12.3063097       11.4773903       17.2239799    
 O    12.3063097       11.4773903       18.4239807    
 O    7.57311010       0.00000000       17.2239799    
 O    7.57311010       0.00000000       18.4239807    
 O    8.51974964       1.63962996       17.2239799    
 O    8.51974964       1.63962996       18.4239807    
 O    9.46638966       3.27924991       17.2239799    
 O    9.46638966       3.27924991       18.4239807    
 O    10.4130297       4.91887999       17.2239799    
 O    10.4130297       4.91887999       18.4239807    
 O    11.3596697       6.55850983       17.2239799    
 O    11.3596697       6.55850983       18.4239807    
 O    12.3063097       8.19812965       17.2239799    
 O    12.3063097       8.19812965       18.4239807    
 O    13.2529402       9.83775997       17.2239799    
 O    13.2529402       9.83775997       18.4239807    
 O    14.1995802       11.4773903       17.2239799    
 O    14.1995802       11.4773903       18.4239807    
 O    9.46638966       0.00000000       17.2239799    
 O    9.46638966       0.00000000       18.4239807    
 O    10.4130297       1.63962996       17.2239799    
 O    10.4130297       1.63962996       18.4239807    
 O    11.3596697       3.27924991       17.2239799    
 O    11.3596697       3.27924991       18.4239807    
 O    12.3063097       4.91887999       17.2239799    
 O    12.3063097       4.91887999       18.4239807    
 O    13.2529402       6.55850983       17.2239799    
 O    13.2529402       6.55850983       18.4239807    
 O    14.1995802       8.19812965       17.2239799    
 O    14.1995802       8.19812965       18.4239807    
 O    15.1462202       9.83775997       17.2239799    
 O    15.1462202       9.83775997       18.4239807    
 O    16.0928593       11.4773903       17.2239799    
 O    16.0928593       11.4773903       18.4239807    
 O    11.3596697       0.00000000       17.2239799    
 O    11.3596697       0.00000000       18.4239807    
 O    12.3063097       1.63962996       17.2239799    
 O    12.3063097       1.63962996       18.4239807    
 O    13.2529402       3.27924991       17.2239799    
 O    13.2529402       3.27924991       18.4239807    
 O    14.1995802       4.91887999       17.2239799    
 O    14.1995802       4.91887999       18.4239807    
 O    15.1462202       6.55850983       17.2239799    
 O    15.1462202       6.55850983       18.4239807    
 O    16.0928593       8.19812965       17.2239799    
 O    16.0928593       8.19812965       18.4239807    
 O    17.0394993       9.83775997       17.2239799    
 O    17.0394993       9.83775997       18.4239807    
 O    17.9861393       11.4773903       17.2239799    
 O    17.9861393       11.4773903       18.4239807    
 O    13.2529402       0.00000000       17.2239799    
 O    13.2529402       0.00000000       18.4239807    
 O    14.1995802       1.63962996       17.2239799    
 O    14.1995802       1.63962996       18.4239807    
 O    15.1462202       3.27924991       17.2239799    
 O    15.1462202       3.27924991       18.4239807    
 O    16.0928593       4.91887999       17.2239799    
 O    16.0928593       4.91887999       18.4239807    
 O    17.0394993       6.55850983       17.2239799    
 O    17.0394993       6.55850983       18.4239807    
 O    17.9861393       8.19812965       17.2239799    
 O    17.9861393       8.19812965       18.4239807    
 O    18.9327793       9.83775997       17.2239799    
 O    18.9327793       9.83775997       18.4239807    
 O    19.8794193       11.4773903       17.2239799    
 O    19.8794193       11.4773903       18.4239807    
         388
 Energy:  -1527.1860568000002     
 X   0.00000000       0.00000000       0.00000000    
 X   15.1462221       0.00000000       0.00000000    
 X   7.57311106       13.1170130       0.00000000    
 X   0.00000000       0.00000000       37.5999985    
 X   22.7193336       13.1170130       0.00000000    
 X   15.1462221       0.00000000       37.5999985    
 X   7.57311106       13.1170130       37.5999985    
 X   22.7193336       13.1170130       37.5999985    
 Ni   10.0985804       5.83042002       2.27903008    
 Ni   12.6212397       10.2024698       2.28012991    
 Ni   7.57311010       1.45616996       2.27903008    
 Ni   15.1462202       5.82908010       2.28012991    
 Ni   17.6711998       10.2024698       2.28012991    
 Ni   12.6231604       1.45668995       2.27751994    
 Ni   5.04763985       5.83042002       2.27903008    
 Ni   7.57311010       10.2036304       2.27751994    
 Ni   2.52306008       1.45668995       2.27751994    
 Ni   12.6204004       7.28638983       4.54589987    
 Ni   15.1462202       11.6612396       4.54589987    
 Ni   10.0956097       2.91597009       4.54562998    
 Ni   17.6720409       7.28638983       4.54589987    
 Ni   20.1907692       11.6571503       4.54934978    
 Ni   15.1462202       2.91972995       4.54934978    
 Ni   7.57311010       7.28506994       4.54562998    
 Ni   10.1016703       11.6571503       4.54934978    
 Ni   5.05061007       2.91597009       4.54562998    
 Ni   15.1462202       8.74468040       6.76336002    
 Ni   10.0975399      -2.80999998E-03   6.76455021    
 Ni   12.6243095       4.37369013       6.76455021    
 Ni   5.04633999       8.74612999       6.76455021    
 Ni  -0.00000000      -0.00000000       6.76618004    
 Ni   2.52190995       4.37369013       6.76455021    
 Ni   10.0998802       8.74612999       6.76455021    
 Ni   5.04868984      -2.80999998E-03   6.76455021    
 Ni   7.57311010       4.37234020       6.76229000    
 Ni   17.6732597       10.2036600       9.03625965    
 Ni   12.6252699       1.45546997       9.03491974    
 Ni   15.1462202       5.82670021       9.03625965    
 Ni   7.57311010       10.2060699       9.03491974    
 Ni   2.52095008       1.45546997       9.03491974    
 Ni   5.04754019       5.83048010       9.03752041    
 Ni   12.6191797       10.2036600       9.03625965    
 Ni   7.57311010       1.45606005       9.03752041    
 Ni   10.0986900       5.83048010       9.03752041    
 Ni   20.1940594       11.6590500       11.3156300    
 Ni   15.1462202       2.91593003       11.3156300    
 Ni   17.6783695       7.28274012       11.3134003    
 Ni   10.0983801       11.6590500       11.3156300    
 Ni   5.05389023       2.91786003       11.3181000    
 Ni   7.57311010       7.28128004       11.3181000    
 Ni   15.1462202       11.6685495       11.3134003    
 Ni   10.0923300       2.91786003       11.3181000    
 Ni   12.6140699       7.28274012       11.3134003    
 Ni  -0.00000000      -0.00000000       13.5413904    
 Ni   2.52115989       4.37557983       13.5375099    
 Ni   5.04433012       8.74582958       13.5375099    
 Ni   5.04995012      -4.39999998E-03   13.5375099    
 Ni   7.57311010       4.37234020       13.5397596    
 Ni   10.1019001       8.74582958       13.5375099    
 Ni   10.0962696      -4.39999998E-03   13.5375099    
 Ni   12.6250601       4.37557983       13.5375099    
 Ni   15.1462202       8.74468040       13.5330095    
 Ni   2.47337008       1.42799997       15.4259501    
 Ni   5.04718018       5.83068991       15.6406898    
 Ni   7.57311010       10.2610102       15.4259501    
 Ni   7.57311010       1.45563996       15.6406898    
 Ni   10.0990496       5.83068991       15.6406898    
 Ni   12.5803604       10.2260704       15.5937300    
 Ni   12.6728497       1.42799997       15.4259501    
 Ni   15.1462202       5.78187990       15.5937300    
 Ni   17.7120800       10.2260704       15.5937300    
 Ni   6.31153011       3.64397001       2.28012991    
 Ni   8.83660030       8.01519966       2.27751994    
 Ni   11.3596697       12.3875904       2.28012991    
 Ni   11.3596697       3.64511991       2.27751994    
 Ni   13.8827295       8.01519966       2.27751994    
 Ni   16.4073009       12.3889303       2.27903008    
 Ni   16.4078007       3.64397001       2.28012991    
 Ni   18.9327793       8.01467991       2.27903008    
 Ni   21.4582500       12.3889303       2.27903008    
 Ni   8.83111000       5.09863997       4.54934978    
 Ni   11.3596697       9.47824001       4.54934978    
 Ni   6.31236982      0.727890015       4.54589987    
 Ni   13.8882303       5.09863997       4.54934978    
 Ni   16.4102802       9.47447968       4.54562998    
 Ni   11.3596697      0.726559997       4.54562998    
 Ni   3.78656006       5.10272980       4.54589987    
 Ni   6.30905008       9.47447968       4.54562998    
 Ni   1.26074004      0.727890015       4.54589987    
 Ni   11.3596697       6.55850983       6.76618004    
 Ni   13.8815804       10.9322004       6.76455021    
 Ni   8.83288956       2.18761992       6.76455021    
 Ni   16.4083500       6.55569983       6.76455021    
 Ni   18.9327793       10.9308395       6.76229000    
 Ni   13.8864403       2.18761992       6.76455021    
 Ni   6.31097984       6.55569983       6.76455021    
 Ni   8.83775043       10.9322004       6.76455021    
 Ni   3.78656006       2.18617010       6.76336002    
 Ni   13.8806105       8.01397991       9.03491974    
 Ni   16.4071999       12.3889904       9.03752041    
 Ni   11.3596697       3.64756989       9.03491974    
 Ni   18.9327793       8.01455975       9.03752041    
 Ni   21.4583492       12.3889904       9.03752041    
 Ni   16.4057407       3.64515996       9.03625965    
 Ni   8.83872032       8.01397991       9.03491974    
 Ni   11.3596697       12.3851995       9.03625965    
 Ni   6.31360006       3.64515996       9.03625965    
 Ni   16.4135609       9.47636986       11.3181000    
 Ni   11.3596697      0.722779989       11.3181000    
 Ni   13.8849401       5.10054016       11.3156300    
 Ni   6.30577993       9.47636986       11.3181000    
 Ni   1.25440001      0.724229991       11.3134003    
 Ni   3.78656006       5.11005020       11.3134003    
 Ni   11.3596697       9.47443962       11.3156300    
 Ni   6.31870985      0.724229991       11.3134003    
 Ni   8.83438969       5.10054016       11.3156300    
 Ni   18.9327793       10.9308395       13.5397596    
 Ni   13.8884497       2.18731999       13.5375099    
 Ni   16.4096203       6.55411005       13.5375099    
 Ni   8.83850002       10.9340897       13.5375099    
 Ni   3.78656006       2.18617010       13.5330095    
 Ni   6.30972004       6.55411005       13.5375099    
 Ni   13.8808298       10.9340897       13.5375099    
 Ni   8.83088017       2.18731999       13.5375099    
 Ni   11.3596697       6.55850983       13.5413904    
 Ni   21.4587097       12.3891897       15.6406898    
 Ni   16.3669205       3.66757011       15.5937300    
 Ni   18.9327793       8.01414967       15.6406898    
 Ni   11.3596697       12.3403797       15.5937300    
 Ni   6.35240984       3.66757011       15.5937300    
 Ni   8.88630009       7.98650980       15.4259501    
 Ni   16.4068394       12.3891897       15.6406898    
 Ni   11.3596697       3.70250010       15.4259501    
 Ni   13.8330402       7.98650980       15.4259501    
 Ni   7.57311010       5.82908010       2.28012991    
 Ni   10.0980902       10.2024698       2.28012991    
 Ni   5.05004978       1.45668995       2.27751994    
 Ni   12.6207504       5.83042002       2.27903008    
 Ni   15.1462202       10.2036304       2.27751994    
 Ni   10.0961704       1.45668995       2.27751994    
 Ni   17.6716900       5.83042002       2.27903008    
 Ni   20.1943493       10.2024698       2.28012991    
 Ni   15.1462202       1.45616996       2.27903008    
 Ni   10.0989304       7.28638983       4.54589987    
 Ni   12.6176596       11.6571503       4.54934978    
 Ni   7.57311010       2.91972995       4.54934978    
 Ni   15.1462202       7.28506994       4.54562998    
 Ni   17.6747799       11.6571503       4.54934978    
 Ni   12.6237202       2.91597009       4.54562998    
 Ni   5.04728985       7.28638983       4.54589987    
 Ni   7.57311010       11.6612396       4.54589987    
 Ni   2.52250004       2.91597009       4.54562998    
 Ni   12.6194496       8.74612999       6.76455021    
 Ni   7.57311010      -0.00000000       6.76618004    
 Ni   10.0950203       4.37369013       6.76455021    
 Ni   17.6730003       8.74612999       6.76455021    