<?xml version="1.0" encoding="ISO-8859-1"?>
<modeling>
 <generator>
  <i name="program" type="string">vasp </i>
  <i name="version" type="string">6.2.1  </i>
  <i name="subversion" type="string">16May21 (build May 12 2022 08:28:04) complex                          parallel </i>
  <i name="platform" type="string">LinuxPGI </i>
  <i name="date" type="string">2022 07 20 </i>
  <i name="time" type="string">03:39:55 </i>
 </generator>
 <incar>
  <i type="string" name="SYSTEM">NiAl</i>
  <i type="int" name="ISTART">     0</i>
  <i type="int" name="NELMIN">     6</i>
  <i type="int" name="IBRION">     2</i>
  <i name="EDIFF">      0.00000500</i>
  <i type="int" name="NSW">    20</i>
  <i type="int" name="ISIF">     0</i>
  <i name="ENCUT">    360.00000000</i>
  <i name="POTIM">      0.20000000</i>
  <i type="string" name="LREAL">Auto</i>
  <i type="logical" name="LPLANE"> T  </i>
  <i type="int" name="ISMEAR">     0</i>
  <i name="SIGMA">      0.05000000</i>
  <i type="logical" name="LWAVE"> F  </i>
  <i type="logical" name="LCHARG"> F  </i>
  <i type="int" name="IVDW">    12</i>
 </incar>
 <primitive_cell>
  <structure name="primitive_cell" >
   <crystal>
    <varray name="basis" >
     <v>      -3.78655544      -6.55850641       0.00000000 </v>
     <v>       7.57311088       0.00000000       0.00000000 </v>
     <v>       0.00000000       0.00000000      37.60000000 </v>
    </varray>
    <i name="volume">   1867.52793807 </i>
    <varray name="rec_basis" >
     <v>       0.00000000      -0.15247374       0.00000000 </v>
     <v>       0.13204613      -0.07623687       0.00000000 </v>
     <v>      -0.00000000       0.00000000       0.02659574 </v>
    </varray>
   </crystal>
   <varray name="positions" >
    <v>       0.11111111       0.88888889       0.06001064 </v>
    <v>       0.44444444       0.88888889       0.06001064 </v>
    <v>       0.77777778       0.88888889       0.06001064 </v>
    <v>       0.11111111       0.55555556       0.06001064 </v>
    <v>       0.44444444       0.55555556       0.06001064 </v>
    <v>       0.77777778       0.55555556       0.06001064 </v>
    <v>       0.11111111       0.22222222       0.06001064 </v>
    <v>       0.44444444       0.22222222       0.06001064 </v>
    <v>       0.77777778       0.22222222       0.06001064 </v>
    <v>       0.88888889       0.11111111       0.12088808 </v>
    <v>       0.22222222       0.11111111       0.12088808 </v>
    <v>       0.55555556       0.11111111       0.12088808 </v>
    <v>       0.88888889       0.77777778       0.12088808 </v>
    <v>       0.22222222       0.77777778       0.12088808 </v>
    <v>       0.55555556       0.77777778       0.12088808 </v>
    <v>       0.88888889       0.44444444       0.12088808 </v>
    <v>       0.22222222       0.44444444       0.12088808 </v>
    <v>       0.55555556       0.44444444       0.12088808 </v>
    <v>       0.66666667       0.33333333       0.17979892 </v>
    <v>       0.00000000       0.33333333       0.17979892 </v>
    <v>       0.33333333       0.33333333       0.17979892 </v>
    <v>       0.66666667       0.00000000       0.17979892 </v>
    <v>       0.00000000       0.00000000       0.17979892 </v>
    <v>       0.33333333       0.00000000       0.17979892 </v>
    <v>       0.66666667       0.66666667       0.17979892 </v>
    <v>       0.00000000       0.66666667       0.17979892 </v>
    <v>       0.33333333       0.66666667       0.17979892 </v>
    <v>       0.44444444       0.55555556       0.24043056 </v>
    <v>       0.77777778       0.55555556       0.24043056 </v>
    <v>       0.11111111       0.55555556       0.24043056 </v>
    <v>       0.44444444       0.22222222       0.24043056 </v>
    <v>       0.77777778       0.22222222       0.24043056 </v>
    <v>       0.11111111       0.22222222       0.24043056 </v>
    <v>       0.44444444       0.88888889       0.24043056 </v>
    <v>       0.77777778       0.88888889       0.24043056 </v>
    <v>       0.11111111       0.88888889       0.24043056 </v>
    <v>       0.22222222       0.77777778       0.30106220 </v>
    <v>       0.55555556       0.77777778       0.30106220 </v>
    <v>       0.88888889       0.77777778       0.30106220 </v>
    <v>       0.22222222       0.44444444       0.30106220 </v>
    <v>       0.55555556       0.44444444       0.30106220 </v>
    <v>       0.88888889       0.44444444       0.30106220 </v>
    <v>       0.22222222       0.11111111       0.30106220 </v>
    <v>       0.55555556       0.11111111       0.30106220 </v>
    <v>       0.88888889       0.11111111       0.30106220 </v>
    <v>       0.00000000       0.00000000       0.35997303 </v>
    <v>       0.33333333       0.00000000       0.35997303 </v>
    <v>       0.66666667       0.00000000       0.35997303 </v>
    <v>       0.00000000       0.66666667       0.35997303 </v>
    <v>       0.33333333       0.66666667       0.35997303 </v>
    <v>       0.66666667       0.66666667       0.35997303 </v>
    <v>       0.00000000       0.33333333       0.35997303 </v>
    <v>       0.33333333       0.33333333       0.35997303 </v>
    <v>       0.66666667       0.33333333       0.35997303 </v>
    <v>       0.77777778       0.22222222       0.42085048 </v>
    <v>       0.11111111       0.22222222       0.42085048 </v>
    <v>       0.44444444       0.22222222       0.42085048 </v>
    <v>       0.77777778       0.88888889       0.42085048 </v>
    <v>       0.11111111       0.88888889       0.42085048 </v>
    <v>       0.44444444       0.88888889       0.42085048 </v>
    <v>       0.77777778       0.55555556       0.42085048 </v>
    <v>       0.11111111       0.55555556       0.42085048 </v>
    <v>       0.44444444       0.55555556       0.42085048 </v>
    <v>       0.00000000       0.00000000       0.45808452 </v>
    <v>       0.00000000       0.00000000       0.48999941 </v>
    <v>       0.75000000       0.00000000       0.45808452 </v>
    <v>       0.75000000       0.00000000       0.48999941 </v>
    <v>       0.50000000       0.00000000       0.45808452 </v>
    <v>       0.50000000       0.00000000       0.48999941 </v>
    <v>       0.25000000       0.00000000       0.45808452 </v>
    <v>       0.25000000       0.00000000       0.48999941 </v>
    <v>       0.00000000       0.25000000       0.45808452 </v>
    <v>       0.00000000       0.25000000       0.48999941 </v>
    <v>       0.75000000       0.25000000       0.45808452 </v>
    <v>       0.75000000       0.25000000       0.48999941 </v>
    <v>       0.50000000       0.25000000       0.45808452 </v>
    <v>       0.50000000       0.25000000       0.48999941 </v>
    <v>       0.25000000       0.25000000       0.45808452 </v>
    <v>       0.25000000       0.25000000       0.48999941 </v>
    <v>       0.00000000       0.50000000       0.45808452 </v>
    <v>       0.00000000       0.50000000       0.48999941 </v>
    <v>       0.75000000       0.50000000       0.45808452 </v>
    <v>       0.75000000       0.50000000       0.48999941 </v>
    <v>       0.50000000       0.50000000       0.45808452 </v>
    <v>       0.50000000       0.50000000       0.48999941 </v>
    <v>       0.25000000       0.50000000       0.45808452 </v>
    <v>       0.25000000       0.50000000       0.48999941 </v>
    <v>       0.00000000       0.75000000       0.45808452 </v>
    <v>       0.00000000       0.75000000       0.48999941 </v>
    <v>       0.75000000       0.75000000       0.45808452 </v>
    <v>       0.75000000       0.75000000       0.48999941 </v>
    <v>       0.50000000       0.75000000       0.45808452 </v>
    <v>       0.50000000       0.75000000       0.48999941 </v>
    <v>       0.25000000       0.75000000       0.45808452 </v>
    <v>       0.25000000       0.75000000       0.48999941 </v>
   </varray>
  </structure>
  <varray name="primitive_index" >
   <v type="int" >        1 </v>
   <v type="int" >      190 </v>
   <v type="int" >      191 </v>
   <v type="int" >      127 </v>
   <v type="int" >       64 </v>
   <v type="int" >       65 </v>
   <v type="int" >      130 </v>
   <v type="int" >       67 </v>
   <v type="int" >       68 </v>
   <v type="int" >       10 </v>
   <v type="int" >      199 </v>
   <v type="int" >       12 </v>
   <v type="int" >      136 </v>
   <v type="int" >       73 </v>
   <v type="int" >      138 </v>
   <v type="int" >       16 </v>
   <v type="int" >      205 </v>
   <v type="int" >       18 </v>
   <v type="int" >       19 </v>
   <v type="int" >      208 </v>
   <v type="int" >       21 </v>
   <v type="int" >      145 </v>
   <v type="int" >       82 </v>
   <v type="int" >      147 </v>
   <v type="int" >       25 </v>
   <v type="int" >      214 </v>
   <v type="int" >       27 </v>
   <v type="int" >       99 </v>
   <v type="int" >       97 </v>
   <v type="int" >      162 </v>
   <v type="int" >       93 </v>
   <v type="int" >       91 </v>
   <v type="int" >      156 </v>
   <v type="int" >      225 </v>
   <v type="int" >      223 </v>
   <v type="int" >       36 </v>
   <v type="int" >      108 </v>
   <v type="int" >      170 </v>
   <v type="int" >      171 </v>
   <v type="int" >      231 </v>
   <v type="int" >       41 </v>
   <v type="int" >       42 </v>
   <v type="int" >      234 </v>
   <v type="int" >       44 </v>
   <v type="int" >       45 </v>
   <v type="int" >      117 </v>
   <v type="int" >      179 </v>
   <v type="int" >      180 </v>
   <v type="int" >      240 </v>
   <v type="int" >       50 </v>
   <v type="int" >       51 </v>
   <v type="int" >      243 </v>
   <v type="int" >       53 </v>
   <v type="int" >       54 </v>
   <v type="int" >      126 </v>
   <v type="int" >      188 </v>
   <v type="int" >      125 </v>
   <v type="int" >      249 </v>
   <v type="int" >       59 </v>
   <v type="int" >      248 </v>
   <v type="int" >      123 </v>
   <v type="int" >      185 </v>
   <v type="int" >      122 </v>
   <v type="int" >      325 </v>
   <v type="int" >      326 </v>
   <v type="int" >      327 </v>
   <v type="int" >      328 </v>
   <v type="int" >      321 </v>
   <v type="int" >      322 </v>
   <v type="int" >      323 </v>
   <v type="int" >      324 </v>
   <v type="int" >      341 </v>
   <v type="int" >      342 </v>
   <v type="int" >      343 </v>
   <v type="int" >      344 </v>
   <v type="int" >      337 </v>
   <v type="int" >      338 </v>
   <v type="int" >      339 </v>
   <v type="int" >      340 </v>
   <v type="int" >      293 </v>
   <v type="int" >      294 </v>
   <v type="int" >      295 </v>
   <v type="int" >      296 </v>
   <v type="int" >      289 </v>
   <v type="int" >      290 </v>
   <v type="int" >      291 </v>
   <v type="int" >      292 </v>
   <v type="int" >      309 </v>
   <v type="int" >      310 </v>
   <v type="int" >      311 </v>
   <v type="int" >      312 </v>
   <v type="int" >      305 </v>
   <v type="int" >      306 </v>
   <v type="int" >      307 </v>
   <v type="int" >      308 </v>
  </varray>
 </primitive_cell>
 <kpoints>
  <generation param="Gamma">
   <v type="int" name="divisions">       2        2        1 </v>
   <v name="usershift">      0.00000000       0.00000000       0.00000000 </v>
   <v name="genvec1">      0.50000000       0.00000000       0.00000000 </v>
   <v name="genvec2">      0.00000000       0.50000000       0.00000000 </v>
   <v name="genvec3">      0.00000000       0.00000000       1.00000000 </v>
   <v name="shift">      0.00000000       0.00000000       0.00000000 </v>
  </generation>
  <varray name="kpointlist" >
   <v>       0.00000000       0.00000000       0.00000000 </v>
   <v>       0.50000000       0.00000000       0.00000000 </v>
  </varray>
  <varray name="weights" >
   <v>       0.25000000 </v>
   <v>       0.75000000 </v>
  </varray>
 </kpoints>
 <parameters>
  <separator name="general" >
   <i type="string" name="SYSTEM">NiAl</i>
   <i type="logical" name="LCOMPAT"> F  </i>
  </separator>
  <separator name="electronic" >
   <i type="string" name="PREC">normal</i>
   <i name="ENMAX">    360.00000000</i>
   <i name="ENAUG">   1139.60900000</i>
   <i name="EDIFF">      0.00000500</i>
   <i type="int" name="IALGO">    38</i>
   <i type="int" name="IWAVPR">    11</i>
   <i type="int" name="NBANDS">  1972</i>
   <i type="int" name="NBANDSLOW">    -1</i>
   <i type="int" name="NBANDSHIGH">    -1</i>
   <i name="NELECT">   3288.00000000</i>
   <i type="int" name="TURBO">     0</i>
   <i type="int" name="IRESTART">     0</i>
   <i type="int" name="NREBOOT">     0</i>
   <i type="int" name="NMIN">     0</i>
   <i name="EREF">      0.00000000</i>
   <separator name="electronic smearing" >
    <i type="int" name="ISMEAR">     0</i>
    <i name="SIGMA">      0.05000000</i>
    <i name="KSPACING">      0.50000000</i>
    <i type="logical" name="KGAMMA"> T  </i>
    <i type="logical" name="KBLOWUP"> T  </i>
   </separator>
   <separator name="electronic projectors" >
    <i type="logical" name="LREAL"> T  </i>
    <v name="ROPT">     -0.00050000     -0.00050000</v>
    <i type="int" name="LMAXPAW">  -100</i>
    <i type="int" name="LMAXMIX">     2</i>
    <i type="logical" name="NLSPLINE"> F  </i>
   </separator>
   <separator name="electronic startup" >
    <i type="int" name="ISTART">     0</i>
    <i type="int" name="ICHARG">     2</i>
    <i type="int" name="INIWAV">     1</i>
   </separator>
   <separator name="electronic spin" >
    <i type="int" name="ISPIN">     1</i>
    <i type="logical" name="LNONCOLLINEAR"> F  </i>
    <v name="MAGMOM">      1.00000000      1.00000000      1.00000000      1.00000000      1.00000000      1.00000000      1.00000000      1.00000000      1.00000000      1.00000000      1.00000000      1.00000000      1.00000000      1.00000000      1.00000000      1.00000000      1.00000000      1.00000000      1.00000000      1.00000000
      1.00000000      1.00000000      1.00000000      1.00000000      1.00000000      1.00000000      1.00000000      1.00000000      1.00000000      1.00000000      1.00000000      1.00000000      1.00000000      1.00000000      1.00000000      1.00000000      1.00000000      1.00000000      1.00000000      1.00000000
      1.00000000      1.00000000      1.00000000      1.00000000      1.00000000      1.00000000      1.00000000      1.00000000      1.00000000      1.00000000      1.00000000      1.00000000      1.00000000      1.00000000      1.00000000      1.00000000      1.00000000      1.00000000      1.00000000      1.00000000
      1.00000000      1.00000000      1.00000000      1.00000000      1.00000000      1.00000000      1.00000000      1.00000000      1.00000000      1.00000000      1.00000000      1.00000000      1.00000000      1.00000000      1.00000000      1.00000000      1.00000000      1.00000000      1.00000000      1.00000000
      1.00000000      1.00000000      1.00000000      1.00000000      1.00000000      1.00000000      1.00000000      1.00000000      1.00000000      1.00000000      1.00000000      1.00000000      1.00000000      1.00000000      1.00000000      1.00000000      1.00000000      1.00000000      1.00000000      1.00000000
      1.00000000      1.00000000      1.00000000      1.00000000      1.00000000      1.00000000      1.00000000      1.00000000      1.00000000      1.00000000      1.00000000      1.00000000      1.00000000      1.00000000      1.00000000      1.00000000      1.00000000      1.00000000      1.00000000      1.00000000
      1.00000000      1.00000000      1.00000000      1.00000000      1.00000000      1.00000000      1.00000000      1.00000000      1.00000000      1.00000000      1.00000000      1.00000000      1.00000000      1.00000000      1.00000000      1.00000000      1.00000000      1.00000000      1.00000000      1.00000000
      1.00000000      1.00000000      1.00000000      1.00000000      1.00000000      1.00000000      1.00000000      1.00000000      1.00000000      1.00000000      1.00000000      1.00000000      1.00000000      1.00000000      1.00000000      1.00000000      1.00000000      1.00000000      1.00000000      1.00000000
      1.00000000      1.00000000      1.00000000      1.00000000      1.00000000      1.00000000      1.00000000      1.00000000      1.00000000      1.00000000      1.00000000      1.00000000      1.00000000      1.00000000      1.00000000      1.00000000      1.00000000      1.00000000      1.00000000      1.00000000
      1.00000000      1.00000000      1.00000000      1.00000000      1.00000000      1.00000000      1.00000000      1.00000000      1.00000000      1.00000000      1.00000000      1.00000000      1.00000000      1.00000000      1.00000000      1.00000000      1.00000000      1.00000000      1.00000000      1.00000000
      1.00000000      1.00000000      1.00000000      1.00000000      1.00000000      1.00000000      1.00000000      1.00000000      1.00000000      1.00000000      1.00000000      1.00000000      1.00000000      1.00000000      1.00000000      1.00000000      1.00000000      1.00000000      1.00000000      1.00000000
      1.00000000      1.00000000      1.00000000      1.00000000      1.00000000      1.00000000      1.00000000      1.00000000      1.00000000      1.00000000      1.00000000      1.00000000      1.00000000      1.00000000      1.00000000      1.00000000      1.00000000      1.00000000      1.00000000      1.00000000
      1.00000000      1.00000000      1.00000000      1.00000000      1.00000000      1.00000000      1.00000000      1.00000000      1.00000000      1.00000000      1.00000000      1.00000000      1.00000000      1.00000000      1.00000000      1.00000000      1.00000000      1.00000000      1.00000000      1.00000000
      1.00000000      1.00000000      1.00000000      1.00000000      1.00000000      1.00000000      1.00000000      1.00000000      1.00000000      1.00000000      1.00000000      1.00000000      1.00000000      1.00000000      1.00000000      1.00000000      1.00000000      1.00000000      1.00000000      1.00000000
      1.00000000      1.00000000      1.00000000      1.00000000      1.00000000      1.00000000      1.00000000      1.00000000      1.00000000      1.00000000      1.00000000      1.00000000      1.00000000      1.00000000      1.00000000      1.00000000      1.00000000      1.00000000      1.00000000      1.00000000
      1.00000000      1.00000000      1.00000000      1.00000000      1.00000000      1.00000000      1.00000000      1.00000000      1.00000000      1.00000000      1.00000000      1.00000000      1.00000000      1.00000000      1.00000000      1.00000000      1.00000000      1.00000000      1.00000000      1.00000000
      1.00000000      1.00000000      1.00000000      1.00000000      1.00000000      1.00000000      1.00000000      1.00000000      1.00000000      1.00000000      1.00000000      1.00000000      1.00000000      1.00000000      1.00000000      1.00000000      1.00000000      1.00000000      1.00000000      1.00000000
      1.00000000      1.00000000      1.00000000      1.00000000      1.00000000      1.00000000      1.00000000      1.00000000      1.00000000      1.00000000      1.00000000      1.00000000      1.00000000      1.00000000      1.00000000      1.00000000      1.00000000      1.00000000      1.00000000      1.00000000
      1.00000000      1.00000000      1.00000000      1.00000000      1.00000000      1.00000000      1.00000000      1.00000000      1.00000000      1.00000000      1.00000000      1.00000000      1.00000000      1.00000000      1.00000000      1.00000000      1.00000000      1.00000000      1.00000000      1.00000000
</v>
    <i name="NUPDOWN">     -1.00000000</i>
    <i type="logical" name="LSORBIT"> F  </i>
    <v name="SAXIS">      0.00000000      0.00000000      1.00000000</v>
    <i type="logical" name="LSPIRAL"> F  </i>
    <v name="QSPIRAL">      0.00000000      0.00000000      0.00000000</v>
    <i type="logical" name="LZEROZ"> F  </i>
   </separator>
   <separator name="electronic exchange-correlation" >
    <i type="logical" name="LASPH"> F  </i>
    <i type="logical" name="LMETAGGA"> F  </i>
   </separator>
   <separator name="electronic convergence" >
    <i type="int" name="NELM">    60</i>
    <i type="int" name="NELMDL">    -5</i>
    <i type="int" name="NELMIN">     6</i>
    <i name="ENINI">    360.00000000</i>
    <separator name="electronic convergence detail" >
     <i type="logical" name="LDIAG"> T  </i>
     <i type="logical" name="LSUBROT"> F  </i>
     <i name="WEIMIN">      0.00100000</i>
     <i name="EBREAK">      0.00000000</i>
     <i name="DEPER">      0.30000000</i>
     <i type="int" name="NRMM">     4</i>
     <i name="TIME">      0.40000000</i>
    </separator>
   </separator>
   <separator name="electronic mixer" >
    <i name="AMIX">      0.40000000</i>
    <i name="BMIX">      1.00000000</i>
    <i name="AMIN">      0.10000000</i>
    <i name="AMIX_MAG">      1.60000000</i>
    <i name="BMIX_MAG">      1.00000000</i>
    <separator name="electronic mixer details" >
     <i type="int" name="IMIX">     4</i>
     <i type="logical" name="MIXFIRST"> F  </i>
     <i type="int" name="MAXMIX">   -45</i>
     <i name="WC">    100.00000000</i>
     <i type="int" name="INIMIX">     1</i>
     <i type="int" name="MIXPRE">     1</i>
     <i type="int" name="MREMOVE">     5</i>
    </separator>
   </separator>
   <separator name="electronic dipolcorrection" >
    <i type="logical" name="LDIPOL"> F  </i>
    <i type="logical" name="LMONO"> F  </i>
    <i type="int" name="IDIPOL">     0</i>
    <i name="EPSILON">      1.00000000</i>
    <v name="DIPOL">   -100.00000000   -100.00000000   -100.00000000</v>
    <i name="EFIELD">      0.00000000</i>
   </separator>
  </separator>
  <separator name="grids" >
   <i type="int" name="NGX">    70</i>
   <i type="int" name="NGY">    70</i>
   <i type="int" name="NGZ">   180</i>
   <i type="int" name="NGXF">   140</i>
   <i type="int" name="NGYF">   140</i>
   <i type="int" name="NGZF">   360</i>
   <i type="logical" name="ADDGRID"> F  </i>
  </separator>
  <separator name="ionic" >
   <i type="int" name="NSW">    20</i>
   <i type="int" name="IBRION">     2</i>
   <i type="int" name="MDALGO">     0</i>
   <i type="int" name="ISIF">     0</i>
   <i name="PSTRESS">      0.00000000</i>
   <i name="EDIFFG">      0.00005000</i>
   <i type="int" name="NFREE">     1</i>
   <i name="POTIM">      0.20000000</i>
   <i name="SMASS">     -3.00000000</i>
   <i name="SCALEE">      1.00000000</i>
  </separator>
  <separator name="ionic md" >
   <i name="TEBEG">      0.00010000</i>
   <i name="TEEND">      0.00010000</i>
   <i type="int" name="NBLOCK">     1</i>
   <i type="int" name="KBLOCK">    20</i>
   <i type="int" name="NPACO">   256</i>
   <i name="APACO">     16.00000000</i>
  </separator>
  <separator name="symmetry" >
   <i type="int" name="ISYM">     2</i>
   <i name="SYMPREC">      0.00001000</i>
  </separator>
  <separator name="dos" >
   <i type="int" name="LORBIT">     0</i>
   <v name="RWIGS">     -1.00000000     -1.00000000</v>
   <i type="int" name="NEDOS">   301</i>
   <i name="EMIN">     10.00000000</i>
   <i name="EMAX">    -10.00000000</i>
   <i name="EFERMI">      0.00000000</i>
  </separator>
  <separator name="writing" >
   <i type="int" name="NWRITE">     2</i>
   <i type="logical" name="LWAVE"> F  </i>
   <i type="logical" name="LDOWNSAMPLE"> F  </i>
   <i type="logical" name="LCHARG"> F  </i>
   <i type="logical" name="LPARD"> F  </i>
   <i type="logical" name="LVTOT"> F  </i>
   <i type="logical" name="LVHAR"> F  </i>
   <i type="logical" name="LELF"> F  </i>
   <i type="logical" name="LOPTICS"> F  </i>
   <v name="STM">      0.00000000      0.00000000      0.00000000      0.00000000      0.00000000      0.00000000      0.00000000</v>
  </separator>
  <separator name="performance" >
   <i type="int" name="NPAR">     1</i>
   <i type="int" name="NSIM">     4</i>
   <i type="int" name="NBLK">    -1</i>
   <i type="logical" name="LPLANE"> T  </i>
   <i type="logical" name="LSCALAPACK"> T  </i>
   <i type="logical" name="LSCAAWARE"> F  </i>
   <i type="logical" name="LSCALU"> F  </i>
   <i type="logical" name="LASYNC"> F  </i>
   <i type="logical" name="LORBITALREAL"> F  </i>
  </separator>
  <separator name="miscellaneous" >
   <i type="int" name="IDIOT">     3</i>
   <i type="int" name="PHON_NSTRUCT">    -1</i>
   <i type="logical" name="LMUSIC"> F  </i>
   <v name="POMASS">     58.69000000     16.00000000</v>
   <v name="DARWINR">      0.00000000      0.00000000</v>
   <v name="DARWINV">      1.00000000      1.00000000</v>
   <i type="logical" name="LCORR"> T  </i>
  </separator>
  <i type="logical" name="GGA_COMPAT"> T  </i>
  <i type="logical" name="LBERRY"> F  </i>
  <i type="int" name="ICORELEVEL">     0</i>
  <i type="logical" name="LDAU"> F  </i>
  <i type="int" name="I_CONSTRAINED_M">     0</i>
  <separator name="electronic exchange-correlation" >
   <i type="string" name="GGA">--</i>
   <i type="int" name="VOSKOWN">     0</i>
   <i type="logical" name="LHFCALC"> F  </i>
   <i type="string" name="PRECFOCK"></i>
   <i type="logical" name="LSYMGRAD"> F  </i>
   <i type="logical" name="LHFONE"> F  </i>
   <i type="logical" name="LRHFCALC"> F  </i>
   <i type="logical" name="LTHOMAS"> F  </i>
   <i type="logical" name="LMODELHF"> F  </i>
   <i type="logical" name="LFOCKACE"> F  </i>
   <i name="ENCUT4O">     -1.00000000</i>
   <i type="int" name="EXXOEP">     0</i>
   <i type="int" name="FOURORBIT">     0</i>
   <i name="AEXX">      0.00000000</i>
   <i name="HFALPHA">      0.00000000</i>
   <i name="MCALPHA">      0.00000000</i>
   <i name="ALDAX">      1.00000000</i>
   <i name="AGGAX">      1.00000000</i>
   <i name="ALDAC">      1.00000000</i>
   <i name="AGGAC">      1.00000000</i>
   <i type="int" name="NKREDX">     1</i>
   <i type="int" name="NKREDY">     1</i>
   <i type="int" name="NKREDZ">     1</i>
   <i type="logical" name="SHIFTRED"> F  </i>
   <i type="logical" name="ODDONLY"> F  </i>
   <i type="logical" name="EVENONLY"> F  </i>
   <i type="int" name="LMAXFOCK">     0</i>
   <i type="int" name="NMAXFOCKAE">     0</i>
   <i type="logical" name="LFOCKAEDFT"> F  </i>
   <i name="HFSCREEN">      0.00000000</i>
   <i name="HFSCREENC">      0.00000000</i>
   <i type="int" name="NBANDSGWLOW">     0</i>
  </separator>
  <separator name="vdW DFT" >
   <i type="logical" name="LUSE_VDW"> F  </i>
   <i name="Zab_VDW">     -0.84910000</i>
   <i name="PARAM1">      0.12340000</i>
   <i name="PARAM2">      1.00000000</i>
   <i name="PARAM3">      0.00000000</i>
  </separator>
  <separator name="model GW" >
   <i type="int" name="MODEL_GW">     0</i>
   <i name="MODEL_EPS0">     11.79491329</i>
   <i name="MODEL_ALPHA">      1.00000000</i>
  </separator>
  <separator name="linear response parameters" >
   <i type="logical" name="LEPSILON"> F  </i>
   <i type="logical" name="LRPA"> F  </i>
   <i type="logical" name="LNABLA"> F  </i>
   <i type="logical" name="LVEL"> F  </i>
   <i type="int" name="KINTER">     0</i>
   <i name="CSHIFT">      0.10000000</i>
   <i name="OMEGAMAX">     -1.00000000</i>
   <i name="DEG_THRESHOLD">      0.00200000</i>
   <i name="RTIME">     -0.10000000</i>
   <i name="WPLASMAI">      0.00000000</i>
   <v name="DFIELD">      0.00000000      0.00000000      0.00000000</v>
   <v name="WPLASMA">      0.00000000      0.00000000      0.00000000      0.00000000      0.00000000      0.00000000      0.00000000      0.00000000      0.00000000</v>
  </separator>
  <separator name="orbital magnetization" >
   <i type="logical" name="NUCIND"> F  </i>
   <v name="MAGPOS">      0.00000000      0.00000000      0.00000000</v>
   <i type="logical" name="LNICSALL"> T  </i>
   <i type="logical" name="ORBITALMAG"> F  </i>
   <i type="logical" name="LMAGBLOCH"> F  </i>
   <i type="logical" name="LCHIMAG"> F  </i>
   <i type="logical" name="LGAUGE"> T  </i>
   <i type="int" name="MAGATOM">     0</i>
   <v name="MAGDIPOL">      0.00000000      0.00000000      0.00000000</v>
   <v name="AVECCONST">      0.00000000      0.00000000      0.00000000</v>
  </separator>
  <separator name="response functions" >
   <i type="logical" name="LFINITE_TEMPERATURE"> F  </i>
   <i type="logical" name="LADDER"> F  </i>
   <i type="logical" name="LRPAFORCE"> F  </i>
   <i type="logical" name="LFXC"> F  </i>
   <i type="logical" name="LHARTREE"> T  </i>
   <i type="int" name="IBSE">     0</i>
   <v type="int" name="KPOINT">    -1     0     0     0</v>
   <i type="logical" name="LTCTC"> F  </i>
   <i type="logical" name="LTCTE"> F  </i>
   <i type="logical" name="LTETE"> F  </i>
   <i type="logical" name="LTRIPLET"> F  </i>
   <i type="logical" name="LFXCEPS"> F  </i>
   <i type="logical" name="LFXHEG"> F  </i>
   <i type="int" name="NATURALO">     2</i>
   <i type="logical" name="LHOLEGF"> F  </i>
   <i type="logical" name="L2ORDER"> F  </i>
   <i type="logical" name="LDMP1"> F  </i>
   <i type="logical" name="LMP2LT"> F  </i>
   <i type="logical" name="LSMP2LT"> F  </i>
   <i type="logical" name="LGWLF"> F  </i>
   <i name="ENCUTGW">     -2.00000000</i>
   <i name="ENCUTGWSOFT">     -2.00000000</i>
   <i name="ENCUTLF">     -1.00000000</i>
   <i type="logical" name="LESF_SPLINES"> F  </i>
   <i type="int" name="LMAXMP2">    -1</i>
   <i name="SCISSOR">      0.00000000</i>
   <i type="int" name="NOMEGA">     0</i>
   <i type="int" name="NOMEGAR">     0</i>
   <i type="int" name="NBANDSGW">    -1</i>
   <i type="int" name="NBANDSO">    -1</i>
   <i type="int" name="NBANDSV">    -1</i>
   <i type="int" name="NELM">     1</i>
   <i type="int" name="NELMHF">     1</i>
   <i type="int" name="DIM">     3</i>
   <i type="int" name="IESPILON">     4</i>
   <i type="int" name="ANTIRES">     0</i>
   <i name="OMEGAMAX">    -30.00000000</i>
   <i name="OMEGAMIN">    -30.00000000</i>
   <i name="OMEGATL">   -200.00000000</i>
   <i type="int" name="OMEGAGRID">     0</i>
   <i name="CSHIFT">     -0.10000000</i>
   <i type="logical" name="LSELFENERGY"> F  </i>
   <i type="logical" name="LSPECTRAL"> F  </i>
   <i type="logical" name="LSPECTRALGW"> F  </i>
   <i type="logical" name="LSINGLES"> F  </i>
   <i type="logical" name="LFERMIGW"> F  </i>
   <i type="logical" name="ODDONLYGW"> F  </i>
   <i type="logical" name="EVENONLYGW"> F  </i>
   <i type="int" name="NKREDLFX">     1</i>
   <i type="int" name="NKREDLFY">     1</i>
   <i type="int" name="NKREDLFZ">     1</i>
   <i type="int" name="MAXMEM">  2800</i>
   <i type="int" name="TELESCOPE">     0</i>
   <i type="int" name="NTAUPAR">    -1</i>
   <i type="int" name="NOMEGAPAR">    -1</i>
   <i name="DAMP_NEWTON">      0.80000001</i>
   <i name="LAMBDA">      1.00000000</i>
  </separator>
  <separator name="External order field" >
   <i name="OFIELD_KAPPA">      0.00000000</i>
   <v name="OFIELD_K">      0.00000000      0.00000000      0.00000000</v>
   <i name="OFIELD_Q6_NEAR">      0.00000000</i>
   <i name="OFIELD_Q6_FAR">      0.00000000</i>
   <i name="OFIELD_A">      0.00000000</i>
  </separator>
 </parameters>
 <atominfo>
  <atoms>     380 </atoms>
  <types>       2 </types>
  <array name="atoms" >
   <dimension dim="1">ion</dimension>
   <field type="string">element</field>
   <field type="int">atomtype</field>
   <set>
    <rc><c>Ni</c><c>   1</c></rc>
    <rc><c>Ni</c><c>   1</c></rc>
    <rc><c>Ni</c><c>   1</c></rc>
    <rc><c>Ni</c><c>   1</c></rc>
    <rc><c>Ni</c><c>   1</c></rc>
    <rc><c>Ni</c><c>   1</c></rc>
    <rc><c>Ni</c><c>   1</c></rc>
    <rc><c>Ni</c><c>   1</c></rc>
    <rc><c>Ni</c><c>   1</c></rc>
    <rc><c>Ni</c><c>   1</c></rc>
    <rc><c>Ni</c><c>   1</c></rc>
    <rc><c>Ni</c><c>   1</c></rc>
    <rc><c>Ni</c><c>   1</c></rc>
    <rc><c>Ni</c><c>   1</c></rc>
    <rc><c>Ni</c><c>   1</c></rc>
    <rc><c>Ni</c><c>   1</c></rc>
    <rc><c>Ni</c><c>   1</c></rc>
    <rc><c>Ni</c><c>   1</c></rc>
    <rc><c>Ni</c><c>   1</c></rc>
    <rc><c>Ni</c><c>   1</c></rc>
    <rc><c>Ni</c><c>   1</c></rc>
    <rc><c>Ni</c><c>   1</c></rc>
    <rc><c>Ni</c><c>   1</c></rc>
    <rc><c>Ni</c><c>   1</c></rc>
    <rc><c>Ni</c><c>   1</c></rc>
    <rc><c>Ni</c><c>   1</c></rc>
    <rc><c>Ni</c><c>   1</c></rc>
    <rc><c>Ni</c><c>   1</c></rc>
    <rc><c>Ni</c><c>   1</c></rc>
    <rc><c>Ni</c><c>   1</c></rc>
    <rc><c>Ni</c><c>   1</c></rc>
    <rc><c>Ni</c><c>   1</c></rc>
    <rc><c>Ni</c><c>   1</c></rc>
    <rc><c>Ni</c><c>   1</c></rc>
    <rc><c>Ni</c><c>   1</c></rc>
    <rc><c>Ni</c><c>   1</c></rc>
    <rc><c>Ni</c><c>   1</c></rc>
    <rc><c>Ni</c><c>   1</c></rc>
    <rc><c>Ni</c><c>   1</c></rc>
    <rc><c>Ni</c><c>   1</c></rc>
    <rc><c>Ni</c><c>   1</c></rc>
    <rc><c>Ni</c><c>   1</c></rc>
    <rc><c>Ni</c><c>   1</c></rc>
    <rc><c>Ni</c><c>   1</c></rc>
    <rc><c>Ni</c><c>   1</c></rc>
    <rc><c>Ni</c><c>   1</c></rc>
    <rc><c>Ni</c><c>   1</c></rc>
    <rc><c>Ni</c><c>   1</c></rc>
    <rc><c>Ni</c><c>   1</c></rc>
    <rc><c>Ni</c><c>   1</c></rc>
    <rc><c>Ni</c><c>   1</c></rc>
    <rc><c>Ni</c><c>   1</c></rc>
    <rc><c>Ni</c><c>   1</c></rc>
    <rc><c>Ni</c><c>   1</c></rc>
    <rc><c>Ni</c><c>   1</c></rc>
    <rc><c>Ni</c><c>   1</c></rc>
    <rc><c>Ni</c><c>   1</c></rc>
    <rc><c>Ni</c><c>   1</c></rc>
    <rc><c>Ni</c><c>   1</c></rc>
    <rc><c>Ni</c><c>   1</c></rc>
    <rc><c>Ni</c><c>   1</c></rc>
    <rc><c>Ni</c><c>   1</c></rc>
    <rc><c>Ni</c><c>   1</c></rc>
    <rc><c>Ni</c><c>   1</c></rc>
    <rc><c>Ni</c><c>   1</c></rc>
    <rc><c>Ni</c><c>   1</c></rc>
    <rc><c>Ni</c><c>   1</c></rc>
    <rc><c>Ni</c><c>   1</c></rc>
    <rc><c>Ni</c><c>   1</c></rc>
    <rc><c>Ni</c><c>   1</c></rc>
    <rc><c>Ni</c><c>   1</c></rc>
    <rc><c>Ni</c><c>   1</c></rc>
    <rc><c>Ni</c><c>   1</c></rc>
    <rc><c>Ni</c><c>   1</c></rc>
    <rc><c>Ni</c><c>   1</c></rc>
    <rc><c>Ni</c><c>   1</c></rc>
    <rc><c>Ni</c><c>   1</c></rc>
    <rc><c>Ni</c><c>   1</c></rc>
    <rc><c>Ni</c><c>   1</c></rc>
    <rc><c>Ni</c><c>   1</c></rc>
    <rc><c>Ni</c><c>   1</c></rc>
    <rc><c>Ni</c><c>   1</c></rc>
    <rc><c>Ni</c><c>   1</c></rc>
    <rc><c>Ni</c><c>   1</c></rc>
    <rc><c>Ni</c><c>   1</c></rc>
    <rc><c>Ni</c><c>   1</c></rc>
    <rc><c>Ni</c><c>   1</c></rc>
    <rc><c>Ni</c><c>   1</c></rc>
    <rc><c>Ni</c><c>   1</c></rc>
    <rc><c>Ni</c><c>   1</c></rc>
    <rc><c>Ni</c><c>   1</c></rc>
    <rc><c>Ni</c><c>   1</c></rc>
    <rc><c>Ni</c><c>   1</c></rc>
    <rc><c>Ni</c><c>   1</c></rc>
    <rc><c>Ni</c><c>   1</c></rc>
    <rc><c>Ni</c><c>   1</c></rc>
    <rc><c>Ni</c><c>   1</c></rc>
    <rc><c>Ni</c><c>   1</c></rc>
    <rc><c>Ni</c><c>   1</c></rc>
    <rc><c>Ni</c><c>   1</c></rc>
    <rc><c>Ni</c><c>   1</c></rc>
    <rc><c>Ni</c><c>   1</c></rc>
    <rc><c>Ni</c><c>   1</c></rc>
    <rc><c>Ni</c><c>   1</c></rc>
    <rc><c>Ni</c><c>   1</c></rc>
    <rc><c>Ni</c><c>   1</c></rc>
    <rc><c>Ni</c><c>   1</c></rc>
    <rc><c>Ni</c><c>   1</c></rc>
    <rc><c>Ni</c><c>   1</c></rc>
    <rc><c>Ni</c><c>   1</c></rc>
    <rc><c>Ni</c><c>   1</c></rc>
    <rc><c>Ni</c><c>   1</c></rc>
    <rc><c>Ni</c><c>   1</c></rc>
    <rc><c>Ni</c><c>   1</c></rc>
    <rc><c>Ni</c><c>   1</c></rc>
    <rc><c>Ni</c><c>   1</c></rc>
    <rc><c>Ni</c><c>   1</c></rc>
    <rc><c>Ni</c><c>   1</c></rc>
    <rc><c>Ni</c><c>   1</c></rc>
    <rc><c>Ni</c><c>   1</c></rc>
    <rc><c>Ni</c><c>   1</c></rc>
    <rc><c>Ni</c><c>   1</c></rc>
    <rc><c>Ni</c><c>   1</c></rc>
    <rc><c>Ni</c><c>   1</c></rc>
    <rc><c>Ni</c><c>   1</c></rc>
    <rc><c>Ni</c><c>   1</c></rc>
    <rc><c>Ni</c><c>   1</c></rc>
    <rc><c>Ni</c><c>   1</c></rc>
    <rc><c>Ni</c><c>   1</c></rc>
    <rc><c>Ni</c><c>   1</c></rc>
    <rc><c>Ni</c><c>   1</c></rc>
    <rc><c>Ni</c><c>   1</c></rc>
    <rc><c>Ni</c><c>   1</c></rc>
    <rc><c>Ni</c><c>   1</c></rc>
    <rc><c>Ni</c><c>   1</c></rc>
    <rc><c>Ni</c><c>   1</c></rc>
    <rc><c>Ni</c><c>   1</c></rc>
    <rc><c>Ni</c><c>   1</c></rc>
    <rc><c>Ni</c><c>   1</c></rc>
    <rc><c>Ni</c><c>   1</c></rc>
    <rc><c>Ni</c><c>   1</c></rc>
    <rc><c>Ni</c><c>   1</c></rc>
    <rc><c>Ni</c><c>   1</c></rc>
    <rc><c>Ni</c><c>   1</c></rc>
    <rc><c>Ni</c><c>   1</c></rc>
    <rc><c>Ni</c><c>   1</c></rc>
    <rc><c>Ni</c><c>   1</c></rc>
    <rc><c>Ni</c><c>   1</c></rc>
    <rc><c>Ni</c><c>   1</c></rc>
    <rc><c>Ni</c><c>   1</c></rc>
    <rc><c>Ni</c><c>   1</c></rc>
    <rc><c>Ni</c><c>   1</c></rc>
    <rc><c>Ni</c><c>   1</c></rc>
    <rc><c>Ni</c><c>   1</c></rc>
    <rc><c>Ni</c><c>   1</c></rc>
    <rc><c>Ni</c><c>   1</c></rc>
    <rc><c>Ni</c><c>   1</c></rc>
    <rc><c>Ni</c><c>   1</c></rc>
    <rc><c>Ni</c><c>   1</c></rc>
    <rc><c>Ni</c><c>   1</c></rc>
    <rc><c>Ni</c><c>   1</c></rc>
    <rc><c>Ni</c><c>   1</c></rc>
    <rc><c>Ni</c><c>   1</c></rc>
    <rc><c>Ni</c><c>   1</c></rc>
    <rc><c>Ni</c><c>   1</c></rc>
    <rc><c>Ni</c><c>   1</c></rc>
    <rc><c>Ni</c><c>   1</c></rc>
    <rc><c>Ni</c><c>   1</c></rc>
    <rc><c>Ni</c><c>   1</c></rc>
    <rc><c>Ni</c><c>   1</c></rc>
    <rc><c>Ni</c><c>   1</c></rc>
    <rc><c>Ni</c><c>   1</c></rc>
    <rc><c>Ni</c><c>   1</c></rc>
    <rc><c>Ni</c><c>   1</c></rc>
    <rc><c>Ni</c><c>   1</c></rc>
    <rc><c>Ni</c><c>   1</c></rc>
    <rc><c>Ni</c><c>   1</c></rc>
    <rc><c>Ni</c><c>   1</c></rc>
    <rc><c>Ni</c><c>   1</c></rc>
    <rc><c>Ni</c><c>   1</c></rc>
    <rc><c>Ni</c><c>   1</c></rc>
    <rc><c>Ni</c><c>   1</c></rc>
    <rc><c>Ni</c><c>   1</c></rc>
    <rc><c>Ni</c><c>   1</c></rc>
    <rc><c>Ni</c><c>   1</c></rc>
    <rc><c>Ni</c><c>   1</c></rc>
    <rc><c>Ni</c><c>   1</c></rc>
    <rc><c>Ni</c><c>   1</c></rc>
    <rc><c>Ni</c><c>   1</c></rc>
    <rc><c>Ni</c><c>   1</c></rc>
    <rc><c>Ni</c><c>   1</c></rc>
    <rc><c>Ni</c><c>   1</c></rc>
    <rc><c>Ni</c><c>   1</c></rc>
    <rc><c>Ni</c><c>   1</c></rc>
    <rc><c>Ni</c><c>   1</c></rc>
    <rc><c>Ni</c><c>   1</c></rc>
    <rc><c>Ni</c><c>   1</c></rc>
    <rc><c>Ni</c><c>   1</c></rc>
    <rc><c>Ni</c><c>   1</c></rc>
    <rc><c>Ni</c><c>   1</c></rc>
    <rc><c>Ni</c><c>   1</c></rc>
    <rc><c>Ni</c><c>   1</c></rc>
    <rc><c>Ni</c><c>   1</c></rc>
    <rc><c>Ni</c><c>   1</c></rc>
    <rc><c>Ni</c><c>   1</c></rc>
    <rc><c>Ni</c><c>   1</c></rc>
    <rc><c>Ni</c><c>   1</c></rc>
    <rc><c>Ni</c><c>   1</c></rc>
    <rc><c>Ni</c><c>   1</c></rc>
    <rc><c>Ni</c><c>   1</c></rc>
    <rc><c>Ni</c><c>   1</c></rc>
    <rc><c>Ni</c><c>   1</c></rc>
    <rc><c>Ni</c><c>   1</c></rc>
    <rc><c>Ni</c><c>   1</c></rc>
    <rc><c>Ni</c><c>   1</c></rc>
    <rc><c>Ni</c><c>   1</c></rc>
    <rc><c>Ni</c><c>   1</c></rc>
    <rc><c>Ni</c><c>   1</c></rc>
    <rc><c>Ni</c><c>   1</c></rc>
    <rc><c>Ni</c><c>   1</c></rc>
    <rc><c>Ni</c><c>   1</c></rc>
    <rc><c>Ni</c><c>   1</c></rc>
    <rc><c>Ni</c><c>   1</c></rc>
    <rc><c>Ni</c><c>   1</c></rc>
    <rc><c>Ni</c><c>   1</c></rc>
    <rc><c>Ni</c><c>   1</c></rc>
    <rc><c>Ni</c><c>   1</c></rc>
    <rc><c>Ni</c><c>   1</c></rc>
    <rc><c>Ni</c><c>   1</c></rc>
    <rc><c>Ni</c><c>   1</c></rc>
    <rc><c>Ni</c><c>   1</c></rc>
    <rc><c>Ni</c><c>   1</c></rc>
    <rc><c>Ni</c><c>   1</c></rc>
    <rc><c>Ni</c><c>   1</c></rc>
    <rc><c>Ni</c><c>   1</c></rc>
    <rc><c>Ni</c><c>   1</c></rc>
    <rc><c>Ni</c><c>   1</c></rc>
    <rc><c>Ni</c><c>   1</c></rc>
    <rc><c>Ni</c><c>   1</c></rc>
    <rc><c>Ni</c><c>   1</c></rc>
    <rc><c>Ni</c><c>   1</c></rc>
    <rc><c>Ni</c><c>   1</c></rc>
    <rc><c>Ni</c><c>   1</c></rc>
    <rc><c>Ni</c><c>   1</c></rc>
    <rc><c>Ni</c><c>   1</c></rc>
    <rc><c>Ni</c><c>   1</c></rc>
    <rc><c>Ni</c><c>   1</c></rc>
    <rc><c>Ni</c><c>   1</c></rc>
    <rc><c>Ni</c><c>   1</c></rc>
    <rc><c>Ni</c><c>   1</c></rc>
    <rc><c>Ni</c><c>   1</c></rc>
    <rc><c>Ni</c><c>   1</c></rc>
    <rc><c>O </c><c>   2</c></rc>
    <rc><c>O </c><c>   2</c></rc>
    <rc><c>O </c><c>   2</c></rc>
    <rc><c>O </c><c>   2</c></rc>
    <rc><c>O </c><c>   2</c></rc>
    <rc><c>O </c><c>   2</c></rc>
    <rc><c>O </c><c>   2</c></rc>
    <rc><c>O </c><c>   2</c></rc>
    <rc><c>O </c><c>   2</c></rc>
    <rc><c>O </c><c>   2</c></rc>
    <rc><c>O </c><c>   2</c></rc>
    <rc><c>O </c><c>   2</c></rc>
    <rc><c>O </c><c>   2</c></rc>
    <rc><c>O </c><c>   2</c></rc>
    <rc><c>O </c><c>   2</c></rc>
    <rc><c>O </c><c>   2</c></rc>
    <rc><c>O </c><c>   2</c></rc>
    <rc><c>O </c><c>   2</c></rc>
    <rc><c>O </c><c>   2</c></rc>
    <rc><c>O </c><c>   2</c></rc>
    <rc><c>O </c><c>   2</c></rc>
    <rc><c>O </c><c>   2</c></rc>
    <rc><c>O </c><c>   2</c></rc>
    <rc><c>O </c><c>   2</c></rc>
    <rc><c>O </c><c>   2</c></rc>
    <rc><c>O </c><c>   2</c></rc>
    <rc><c>O </c><c>   2</c></rc>
    <rc><c>O </c><c>   2</c></rc>
    <rc><c>O </c><c>   2</c></rc>
    <rc><c>O </c><c>   2</c></rc>
    <rc><c>O </c><c>   2</c></rc>
    <rc><c>O </c><c>   2</c></rc>
    <rc><c>O </c><c>   2</c></rc>
    <rc><c>O </c><c>   2</c></rc>
    <rc><c>O </c><c>   2</c></rc>
    <rc><c>O </c><c>   2</c></rc>
    <rc><c>O </c><c>   2</c></rc>
    <rc><c>O </c><c>   2</c></rc>
    <rc><c>O </c><c>   2</c></rc>
    <rc><c>O </c><c>   2</c></rc>
    <rc><c>O </c><c>   2</c></rc>
    <rc><c>O </c><c>   2</c></rc>
    <rc><c>O </c><c>   2</c></rc>
    <rc><c>O </c><c>   2</c></rc>
    <rc><c>O </c><c>   2</c></rc>
    <rc><c>O </c><c>   2</c></rc>
    <rc><c>O </c><c>   2</c></rc>
    <rc><c>O </c><c>   2</c></rc>
    <rc><c>O </c><c>   2</c></rc>
    <rc><c>O </c><c>   2</c></rc>
    <rc><c>O </c><c>   2</c></rc>
    <rc><c>O </c><c>   2</c></rc>
    <rc><c>O </c><c>   2</c></rc>
    <rc><c>O </c><c>   2</c></rc>
    <rc><c>O </c><c>   2</c></rc>
    <rc><c>O </c><c>   2</c></rc>
    <rc><c>O </c><c>   2</c></rc>
    <rc><c>O </c><c>   2</c></rc>
    <rc><c>O </c><c>   2</c></rc>
    <rc><c>O </c><c>   2</c></rc>
    <rc><c>O </c><c>   2</c></rc>
    <rc><c>O </c><c>   2</c></rc>
    <rc><c>O </c><c>   2</c></rc>
    <rc><c>O </c><c>   2</c></rc>
    <rc><c>O </c><c>   2</c></rc>
    <rc><c>O </c><c>   2</c></rc>
    <rc><c>O </c><c>   2</c></rc>
    <rc><c>O </c><c>   2</c></rc>
    <rc><c>O </c><c>   2</c></rc>
    <rc><c>O </c><c>   2</c></rc>
    <rc><c>O </c><c>   2</c></rc>
    <rc><c>O </c><c>   2</c></rc>
    <rc><c>O </c><c>   2</c></rc>
    <rc><c>O </c><c>   2</c></rc>
    <rc><c>O </c><c>   2</c></rc>
    <rc><c>O </c><c>   2</c></rc>
    <rc><c>O </c><c>   2</c></rc>
    <rc><c>O </c><c>   2</c></rc>
    <rc><c>O </c><c>   2</c></rc>
    <rc><c>O </c><c>   2</c></rc>
    <rc><c>O </c><c>   2</c></rc>
    <rc><c>O </c><c>   2</c></rc>
    <rc><c>O </c><c>   2</c></rc>
    <rc><c>O </c><c>   2</c></rc>
    <rc><c>O </c><c>   2</c></rc>
    <rc><c>O </c><c>   2</c></rc>
    <rc><c>O </c><c>   2</c></rc>
    <rc><c>O </c><c>   2</c></rc>
    <rc><c>O </c><c>   2</c></rc>
    <rc><c>O </c><c>   2</c></rc>
    <rc><c>O </c><c>   2</c></rc>
    <rc><c>O </c><c>   2</c></rc>
    <rc><c>O </c><c>   2</c></rc>
    <rc><c>O </c><c>   2</c></rc>
    <rc><c>O </c><c>   2</c></rc>
    <rc><c>O </c><c>   2</c></rc>
    <rc><c>O </c><c>   2</c></rc>
    <rc><c>O </c><c>   2</c></rc>
    <rc><c>O </c><c>   2</c></rc>
    <rc><c>O </c><c>   2</c></rc>
    <rc><c>O </c><c>   2</c></rc>
    <rc><c>O </c><c>   2</c></rc>
    <rc><c>O </c><c>   2</c></rc>
    <rc><c>O </c><c>   2</c></rc>
    <rc><c>O </c><c>   2</c></rc>
    <rc><c>O </c><c>   2</c></rc>
    <rc><c>O </c><c>   2</c></rc>
    <rc><c>O </c><c>   2</c></rc>
    <rc><c>O </c><c>   2</c></rc>
    <rc><c>O </c><c>   2</c></rc>
    <rc><c>O </c><c>   2</c></rc>
    <rc><c>O </c><c>   2</c></rc>
    <rc><c>O </c><c>   2</c></rc>
    <rc><c>O </c><c>   2</c></rc>
    <rc><c>O </c><c>   2</c></rc>
    <rc><c>O </c><c>   2</c></rc>
    <rc><c>O </c><c>   2</c></rc>
    <rc><c>O </c><c>   2</c></rc>
    <rc><c>O </c><c>   2</c></rc>
    <rc><c>O </c><c>   2</c></rc>
    <rc><c>O </c><c>   2</c></rc>
    <rc><c>O </c><c>   2</c></rc>
    <rc><c>O </c><c>   2</c></rc>
    <rc><c>O </c><c>   2</c></rc>
    <rc><c>O </c><c>   2</c></rc>
    <rc><c>O </c><c>   2</c></rc>
    <rc><c>O </c><c>   2</c></rc>
    <rc><c>O </c><c>   2</c></rc>
   </set>
  </array>
  <array name="atomtypes" >
   <dimension dim="1">type</dimension>
   <field type="int">atomspertype</field>
   <field type="string">element</field>
   <field>mass</field>
   <field>valence</field>
   <field type="string">pseudopotential</field>
   <set>
    <rc><c> 252</c><c>Ni</c><c>     58.69000000</c><c>     10.00000000</c><c>  PAW Ni_GW 31Mar2010                   </c></rc>
    <rc><c> 128</c><c>O </c><c>     16.00000000</c><c>      6.00000000</c><c>  PAW O_GW 19Mar2012                    </c></rc>
   </set>
  </array>
 </atominfo>
 <structure name="initialpos" >
  <crystal>
   <varray name="basis" >
    <v>      15.14622176       0.00000000       0.00000000 </v>
    <v>       7.57311088      13.11701281       0.00000000 </v>
    <v>       0.00000000       0.00000000      37.60000000 </v>
   </varray>
   <i name="volume">   7470.11175228 </i>
   <varray name="rec_basis" >
    <v>       0.06602307      -0.03811843       0.00000000 </v>
    <v>       0.00000000       0.07623687       0.00000000 </v>
    <v>       0.00000000       0.00000000       0.02659574 </v>
   </varray>
  </crystal>
  <varray name="positions" >
   <v>       0.44444444       0.44444444       0.06001064 </v>
   <v>       0.44444444       0.77777778       0.06001064 </v>
   <v>       0.44444444       0.11111111       0.06001064 </v>
   <v>       0.77777778       0.44444444       0.06001064 </v>
   <v>       0.77777778       0.77777778       0.06001064 </v>
   <v>       0.77777778       0.11111111       0.06001064 </v>
   <v>       0.11111111       0.44444444       0.06001064 </v>
   <v>       0.11111111       0.77777778       0.06001064 </v>
   <v>       0.11111111       0.11111111       0.06001064 </v>
   <v>       0.55555556       0.55555556       0.12088808 </v>
   <v>       0.55555556       0.88888889       0.12088808 </v>
   <v>       0.55555556       0.22222222       0.12088808 </v>
   <v>       0.88888889       0.55555556       0.12088808 </v>
   <v>       0.88888889       0.88888889       0.12088808 </v>
   <v>       0.88888889       0.22222222       0.12088808 </v>
   <v>       0.22222222       0.55555556       0.12088808 </v>
   <v>       0.22222222       0.88888889       0.12088808 </v>
   <v>       0.22222222       0.22222222       0.12088808 </v>
   <v>       0.66666667       0.66666667       0.17979892 </v>
   <v>       0.66666667       0.00000000       0.17979892 </v>
   <v>       0.66666667       0.33333333       0.17979892 </v>
   <v>       0.00000000       0.66666667       0.17979892 </v>
   <v>       0.00000000       0.00000000       0.17979892 </v>
   <v>       0.00000000       0.33333333       0.17979892 </v>
   <v>       0.33333333       0.66666667       0.17979892 </v>
   <v>       0.33333333       0.00000000       0.17979892 </v>
   <v>       0.33333333       0.33333333       0.17979892 </v>
   <v>       0.77777778       0.77777778       0.24043056 </v>
   <v>       0.77777778       0.11111111       0.24043056 </v>
   <v>       0.77777778       0.44444444       0.24043056 </v>
   <v>       0.11111111       0.77777778       0.24043056 </v>
   <v>       0.11111111       0.11111111       0.24043056 </v>
   <v>       0.11111111       0.44444444       0.24043056 </v>
   <v>       0.44444444       0.77777778       0.24043056 </v>
   <v>       0.44444444       0.11111111       0.24043056 </v>
   <v>       0.44444444       0.44444444       0.24043056 </v>
   <v>       0.88888889       0.88888889       0.30106220 </v>
   <v>       0.88888889       0.22222222       0.30106220 </v>
   <v>       0.88888889       0.55555556       0.30106220 </v>
   <v>       0.22222222       0.88888889       0.30106220 </v>
   <v>       0.22222222       0.22222222       0.30106220 </v>
   <v>       0.22222222       0.55555556       0.30106220 </v>
   <v>       0.55555556       0.88888889       0.30106220 </v>
   <v>       0.55555556       0.22222222       0.30106220 </v>
   <v>       0.55555556       0.55555556       0.30106220 </v>
   <v>       0.00000000       0.00000000       0.35997303 </v>
   <v>       0.00000000       0.33333333       0.35997303 </v>
   <v>       0.00000000       0.66666667       0.35997303 </v>
   <v>       0.33333333       0.00000000       0.35997303 </v>
   <v>       0.33333333       0.33333333       0.35997303 </v>
   <v>       0.33333333       0.66666667       0.35997303 </v>
   <v>       0.66666667       0.00000000       0.35997303 </v>
   <v>       0.66666667       0.33333333       0.35997303 </v>
   <v>       0.66666667       0.66666667       0.35997303 </v>
   <v>       0.11111111       0.11111111       0.42085048 </v>
   <v>       0.11111111       0.44444444       0.42085048 </v>
   <v>       0.11111111       0.77777778       0.42085048 </v>
   <v>       0.44444444       0.11111111       0.42085048 </v>
   <v>       0.44444444       0.44444444       0.42085048 </v>
   <v>       0.44444444       0.77777778       0.42085048 </v>
   <v>       0.77777778       0.11111111       0.42085048 </v>
   <v>       0.77777778       0.44444444       0.42085048 </v>
   <v>       0.77777778       0.77777778       0.42085048 </v>
   <v>       0.27777778       0.27777778       0.06001064 </v>
   <v>       0.27777778       0.61111111       0.06001064 </v>
   <v>       0.27777778       0.94444444       0.06001064 </v>
   <v>       0.61111111       0.27777778       0.06001064 </v>
   <v>       0.61111111       0.61111111       0.06001064 </v>
   <v>       0.61111111       0.94444444       0.06001064 </v>
   <v>       0.94444444       0.27777778       0.06001064 </v>
   <v>       0.94444444       0.61111111       0.06001064 </v>
   <v>       0.94444444       0.94444444       0.06001064 </v>
   <v>       0.38888889       0.38888889       0.12088808 </v>
   <v>       0.38888889       0.72222222       0.12088808 </v>
   <v>       0.38888889       0.05555556       0.12088808 </v>
   <v>       0.72222222       0.38888889       0.12088808 </v>
   <v>       0.72222222       0.72222222       0.12088808 </v>
   <v>       0.72222222       0.05555556       0.12088808 </v>
   <v>       0.05555556       0.38888889       0.12088808 </v>
   <v>       0.05555556       0.72222222       0.12088808 </v>
   <v>       0.05555556       0.05555556       0.12088808 </v>
   <v>       0.50000000       0.50000000       0.17979892 </v>
   <v>       0.50000000       0.83333333       0.17979892 </v>
   <v>       0.50000000       0.16666667       0.17979892 </v>
   <v>       0.83333333       0.50000000       0.17979892 </v>
   <v>       0.83333333       0.83333333       0.17979892 </v>
   <v>       0.83333333       0.16666667       0.17979892 </v>
   <v>       0.16666667       0.50000000       0.17979892 </v>
   <v>       0.16666667       0.83333333       0.17979892 </v>
   <v>       0.16666667       0.16666667       0.17979892 </v>
   <v>       0.61111111       0.61111111       0.24043056 </v>
   <v>       0.61111111       0.94444444       0.24043056 </v>
   <v>       0.61111111       0.27777778       0.24043056 </v>
   <v>       0.94444444       0.61111111       0.24043056 </v>
   <v>       0.94444444       0.94444444       0.24043056 </v>
   <v>       0.94444444       0.27777778       0.24043056 </v>
   <v>       0.27777778       0.61111111       0.24043056 </v>
   <v>       0.27777778       0.94444444       0.24043056 </v>
   <v>       0.27777778       0.27777778       0.24043056 </v>
   <v>       0.72222222       0.72222222       0.30106220 </v>
   <v>       0.72222222       0.05555556       0.30106220 </v>
   <v>       0.72222222       0.38888889       0.30106220 </v>
   <v>       0.05555556       0.72222222       0.30106220 </v>
   <v>       0.05555556       0.05555556       0.30106220 </v>
   <v>       0.05555556       0.38888889       0.30106220 </v>
   <v>       0.38888889       0.72222222       0.30106220 </v>
   <v>       0.38888889       0.05555556       0.30106220 </v>
   <v>       0.38888889       0.38888889       0.30106220 </v>
   <v>       0.83333333       0.83333333       0.35997303 </v>
   <v>       0.83333333       0.16666667       0.35997303 </v>
   <v>       0.83333333       0.50000000       0.35997303 </v>
   <v>       0.16666667       0.83333333       0.35997303 </v>
   <v>       0.16666667       0.16666667       0.35997303 </v>
   <v>       0.16666667       0.50000000       0.35997303 </v>
   <v>       0.50000000       0.83333333       0.35997303 </v>
   <v>       0.50000000       0.16666667       0.35997303 </v>
   <v>       0.50000000       0.50000000       0.35997303 </v>
   <v>       0.94444444       0.94444444       0.42085048 </v>
   <v>       0.94444444       0.27777778       0.42085048 </v>
   <v>       0.94444444       0.61111111       0.42085048 </v>
   <v>       0.27777778       0.94444444       0.42085048 </v>
   <v>       0.27777778       0.27777778       0.42085048 </v>
   <v>       0.27777778       0.61111111       0.42085048 </v>
   <v>       0.61111111       0.94444444       0.42085048 </v>
   <v>       0.61111111       0.27777778       0.42085048 </v>
   <v>       0.61111111       0.61111111       0.42085048 </v>
   <v>       0.27777778       0.44444444       0.06001064 </v>
   <v>       0.27777778       0.77777778       0.06001064 </v>
   <v>       0.27777778       0.11111111       0.06001064 </v>
   <v>       0.61111111       0.44444444       0.06001064 </v>
   <v>       0.61111111       0.77777778       0.06001064 </v>
   <v>       0.61111111       0.11111111       0.06001064 </v>
   <v>       0.94444444       0.44444444       0.06001064 </v>
   <v>       0.94444444       0.77777778       0.06001064 </v>
   <v>       0.94444444       0.11111111       0.06001064 </v>
   <v>       0.38888889       0.55555556       0.12088808 </v>
   <v>       0.38888889       0.88888889       0.12088808 </v>
   <v>       0.38888889       0.22222222       0.12088808 </v>
   <v>       0.72222222       0.55555556       0.12088808 </v>
   <v>       0.72222222       0.88888889       0.12088808 </v>
   <v>       0.72222222       0.22222222       0.12088808 </v>
   <v>       0.05555556       0.55555556       0.12088808 </v>
   <v>       0.05555556       0.88888889       0.12088808 </v>
   <v>       0.05555556       0.22222222       0.12088808 </v>
   <v>       0.50000000       0.66666667       0.17979892 </v>
   <v>       0.50000000       0.00000000       0.17979892 </v>
   <v>       0.50000000       0.33333333       0.17979892 </v>
   <v>       0.83333333       0.66666667       0.17979892 </v>
   <v>       0.83333333       0.00000000       0.17979892 </v>
   <v>       0.83333333       0.33333333       0.17979892 </v>
   <v>       0.16666667       0.66666667       0.17979892 </v>
   <v>       0.16666667       0.00000000       0.17979892 </v>
   <v>       0.16666667       0.33333333       0.17979892 </v>
   <v>       0.61111111       0.77777778       0.24043056 </v>
   <v>       0.61111111       0.11111111       0.24043056 </v>
   <v>       0.61111111       0.44444444       0.24043056 </v>
   <v>       0.94444444       0.77777778       0.24043056 </v>
   <v>       0.94444444       0.11111111       0.24043056 </v>
   <v>       0.94444444       0.44444444       0.24043056 </v>
   <v>       0.27777778       0.77777778       0.24043056 </v>
   <v>       0.27777778       0.11111111       0.24043056 </v>
   <v>       0.27777778       0.44444444       0.24043056 </v>
   <v>       0.72222222       0.88888889       0.30106220 </v>
   <v>       0.72222222       0.22222222       0.30106220 </v>
   <v>       0.72222222       0.55555556       0.30106220 </v>
   <v>       0.05555556       0.88888889       0.30106220 </v>
   <v>       0.05555556       0.22222222       0.30106220 </v>
   <v>       0.05555556       0.55555556       0.30106220 </v>
   <v>       0.38888889       0.88888889       0.30106220 </v>
   <v>       0.38888889       0.22222222       0.30106220 </v>
   <v>       0.38888889       0.55555556       0.30106220 </v>
   <v>       0.83333333       0.00000000       0.35997303 </v>
   <v>       0.83333333       0.33333333       0.35997303 </v>
   <v>       0.83333333       0.66666667       0.35997303 </v>
   <v>       0.16666667       0.00000000       0.35997303 </v>
   <v>       0.16666667       0.33333333       0.35997303 </v>
   <v>       0.16666667       0.66666667       0.35997303 </v>
   <v>       0.50000000       0.00000000       0.35997303 </v>
   <v>       0.50000000       0.33333333       0.35997303 </v>
   <v>       0.50000000       0.66666667       0.35997303 </v>
   <v>       0.94444444       0.11111111       0.42085048 </v>
   <v>       0.94444444       0.44444444       0.42085048 </v>
   <v>       0.94444444       0.77777778       0.42085048 </v>
   <v>       0.27777778       0.11111111       0.42085048 </v>
   <v>       0.27777778       0.44444444       0.42085048 </v>
   <v>       0.27777778       0.77777778       0.42085048 </v>
   <v>       0.61111111       0.11111111       0.42085048 </v>
   <v>       0.61111111       0.44444444       0.42085048 </v>
   <v>       0.61111111       0.77777778       0.42085048 </v>
   <v>       0.44444444       0.27777778       0.06001064 </v>
   <v>       0.44444444       0.61111111       0.06001064 </v>
   <v>       0.44444444       0.94444444       0.06001064 </v>
   <v>       0.77777778       0.27777778       0.06001064 </v>
   <v>       0.77777778       0.61111111       0.06001064 </v>
   <v>       0.77777778       0.94444444       0.06001064 </v>
   <v>       0.11111111       0.27777778       0.06001064 </v>
   <v>       0.11111111       0.61111111       0.06001064 </v>
   <v>       0.11111111       0.94444444       0.06001064 </v>
   <v>       0.55555556       0.38888889       0.12088808 </v>
   <v>       0.55555556       0.72222222       0.12088808 </v>
   <v>       0.55555556       0.05555556       0.12088808 </v>
   <v>       0.88888889       0.38888889       0.12088808 </v>
   <v>       0.88888889       0.72222222       0.12088808 </v>
   <v>       0.88888889       0.05555556       0.12088808 </v>
   <v>       0.22222222       0.38888889       0.12088808 </v>
   <v>       0.22222222       0.72222222       0.12088808 </v>
   <v>       0.22222222       0.05555556       0.12088808 </v>
   <v>       0.66666667       0.50000000       0.17979892 </v>
   <v>       0.66666667       0.83333333       0.17979892 </v>
   <v>       0.66666667       0.16666667       0.17979892 </v>
   <v>       0.00000000       0.50000000       0.17979892 </v>
   <v>       0.00000000       0.83333333       0.17979892 </v>
   <v>       0.00000000       0.16666667       0.17979892 </v>
   <v>       0.33333333       0.50000000       0.17979892 </v>
   <v>       0.33333333       0.83333333       0.17979892 </v>
   <v>       0.33333333       0.16666667       0.17979892 </v>
   <v>       0.77777778       0.61111111       0.24043056 </v>
   <v>       0.77777778       0.94444444       0.24043056 </v>
   <v>       0.77777778       0.27777778       0.24043056 </v>
   <v>       0.11111111       0.61111111       0.24043056 </v>
   <v>       0.11111111       0.94444444       0.24043056 </v>
   <v>       0.11111111       0.27777778       0.24043056 </v>
   <v>       0.44444444       0.61111111       0.24043056 </v>
   <v>       0.44444444       0.94444444       0.24043056 </v>
   <v>       0.44444444       0.27777778       0.24043056 </v>
   <v>       0.88888889       0.72222222       0.30106220 </v>
   <v>       0.88888889       0.05555556       0.30106220 </v>
   <v>       0.88888889       0.38888889       0.30106220 </v>
   <v>       0.22222222       0.72222222       0.30106220 </v>
   <v>       0.22222222       0.05555556       0.30106220 </v>
   <v>       0.22222222       0.38888889       0.30106220 </v>
   <v>       0.55555556       0.72222222       0.30106220 </v>
   <v>       0.55555556       0.05555556       0.30106220 </v>
   <v>       0.55555556       0.38888889       0.30106220 </v>
   <v>       0.00000000       0.83333333       0.35997303 </v>
   <v>       0.00000000       0.16666667       0.35997303 </v>
   <v>       0.00000000       0.50000000       0.35997303 </v>
   <v>       0.33333333       0.83333333       0.35997303 </v>
   <v>       0.33333333       0.16666667       0.35997303 </v>
   <v>       0.33333333       0.50000000       0.35997303 </v>
   <v>       0.66666667       0.83333333       0.35997303 </v>
   <v>       0.66666667       0.16666667       0.35997303 </v>
   <v>       0.66666667       0.50000000       0.35997303 </v>
   <v>       0.11111111       0.94444444       0.42085048 </v>
   <v>       0.11111111       0.27777778       0.42085048 </v>
   <v>       0.11111111       0.61111111       0.42085048 </v>
   <v>       0.44444444       0.94444444       0.42085048 </v>
   <v>       0.44444444       0.27777778       0.42085048 </v>
   <v>       0.44444444       0.61111111       0.42085048 </v>
   <v>       0.77777778       0.94444444       0.42085048 </v>
   <v>       0.77777778       0.27777778       0.42085048 </v>
   <v>       0.77777778       0.61111111       0.42085048 </v>
   <v>       0.00000000       0.00000000       0.45808452 </v>
   <v>       0.00000000       0.00000000       0.48999941 </v>
   <v>       0.00000000       0.12500000       0.45808452 </v>
   <v>       0.00000000       0.12500000       0.48999941 </v>
   <v>       0.00000000       0.25000000       0.45808452 </v>
   <v>       0.00000000       0.25000000       0.48999941 </v>
   <v>       0.00000000       0.37500000       0.45808452 </v>
   <v>       0.00000000       0.37500000       0.48999941 </v>
   <v>       0.00000000       0.50000000       0.45808452 </v>
   <v>       0.00000000       0.50000000       0.48999941 </v>
   <v>       0.00000000       0.62500000       0.45808452 </v>
   <v>       0.00000000       0.62500000       0.48999941 </v>
   <v>       0.00000000       0.75000000       0.45808452 </v>
   <v>       0.00000000       0.75000000       0.48999941 </v>
   <v>       0.00000000       0.87500000       0.45808452 </v>
   <v>       0.00000000       0.87500000       0.48999941 </v>
   <v>       0.12500000       0.00000000       0.45808452 </v>
   <v>       0.12500000       0.00000000       0.48999941 </v>
   <v>       0.12500000       0.12500000       0.45808452 </v>
   <v>       0.12500000       0.12500000       0.48999941 </v>
   <v>       0.12500000       0.25000000       0.45808452 </v>
   <v>       0.12500000       0.25000000       0.48999941 </v>
   <v>       0.12500000       0.37500000       0.45808452 </v>
   <v>       0.12500000       0.37500000       0.48999941 </v>
   <v>       0.12500000       0.50000000       0.45808452 </v>
   <v>       0.12500000       0.50000000       0.48999941 </v>
   <v>       0.12500000       0.62500000       0.45808452 </v>
   <v>       0.12500000       0.62500000       0.48999941 </v>
   <v>       0.12500000       0.75000000       0.45808452 </v>
   <v>       0.12500000       0.75000000       0.48999941 </v>
   <v>       0.12500000       0.87500000       0.45808452 </v>
   <v>       0.12500000       0.87500000       0.48999941 </v>
   <v>       0.25000000       0.00000000       0.45808452 </v>
   <v>       0.25000000       0.00000000       0.48999941 </v>
   <v>       0.25000000       0.12500000       0.45808452 </v>
   <v>       0.25000000       0.12500000       0.48999941 </v>
   <v>       0.25000000       0.25000000       0.45808452 </v>
   <v>       0.25000000       0.25000000       0.48999941 </v>
   <v>       0.25000000       0.37500000       0.45808452 </v>
   <v>       0.25000000       0.37500000       0.48999941 </v>
   <v>       0.25000000       0.50000000       0.45808452 </v>
   <v>       0.25000000       0.50000000       0.48999941 </v>
   <v>       0.25000000       0.62500000       0.45808452 </v>
   <v>       0.25000000       0.62500000       0.48999941 </v>
   <v>       0.25000000       0.75000000       0.45808452 </v>
   <v>       0.25000000       0.75000000       0.48999941 </v>
   <v>       0.25000000       0.87500000       0.45808452 </v>
   <v>       0.25000000       0.87500000       0.48999941 </v>
   <v>       0.37500000       0.00000000       0.45808452 </v>
   <v>       0.37500000       0.00000000       0.48999941 </v>
   <v>       0.37500000       0.12500000       0.45808452 </v>
   <v>       0.37500000       0.12500000       0.48999941 </v>
   <v>       0.37500000       0.25000000       0.45808452 </v>
   <v>       0.37500000       0.25000000       0.48999941 </v>
   <v>       0.37500000       0.37500000       0.45808452 </v>
   <v>       0.37500000       0.37500000       0.48999941 </v>
   <v>       0.37500000       0.50000000       0.45808452 </v>
   <v>       0.37500000       0.50000000       0.48999941 </v>
   <v>       0.37500000       0.62500000       0.45808452 </v>
   <v>       0.37500000       0.62500000       0.48999941 </v>
   <v>       0.37500000       0.75000000       0.45808452 </v>
   <v>       0.37500000       0.75000000       0.48999941 </v>
   <v>       0.37500000       0.87500000       0.45808452 </v>
   <v>       0.37500000       0.87500000       0.48999941 </v>
   <v>       0.50000000       0.00000000       0.45808452 </v>
   <v>       0.50000000       0.00000000       0.48999941 </v>
   <v>       0.50000000       0.12500000       0.45808452 </v>
   <v>       0.50000000       0.12500000       0.48999941 </v>
   <v>       0.50000000       0.25000000       0.45808452 </v>
   <v>       0.50000000       0.25000000       0.48999941 </v>
   <v>       0.50000000       0.37500000       0.45808452 </v>
   <v>       0.50000000       0.37500000       0.48999941 </v>
   <v>       0.50000000       0.50000000       0.45808452 </v>
   <v>       0.50000000       0.50000000       0.48999941 </v>
   <v>       0.50000000       0.62500000       0.45808452 </v>
   <v>       0.50000000       0.62500000       0.48999941 </v>
   <v>       0.50000000       0.75000000       0.45808452 </v>
   <v>       0.50000000       0.75000000       0.48999941 </v>
   <v>       0.50000000       0.87500000       0.45808452 </v>
   <v>       0.50000000       0.87500000       0.48999941 </v>
   <v>       0.62500000       0.00000000       0.45808452 </v>
   <v>       0.62500000       0.00000000       0.48999941 </v>
   <v>       0.62500000       0.12500000       0.45808452 </v>
   <v>       0.62500000       0.12500000       0.48999941 </v>
   <v>       0.62500000       0.25000000       0.45808452 </v>
   <v>       0.62500000       0.25000000       0.48999941 </v>
   <v>       0.62500000       0.37500000       0.45808452 </v>
   <v>       0.62500000       0.37500000       0.48999941 </v>
   <v>       0.62500000       0.50000000       0.45808452 </v>
   <v>       0.62500000       0.50000000       0.48999941 </v>
   <v>       0.62500000       0.62500000       0.45808452 </v>
   <v>       0.62500000       0.62500000       0.48999941 </v>
   <v>       0.62500000       0.75000000       0.45808452 </v>
   <v>       0.62500000       0.75000000       0.48999941 </v>
   <v>       0.62500000       0.87500000       0.45808452 </v>
   <v>       0.62500000       0.87500000       0.48999941 </v>
   <v>       0.75000000       0.00000000       0.45808452 </v>
   <v>       0.75000000       0.00000000       0.48999941 </v>
   <v>       0.75000000       0.12500000       0.45808452 </v>
   <v>       0.75000000       0.12500000       0.48999941 </v>
   <v>       0.75000000       0.25000000       0.45808452 </v>
   <v>       0.75000000       0.25000000       0.48999941 </v>
   <v>       0.75000000       0.37500000       0.45808452 </v>
   <v>       0.75000000       0.37500000       0.48999941 </v>
   <v>       0.75000000       0.50000000       0.45808452 </v>
   <v>       0.75000000       0.50000000       0.48999941 </v>
   <v>       0.75000000       0.62500000       0.45808452 </v>
   <v>       0.75000000       0.62500000       0.48999941 </v>
   <v>       0.75000000       0.75000000       0.45808452 </v>
   <v>       0.75000000       0.75000000       0.48999941 </v>
   <v>       0.75000000       0.87500000       0.45808452 </v>
   <v>       0.75000000       0.87500000       0.48999941 </v>
   <v>       0.87500000       0.00000000       0.45808452 </v>
   <v>       0.87500000       0.00000000       0.48999941 </v>
   <v>       0.87500000       0.12500000       0.45808452 </v>
   <v>       0.87500000       0.12500000       0.48999941 </v>
   <v>       0.87500000       0.25000000       0.45808452 </v>
   <v>       0.87500000       0.25000000       0.48999941 </v>
   <v>       0.87500000       0.37500000       0.45808452 </v>
   <v>       0.87500000       0.37500000       0.48999941 </v>
   <v>       0.87500000       0.50000000       0.45808452 </v>
   <v>       0.87500000       0.50000000       0.48999941 </v>
   <v>       0.87500000       0.62500000       0.45808452 </v>
   <v>       0.87500000       0.62500000       0.48999941 </v>
   <v>       0.87500000       0.75000000       0.45808452 </v>
   <v>       0.87500000       0.75000000       0.48999941 </v>
   <v>       0.87500000       0.87500000       0.45808452 </v>
   <v>       0.87500000       0.87500000       0.48999941 </v>
  </varray>
 </structure>
 <calculation>
  <scstep>
   <time name="dav">   31.39   31.40</time>
   <time name="total">   32.16   32.22</time>
   <energy>
    <i name="alphaZ">  12639.88831335 </i>
    <i name="ewald">3630337.48283520 </i>
    <i name="hartreedc">**************** </i>
    <i name="XCdc">   6378.14795952 </i>
    <i name="pawpsdc"> 284638.64213785 </i>
    <i name="pawaedc">-304097.01822600 </i>
    <i name="eentropy">     -0.16190027 </i>
    <i name="bandstr">  22791.85360182 </i>
    <i name="atom"> 326854.24091515 </i>
    <i name="e_fr_energy">  34495.82051734 </i>
    <i name="e_wo_entrp">  34495.98241761 </i>
    <i name="e_0_energy">  34495.90146747 </i>
   </energy>
  </scstep>
  <scstep>
   <time name="dav">   32.21   32.22</time>
   <time name="total">   32.22   32.22</time>
   <energy>
    <i name="e_fr_energy">   3480.19143085 </i>
    <i name="e_wo_entrp">   3480.32413302 </i>
    <i name="e_0_energy">   3480.25778193 </i>
   </energy>
  </scstep>
  <scstep>
   <time name="dav">   40.39   40.40</time>
   <time name="total">   40.40   40.40</time>
   <energy>
    <i name="e_fr_energy">   -808.92084215 </i>
    <i name="e_wo_entrp">   -808.47966615 </i>
    <i name="e_0_energy">   -808.70025415 </i>
   </energy>
  </scstep>
  <scstep>
   <time name="dav">   51.97   51.98</time>
   <time name="total">   51.98   51.98</time>
   <energy>
    <i name="e_fr_energy">  -1616.61894136 </i>
    <i name="e_wo_entrp">  -1615.56319711 </i>
    <i name="e_0_energy">  -1616.09106923 </i>
   </energy>
  </scstep>
  <scstep>
   <time name="dav">   52.12   52.13</time>
   <time name="total">   53.72   53.73</time>
   <energy>
    <i name="e_fr_energy">  -1734.80633307 </i>
    <i name="e_wo_entrp">  -1733.68782915 </i>
    <i name="e_0_energy">  -1734.24708111 </i>
   </energy>
  </scstep>
  <scstep>
   <time name="dav">   38.94   38.94</time>
   <time name="total">   41.26   41.26</time>
   <energy>
    <i name="e_fr_energy">  -2162.24058076 </i>
    <i name="e_wo_entrp">  -2161.72680650 </i>
    <i name="e_0_energy">  -2161.98369363 </i>
   </energy>
  </scstep>
  <scstep>
   <time name="dav">   43.17   43.17</time>
   <time name="total">   45.49   45.50</time>
   <energy>
    <i name="e_fr_energy"> -11052.39639527 </i>
    <i name="e_wo_entrp"> -11052.19116144 </i>
    <i name="e_0_energy"> -11052.29377836 </i>
   </energy>
  </scstep>
  <scstep>
   <time name="dav">   43.02   43.03</time>
   <time name="total">   45.35   45.35</time>
   <energy>
    <i name="e_fr_energy">  -4331.59853404 </i>
    <i name="e_wo_entrp">  -4331.34371857 </i>
    <i name="e_0_energy">  -4331.47112631 </i>
   </energy>
  </scstep>
  <scstep>
   <time name="dav">   48.67   48.68</time>
   <time name="total">   51.00   51.00</time>
   <energy>
    <i name="e_fr_energy">  -8145.74508981 </i>
    <i name="e_wo_entrp">  -8145.64299572 </i>
    <i name="e_0_energy">  -8145.69404276 </i>
   </energy>
  </scstep>
  <scstep>
   <time name="dav">   44.80   44.80</time>
   <time name="total">   47.15   47.15</time>
   <energy>
    <i name="e_fr_energy">  -8224.04506546 </i>
    <i name="e_wo_entrp">  -8223.86569588 </i>
    <i name="e_0_energy">  -8223.95538067 </i>
   </energy>
  </scstep>
  <scstep>
   <time name="dav">   53.11   53.11</time>
   <time name="total">   55.45   55.45</time>
   <energy>
    <i name="e_fr_energy"> -12277.13904835 </i>
    <i name="e_wo_entrp"> -12277.01443937 </i>
    <i name="e_0_energy"> -12277.07674386 </i>
   </energy>
  </scstep>
  <scstep>
   <time name="dav">   45.90   45.91</time>
   <time name="total">   48.26   48.27</time>
   <energy>
    <i name="e_fr_energy"> -14344.12272476 </i>
    <i name="e_wo_entrp"> -14343.95953612 </i>
    <i name="e_0_energy"> -14344.04113044 </i>
   </energy>
  </scstep>
  <scstep>
   <time name="dav">   43.58   43.59</time>
   <time name="total">   45.94   45.95</time>
   <energy>
    <i name="e_fr_energy">  -2412.40584490 </i>
    <i name="e_wo_entrp">  -2412.30939271 </i>
    <i name="e_0_energy">  -2412.35761880 </i>
   </energy>
  </scstep>
  <scstep>
   <time name="dav">   39.63   39.63</time>
   <time name="total">   42.00   42.00</time>
   <energy>
    <i name="e_fr_energy">  -5504.40286419 </i>
    <i name="e_wo_entrp">  -5504.29878982 </i>
    <i name="e_0_energy">  -5504.35082700 </i>
   </energy>
  </scstep>
  <scstep>
   <time name="dav">   36.42   36.42</time>
   <time name="total">   38.80   38.80</time>
   <energy>
    <i name="e_fr_energy">  -2673.89487374 </i>
    <i name="e_wo_entrp">  -2673.70056866 </i>
    <i name="e_0_energy">  -2673.79772120 </i>
   </energy>
  </scstep>
  <scstep>
   <time name="dav">   48.83   48.83</time>
   <time name="total">   51.25   51.26</time>
   <energy>
    <i name="e_fr_energy">  -2532.00690583 </i>
    <i name="e_wo_entrp">  -2531.70259902 </i>
    <i name="e_0_energy">  -2531.85475242 </i>
   </energy>
  </scstep>
  <scstep>
   <time name="dav">   38.72   38.72</time>
   <time name="total">   41.14   41.15</time>
   <energy>
    <i name="e_fr_energy">  -2284.21855091 </i>
    <i name="e_wo_entrp">  -2283.86195350 </i>
    <i name="e_0_energy">  -2284.04025220 </i>
   </energy>
  </scstep>
  <scstep>
   <time name="dav">   36.60   36.60</time>
   <time name="total">   39.06   39.06</time>
   <energy>
    <i name="e_fr_energy">  -2066.54895330 </i>
    <i name="e_wo_entrp">  -2066.08913604 </i>
    <i name="e_0_energy">  -2066.31904467 </i>
   </energy>
  </scstep>
  <scstep>
   <time name="dav">   40.21   40.21</time>
   <time name="total">   42.67   42.68</time>
   <energy>
    <i name="e_fr_energy">  -2139.80704094 </i>
    <i name="e_wo_entrp">  -2139.13388322 </i>
    <i name="e_0_energy">  -2139.47046208 </i>
   </energy>
  </scstep>
  <scstep>
   <time name="dav">   37.21   37.22</time>
   <time name="total">   39.68   39.69</time>
   <energy>
    <i name="e_fr_energy">  -1922.78931208 </i>
    <i name="e_wo_entrp">  -1922.42080181 </i>
    <i name="e_0_energy">  -1922.60505694 </i>
   </energy>
  </scstep>
  <scstep>
   <time name="dav">   36.70   36.71</time>
   <time name="total">   39.18   39.19</time>
   <energy>
    <i name="e_fr_energy">  -2016.59155115 </i>
    <i name="e_wo_entrp">  -2016.05261909 </i>
    <i name="e_0_energy">  -2016.32208512 </i>
   </energy>
  </scstep>
  <scstep>
   <time name="dav">   40.44   40.44</time>
   <time name="total">   42.94   42.95</time>
   <energy>
    <i name="e_fr_energy">  -1920.93297261 </i>
    <i name="e_wo_entrp">  -1920.14148728 </i>
    <i name="e_0_energy">  -1920.53722995 </i>
   </energy>
  </scstep>
  <scstep>
   <time name="dav">   36.47   36.47</time>
   <time name="total">   38.97   38.97</time>
   <energy>
    <i name="e_fr_energy">  -2021.17456440 </i>
    <i name="e_wo_entrp">  -2020.51997760 </i>
    <i name="e_0_energy">  -2020.84727100 </i>
   </energy>
  </scstep>
  <scstep>
   <time name="dav">   35.88   35.88</time>
   <time name="total">   38.39   38.39</time>
   <energy>
    <i name="e_fr_energy">  -1752.52001194 </i>
    <i name="e_wo_entrp">  -1752.13085098 </i>
    <i name="e_0_energy">  -1752.32543146 </i>
   </energy>
  </scstep>
  <scstep>
   <time name="dav">   36.30   36.31</time>
   <time name="total">   38.83   38.84</time>
   <energy>
    <i name="e_fr_energy">  -1755.01717344 </i>
    <i name="e_wo_entrp">  -1754.71149146 </i>
    <i name="e_0_energy">  -1754.86433245 </i>
   </energy>
  </scstep>
  <scstep>
   <time name="dav">   39.07   39.08</time>
   <time name="total">   41.62   41.63</time>
   <energy>
    <i name="e_fr_energy">  -1682.62879805 </i>
    <i name="e_wo_entrp">  -1682.00278595 </i>
    <i name="e_0_energy">  -1682.31579200 </i>
   </energy>
  </scstep>
  <scstep>
   <time name="dav">   34.05   34.06</time>
   <time name="total">   36.63   36.63</time>
   <energy>
    <i name="e_fr_energy">  -1626.36517578 </i>
    <i name="e_wo_entrp">  -1625.78780241 </i>
    <i name="e_0_energy">  -1626.07648909 </i>
   </energy>
  </scstep>
  <scstep>
   <time name="dav">   34.22   34.23</time>
   <time name="total">   36.83   36.83</time>
   <energy>
    <i name="e_fr_energy">  -1615.45362062 </i>
    <i name="e_wo_entrp">  -1614.88164063 </i>
    <i name="e_0_energy">  -1615.16763062 </i>
   </energy>
  </scstep>
  <scstep>
   <time name="dav">   36.15   36.15</time>
   <time name="total">   38.76   38.77</time>
   <energy>
    <i name="e_fr_energy">  -1602.59783339 </i>
    <i name="e_wo_entrp">  -1601.88518126 </i>
    <i name="e_0_energy">  -1602.24150733 </i>
   </energy>
  </scstep>
  <scstep>
   <time name="dav">   37.84   37.85</time>
   <time name="total">   40.49   40.50</time>
   <energy>
    <i name="e_fr_energy">  -1616.12830634 </i>
    <i name="e_wo_entrp">  -1615.38243364 </i>
    <i name="e_0_energy">  -1615.75536999 </i>
   </energy>
  </scstep>
  <scstep>
   <time name="dav">   36.47   36.48</time>
   <time name="total">   39.11   39.12</time>
   <energy>
    <i name="e_fr_energy">  -1612.01082454 </i>
    <i name="e_wo_entrp">  -1611.38496020 </i>
    <i name="e_0_energy">  -1611.69789237 </i>
   </energy>
  </scstep>
  <scstep>
   <time name="dav">   34.92   34.92</time>
   <time name="total">   37.61   37.61</time>
   <energy>
    <i name="e_fr_energy">  -1558.82628552 </i>
    <i name="e_wo_entrp">  -1558.11287892 </i>
    <i name="e_0_energy">  -1558.46958222 </i>
   </energy>
  </scstep>
  <scstep>
   <time name="dav">   37.98   37.99</time>
   <time name="total">   40.68   40.69</time>
   <energy>
    <i name="e_fr_energy">  -1542.09138644 </i>
    <i name="e_wo_entrp">  -1541.25649019 </i>
    <i name="e_0_energy">  -1541.67393832 </i>
   </energy>
  </scstep>
  <scstep>
   <time name="dav">   46.03   46.03</time>
   <time name="total">   48.75   48.75</time>
   <energy>
    <i name="e_fr_energy">  -1541.81648499 </i>
    <i name="e_wo_entrp">  -1540.92234388 </i>
    <i name="e_0_energy">  -1541.36941443 </i>
   </energy>
  </scstep>
  <scstep>
   <time name="dav">   44.92   44.92</time>
   <time name="total">   47.66   47.67</time>
   <energy>
    <i name="e_fr_energy">  -1531.34481121 </i>
    <i name="e_wo_entrp">  -1530.19194783 </i>
    <i name="e_0_energy">  -1530.76837952 </i>
   </energy>
  </scstep>
  <scstep>
   <time name="dav">   41.47   41.48</time>
   <time name="total">   44.24   44.24</time>
   <energy>
    <i name="e_fr_energy">  -1546.19598575 </i>
    <i name="e_wo_entrp">  -1545.57750005 </i>
    <i name="e_0_energy">  -1545.88674290 </i>
   </energy>
  </scstep>
  <scstep>
   <time name="dav">   45.96   45.96</time>
   <time name="total">   48.74   48.75</time>
   <energy>
    <i name="e_fr_energy">  -1550.74154110 </i>
[...]
   <v>       0.27769244       0.61115378       0.06760913 </v>
   <v>       0.27782011       0.94435977       0.06765606 </v>
   <v>       0.61115378       0.27769244       0.06760913 </v>
   <v>       0.61115378       0.61115378       0.06760913 </v>
   <v>       0.61118742       0.94440629       0.06762303 </v>
   <v>       0.94435977       0.27782011       0.06765606 </v>
   <v>       0.94440629       0.61118742       0.06762303 </v>
   <v>       0.94440629       0.94440629       0.06762303 </v>
   <v>       0.38893946       0.38893946       0.12209250 </v>
   <v>       0.38893946       0.72212109       0.12209250 </v>
   <v>       0.38884952       0.05557524       0.12201274 </v>
   <v>       0.72212109       0.38893946       0.12209250 </v>
   <v>       0.72215468       0.72215468       0.12194789 </v>
   <v>       0.72215468       0.05569064       0.12194789 </v>
   <v>       0.05557524       0.38884952       0.12201274 </v>
   <v>       0.05569064       0.72215468       0.12194789 </v>
   <v>       0.05557524       0.05557524       0.12201274 </v>
   <v>       0.50000000       0.50000000       0.18060925 </v>
   <v>       0.50004014       0.83315790       0.18053624 </v>
   <v>       0.50004014       0.16680196       0.18053624 </v>
   <v>       0.83315790       0.50004014       0.18053624 </v>
   <v>       0.83333333       0.83333333       0.18051755 </v>
   <v>       0.83315790       0.16680196       0.18053624 </v>
   <v>       0.16680196       0.50004014       0.18053624 </v>
   <v>       0.16680196       0.83315790       0.18053624 </v>
   <v>       0.16666667       0.16666667       0.18042417 </v>
   <v>       0.61115109       0.61115109       0.24001136 </v>
   <v>       0.61119092       0.94440454       0.24024209 </v>
   <v>       0.61115109       0.27769781       0.24001136 </v>
   <v>       0.94440454       0.61119092       0.24024209 </v>
   <v>       0.94440454       0.94440454       0.24024209 </v>
   <v>       0.94450988       0.27774506       0.23987919 </v>
   <v>       0.27769781       0.61115109       0.24001136 </v>
   <v>       0.27774506       0.94450988       0.23987919 </v>
   <v>       0.27774506       0.27774506       0.23987919 </v>
   <v>       0.72262333       0.72262333       0.29668740 </v>
   <v>       0.72262333       0.05475333       0.29668740 </v>
   <v>       0.72334067       0.38832966       0.29591208 </v>
   <v>       0.05475333       0.72262333       0.29668740 </v>
   <v>       0.05544600       0.05544600       0.29768906 </v>
   <v>       0.05544600       0.38910801       0.29768906 </v>
   <v>       0.38832966       0.72334067       0.29591208 </v>
   <v>       0.38910801       0.05544600       0.29768906 </v>
   <v>       0.38832966       0.38832966       0.29591208 </v>
   <v>       0.83333333       0.83333333       0.34846525 </v>
   <v>       0.83385050       0.16733538       0.34879126 </v>
   <v>       0.83385050       0.49881412       0.34879126 </v>
   <v>       0.16733538       0.83385050       0.34879126 </v>
   <v>       0.16666667       0.16666667       0.34702396 </v>
   <v>       0.16733538       0.49881412       0.34879126 </v>
   <v>       0.49881412       0.83385050       0.34879126 </v>
   <v>       0.49881412       0.16733538       0.34879126 </v>
   <v>       0.50000000       0.50000000       0.35056958 </v>
   <v>       0.94369949       0.94369949       0.40146931 </v>
   <v>       0.94480064       0.27759968       0.40101983 </v>
   <v>       0.94369949       0.61260103       0.40146931 </v>
   <v>       0.27759968       0.94480064       0.40101983 </v>
   <v>       0.27759968       0.27759968       0.40101983 </v>
   <v>       0.28488752       0.60755624       0.39709118 </v>
   <v>       0.61260103       0.94369949       0.40146931 </v>
   <v>       0.60755624       0.28488752       0.39709118 </v>
   <v>       0.60755624       0.60755624       0.39709118 </v>
   <v>       0.27782011       0.44435977       0.06765606 </v>
   <v>       0.27782011       0.77782011       0.06765606 </v>
   <v>       0.27769244       0.11115378       0.06760913 </v>
   <v>       0.61118742       0.44440629       0.06762303 </v>
   <v>       0.61115378       0.77769244       0.06760913 </v>
   <v>       0.61115378       0.11115378       0.06760913 </v>
   <v>       0.94440629       0.44440629       0.06762303 </v>
   <v>       0.94435977       0.77782011       0.06765606 </v>
   <v>       0.94440629       0.11118742       0.06762303 </v>
   <v>       0.38884952       0.55557524       0.12201274 </v>
   <v>       0.38893946       0.88893946       0.12209250 </v>
   <v>       0.38893946       0.22212109       0.12209250 </v>
   <v>       0.72215468       0.55569064       0.12194789 </v>
   <v>       0.72212109       0.88893946       0.12209250 </v>
   <v>       0.72215468       0.22215468       0.12194789 </v>
   <v>       0.05557524       0.55557524       0.12201274 </v>
   <v>       0.05557524       0.88884952       0.12201274 </v>
   <v>       0.05569064       0.22215468       0.12194789 </v>
   <v>       0.50004014       0.66680196       0.18053624 </v>
   <v>       0.50000000      -0.00000000       0.18060925 </v>
   <v>       0.50004014       0.33315790       0.18053624 </v>
   <v>       0.83315790       0.66680196       0.18053624 </v>
   <v>       0.83315790       0.00004014       0.18053624 </v>
   <v>       0.83333333       0.33333333       0.18051755 </v>
   <v>       0.16666667       0.66666667       0.18042417 </v>
   <v>       0.16680196       0.00004014       0.18053624 </v>
   <v>       0.16680196       0.33315790       0.18053624 </v>
   <v>       0.61115109       0.77769781       0.24001136 </v>
   <v>       0.61115109       0.11115109       0.24001136 </v>
   <v>       0.61119092       0.44440454       0.24024209 </v>
   <v>       0.94450988       0.77774506       0.23987919 </v>
   <v>       0.94440454       0.11119092       0.24024209 </v>
   <v>       0.94440454       0.44440454       0.24024209 </v>
   <v>       0.27774506       0.77774506       0.23987919 </v>
   <v>       0.27769781       0.11115109       0.24001136 </v>
   <v>       0.27774506       0.44450988       0.23987919 </v>
   <v>       0.72334067       0.88832966       0.29591208 </v>
   <v>       0.72262333       0.22262333       0.29668740 </v>
   <v>       0.72262333       0.55475333       0.29668740 </v>
   <v>       0.05544600       0.88910801       0.29768906 </v>
   <v>       0.05475333       0.22262333       0.29668740 </v>
   <v>       0.05544600       0.55544600       0.29768906 </v>
   <v>       0.38832966       0.88832966       0.29591208 </v>
   <v>       0.38832966       0.22334067       0.29591208 </v>
   <v>       0.38910801       0.55544600       0.29768906 </v>
   <v>       0.83385050      -0.00118588       0.34879126 </v>
   <v>       0.83333333       0.33333333       0.34846525 </v>
   <v>       0.83385050       0.66733538       0.34879126 </v>
   <v>       0.16733538      -0.00118588       0.34879126 </v>
   <v>       0.16733538       0.33385050       0.34879126 </v>
   <v>       0.16666667       0.66666667       0.34702396 </v>
   <v>       0.50000000      -0.00000000       0.35056958 </v>
   <v>       0.49881412       0.33385050       0.34879126 </v>
   <v>       0.49881412       0.66733538       0.34879126 </v>
   <v>       0.94369949       0.11260103       0.40146931 </v>
   <v>       0.94369949       0.44369949       0.40146931 </v>
   <v>       0.94480064       0.77759968       0.40101983 </v>
   <v>       0.28488752       0.10755624       0.39709118 </v>
   <v>       0.27759968       0.44480064       0.40101983 </v>
   <v>       0.27759968       0.77759968       0.40101983 </v>
   <v>       0.60755624       0.10755624       0.39709118 </v>
   <v>       0.61260103       0.44369949       0.40146931 </v>
   <v>       0.60755624       0.78488752       0.39709118 </v>
   <v>       0.44435977       0.27782011       0.06765606 </v>
   <v>       0.44440629       0.61118742       0.06762303 </v>
   <v>       0.44440629       0.94440629       0.06762303 </v>
   <v>       0.77782011       0.27782011       0.06765606 </v>
   <v>       0.77769244       0.61115378       0.06760913 </v>
   <v>       0.77782011       0.94435977       0.06765606 </v>
   <v>       0.11115378       0.27769244       0.06760913 </v>
   <v>       0.11115378       0.61115378       0.06760913 </v>
   <v>       0.11118742       0.94440629       0.06762303 </v>
   <v>       0.55557524       0.38884952       0.12201274 </v>
   <v>       0.55569064       0.72215468       0.12194789 </v>
   <v>       0.55557524       0.05557524       0.12201274 </v>
   <v>       0.88893946       0.38893946       0.12209250 </v>
   <v>       0.88893946       0.72212109       0.12209250 </v>
   <v>       0.88884952       0.05557524       0.12201274 </v>
   <v>       0.22212109       0.38893946       0.12209250 </v>
   <v>       0.22215468       0.72215468       0.12194789 </v>
   <v>       0.22215468       0.05569064       0.12194789 </v>
   <v>       0.66680196       0.50004014       0.18053624 </v>
   <v>       0.66680196       0.83315790       0.18053624 </v>
   <v>       0.66666667       0.16666667       0.18042417 </v>
   <v>       0.00000000       0.50000000       0.18060925 </v>
   <v>       0.00004014       0.83315790       0.18053624 </v>
   <v>       0.00004014       0.16680196       0.18053624 </v>
   <v>       0.33315790       0.50004014       0.18053624 </v>
   <v>       0.33333333       0.83333333       0.18051755 </v>
   <v>       0.33315790       0.16680196       0.18053624 </v>
   <v>       0.77769781       0.61115109       0.24001136 </v>
   <v>       0.77774506       0.94450988       0.23987919 </v>
   <v>       0.77774506       0.27774506       0.23987919 </v>
   <v>       0.11115109       0.61115109       0.24001136 </v>
   <v>       0.11119092       0.94440454       0.24024209 </v>
   <v>       0.11115109       0.27769781       0.24001136 </v>
   <v>       0.44440454       0.61119092       0.24024209 </v>
   <v>       0.44440454       0.94440454       0.24024209 </v>
   <v>       0.44450988       0.27774506       0.23987919 </v>
   <v>       0.88832966       0.72334067       0.29591208 </v>
   <v>       0.88910801       0.05544600       0.29768906 </v>
   <v>       0.88832966       0.38832966       0.29591208 </v>
   <v>       0.22262333       0.72262333       0.29668740 </v>
   <v>       0.22262333       0.05475333       0.29668740 </v>
   <v>       0.22334067       0.38832966       0.29591208 </v>
   <v>       0.55475333       0.72262333       0.29668740 </v>
   <v>       0.55544600       0.05544600       0.29768906 </v>
   <v>       0.55544600       0.38910801       0.29768906 </v>
   <v>      -0.00118588       0.83385050       0.34879126 </v>
   <v>      -0.00118588       0.16733538       0.34879126 </v>
   <v>       0.00000000       0.50000000       0.35056958 </v>
   <v>       0.33333333       0.83333333       0.34846525 </v>
   <v>       0.33385050       0.16733538       0.34879126 </v>
   <v>       0.33385050       0.49881412       0.34879126 </v>
   <v>       0.66733538       0.83385050       0.34879126 </v>
   <v>       0.66666667       0.16666667       0.34702396 </v>
   <v>       0.66733538       0.49881412       0.34879126 </v>
   <v>       0.11260103       0.94369949       0.40146931 </v>
   <v>       0.10755624       0.28488752       0.39709118 </v>
   <v>       0.10755624       0.60755624       0.39709118 </v>
   <v>       0.44369949       0.94369949       0.40146931 </v>
   <v>       0.44480064       0.27759968       0.40101983 </v>
   <v>       0.44369949       0.61260103       0.40146931 </v>
   <v>       0.77759968       0.94480064       0.40101983 </v>
   <v>       0.77759968       0.27759968       0.40101983 </v>
   <v>       0.78488752       0.60755624       0.39709118 </v>
   <v>       0.00000000      -0.00000000       0.46294257 </v>
   <v>       0.00000000      -0.00000000       0.49557769 </v>
   <v>       0.00500287       0.12631082       0.46427170 </v>
   <v>       0.00490478       0.12528659       0.49678712 </v>
   <v>       0.01399166       0.24300417       0.46414665 </v>
   <v>       0.01333956       0.24333022       0.49822101 </v>
   <v>       0.00500287       0.36868631       0.46427170 </v>
   <v>       0.00490478       0.36980863       0.49678712 </v>
   <v>       0.00000000       0.50000000       0.46294257 </v>
   <v>       0.00000000       0.50000000       0.49557769 </v>
   <v>       0.00500287       0.62631082       0.46427170 </v>
   <v>       0.00490478       0.62528659       0.49678712 </v>
   <v>       0.01399166       0.74300417       0.46414665 </v>
   <v>       0.01333956       0.74333022       0.49822101 </v>
   <v>       0.00500287       0.86868631       0.46427170 </v>
   <v>       0.00490478       0.86980863       0.49678712 </v>
   <v>       0.12631082       0.00500287       0.46427170 </v>
   <v>       0.12528659       0.00490478       0.49678712 </v>
   <v>       0.12675225       0.12675225       0.44135305 </v>
   <v>       0.13315826       0.13315826       0.53246158 </v>
   <v>       0.12675225       0.24649550       0.44135305 </v>
   <v>       0.13315826       0.23368348       0.53246158 </v>
   <v>       0.12631082       0.36868631       0.46427170 </v>
   <v>       0.12528659       0.36980863       0.49678712 </v>
   <v>       0.12631082       0.50500287       0.46427170 </v>
   <v>       0.12528659       0.50490478       0.49678712 </v>
   <v>       0.12675225       0.62675225       0.44135305 </v>
   <v>       0.13315826       0.63315826       0.53246158 </v>
   <v>       0.12675225       0.74649550       0.44135305 </v>
   <v>       0.13315826       0.73368348       0.53246158 </v>
   <v>       0.12631082       0.86868631       0.46427170 </v>
   <v>       0.12528659       0.86980863       0.49678712 </v>
   <v>       0.24300417       0.01399166       0.46414665 </v>
   <v>       0.24333022       0.01333956       0.49822101 </v>
   <v>       0.24649550       0.12675225       0.44135305 </v>
   <v>       0.23368348       0.13315826       0.53246158 </v>
   <v>       0.24300417       0.24300417       0.46414665 </v>
   <v>       0.24333022       0.24333022       0.49822101 </v>
   <v>       0.24840121       0.37579940       0.46408821 </v>
   <v>       0.24884658       0.37557671       0.49679336 </v>
   <v>       0.24300417       0.51399166       0.46414665 </v>
   <v>       0.24333022       0.51333956       0.49822101 </v>
   <v>       0.24649550       0.62675225       0.44135305 </v>
   <v>       0.23368348       0.63315826       0.53246158 </v>
   <v>       0.24300417       0.74300417       0.46414665 </v>
   <v>       0.24333022       0.74333022       0.49822101 </v>
   <v>       0.24840121       0.87579940       0.46408821 </v>
   <v>       0.24884658       0.87557671       0.49679336 </v>
   <v>       0.36868631       0.00500287       0.46427170 </v>
   <v>       0.36980863       0.00490478       0.49678712 </v>
   <v>       0.36868631       0.12631082       0.46427170 </v>
   <v>       0.36980863       0.12528659       0.49678712 </v>
   <v>       0.37579940       0.24840121       0.46408821 </v>
   <v>       0.37557671       0.24884658       0.49679336 </v>
   <v>       0.37579940       0.37579940       0.46408821 </v>
   <v>       0.37557671       0.37557671       0.49679336 </v>
   <v>       0.36868631       0.50500287       0.46427170 </v>
   <v>       0.36980863       0.50490478       0.49678712 </v>
   <v>       0.36868631       0.62631082       0.46427170 </v>
   <v>       0.36980863       0.62528659       0.49678712 </v>
   <v>       0.37579940       0.74840121       0.46408821 </v>
   <v>       0.37557671       0.74884658       0.49679336 </v>
   <v>       0.37579940       0.87579940       0.46408821 </v>
   <v>       0.37557671       0.87557671       0.49679336 </v>
   <v>       0.50000000      -0.00000000       0.46294257 </v>
   <v>       0.50000000      -0.00000000       0.49557769 </v>
   <v>       0.50500287       0.12631082       0.46427170 </v>
   <v>       0.50490478       0.12528659       0.49678712 </v>
   <v>       0.51399166       0.24300417       0.46414665 </v>
   <v>       0.51333956       0.24333022       0.49822101 </v>
   <v>       0.50500287       0.36868631       0.46427170 </v>
   <v>       0.50490478       0.36980863       0.49678712 </v>
   <v>       0.50000000       0.50000000       0.46294257 </v>
   <v>       0.50000000       0.50000000       0.49557769 </v>
   <v>       0.50500287       0.62631082       0.46427170 </v>
   <v>       0.50490478       0.62528659       0.49678712 </v>
   <v>       0.51399166       0.74300417       0.46414665 </v>
   <v>       0.51333956       0.74333022       0.49822101 </v>
   <v>       0.50500287       0.86868631       0.46427170 </v>
   <v>       0.50490478       0.86980863       0.49678712 </v>
   <v>       0.62631082       0.00500287       0.46427170 </v>
   <v>       0.62528659       0.00490478       0.49678712 </v>
   <v>       0.62675225       0.12675225       0.44135305 </v>
   <v>       0.63315826       0.13315826       0.53246158 </v>
   <v>       0.62675225       0.24649550       0.44135305 </v>
   <v>       0.63315826       0.23368348       0.53246158 </v>
   <v>       0.62631082       0.36868631       0.46427170 </v>
   <v>       0.62528659       0.36980863       0.49678712 </v>
   <v>       0.62631082       0.50500287       0.46427170 </v>
   <v>       0.62528659       0.50490478       0.49678712 </v>
   <v>       0.62675225       0.62675225       0.44135305 </v>
   <v>       0.63315826       0.63315826       0.53246158 </v>
   <v>       0.62675225       0.74649550       0.44135305 </v>
   <v>       0.63315826       0.73368348       0.53246158 </v>
   <v>       0.62631082       0.86868631       0.46427170 </v>
   <v>       0.62528659       0.86980863       0.49678712 </v>
   <v>       0.74300417       0.01399166       0.46414665 </v>
   <v>       0.74333022       0.01333956       0.49822101 </v>
   <v>       0.74649550       0.12675225       0.44135305 </v>
   <v>       0.73368348       0.13315826       0.53246158 </v>
   <v>       0.74300417       0.24300417       0.46414665 </v>
   <v>       0.74333022       0.24333022       0.49822101 </v>
   <v>       0.74840121       0.37579940       0.46408821 </v>
   <v>       0.74884658       0.37557671       0.49679336 </v>
   <v>       0.74300417       0.51399166       0.46414665 </v>
   <v>       0.74333022       0.51333956       0.49822101 </v>
   <v>       0.74649550       0.62675225       0.44135305 </v>
   <v>       0.73368348       0.63315826       0.53246158 </v>
   <v>       0.74300417       0.74300417       0.46414665 </v>
   <v>       0.74333022       0.74333022       0.49822101 </v>
   <v>       0.74840121       0.87579940       0.46408821 </v>
   <v>       0.74884658       0.87557671       0.49679336 </v>
   <v>       0.86868631       0.00500287       0.46427170 </v>
   <v>       0.86980863       0.00490478       0.49678712 </v>
   <v>       0.86868631       0.12631082       0.46427170 </v>
   <v>       0.86980863       0.12528659       0.49678712 </v>
   <v>       0.87579940       0.24840121       0.46408821 </v>
   <v>       0.87557671       0.24884658       0.49679336 </v>
   <v>       0.87579940       0.37579940       0.46408821 </v>
   <v>       0.87557671       0.37557671       0.49679336 </v>
   <v>       0.86868631       0.50500287       0.46427170 </v>
   <v>       0.86980863       0.50490478       0.49678712 </v>
   <v>       0.86868631       0.62631082       0.46427170 </v>
   <v>       0.86980863       0.62528659       0.49678712 </v>
   <v>       0.87579940       0.74840121       0.46408821 </v>
   <v>       0.87557671       0.74884658       0.49679336 </v>
   <v>       0.87579940       0.87579940       0.46408821 </v>
   <v>       0.87557671       0.87557671       0.49679336 </v>
  </varray>
 </structure>
</modeling>
