ITEM: TIMESTEP
0
ITEM: NUMBER OF ATOMS
108
ITEM: BOX BOUNDS xy xz yz pp pp pp
-7.2075420000000001e+00 1.4415084000000000e+01 -7.2075420000000001e+00
0.0000000000000000e+00 1.2483828000000001e+01 0.0000000000000000e+00
0.0000000000000000e+00 3.2516254000000004e+01 0.0000000000000000e+00
ITEM: ATOMS id type xs ys zs
1 1 0 0 0.0587846
2 1 0.111136 0.222241 0.0298661
3 1 0.111058 0.222328 0.126219
4 1 0.222274 0.111138 0.0685327
5 1 0.222323 0.11129 0.19066
6 1 0 0 0.139714
7 1 0 0 0.256077
8 1 0.111408 0.22268 0.20713
9 1 0.111886 0.219481 0.329695
10 1 0.222625 0.111267 0.272503
11 1 0.217889 0.102909 0.380726
12 1 0 0 0.334897
13 1 4.382e-05 0.333355 0.0588764
14 1 0.111101 0.555534 0.0299134
15 1 0.111265 0.555717 0.126136
16 1 0.222303 0.444475 0.0685676
17 1 0.222058 0.444236 0.190866
18 1 6.712e-05 0.333222 0.139704
19 1 0.00063292 0.333714 0.257911
20 1 0.110916 0.555746 0.207408
21 1 0.112087 0.55165 0.328166
22 1 0.222444 0.444527 0.272499
23 1 0.224404 0.43721 0.37715
24 1 0.999481 0.329034 0.337165
25 1 2.148e-05 0.666622 0.0588561
26 1 0.111105 0.888864 0.0298661
27 1 0.11127 0.888942 0.126219
28 1 0.222172 0.777697 0.0685676
29 1 0.222178 0.777942 0.190866
30 1 0.999815 0.66673 0.139685
31 1 0.999447 0.665888 0.258297
32 1 0.111272 0.888592 0.20713
33 1 0.107594 0.888114 0.329695
34 1 0.222083 0.777556 0.272499
35 1 0.212807 0.775596 0.37715
36 1 0.00016332 0.670203 0.337546
37 1 0.333311 0.999956 0.0588764
38 1 0.444503 0.222218 0.0299937
39 1 0.444347 0.222125 0.126131
40 1 0.555512 0.111088 0.0686117
41 1 0.555487 0.110934 0.190682
42 1 0.333155 0.999933 0.139704
43 1 0.333082 0.999367 0.257911
44 1 0.444737 0.222823 0.207179
45 1 0.44287 0.220286 0.329053
46 1 0.55571 0.111251 0.271995
47 1 0.555865 0.111671 0.372766
48 1 0.329552 0.0005187 0.337165
49 1 0.333378 0.3334 0.0588561
50 1 0.444466 0.555567 0.0299134
51 1 0.444283 0.555547 0.126136
52 1 0.555576 0.444488 0.0686117
53 1 0.555447 0.444513 0.190682
54 1 0.33327 0.333085 0.139685
55 1 0.334112 0.33356 0.258297
56 1 0.444254 0.55517 0.207408
57 1 0.44835 0.560438 0.328166
58 1 0.555541 0.44429 0.271995
59 1 0.555807 0.444135 0.372766
60 1 0.329797 0.32996 0.337546
61 1 0.333333 0.666667 0.0588941
62 1 0.444433 0.888899 0.0299134
63 1 0.444453 0.888735 0.126136
64 1 0.555525 0.777828 0.0685676
65 1 0.555764 0.777822 0.190866
66 1 0.333333 0.666667 0.139664
67 1 0.333333 0.666667 0.258013
68 1 0.44483 0.889084 0.207408
69 1 0.439563 0.887913 0.328166
70 1 0.555473 0.777917 0.272499
71 1 0.56279 0.787193 0.37715
72 1 0.333333 0.666667 0.338485
73 1 0.6666 0.999979 0.0588561
74 1 0.777782 0.222285 0.0299937
75 1 0.777875 0.222222 0.126131
76 1 0.888862 0.111135 0.0685327
77 1 0.88871 0.111033 0.19066
78 1 0.666915 0.00018532 0.139685
79 1 0.66644 0.00055255 0.258297
80 1 0.777177 0.221915 0.207179
81 1 0.779714 0.222584 0.329053
82 1 0.888733 0.111358 0.272503
83 1 0.897091 0.11498 0.380726
84 1 0.67004 0.999837 0.337546
85 1 0.666667 0.333333 0.0589209
86 1 0.777715 0.555497 0.0299937
87 1 0.777778 0.555653 0.126131
88 1 0.888912 0.444424 0.0686117
89 1 0.889066 0.444552 0.190682
90 1 0.666667 0.333333 0.139613
91 1 0.666667 0.333333 0.258736
92 1 0.778085 0.555263 0.207179
93 1 0.777416 0.55713 0.329053
94 1 0.888749 0.444459 0.271995
95 1 0.888329 0.444193 0.372766
96 1 0.666667 0.333333 0.338667
97 1 0.666645 0.666689 0.0588764
98 1 0.777759 0.888895 0.0298661
99 1 0.777672 0.88873 0.126219
100 1 0.888865 0.777726 0.0685327
101 1 0.888967 0.777677 0.19066
102 1 0.666778 0.666845 0.139704
103 1 0.666286 0.666918 0.257911
104 1 0.77732 0.888728 0.20713
105 1 0.780519 0.892406 0.329695
106 1 0.888642 0.777375 0.272503
107 1 0.88502 0.782111 0.380726
108 1 0.670966 0.670448 0.337165
ITEM: TIMESTEP
10
ITEM: NUMBER OF ATOMS
108
ITEM: BOX BOUNDS xy xz yz pp pp pp
-7.2075420000000001e+00 1.4415084000000000e+01 -7.2075420000000001e+00
0.0000000000000000e+00 1.2483828000000001e+01 0.0000000000000000e+00
0.0000000000000000e+00 3.2516254000000004e+01 0.0000000000000000e+00
ITEM: ATOMS id type xs ys zs
1 1 0.992068 0.00259766 0.0650593
2 1 0.106633 0.215086 0.0452694
3 1 0.107018 0.226626 0.125761
4 1 0.208536 0.112703 0.0928206
5 1 0.218163 0.0996704 0.167866
6 1 0.986392 0.0122766 0.1562
7 1 0.988661 0.966966 0.233821
8 1 0.091653 0.186324 0.232378
9 1 0.112421 0.239063 0.30681
10 1 0.218661 0.101713 0.264788
11 1 0.237326 0.125197 0.350834
12 1 0.0224534 0.0146764 0.329648
13 1 0.998358 0.323711 0.0706531
14 1 0.106185 0.555868 0.0446119
15 1 0.11665 0.555704 0.13362
16 1 0.23457 0.439397 0.102268
17 1 0.213829 0.429781 0.177095
18 1 0.987542 0.342263 0.159869
19 1 0.99804 0.318133 0.238244
20 1 0.123312 0.562639 0.227408
21 1 0.117576 0.564946 0.311725
22 1 0.234624 0.457306 0.280972
23 1 0.191966 0.429224 0.360027
24 1 0.987117 0.327523 0.332385
25 1 0.996739 0.674178 0.0728535
26 1 0.114181 0.903073 0.0438582
27 1 0.109828 0.894966 0.120511
28 1 0.214291 0.775148 0.104077
29 1 0.233659 0.778938 0.185085
30 1 0.0333934 0.70231 0.156537
31 1 0.981039 0.63513 0.237147
32 1 0.115094 0.871427 0.23835
33 1 0.109092 0.896685 0.311936
34 1 0.202125 0.776974 0.269206
35 1 0.237317 0.777536 0.355592
36 1 0.00316323 0.681138 0.32152
37 1 0.331301 0.982586 0.0757162
38 1 0.445468 0.209794 0.0369503
39 1 0.429856 0.205872 0.126815
40 1 0.563347 0.12378 0.0816193
41 1 0.5509 0.102796 0.155986
42 1 0.327181 0.985264 0.153342
43 1 0.337549 0.0039939 0.238438
44 1 0.448567 0.222813 0.232051
45 1 0.440348 0.221951 0.309222
46 1 0.551822 0.1189 0.272064
47 1 0.562906 0.102961 0.34959
48 1 0.338491 0.99341 0.324248
49 1 0.322534 0.320649 0.0646754
50 1 0.436246 0.545253 0.0372377
51 1 0.44784 0.571573 0.12621
52 1 0.551549 0.443419 0.100916
53 1 0.548794 0.42783 0.173293
54 1 0.325834 0.325256 0.153961
55 1 0.329791 0.34103 0.235662
56 1 0.424025 0.560155 0.218054
57 1 0.463264 0.562294 0.29306
58 1 0.558068 0.426296 0.267738
59 1 0.555155 0.452327 0.350344
60 1 0.327545 0.34626 0.327922
61 1 0.335312 0.670019 0.0761026
62 1 0.456964 0.886007 0.0387491
63 1 0.464439 0.908939 0.121232
64 1 0.552841 0.788402 0.0887604
65 1 0.559636 0.780992 0.177105
66 1 0.347575 0.677943 0.168846
67 1 0.341612 0.688773 0.247935
68 1 0.466342 0.896611 0.235999
69 1 0.438201 0.874134 0.308998
70 1 0.562836 0.785678 0.274795
71 1 0.569502 0.780893 0.358354
72 1 0.34196 0.644975 0.341662
73 1 0.670868 0.0119341 0.0716471
74 1 0.782011 0.228269 0.0412201
75 1 0.765284 0.215682 0.123881
76 1 0.882186 0.104522 0.104335
77 1 0.894846 0.12233 0.182116
78 1 0.684348 0.990089 0.15898
79 1 0.683295 0.0210157 0.237456
80 1 0.772019 0.240846 0.228165
81 1 0.776878 0.206042 0.303041
82 1 0.897541 0.0947531 0.276289
83 1 0.879652 0.10486 0.354961
84 1 0.672182 0.998024 0.323057
85 1 0.663485 0.346934 0.0695819
86 1 0.779233 0.569006 0.0428305
87 1 0.786016 0.552028 0.128414
88 1 0.889625 0.451208 0.0875434
89 1 0.889949 0.464013 0.161336
90 1 0.661744 0.325709 0.157115
91 1 0.66883 0.350779 0.233088
92 1 0.76622 0.567104 0.227556
93 1 0.767016 0.541684 0.304877
94 1 0.89837 0.424171 0.271
95 1 0.899802 0.467729 0.349946
96 1 0.667716 0.337357 0.323431
97 1 0.660831 0.666663 0.0752915
98 1 0.762836 0.891499 0.0361724
99 1 0.765688 0.863443 0.12062
100 1 0.891393 0.781169 0.101323
101 1 0.892045 0.790238 0.174835
102 1 0.663902 0.664227 0.167088
103 1 0.645093 0.65746 0.246185
104 1 0.772467 0.891062 0.228864
105 1 0.78333 0.879827 0.303209
106 1 0.873542 0.754878 0.277321
107 1 0.908972 0.799928 0.351753
108 1 0.675509 0.66679 0.336945
ITEM: TIMESTEP
20
ITEM: NUMBER OF ATOMS
108
ITEM: BOX BOUNDS xy xz yz pp pp pp
-7.2075420000000001e+00 1.4415084000000000e+01 -7.2075420000000001e+00
0.0000000000000000e+00 1.2483828000000001e+01 0.0000000000000000e+00
0.0000000000000000e+00 3.2516254000000004e+01 0.0000000000000000e+00
ITEM: ATOMS id type xs ys zs
1 1 0.965391 0.97425 0.0756569
2 1 0.10591 0.210282 0.0665284
3 1 0.0889473 0.241276 0.134225
4 1 0.213018 0.100416 0.0858435
5 1 0.236824 0.134763 0.167586
6 1 0.974491 0.0175737 0.17135
7 1 0.988524 0.932671 0.241931
8 1 0.0916266 0.154662 0.226003
9 1 0.120995 0.257994 0.308171
10 1 0.234871 0.113846 0.263677
11 1 0.231377 0.140048 0.33383
12 1 0.0352948 0.0515629 0.31649
13 1 0.00814216 0.332271 0.0826828
14 1 0.114854 0.548545 0.0803778
15 1 0.114938 0.579828 0.149013
16 1 0.225116 0.437829 0.100969
17 1 0.195844 0.404047 0.182592
18 1 0.990045 0.36733 0.177958
19 1 0.0423098 0.29321 0.241271
20 1 0.111269 0.518749 0.228641
21 1 0.117987 0.561791 0.310506
22 1 0.249669 0.471154 0.281227
23 1 0.171485 0.430788 0.350353
24 1 0.978006 0.345366 0.32059
25 1 0.0184333 0.673782 0.0706882
26 1 0.0973097 0.888751 0.0639262
27 1 0.0884467 0.907298 0.134347
28 1 0.228177 0.791242 0.104787
29 1 0.243829 0.770329 0.200174
30 1 0.996227 0.671816 0.155523
31 1 0.985183 0.648082 0.24201
32 1 0.113459 0.846083 0.220033
33 1 0.127772 0.920932 0.306714
34 1 0.20275 0.797472 0.277509
35 1 0.214171 0.75043 0.357482
36 1 0.00919087 0.69312 0.317608
37 1 0.320508 0.982568 0.0553864
38 1 0.430688 0.213245 0.0620204
39 1 0.439632 0.212676 0.132008
40 1 0.554139 0.125931 0.074333
41 1 0.572399 0.096856 0.157603
42 1 0.321472 0.977688 0.154565
43 1 0.306298 0.970726 0.237614
44 1 0.419103 0.205515 0.219522
45 1 0.44705 0.220099 0.303879
46 1 0.570226 0.157933 0.247564
47 1 0.549979 0.077502 0.320036
48 1 0.349422 0.985498 0.326546
49 1 0.343467 0.343323 0.0626994
50 1 0.434091 0.564643 0.0688789
51 1 0.477578 0.560187 0.144181
52 1 0.564926 0.453677 0.0995188
53 1 0.540458 0.41436 0.17592
54 1 0.339863 0.355002 0.151718
55 1 0.315555 0.328845 0.229491
56 1 0.435294 0.58041 0.223008
57 1 0.476638 0.592101 0.298711
58 1 0.539809 0.469187 0.259545
59 1 0.571999 0.424543 0.337866
60 1 0.343289 0.356868 0.317387
61 1 0.335671 0.668416 0.0825804
62 1 0.437685 0.883839 0.0686078
63 1 0.429639 0.845358 0.13768
64 1 0.547893 0.792173 0.097266
65 1 0.560348 0.753852 0.17563
66 1 0.329168 0.644997 0.174529
67 1 0.333316 0.700098 0.249936
68 1 0.468129 0.926371 0.222043
69 1 0.449026 0.856123 0.311895
70 1 0.57007 0.836199 0.254993
71 1 0.56716 0.742948 0.331556
72 1 0.341983 0.628679 0.343573
73 1 0.667032 0.0221847 0.0732273
74 1 0.785064 0.241482 0.050982
75 1 0.791097 0.20557 0.11931
76 1 0.892488 0.105687 0.102307
77 1 0.878935 0.159053 0.184324
78 1 0.670886 0.969731 0.16167
79 1 0.702703 0.0571333 0.233241
80 1 0.774452 0.265474 0.203047
81 1 0.756822 0.191436 0.288185
82 1 0.878815 0.061373 0.261237
83 1 0.877504 0.126679 0.335907
84 1 0.675958 0.978884 0.316476
85 1 0.663116 0.362373 0.0580729
86 1 0.772377 0.577888 0.0598211
87 1 0.786504 0.541386 0.133046
88 1 0.887531 0.445618 0.0918565
89 1 0.879234 0.468454 0.17928
90 1 0.653122 0.318459 0.155083
91 1 0.695972 0.376524 0.233932
92 1 0.72595 0.552281 0.219591
93 1 0.781641 0.533285 0.28902
94 1 0.904308 0.397764 0.261757
95 1 0.878543 0.470599 0.331287
96 1 0.666524 0.307083 0.317917
97 1 0.651848 0.677734 0.0861953
98 1 0.749845 0.886719 0.0643568
99 1 0.786812 0.869507 0.130865
100 1 0.882193 0.76651 0.096304
101 1 0.89973 0.793482 0.171723
102 1 0.67503 0.66653 0.168664
103 1 0.650674 0.693931 0.245669
104 1 0.788052 0.890713 0.219375
105 1 0.79892 0.880636 0.30296
106 1 0.868135 0.732141 0.271899
107 1 0.929794 0.819031 0.33938
108 1 0.706532 0.658637 0.335401
ITEM: TIMESTEP
30
ITEM: NUMBER OF ATOMS
108
ITEM: BOX BOUNDS xy xz yz pp pp pp
-7.2075420000000001e+00 1.4415084000000000e+01 -7.2075420000000001e+00
0.0000000000000000e+00 1.2483828000000001e+01 0.0000000000000000e+00
0.0000000000000000e+00 3.2516254000000004e+01 0.0000000000000000e+00
ITEM: ATOMS id type xs ys zs
1 1 0.00866874 0.969159 0.0894921
2 1 0.0888718 0.180302 0.0514088
3 1 0.115953 0.269385 0.162917
4 1 0.249525 0.13451 0.0965543
5 1 0.202353 0.152065 0.17361
6 1 0.989124 0.0124162 0.166085
7 1 0.972108 0.945065 0.248603
8 1 0.0823267 0.162205 0.231792
9 1 0.152266 0.276291 0.314495
10 1 0.241203 0.121016 0.251487
11 1 0.266102 0.161412 0.37018
12 1 0.04786 0.0514591 0.317917
13 1 0.953671 0.276553 0.0912985
14 1 0.102189 0.534756 0.0638689
15 1 0.0819817 0.576145 0.147299
16 1 0.225968 0.462263 0.112525
17 1 0.230408 0.418782 0.204417
18 1 0.995088 0.371011 0.164151
19 1 0.0504495 0.327514 0.242002
20 1 0.1534 0.551809 0.227177
21 1 0.130639 0.569703 0.323896
22 1 0.244879 0.480826 0.293279
23 1 0.202031 0.438278 0.375899
24 1 0.0271312 0.3605 0.318546
25 1 0.948407 0.600727 0.0538899
26 1 0.0750013 0.849956 0.0353979
27 1 0.126372 0.957403 0.142345
28 1 0.170551 0.769585 0.0990782
29 1 0.233797 0.789564 0.191519
30 1 0.995379 0.694829 0.146817
31 1 0.998808 0.627823 0.247079
32 1 0.106284 0.843596 0.228448
33 1 0.132903 0.924756 0.300984
34 1 0.198001 0.76425 0.282178
35 1 0.203315 0.7544 0.379388
36 1 0.00419023 0.695562 0.337468
37 1 0.318554 0.0148744 0.0451532
38 1 0.437508 0.258497 0.0276534
39 1 0.442669 0.193212 0.122578
40 1 0.54438 0.154601 0.0665702
41 1 0.542557 0.0417647 0.160336
42 1 0.332449 0.975929 0.131259
43 1 0.354892 0.0313434 0.264903
44 1 0.44332 0.264027 0.214082
45 1 0.427059 0.212033 0.304596
46 1 0.560804 0.152252 0.234446
47 1 0.550843 0.0598425 0.306402
48 1 0.299193 0.952376 0.346623
49 1 0.314412 0.346863 0.0333146
50 1 0.452189 0.570571 0.0596945
51 1 0.465119 0.545871 0.136162
52 1 0.525006 0.409731 0.0827
53 1 0.559054 0.423323 0.164604
54 1 0.344614 0.323937 0.124641
55 1 0.303089 0.316841 0.248583
56 1 0.431759 0.551323 0.235834
57 1 0.494994 0.577435 0.329472
58 1 0.520273 0.417102 0.264274
59 1 0.567889 0.420497 0.340109
60 1 0.349474 0.339945 0.332563
61 1 0.321058 0.706622 0.0908877
62 1 0.435355 0.914476 0.0811288
63 1 0.435254 0.84029 0.166199
64 1 0.565483 0.788133 0.0863475
65 1 0.542479 0.729844 0.183531
66 1 0.312439 0.629778 0.164767
67 1 0.346645 0.693738 0.257905
68 1 0.446232 0.92234 0.232902
69 1 0.417976 0.857024 0.317552
70 1 0.551418 0.837809 0.262062
71 1 0.597517 0.793656 0.342801
72 1 0.33336 0.643261 0.352124
73 1 0.650429 0.0428439 0.0653219
74 1 0.792605 0.252618 0.0235521
75 1 0.744922 0.196844 0.115819
76 1 0.864934 0.0703506 0.09625
77 1 0.854791 0.136081 0.176
78 1 0.670836 0.958307 0.143208
79 1 0.687498 0.0295344 0.221707
80 1 0.750602 0.248581 0.203358
81 1 0.812765 0.209032 0.285023
82 1 0.889191 0.0918366 0.265733
83 1 0.914113 0.130767 0.348775
84 1 0.717772 0.00898158 0.30594
85 1 0.692194 0.372327 0.0554732
86 1 0.754258 0.560752 0.0299012
87 1 0.734171 0.540834 0.11686
88 1 0.876741 0.426069 0.108072
89 1 0.850731 0.475643 0.182647
90 1 0.672238 0.318999 0.134431
91 1 0.658569 0.365393 0.227832
92 1 0.767661 0.573746 0.213497
93 1 0.787413 0.512918 0.30082
94 1 0.919982 0.408894 0.260123
95 1 0.920403 0.469765 0.345581
96 1 0.679787 0.283067 0.318529
97 1 0.666461 0.654721 0.0765689
98 1 0.780594 0.922613 0.0351395
99 1 0.809291 0.870491 0.117155
100 1 0.883811 0.743177 0.0947419
101 1 0.909389 0.790283 0.193101
102 1 0.676236 0.674156 0.166106
103 1 0.629419 0.675143 0.256415
104 1 0.749356 0.874849 0.209162
105 1 0.824847 0.897829 0.299677
106 1 0.866174 0.733967 0.276386
107 1 0.940292 0.827403 0.351311
108 1 0.704999 0.664146 0.333463
ITEM: TIMESTEP
40
ITEM: NUMBER OF ATOMS
108
ITEM: BOX BOUNDS xy xz yz pp pp pp
-7.2075420000000001e+00 1.4415084000000000e+01 -7.2075420000000001e+00
0.0000000000000000e+00 1.2483828000000001e+01 0.0000000000000000e+00
0.0000000000000000e+00 3.2516254000000004e+01 0.0000000000000000e+00
ITEM: ATOMS id type xs ys zs
1 1 0.977766 0.932462 0.0770603
2 1 0.0492547 0.156755 0.0526382
3 1 0.110535 0.247142 0.13586
4 1 0.215532 0.137256 0.0778388
5 1 0.199496 0.13067 0.165533
6 1 0.974791 0.0329763 0.160482
7 1 0.980745 0.936418 0.248343
8 1 0.110277 0.19067 0.231279
9 1 0.151334 0.276933 0.323761
10 1 0.213073 0.0702186 0.255643
11 1 0.236774 0.10398 0.353399
12 1 0.0221347 0.0352137 0.317807
13 1 0.994353 0.312201 0.0834637
14 1 0.0896104 0.504618 0.054456
15 1 0.106832 0.586214 0.144549
16 1 0.232532 0.462235 0.113486
17 1 0.224931 0.403824 0.198189
18 1 0.0169946 0.393481 0.158901
19 1 0.0371345 0.339531 0.248976
20 1 0.12105 0.55508 0.228737
21 1 0.155561 0.575842 0.311474
22 1 0.237925 0.468825 0.290906
23 1 0.253834 0.443551 0.375607
24 1 0.0322902 0.369353 0.328793
25 1 0.934843 0.583011 0.0571811
26 1 0.0508521 0.808261 0.0366661
27 1 0.113013 0.908017 0.150296
28 1 0.136931 0.753913 0.104361
29 1 0.215147 0.770617 0.186198
30 1 0.991816 0.707402 0.168134
31 1 0.988262 0.645083 0.239109
32 1 0.0979954 0.849526 0.23199
33 1 0.13718 0.88619 0.33063
34 1 0.197277 0.76871 0.275506
35 1 0.206893 0.772858 0.369597
36 1 0.0135803 0.656959 0.326054
37 1 0.328113 0.0315498 0.0617599
38 1 0.455922 0.256241 0.0292723
39 1 0.426243 0.222892 0.111652
40 1 0.591952 0.147079 0.0578236
41 1 0.561678 0.101188 0.149017
42 1 0.360818 0.984861 0.138594
43 1 0.316972 0.990447 0.282598
44 1 0.412883 0.223812 0.203904
45 1 0.449488 0.220396 0.316425
46 1 0.520307 0.122475 0.233602
47 1 0.516711 0.0564239 0.313055
48 1 0.369418 0.00768031 0.367789
49 1 0.281281 0.332363 0.0553347
50 1 0.40506 0.579514 0.0584309
51 1 0.444246 0.566944 0.144113
52 1 0.542119 0.465772 0.0622251
53 1 0.559594 0.447406 0.162236
54 1 0.328405 0.33827 0.140747
55 1 0.316896 0.31771 0.262586
56 1 0.450685 0.572015 0.255538
57 1 0.514194 0.570103 0.329706
58 1 0.564149 0.467875 0.271186
59 1 0.630789 0.452448 0.345656
60 1 0.371167 0.338901 0.346767
61 1 0.28388 0.661187 0.0898557
62 1 0.49601 0.96112 0.0745444
63 1 0.449616 0.841997 0.152241
64 1 0.542248 0.791715 0.0807546
65 1 0.533989 0.71122 0.199929
66 1 0.306316 0.635656 0.171627
67 1 0.318332 0.671386 0.259519
68 1 0.428113 0.89248 0.238767
69 1 0.403544 0.863981 0.327712
70 1 0.575607 0.829119 0.261971
71 1 0.58925 0.793794 0.349164
72 1 0.369418 0.653129 0.338567
73 1 0.665746 0.987341 0.0347657
74 1 0.805536 0.220835 0.0351075
75 1 0.765422 0.168896 0.120846
76 1 0.857881 0.0671477 0.0956772
77 1 0.912272 0.184306 0.186644
78 1 0.668868 0.974236 0.144276
79 1 0.685187 0.0629305 0.228024
80 1 0.782012 0.265991 0.196904
81 1 0.832537 0.223587 0.2812
82 1 0.877299 0.0614253 0.259628
83 1 0.912405 0.147691 0.340147
84 1 0.697253 0.0233674 0.325896
85 1 0.711062 0.360558 0.0438525
86 1 0.733204 0.592492 0.0170101
87 1 0.760526 0.510648 0.109517
88 1 0.873404 0.396051 0.100184
89 1 0.867964 0.488163 0.180929
90 1 0.660682 0.305966 0.143128
91 1 0.649175 0.379326 0.220476
92 1 0.748815 0.590512 0.222717
93 1 0.798426 0.521209 0.289161
94 1 0.911326 0.43374 0.268031
95 1 0.908181 0.449721 0.357957
96 1 0.669636 0.2904 0.290597
97 1 0.629472 0.67146 0.0663655
98 1 0.778689 0.890891 0.0366782
99 1 0.778382 0.860563 0.11939
100 1 0.875877 0.729102 0.0929807
101 1 0.896614 0.821794 0.169035
102 1 0.663181 0.648707 0.152441
103 1 0.677019 0.706196 0.268923
104 1 0.757633 0.886566 0.206766
105 1 0.7872 0.87984 0.302372
106 1 0.897803 0.756397 0.279461
107 1 0.947413 0.873247 0.359295
108 1 0.711937 0.671551 0.347975
ITEM: TIMESTEP
50
ITEM: NUMBER OF ATOMS
108
ITEM: BOX BOUNDS xy xz yz pp pp pp
-7.2075420000000001e+00 1.4415084000000000e+01 -7.2075420000000001e+00
0.0000000000000000e+00 1.2483828000000001e+01 0.0000000000000000e+00
0.0000000000000000e+00 3.2516254000000004e+01 0.0000000000000000e+00
ITEM: ATOMS id type xs ys zs
1 1 0.96419 0.959164 0.0887629
2 1 0.0732722 0.144296 0.0273866
3 1 0.121891 0.230143 0.136136
4 1 0.196173 0.103489 0.0749949
5 1 0.228767 0.113185 0.164934
6 1 0.937124 0.0306198 0.159743
7 1 0.946063 0.936814 0.23246
8 1 0.0708122 0.174855 0.228601
9 1 0.162121 0.248885 0.311927
10 1 0.230434 0.111583 0.239363
11 1 0.257803 0.105702 0.318456
12 1 0.0329346 0.0129321 0.302434
13 1 0.0203678 0.295952 0.0802344
14 1 0.0815432 0.51739 0.0650154
15 1 0.0890485 0.586384 0.142137
16 1 0.20784 0.481422 0.11513
17 1 0.227546 0.405824 0.19992
18 1 0.0263509 0.372807 0.164469
19 1 0.0241251 0.313745 0.261504
20 1 0.112481 0.528642 0.225645
21 1 0.116786 0.554532 0.310769
22 1 0.240049 0.448853 0.282224
23 1 0.274967 0.432374 0.35491
24 1 0.0256924 0.3692 0.34113
25 1 0.933657 0.59788 0.0712177
26 1 0.00678566 0.809962 0.0481936
27 1 0.0974805 0.9039 0.11879
28 1 0.18151 0.789169 0.0942328
29 1 0.173893 0.755378 0.199346
30 1 0.939545 0.64948 0.142394
31 1 0.975022 0.655707 0.234301
32 1 0.11367 0.903742 0.249543
33 1 0.116311 0.890308 0.333246
34 1 0.199047 0.759391 0.277111
35 1 0.244897 0.761734 0.348506
36 1 0.00882529 0.682672 0.328637
37 1 0.363742 0.0510584 0.0832362
38 1 0.492062 0.241608 0.0483212
39 1 0.41281 0.206426 0.124804
40 1 0.613878 0.150082 0.0687445
41 1 0.557273 0.087235 0.15193
42 1 0.320651 0.999689 0.164675
43 1 0.33192 0.971369 0.28888
44 1 0.420475 0.247457 0.207952
45 1 0.456424 0.21078 0.286724
46 1 0.501934 0.127506 0.222128
47 1 0.565454 0.0955245 0.307324
48 1 0.382358 0.026544 0.360585
49 1 0.300294 0.333162 0.0809704
50 1 0.385403 0.568581 0.0584074
51 1 0.451388 0.549325 0.146443
52 1 0.525165 0.461216 0.0861441
53 1 0.562105 0.433455 0.164311
54 1 0.342574 0.343821 0.167259
55 1 0.347931 0.334028 0.267457
56 1 0.452386 0.566725 0.239724
57 1 0.521563 0.54126 0.341364
58 1 0.569179 0.444278 0.254992
59 1 0.610774 0.3917 0.345879
60 1 0.395033 0.331632 0.349799
61 1 0.305818 0.717811 0.0952605
62 1 0.477146 0.944443 0.0851299
63 1 0.396577 0.814988 0.158733
64 1 0.529903 0.787704 0.100818
65 1 0.53995 0.756709 0.188724
66 1 0.303214 0.616701 0.173365
67 1 0.37531 0.716172 0.241432
68 1 0.417831 0.923324 0.228188
69 1 0.436802 0.858097 0.31517
70 1 0.604097 0.861571 0.263498
71 1 0.623703 0.775847 0.340902
72 1 0.397043 0.641125 0.316439
73 1 0.667998 0.961886 0.0500987
74 1 0.830192 0.225472 0.0461452
75 1 0.804822 0.229235 0.130018
76 1 0.876826 0.0640949 0.081648
77 1 0.899797 0.176867 0.188046
78 1 0.626414 0.957639 0.149003
79 1 0.650567 0.0524028 0.230383
80 1 0.727314 0.240724 0.207547
81 1 0.81336 0.229144 0.27886
82 1 0.841769 0.0621939 0.255492
83 1 0.911679 0.160517 0.333739
84 1 0.706976 0.0291265 0.322545
85 1 0.720044 0.403723 0.0514109
86 1 0.754544 0.60978 0.0427188
87 1 0.744182 0.51692 0.125398
88 1 0.915309 0.427671 0.106734
89 1 0.873943 0.465084 0.189245
90 1 0.654163 0.306675 0.127569
91 1 0.642104 0.365178 0.205254
92 1 0.778964 0.595956 0.201463
93 1 0.770768 0.557343 0.28924
94 1 0.93342 0.455786 0.267213
95 1 0.844279 0.433837 0.343734
96 1 0.697689 0.340014 0.287247
97 1 0.598847 0.660135 0.0702546
98 1 0.79862 0.827271 0.036417
99 1 0.743584 0.858422 0.124979
100 1 0.852239 0.754805 0.0980278
101 1 0.897018 0.81962 0.167019
102 1 0.652128 0.654201 0.15557
103 1 0.652534 0.674715 0.263671
104 1 0.742925 0.890026 0.208589
105 1 0.807793 0.896317 0.304261
106 1 0.935471 0.801625 0.28643
107 1 0.953424 0.865357 0.377463
108 1 0.729094 0.663169 0.348985
ITEM: TIMESTEP
60
ITEM: NUMBER OF ATOMS
108
ITEM: BOX BOUNDS xy xz yz pp pp pp
-7.2075420000000001e+00 1.4415084000000000e+01 -7.2075420000000001e+00
0.0000000000000000e+00 1.2483828000000001e+01 0.0000000000000000e+00
0.0000000000000000e+00 3.2516254000000004e+01 0.0000000000000000e+00
ITEM: ATOMS id type xs ys zs
1 1 0.985883 0.980404 0.0898313
2 1 0.0839618 0.192461 0.0466769
3 1 0.0709952 0.228385 0.131656
4 1 0.23117 0.105618 0.0662343
5 1 0.149686 0.0861462 0.166799
6 1 0.926018 0.0223083 0.158587
7 1 0.971322 0.971024 0.242567
8 1 0.062399 0.168458 0.210572
9 1 0.137712 0.241765 0.289464
10 1 0.243043 0.162351 0.244129
11 1 0.254367 0.0982667 0.335713
12 1 0.0765734 0.0104176 0.303655
13 1 0.0222412 0.320634 0.0707816
14 1 0.10553 0.563357 0.0474794
15 1 0.106872 0.565608 0.135255
16 1 0.211645 0.441963 0.118807
17 1 0.185494 0.391176 0.201038
18 1 0.995494 0.339954 0.165185
19 1 0.985577 0.289516 0.255545
20 1 0.127345 0.582546 0.218717
21 1 0.132951 0.597679 0.318389
22 1 0.219374 0.484804 0.274568
23 1 0.279802 0.417627 0.346195
24 1 0.0393552 0.370236 0.341304
25 1 0.949873 0.623265 0.0656261
26 1 0.982773 0.823229 0.0369002
27 1 0.124846 0.90902 0.141126
28 1 0.177978 0.774044 0.0978145
29 1 0.205669 0.808598 0.184144
30 1 0.991502 0.675902 0.155871
31 1 0.985754 0.673916 0.241723
32 1 0.110427 0.906423 0.220657
33 1 0.176817 0.881392 0.338129
34 1 0.18937 0.773006 0.267571
35 1 0.298056 0.787684 0.35145
36 1 0.983565 0.644415 0.323029
37 1 0.339406 0.00269271 0.0988517
38 1 0.531176 0.241919 0.0664541
39 1 0.413103 0.225709 0.137132
40 1 0.600558 0.0892396 0.0644487
41 1 0.504838 0.0711663 0.1412
42 1 0.308399 0.0379609 0.184197
43 1 0.314984 0.0393102 0.271449
44 1 0.450591 0.299674 0.217269
45 1 0.460246 0.227317 0.296384
46 1 0.52855 0.147436 0.216654
47 1 0.56896 0.112788 0.299856
48 1 0.418525 3.09427e-05 0.356631
49 1 0.284645 0.317156 0.0834037
50 1 0.406313 0.531837 0.0513196
51 1 0.40847 0.520428 0.135519
52 1 0.536293 0.44384 0.0913825
53 1 0.565971 0.49295 0.168372
54 1 0.28124 0.3029 0.176492
55 1 0.318713 0.369564 0.26438
56 1 0.431851 0.528771 0.221479
57 1 0.502465 0.524475 0.327365
58 1 0.578969 0.455772 0.26269
59 1 0.631861 0.421769 0.344532
60 1 0.379543 0.315229 0.343601
61 1 0.286371 0.667336 0.0884789
62 1 0.446321 0.893761 0.0834174
63 1 0.369078 0.820937 0.156098
64 1 0.482535 0.734678 0.111225
65 1 0.521137 0.722228 0.195167
66 1 0.304938 0.621914 0.17347
67 1 0.336969 0.717016 0.251088
68 1 0.409175 0.927861 0.231079
69 1 0.474832 0.890859 0.300358
70 1 0.587191 0.804207 0.261676
71 1 0.60817 0.750341 0.340841
72 1 0.420467 0.622621 0.293045
73 1 0.634496 0.906031 0.0646867
74 1 0.850975 0.280135 0.0452528
75 1 0.738335 0.179131 0.125226
76 1 0.864154 0.110319 0.0969299
77 1 0.842713 0.138916 0.195172
78 1 0.669906 0.987637 0.152087
79 1 0.635566 0.00191406 0.241098
80 1 0.737052 0.263515 0.213731
81 1 0.789512 0.222789 0.300845
82 1 0.862081 0.0804614 0.265359
83 1 0.959919 0.102544 0.342496
84 1 0.686107 0.968987 0.31794
85 1 0.748276 0.390636 0.0564924
86 1 0.728411 0.565827 0.0420845
87 1 0.75306 0.513071 0.126878
88 1 0.93149 0.438522 0.105141
89 1 0.905752 0.494035 0.183984
90 1 0.657884 0.295257 0.132867
91 1 0.667994 0.408426 0.196174
92 1 0.81569 0.619628 0.200462
93 1 0.784583 0.536286 0.285491
94 1 0.924685 0.466122 0.26246
95 1 0.826358 0.429029 0.342902
96 1 0.680073 0.32497 0.277063
97 1 0.621334 0.677024 0.0670535
98 1 0.801157 0.855109 0.0344946
99 1 0.760256 0.858646 0.119982
100 1 0.832835 0.721964 0.106368
101 1 0.915345 0.82506 0.19384
102 1 0.699745 0.698988 0.179999
103 1 0.694028 0.688052 0.264441
104 1 0.743185 0.902025 0.205479
105 1 0.804825 0.893356 0.308213
106 1 0.920446 0.794286 0.28315
107 1 0.953488 0.877458 0.358694
108 1 0.763985 0.676552 0.347199
ITEM: TIMESTEP
70
ITEM: NUMBER OF ATOMS
108
ITEM: BOX BOUNDS xy xz yz pp pp pp
-7.2075420000000001e+00 1.4415084000000000e+01 -7.2075420000000001e+00
0.0000000000000000e+00 1.2483828000000001e+01 0.0000000000000000e+00
0.0000000000000000e+00 3.2516254000000004e+01 0.0000000000000000e+00
ITEM: ATOMS id type xs ys zs
1 1 0.00317987 0.00592809 0.104386
2 1 0.0797968 0.171811 0.0559138
3 1 0.0663519 0.223823 0.134952
4 1 0.21978 0.0890947 0.0735086
5 1 0.141713 0.0806316 0.163274
6 1 0.926781 0.0474351 0.168085
7 1 0.988648 0.0160473 0.257599
8 1 0.0503949 0.206755 0.216585
9 1 0.0983737 0.215036 0.303189
10 1 0.209691 0.168711 0.242623
11 1 0.306762 0.118267 0.372464
12 1 0.141051 0.0304103 0.31006
13 1 0.0310636 0.373794 0.0692539
14 1 0.0609867 0.563472 0.0322616
15 1 0.106276 0.567384 0.138885
16 1 0.200998 0.415345 0.114292
17 1 0.148559 0.41613 0.187319
18 1 0.9694 0.351346 0.150312
19 1 0.963817 0.327407 0.234902
20 1 0.102869 0.580618 0.220749
21 1 0.100415 0.597243 0.314344
22 1 0.200379 0.491528 0.26317
23 1 0.262731 0.456338 0.335113
24 1 0.0220975 0.361257 0.323328
25 1 0.922006 0.603626 0.057906
26 1 0.987818 0.816526 0.0441029
27 1 0.0909302 0.87046 0.116369
28 1 0.194155 0.748259 0.0859393
29 1 0.218574 0.816368 0.179984
30 1 0.998764 0.692783 0.161403
31 1 0.00896424 0.685661 0.238468
32 1 0.117067 0.933513 0.227903
33 1 0.168978 0.890923 0.353915
34 1 0.201257 0.812343 0.276894
35 1 0.308136 0.737772 0.339101
36 1 0.980799 0.678584 0.336486
37 1 0.333241 0.965183 0.1113
38 1 0.478355 0.166269 0.0774325
39 1 0.381762 0.225427 0.134466
40 1 0.602603 0.0489942 0.0651792
41 1 0.547544 0.0771469 0.141084
42 1 0.302135 0.0655344 0.188242
43 1 0.310183 0.0287593 0.279457
44 1 0.413849 0.295001 0.213946
45 1 0.45879 0.229136 0.303974
46 1 0.549746 0.199045 0.217198
47 1 0.566781 0.106851 0.280145
48 1 0.381839 0.997607 0.339272
49 1 0.290703 0.316946 0.0923262
50 1 0.413501 0.48872 0.0401727
51 1 0.422294 0.541926 0.117219
52 1 0.543994 0.409905 0.0860792
53 1 0.592141 0.482204 0.171746
54 1 0.256168 0.312887 0.179568
55 1 0.365489 0.370488 0.284516
56 1 0.405837 0.494746 0.207632
57 1 0.536475 0.561948 0.323985
58 1 0.568672 0.46556 0.261507
59 1 0.643945 0.428346 0.344204
60 1 0.39124 0.346802 0.366722
61 1 0.290864 0.61035 0.0847825
62 1 0.377296 0.829183 0.0518098
63 1 0.406166 0.828937 0.15887
64 1 0.510534 0.736565 0.104832
65 1 0.522463 0.751328 0.201483
66 1 0.312911 0.613275 0.182385
67 1 0.313528 0.730762 0.253593
68 1 0.43232 0.97948 0.220306
69 1 0.492356 0.873301 0.281868
70 1 0.626453 0.800189 0.266502
71 1 0.64511 0.777114 0.350193
72 1 0.408709 0.622753 0.281698
73 1 0.65225 0.899021 0.0547721
74 1 0.790615 0.216083 0.031754
75 1 0.774863 0.198694 0.113456
76 1 0.843386 0.0551488 0.0791812
77 1 0.799385 0.100918 0.18486
78 1 0.623783 0.949058 0.136401
79 1 0.647871 0.0277837 0.226155
80 1 0.761663 0.244413 0.215505
81 1 0.796025 0.22554 0.312484
82 1 0.88724 0.11495 0.2828
83 1 0.972012 0.0262406 0.345652
84 1 0.677493 0.0241632 0.336861
85 1 0.708014 0.376117 0.0549017
86 1 0.751401 0.619932 0.0440858
87 1 0.779807 0.533351 0.126683
88 1 0.877077 0.417061 0.100362
89 1 0.908276 0.483755 0.195469
90 1 0.628292 0.280649 0.135282
91 1 0.701136 0.394583 0.212861
92 1 0.788081 0.613686 0.197105
93 1 0.815211 0.54619 0.277934
94 1 0.926547 0.465194 0.283499
95 1 0.842402 0.411636 0.358825
96 1 0.693271 0.334887 0.289073
97 1 0.637498 0.667083 0.0909857
98 1 0.849461 0.883721 0.0525425
99 1 0.742332 0.878455 0.127134
100 1 0.850042 0.738549 0.113151
101 1 0.919543 0.856433 0.177941