       N       E                     dE             d eps       ncg     rms          rms(c)
DAV:   1     0.116692113493E+05    0.11669E+05   -0.50305E+05  6688   0.108E+03
DAV:   2    -0.136280848514E+03   -0.11805E+05   -0.11330E+05  8680   0.361E+02
DAV:   3    -0.211287000660E+04   -0.19766E+04   -0.19603E+04  8336   0.149E+02
DAV:   4    -0.219466404086E+04   -0.81794E+02   -0.81590E+02  8472   0.341E+01
DAV:   5    -0.219654866018E+04   -0.18846E+01   -0.18822E+01  8648   0.630E+00    0.103E+02
DAV:   6    -0.194534164431E+04    0.25121E+03   -0.10856E+03  9104   0.442E+01    0.847E+01
DAV:   7    -0.193412927756E+04    0.11212E+02   -0.30238E+01  8928   0.111E+01    0.647E+01
DAV:   8    -0.194103186476E+04   -0.69026E+01   -0.17058E+02  9400   0.116E+01    0.320E+01
DAV:   9    -0.193078241048E+04    0.10249E+02   -0.54924E+01  8648   0.884E+00    0.158E+01
DAV:  10    -0.192526804363E+04    0.55144E+01   -0.47030E+00  9256   0.858E+00    0.118E+01
DAV:  11    -0.192399875427E+04    0.12693E+01   -0.62247E+00  8064   0.393E+00    0.850E+00
DAV:  12    -0.192363523452E+04    0.36352E+00   -0.13920E+00  8232   0.199E+00    0.881E+00
DAV:  13    -0.192351127237E+04    0.12396E+00   -0.26050E-01  6800   0.571E-01    0.680E+00
DAV:  14    -0.192377758085E+04   -0.26631E+00   -0.31471E+00 10680   0.133E+00    0.778E+00
DAV:  15    -0.192352374207E+04    0.25384E+00   -0.48179E-01  8104   0.126E+00    0.854E+00
DAV:  16    -0.192335390976E+04    0.16983E+00   -0.41115E-01  7624   0.109E+00    0.627E+00
DAV:  17    -0.192340124075E+04   -0.47331E-01   -0.25533E-01  8424   0.893E-01    0.546E+00
DAV:  18    -0.192333108336E+04    0.70157E-01   -0.45409E-01  8568   0.621E-01    0.460E+00
DAV:  19    -0.192333650485E+04   -0.54215E-02   -0.24749E-01  8064   0.466E-01    0.287E+00
DAV:  20    -0.192347985685E+04   -0.14335E+00   -0.19838E+00  8992   0.522E-01    0.745E+00
DAV:  21    -0.192328480667E+04    0.19505E+00   -0.33945E-01  8512   0.910E-01    0.307E+00
DAV:  22    -0.192336345656E+04   -0.78650E-01   -0.51467E-02  9872   0.782E-01    0.308E+00
DAV:  23    -0.192334935594E+04    0.14101E-01   -0.47758E-02  9680   0.783E-01    0.303E+00
DAV:  24    -0.192333508208E+04    0.14274E-01   -0.71546E-02  8480   0.602E-01    0.297E+00
DAV:  25    -0.192332195602E+04    0.13126E-01   -0.81217E-02  7768   0.349E-01    0.224E+00
DAV:  26    -0.192332584783E+04   -0.38918E-02   -0.20932E-02  8504   0.264E-01    0.221E+00
DAV:  27    -0.192332455448E+04    0.12934E-02   -0.18121E-02  7264   0.185E-01    0.144E+00
DAV:  28    -0.192333416717E+04   -0.96127E-02   -0.23890E-02  8576   0.190E-01    0.852E-01
DAV:  29    -0.192334150825E+04   -0.73411E-02   -0.16613E-02  9152   0.230E-01    0.122E+00
DAV:  30    -0.192334342858E+04   -0.19203E-02   -0.48164E-03  8696   0.212E-01    0.117E+00
DAV:  31    -0.192333554423E+04    0.78844E-02   -0.12433E-02 10696   0.382E-01    0.617E-01
DAV:  32    -0.192333778103E+04   -0.22368E-02   -0.10141E-02  9984   0.330E-01    0.437E-01
DAV:  33    -0.192333775074E+04    0.30292E-04   -0.64010E-03  8408   0.214E-01    0.233E-01
DAV:  34    -0.192333858356E+04   -0.83281E-03   -0.14795E-03  7680   0.140E-01    0.194E-01
DAV:  35    -0.192333888194E+04   -0.29839E-03   -0.56250E-04  8064   0.116E-01    0.219E-01
DAV:  36    -0.192335037682E+04   -0.11495E-01   -0.73078E-03 10072   0.502E-01    0.102E+00
DAV:  37    -0.192334219820E+04    0.81786E-02   -0.35921E-03  7296   0.160E-01    0.761E-01
DAV:  38    -0.192333968274E+04    0.25155E-02   -0.16983E-03  8200   0.835E-02    0.651E-01
DAV:  39    -0.192334439885E+04   -0.47161E-02   -0.49087E-03  7928   0.136E-01    0.815E-01
DAV:  40    -0.192334173143E+04    0.26674E-02   -0.64459E-03  8184   0.154E-01    0.278E-01
DAV:  41    -0.192334469577E+04   -0.29643E-02   -0.62082E-04  7496   0.432E-02    0.223E-01
DAV:  42    -0.192334511205E+04   -0.41628E-03   -0.90007E-05  7368   0.375E-02    0.194E-01
DAV:  43    -0.192334528361E+04   -0.17156E-03   -0.10852E-04  6648   0.151E-02    0.142E-01
DAV:  44    -0.192334540198E+04   -0.11837E-03   -0.14351E-05  4568   0.729E-03    0.114E-01
DAV:  45    -0.192334585350E+04   -0.45152E-03   -0.17031E-04  6592   0.184E-02    0.653E-02
DAV:  46    -0.192334637975E+04   -0.52625E-03   -0.15533E-04  6456   0.431E-02    0.159E-01
DAV:  47    -0.192334636490E+04    0.14851E-04   -0.31107E-05  5928   0.971E-03    0.138E-01
DAV:  48    -0.192334630671E+04    0.58193E-04   -0.92703E-06  4112   0.145E-02    0.932E-02
DAV:  49    -0.192334632309E+04   -0.16381E-04   -0.55753E-05  5384   0.355E-02    0.262E-02
DAV:  50    -0.192334638378E+04   -0.60688E-04   -0.46307E-05  5944   0.134E-02    0.192E-02
DAV:  51    -0.192334638960E+04   -0.58260E-05   -0.11583E-05  4672   0.443E-03    0.260E-02
DAV:  52    -0.192334638920E+04    0.39733E-06   -0.11871E-06  4152   0.199E-03
   1 F= -.19750636E+04 E0= -.19750372E+04  d E =-.197506E+04
       N       E                     dE             d eps       ncg     rms          rms(c)
DAV:   1    -0.194016205862E+04   -0.16816E+02   -0.84936E+02  6324   0.435E+01    0.852E+00
DAV:   2    -0.194336450622E+04   -0.32024E+01   -0.37983E+01  8160   0.665E+00    0.115E+01
DAV:   3    -0.194231760093E+04    0.10469E+01   -0.75149E+00  9408   0.407E+00    0.685E+00
DAV:   4    -0.194201006592E+04    0.30754E+00   -0.15312E+00  7816   0.151E+00    0.560E+00
DAV:   5    -0.194198924052E+04    0.20825E-01   -0.30642E+00  8616   0.120E+00    0.778E+00
DAV:   6    -0.194176502139E+04    0.22422E+00   -0.12307E+00  7984   0.788E-01    0.281E+00
DAV:   7    -0.194188989196E+04   -0.12487E+00   -0.53328E-01  8424   0.875E-01    0.345E+00
DAV:   8    -0.194188931048E+04    0.58148E-03   -0.25890E-01  9440   0.139E+00    0.299E+00
DAV:   9    -0.194187631815E+04    0.12992E-01   -0.50945E-01  7680   0.655E-01    0.375E+00
DAV:  10    -0.194188047803E+04   -0.41599E-02   -0.11659E+00  8648   0.549E-01    0.339E+00
DAV:  11    -0.194183447524E+04    0.46003E-01   -0.37482E-02  8704   0.505E-01    0.243E+00
DAV:  12    -0.194181583945E+04    0.18636E-01   -0.44713E-02  9480   0.435E-01    0.837E-01
DAV:  13    -0.194184133500E+04   -0.25496E-01   -0.27531E-02  8112   0.232E-01    0.118E+00
DAV:  14    -0.194184689023E+04   -0.55552E-02   -0.18083E-02  8304   0.277E-01    0.640E-01
DAV:  15    -0.194184675185E+04    0.13838E-03   -0.28485E-03  6704   0.617E-02    0.524E-01
DAV:  16    -0.194184692862E+04   -0.17677E-03   -0.48192E-04  7600   0.595E-02    0.399E-01
DAV:  17    -0.194184787855E+04   -0.94993E-03   -0.16832E-03  8288   0.104E-01    0.142E-01
DAV:  18    -0.194184891973E+04   -0.10412E-02   -0.63207E-04  7536   0.624E-02    0.720E-02
DAV:  19    -0.194184927980E+04   -0.36007E-03   -0.48834E-04  7856   0.297E-02    0.125E-01
DAV:  20    -0.194184928733E+04   -0.75337E-05   -0.52870E-05  6928   0.217E-02    0.954E-02
DAV:  21    -0.194184955802E+04   -0.27069E-03   -0.97754E-05  8240   0.158E-02    0.386E-02
DAV:  22    -0.194185004951E+04   -0.49149E-03   -0.57445E-05  7448   0.122E-02    0.306E-02
DAV:  23    -0.194185022997E+04   -0.18046E-03   -0.10162E-05  4504   0.603E-03    0.301E-02
DAV:  24    -0.194185048377E+04   -0.25380E-03   -0.17930E-05  5112   0.889E-03    0.155E-02
DAV:  25    -0.194185087274E+04   -0.38897E-03   -0.45046E-05  6216   0.977E-03    0.368E-02
DAV:  26    -0.194185088868E+04   -0.15936E-04   -0.66651E-06  4440   0.375E-03    0.227E-02
DAV:  27    -0.194185090586E+04   -0.17184E-04   -0.23362E-06  4024   0.205E-03    0.125E-02
DAV:  28    -0.194185110444E+04   -0.19858E-03   -0.11086E-05  4328   0.602E-03    0.952E-03
DAV:  29    -0.194185115172E+04   -0.47281E-04   -0.43024E-06  4072   0.388E-03    0.726E-03
DAV:  30    -0.194185116201E+04   -0.10291E-04   -0.15331E-06  4264   0.185E-03    0.634E-03
DAV:  31    -0.194185116823E+04   -0.62195E-05   -0.90140E-07  3984   0.217E-03    0.463E-03
DAV:  32    -0.194185117858E+04   -0.10354E-04   -0.84604E-07  3912   0.143E-03    0.328E-03
DAV:  33    -0.194185117946E+04   -0.87102E-06   -0.29489E-07  4288   0.926E-04
   2 F= -.19936764E+04 E0= -.19936508E+04  d E =-.186128E+02
       N       E                     dE             d eps       ncg     rms          rms(c)
DAV:   1    -0.194915707329E+04   -0.73059E+01   -0.15280E+03  6328   0.605E+01    0.102E+01
DAV:   2    -0.195416154787E+04   -0.50045E+01   -0.56470E+01  8144   0.913E+00    0.121E+01
DAV:   3    -0.195313588824E+04    0.10257E+01   -0.23644E+00  9392   0.519E+00    0.900E+00
DAV:   4    -0.195261067165E+04    0.52522E+00   -0.21211E+00  7224   0.158E+00    0.639E+00
DAV:   5    -0.195258554824E+04    0.25123E-01   -0.28112E+00  9344   0.139E+00    0.815E+00
DAV:   6    -0.195234657913E+04    0.23897E+00   -0.16846E+00  8840   0.121E+00    0.490E+00
DAV:   7    -0.195244820111E+04   -0.10162E+00   -0.21200E+00 10112   0.209E+00    0.406E+00
DAV:   8    -0.195239819874E+04    0.50002E-01   -0.39698E-01  8032   0.114E+00    0.404E+00
DAV:   9    -0.195237936561E+04    0.18833E-01   -0.46787E-01  9224   0.151E+00    0.387E+00
DAV:  10    -0.195231822807E+04    0.61138E-01   -0.12215E-01  7304   0.514E-01    0.249E+00
DAV:  11    -0.195233269354E+04   -0.14465E-01   -0.94703E-02  8896   0.509E-01    0.225E+00
DAV:  12    -0.195235612927E+04   -0.23436E-01   -0.27613E-01  9328   0.749E-01    0.222E+00
DAV:  13    -0.195235066103E+04    0.54682E-02   -0.10490E-01  8344   0.641E-01    0.891E-01
DAV:  14    -0.195235800097E+04   -0.73399E-02   -0.12573E-02  7016   0.164E-01    0.540E-01
DAV:  15    -0.195235881185E+04   -0.81088E-03   -0.34791E-03  8784   0.996E-02    0.277E-01
DAV:  16    -0.195236206062E+04   -0.32488E-02   -0.27913E-03  9240   0.146E-01    0.265E-01
DAV:  17    -0.195236372166E+04   -0.16610E-02   -0.22687E-03  7504   0.724E-02    0.171E-01
DAV:  18    -0.195236461671E+04   -0.89505E-03   -0.35216E-04  7376   0.324E-02    0.124E-01
DAV:  19    -0.195236566926E+04   -0.10526E-02   -0.19563E-04  8080   0.537E-02    0.788E-02
DAV:  20    -0.195236786324E+04   -0.21940E-02   -0.87236E-04  6888   0.525E-02    0.112E-01
DAV:  21    -0.195236814661E+04   -0.28338E-03   -0.21736E-04  7656   0.282E-02    0.110E-01
DAV:  22    -0.195236861736E+04   -0.47074E-03   -0.75855E-05  7488   0.122E-02    0.148E-01
DAV:  23    -0.195236900493E+04   -0.38758E-03   -0.17350E-04  7096   0.433E-02    0.376E-02
DAV:  24    -0.195236956922E+04   -0.56428E-03   -0.95886E-05  7520   0.216E-02    0.403E-02
DAV:  25    -0.195236973549E+04   -0.16627E-03   -0.26360E-05  6512   0.102E-02    0.316E-02
DAV:  26    -0.195236976895E+04   -0.33461E-04   -0.60325E-06  4536   0.400E-03    0.208E-02
DAV:  27    -0.195237004629E+04   -0.27734E-03   -0.14587E-05  4704   0.568E-03    0.108E-02
DAV:  28    -0.195237016267E+04   -0.11638E-03   -0.30295E-06  4168   0.412E-03    0.594E-03
DAV:  29    -0.195237028030E+04   -0.11763E-03   -0.27524E-06  4072   0.412E-03    0.616E-03
DAV:  30    -0.195237034374E+04   -0.63439E-04   -0.19426E-06  4136   0.490E-03    0.505E-03
DAV:  31    -0.195237036206E+04   -0.18321E-04   -0.22566E-06  4232   0.307E-03    0.370E-03
DAV:  32    -0.195237036424E+04   -0.21796E-05   -0.11803E-06  4528   0.183E-03
   3 F= -.20043333E+04 E0= -.20043081E+04  d E =-.292697E+02
       N       E                     dE             d eps       ncg     rms          rms(c)
DAV:   1    -0.195701711051E+04   -0.46467E+01   -0.79424E+02  6368   0.445E+01    0.835E+00
DAV:   2    -0.195875217459E+04   -0.17351E+01   -0.17997E+01  8232   0.618E+00    0.543E+00
DAV:   3    -0.195904282655E+04   -0.29065E+00   -0.11670E+01  8568   0.218E+00    0.925E+00
DAV:   4    -0.195844578360E+04    0.59704E+00   -0.20199E+00  8912   0.201E+00    0.496E+00
DAV:   5    -0.195836778296E+04    0.78001E-01   -0.92479E-01  8088   0.997E-01    0.391E+00
DAV:   6    -0.195834038107E+04    0.27402E-01   -0.54001E-01  8096   0.702E-01    0.349E+00
DAV:   7    -0.195829709775E+04    0.43283E-01   -0.22845E-01  8112   0.676E-01    0.231E+00
DAV:   8    -0.195829543750E+04    0.16602E-02   -0.50773E-02  7792   0.354E-01    0.144E+00
DAV:   9    -0.195830514606E+04   -0.97086E-02   -0.17511E-02  8544   0.277E-01    0.117E+00
DAV:  10    -0.195831311306E+04   -0.79670E-02   -0.28821E-02  8360   0.269E-01    0.791E-01
DAV:  11    -0.195831372873E+04   -0.61567E-03   -0.13004E-02  8392   0.198E-01    0.791E-01
DAV:  12    -0.195831149136E+04    0.22374E-02   -0.30248E-03  7872   0.119E-01    0.286E-01
DAV:  13    -0.195831500284E+04   -0.35115E-02   -0.10795E-03  7992   0.666E-02    0.140E-01
DAV:  14    -0.195831654170E+04   -0.15389E-02   -0.74446E-04  8288   0.398E-02    0.122E-01
DAV:  15    -0.195831707100E+04   -0.52929E-03   -0.22243E-04  7656   0.272E-02    0.886E-02
DAV:  16    -0.195831749896E+04   -0.42797E-03   -0.90061E-05  7568   0.154E-02    0.374E-02
DAV:  17    -0.195831803471E+04   -0.53574E-03   -0.81735E-05  7504   0.121E-02    0.343E-02
DAV:  18    -0.195831860066E+04   -0.56595E-03   -0.50416E-05  6712   0.133E-02    0.235E-02
DAV:  19    -0.195831896794E+04   -0.36728E-03   -0.44401E-05  7040   0.886E-03    0.213E-02
DAV:  20    -0.195831917364E+04   -0.20570E-03   -0.10583E-05  4480   0.549E-03    0.181E-02
DAV:  21    -0.195831938045E+04   -0.20681E-03   -0.10776E-05  4552   0.554E-03    0.775E-03
DAV:  22    -0.195831953555E+04   -0.15510E-03   -0.67205E-06  4192   0.435E-03    0.396E-03
DAV:  23    -0.195831963168E+04   -0.96128E-04   -0.36061E-06  4112   0.373E-03    0.573E-03
DAV:  24    -0.195831967793E+04   -0.46250E-04   -0.21558E-06  4176   0.249E-03    0.298E-03
DAV:  25    -0.195831969807E+04   -0.20140E-04   -0.12441E-06  4184   0.205E-03    0.137E-03
DAV:  26    -0.195831970866E+04   -0.10591E-04   -0.91759E-07  4168   0.132E-03    0.171E-03
DAV:  27    -0.195831971018E+04   -0.15185E-05   -0.34383E-07  4488   0.985E-04
   4 F= -.20103664E+04 E0= -.20103424E+04  d E =-.603310E+01
       N       E                     dE             d eps       ncg     rms          rms(c)
DAV:   1    -0.195865771090E+04   -0.33800E+00   -0.14355E+03  6539   0.599E+01    0.119E+01
DAV:   2    -0.196217298801E+04   -0.35153E+01   -0.35667E+01  8240   0.896E+00    0.766E+00
DAV:   3    -0.196216493623E+04    0.80518E-02   -0.12443E+01  8368   0.277E+00    0.911E+00
DAV:   4    -0.196138384466E+04    0.78109E+00   -0.12795E+00  9000   0.261E+00    0.532E+00
DAV:   5    -0.196130469937E+04    0.79145E-01   -0.10320E+00  7464   0.769E-01    0.430E+00
DAV:   6    -0.196125065666E+04    0.54043E-01   -0.24098E-01  8600   0.911E-01    0.331E+00
DAV:   7    -0.196127834301E+04   -0.27686E-01   -0.23153E-01  8624   0.813E-01    0.345E+00
DAV:   8    -0.196122808398E+04    0.50259E-01   -0.68454E-02  8008   0.622E-01    0.134E+00
DAV:   9    -0.196124723857E+04   -0.19155E-01   -0.62125E-02  8280   0.393E-01    0.577E-01
DAV:  10    -0.196125601380E+04   -0.87752E-02   -0.20952E-02  7928   0.228E-01    0.410E-01
DAV:  11    -0.196125613231E+04   -0.11851E-03   -0.82018E-03  8208   0.133E-01    0.341E-01
DAV:  12    -0.196125725894E+04   -0.11266E-02   -0.60308E-03  7960   0.878E-02    0.234E-01
DAV:  13    -0.196125866379E+04   -0.14049E-02   -0.23512E-03  7568   0.722E-02    0.115E-01
DAV:  14    -0.196125960796E+04   -0.94416E-03   -0.73616E-04  7808   0.415E-02    0.858E-02
DAV:  15    -0.196126018329E+04   -0.57534E-03   -0.15056E-04  7352   0.217E-02    0.331E-02
DAV:  16    -0.196126098838E+04   -0.80508E-03   -0.11794E-04  6608   0.181E-02    0.322E-02
DAV:  17    -0.196126172832E+04   -0.73994E-03   -0.14073E-04  7272   0.178E-02    0.277E-02
DAV:  18    -0.196126224718E+04   -0.51886E-03   -0.68913E-05  7544   0.134E-02    0.137E-02
DAV:  19    -0.196126246286E+04   -0.21568E-03   -0.19407E-05  5712   0.732E-03    0.155E-02
DAV:  20    -0.196126275457E+04   -0.29172E-03   -0.15283E-05  5264   0.659E-03    0.118E-02
DAV:  21    -0.196126304249E+04   -0.28791E-03   -0.11826E-05  4400   0.691E-03    0.466E-03
DAV:  22    -0.196126314497E+04   -0.10248E-03   -0.43338E-06  4344   0.419E-03    0.413E-03
DAV:  23    -0.196126320236E+04   -0.57387E-04   -0.21695E-06  4224   0.259E-03    0.270E-03
DAV:  24    -0.196126323865E+04   -0.36299E-04   -0.13705E-06  4216   0.188E-03    0.167E-03
DAV:  25    -0.196126324319E+04   -0.45372E-05   -0.77240E-07  4528   0.159E-03
   5 F= -.20134185E+04 E0= -.20133949E+04  d E =-.908516E+01
       N       E                     dE             d eps       ncg     rms          rms(c)
DAV:   1    -0.196339624856E+04   -0.21330E+01   -0.23909E+02  6760   0.237E+01    0.497E+00
DAV:   2    -0.196408072960E+04   -0.68448E+00   -0.77353E+00  8264   0.363E+00    0.978E+00
DAV:   3    -0.196362942750E+04    0.45130E+00   -0.28030E+00  8320   0.139E+00    0.412E+00
DAV:   4    -0.196380361662E+04   -0.17419E+00   -0.47878E-01  8080   0.103E+00    0.315E+00
DAV:   5    -0.196377941362E+04    0.24203E-01   -0.53866E-01  8704   0.702E-01    0.318E+00
DAV:   6    -0.196380097049E+04   -0.21557E-01   -0.21913E-01  8336   0.587E-01    0.358E+00
DAV:   7    -0.196375320681E+04    0.47764E-01   -0.22317E-01  8904   0.809E-01    0.169E+00
DAV:   8    -0.196375586493E+04   -0.26581E-02   -0.62915E-02  8416   0.380E-01    0.732E-01
DAV:   9    -0.196376394895E+04   -0.80840E-02   -0.26882E-02  8136   0.228E-01    0.600E-01
DAV:  10    -0.196376612617E+04   -0.21772E-02   -0.50501E-03  7752   0.132E-01    0.267E-01
DAV:  11    -0.196376984172E+04   -0.37155E-02   -0.27851E-03  7672   0.748E-02    0.294E-01
DAV:  12    -0.196377150526E+04   -0.16635E-02   -0.19749E-03  8008   0.693E-02    0.172E-01
DAV:  13    -0.196377370872E+04   -0.22035E-02   -0.67147E-04  7136   0.387E-02    0.911E-02
DAV:  14    -0.196377525902E+04   -0.15503E-02   -0.34757E-04  7872   0.260E-02    0.515E-02
DAV:  15    -0.196377692542E+04   -0.16664E-02   -0.21585E-04  6864   0.185E-02    0.281E-02
DAV:  16    -0.196377826966E+04   -0.13442E-02   -0.23151E-04  7064   0.163E-02    0.241E-02
DAV:  17    -0.196377892601E+04   -0.65635E-03   -0.87513E-05  7760   0.104E-02    0.181E-02
DAV:  18    -0.196377929169E+04   -0.36568E-03   -0.18961E-05  5112   0.633E-03    0.106E-02
DAV:  19    -0.196377966977E+04   -0.37808E-03   -0.22098E-05  5696   0.715E-03    0.913E-03
DAV:  20    -0.196377988408E+04   -0.21431E-03   -0.58754E-06  4368   0.420E-03    0.417E-03
DAV:  21    -0.196378000706E+04   -0.12298E-03   -0.23730E-06  4328   0.239E-03    0.244E-03
DAV:  22    -0.196378009656E+04   -0.89503E-04   -0.16497E-06  4216   0.198E-03    0.193E-03
DAV:  23    -0.196378013347E+04   -0.36904E-04   -0.10356E-06  4344   0.167E-03    0.129E-03
DAV:  24    -0.196378014266E+04   -0.91955E-05   -0.50382E-07  4384   0.980E-04    0.664E-04
DAV:  25    -0.196378014743E+04   -0.47650E-05   -0.29797E-07  4152   0.716E-04
   6 F= -.20160860E+04 E0= -.20160624E+04  d E =-.266757E+01
       N       E                     dE             d eps       ncg     rms          rms(c)
DAV:   1    -0.196391812358E+04   -0.13798E+00   -0.42338E+01  6736   0.996E+00    0.212E+00
DAV:   2    -0.196405404532E+04   -0.13592E+00   -0.15943E+00  8208   0.153E+00    0.598E+00
DAV:   3    -0.196386452323E+04    0.18952E+00   -0.85968E-01  8208   0.619E-01    0.234E+00
DAV:   4    -0.196399285084E+04   -0.12833E+00   -0.17499E-01  7904   0.472E-01    0.306E+00
DAV:   5    -0.196394988678E+04    0.42964E-01   -0.32708E-01  9040   0.377E-01    0.114E+00
DAV:   6    -0.196397948014E+04   -0.29593E-01   -0.55181E-02  8920   0.308E-01    0.180E+00
DAV:   7    -0.196395550015E+04    0.23980E-01   -0.30000E-02  8136   0.346E-01    0.424E-01
DAV:   8    -0.196396526052E+04   -0.97604E-02   -0.12386E-02  8168   0.153E-01    0.415E-01
DAV:   9    -0.196396563972E+04   -0.37921E-03   -0.17424E-03  7480   0.677E-02    0.133E-01
DAV:  10    -0.196396727316E+04   -0.16334E-02   -0.53002E-04  7584   0.406E-02    0.933E-02
DAV:  11    -0.196396828730E+04   -0.10141E-02   -0.23311E-04  7320   0.238E-02    0.413E-02
DAV:  12    -0.196396916476E+04   -0.87746E-03   -0.14767E-04  7600   0.157E-02    0.238E-02
DAV:  13    -0.196396987254E+04   -0.70778E-03   -0.78623E-05  6344   0.105E-02    0.180E-02
DAV:  14    -0.196397038615E+04   -0.51360E-03   -0.56025E-05  6800   0.927E-03    0.194E-02
DAV:  15    -0.196397075003E+04   -0.36389E-03   -0.28392E-05  5832   0.585E-03    0.120E-02
DAV:  16    -0.196397102026E+04   -0.27022E-03   -0.10463E-05  4816   0.406E-03    0.761E-03
DAV:  17    -0.196397133014E+04   -0.30989E-03   -0.15958E-05  5416   0.444E-03    0.532E-03
DAV:  18    -0.196397144813E+04   -0.11799E-03   -0.21294E-06  4504   0.250E-03    0.353E-03
DAV:  19    -0.196397153014E+04   -0.82011E-04   -0.16296E-06  4360   0.203E-03    0.228E-03
DAV:  20    -0.196397156987E+04   -0.39729E-04   -0.99128E-07  4384   0.151E-03    0.116E-03
DAV:  21    -0.196397158584E+04   -0.15968E-04   -0.54147E-07  4416   0.112E-03    0.743E-04
DAV:  22    -0.196397159509E+04   -0.92520E-05   -0.34500E-07  4304   0.870E-04    0.485E-04
DAV:  23    -0.196397159704E+04   -0.19533E-05   -0.18716E-07  4496   0.552E-04
   7 F= -.20163404E+04 E0= -.20163167E+04  d E =-.292189E+01
       N       E                     dE             d eps       ncg     rms          rms(c)
DAV:   1    -0.196444129211E+04   -0.46970E+00   -0.22134E+02  6464   0.231E+01    0.413E+00
DAV:   2    -0.196499692770E+04   -0.55564E+00   -0.58955E+00  8280   0.296E+00    0.739E+00
DAV:   3    -0.196480086397E+04    0.19606E+00   -0.27750E+00  8664   0.113E+00    0.428E+00
DAV:   4    -0.196486417671E+04   -0.63313E-01   -0.39829E-01  9144   0.973E-01    0.282E+00
DAV:   5    -0.196481890305E+04    0.45274E-01   -0.16826E-01  8824   0.469E-01    0.164E+00
DAV:   6    -0.196482683684E+04   -0.79338E-02   -0.37824E-02  8256   0.265E-01    0.167E+00
DAV:   7    -0.196484979767E+04   -0.22961E-01   -0.19588E-01  8312   0.392E-01    0.362E+00
DAV:   8    -0.196479067723E+04    0.59120E-01   -0.36042E-01  8760   0.420E-01    0.157E+00
DAV:   9    -0.196480707960E+04   -0.16402E-01   -0.19778E-02  6976   0.189E-01    0.407E-01
DAV:  10    -0.196482545272E+04   -0.18373E-01   -0.36454E-03  7688   0.109E-01    0.214E-01
DAV:  11    -0.196482678299E+04   -0.13303E-02   -0.11801E-03  8512   0.491E-02    0.101E-01
DAV:  12    -0.196482741292E+04   -0.62993E-03   -0.18289E-04  7072   0.354E-02    0.997E-02
DAV:  13    -0.196482759495E+04   -0.18204E-03   -0.19740E-04  8336   0.266E-02    0.627E-02
DAV:  14    -0.196482774072E+04   -0.14576E-03   -0.59221E-05  6792   0.105E-02    0.292E-02
DAV:  15    -0.196482789003E+04   -0.14931E-03   -0.91249E-06  4560   0.530E-03    0.169E-02
DAV:  16    -0.196482824359E+04   -0.35357E-03   -0.43386E-05  6144   0.836E-03    0.334E-02
DAV:  17    -0.196482830951E+04   -0.65919E-04   -0.92120E-06  4680   0.427E-03    0.145E-02
DAV:  18    -0.196482844697E+04   -0.13746E-03   -0.55557E-06  4408   0.561E-03    0.617E-03
DAV:  19    -0.196482862856E+04   -0.18158E-03   -0.12811E-05  4944   0.515E-03    0.533E-03
DAV:  20    -0.196482869199E+04   -0.63433E-04   -0.27722E-06  4528   0.366E-03    0.400E-03
DAV:  21    -0.196482874043E+04   -0.48439E-04   -0.22111E-06  4392   0.236E-03    0.235E-03
DAV:  22    -0.196482876158E+04   -0.21157E-04   -0.97705E-07  4400   0.176E-03    0.186E-03
DAV:  23    -0.196482876733E+04   -0.57427E-05   -0.56389E-07  4472   0.105E-03    0.148E-03
DAV:  24    -0.196482876992E+04   -0.25952E-05   -0.33525E-07  4336   0.128E-03
   8 F= -.20172443E+04 E0= -.20172209E+04  d E =-.903978E+00
       N       E                     dE             d eps       ncg     rms          rms(c)
DAV:   1    -0.196483004323E+04   -0.12759E-02   -0.80678E+00  6469   0.442E+00    0.795E-01
DAV:   2    -0.196485163972E+04   -0.21596E-01   -0.19804E-01  8216   0.560E-01    0.148E+00
DAV:   3    -0.196484273911E+04    0.89006E-02   -0.62464E-02  9040   0.255E-01    0.147E+00
DAV:   4    -0.196483881081E+04    0.39283E-02   -0.10695E-02  8568   0.183E-01    0.648E-01
DAV:   5    -0.196484258938E+04   -0.37786E-02   -0.79967E-03  7744   0.837E-02    0.313E-01
DAV:   6    -0.196484433459E+04   -0.17452E-02   -0.24937E-03  8088   0.808E-02    0.418E-01
DAV:   7    -0.196484339686E+04    0.93772E-03   -0.29975E-03  8272   0.756E-02    0.284E-01
DAV:   8    -0.196484321310E+04    0.18376E-03   -0.92363E-04  8608   0.516E-02    0.109E-01
DAV:   9    -0.196484365451E+04   -0.44141E-03   -0.21357E-04  7000   0.238E-02    0.593E-02
DAV:  10    -0.196484365470E+04   -0.19080E-06   -0.79986E-05  5920   0.145E-02    0.273E-02
DAV:  11    -0.196484369747E+04   -0.42777E-04   -0.28994E-05  5984   0.114E-02    0.121E-02
DAV:  12    -0.196484371403E+04   -0.16558E-04   -0.13012E-05  5096   0.558E-03    0.655E-03
DAV:  13    -0.196484372153E+04   -0.74924E-05   -0.17581E-06  4520   0.258E-03    0.520E-03
DAV:  14    -0.196484373802E+04   -0.16493E-04   -0.16147E-06  4280   0.228E-03    0.327E-03
DAV:  15    -0.196484375345E+04   -0.15435E-04   -0.17746E-06  4400   0.200E-03    0.339E-03
DAV:  16    -0.196484375943E+04   -0.59775E-05   -0.62403E-07  4560   0.170E-03    0.195E-03
DAV:  17    -0.196484376833E+04   -0.88982E-05   -0.12257E-06  4280   0.242E-03    0.216E-03
DAV:  18    -0.196484377179E+04   -0.34653E-05   -0.72204E-07  4472   0.189E-03
   9 F= -.20172682E+04 E0= -.20172448E+04  d E =-.927824E+00
       N       E                     dE             d eps       ncg     rms          rms(c)
DAV:   1    -0.196488004097E+04   -0.36273E-01   -0.82004E+01  6296   0.139E+01    0.289E+00
DAV:   2    -0.196524214228E+04   -0.36210E+00   -0.44479E+00  8280   0.203E+00    0.959E+00
DAV:   3    -0.196475176537E+04    0.49038E+00   -0.13596E+00  8320   0.962E-01    0.229E+00
DAV:   4    -0.196502623715E+04   -0.27447E+00   -0.36804E-01  8936   0.668E-01    0.304E+00
DAV:   5    -0.196496858372E+04    0.57653E-01   -0.70966E-02  7816   0.315E-01    0.160E+00
DAV:   6    -0.196497437432E+04   -0.57906E-02   -0.23625E-02  9352   0.301E-01    0.983E-01
DAV:   7    -0.196499351061E+04   -0.19136E-01   -0.30337E-02  8184   0.277E-01    0.133E+00
DAV:   8    -0.196498085543E+04    0.12655E-01   -0.14692E-02  7944   0.225E-01    0.271E-01
DAV:   9    -0.196498643614E+04   -0.55807E-02   -0.36964E-03  7736   0.113E-01    0.194E-01
DAV:  10    -0.196498692805E+04   -0.49191E-03   -0.93428E-04  8736   0.528E-02    0.840E-02
DAV:  11    -0.196498693618E+04   -0.81336E-05   -0.23420E-04  6912   0.301E-02    0.661E-02
DAV:  12    -0.196498695723E+04   -0.21044E-04   -0.22089E-04  7584   0.328E-02    0.455E-02
DAV:  13    -0.196498698842E+04   -0.31189E-04   -0.10406E-04  7800   0.145E-02    0.286E-02
DAV:  14    -0.196498702053E+04   -0.32113E-04   -0.98744E-06  4584   0.610E-03    0.158E-02
DAV:  15    -0.196498707017E+04   -0.49639E-04   -0.93653E-06  4424   0.600E-03    0.725E-03
DAV:  16    -0.196498711890E+04   -0.48731E-04   -0.69695E-06  4464   0.502E-03    0.465E-03
DAV:  17    -0.196498714043E+04   -0.21533E-04   -0.34829E-06  4544   0.309E-03    0.395E-03
DAV:  18    -0.196498716329E+04   -0.22859E-04   -0.23210E-06  4264   0.247E-03    0.214E-03
DAV:  19    -0.196498718796E+04   -0.24670E-04   -0.29114E-06  4328   0.206E-03    0.203E-03
DAV:  20    -0.196498719274E+04   -0.47761E-05   -0.11238E-06  4648   0.143E-03
  10 F= -.20174561E+04 E0= -.20174335E+04  d E =-.187934E+00
       N       E                     dE             d eps       ncg     rms          rms(c)
DAV:   1    -0.196499258281E+04   -0.53948E-02   -0.73047E-01  6328   0.131E+00    0.314E-01
DAV:   2    -0.196499768115E+04   -0.50983E-02   -0.18241E-02  8352   0.210E-01    0.126E+00
DAV:   3    -0.196498585931E+04    0.11822E-01   -0.41494E-03  8328   0.141E-01    0.339E-01
DAV:   4    -0.196499353927E+04   -0.76800E-02   -0.15201E-03  6688   0.578E-02    0.153E-01
DAV:   5    -0.196499352279E+04    0.16482E-04   -0.38900E-04  8184   0.279E-02    0.122E-01
DAV:   6    -0.196499347086E+04    0.51930E-04   -0.33089E-04  7752   0.184E-02    0.979E-02
DAV:   7    -0.196499345174E+04    0.19116E-04   -0.17070E-04  6496   0.223E-02    0.328E-02
DAV:   8    -0.196499347699E+04   -0.25243E-04   -0.57056E-05  7928   0.149E-02    0.500E-02
DAV:   9    -0.196499346482E+04    0.12167E-04   -0.18361E-05  5544   0.752E-03    0.211E-02
DAV:  10    -0.196499347336E+04   -0.85447E-05   -0.12778E-05  4496   0.607E-03    0.140E-02
DAV:  11    -0.196499347755E+04   -0.41849E-05   -0.38888E-06  4232   0.385E-03
  11 F= -.20174582E+04 E0= -.20174355E+04  d E =-.190021E+00
       N       E                     dE             d eps       ncg     rms          rms(c)
DAV:   1    -0.196501114458E+04   -0.17671E-01   -0.52845E+01  6328   0.109E+01    0.221E+00
DAV:   2    -0.196527641312E+04   -0.26527E+00   -0.27886E+00  8392   0.156E+00    0.904E+00
DAV:   3    -0.196485059798E+04    0.42582E+00   -0.11003E+00  7896   0.770E-01    0.169E+00
DAV:   4    -0.196509329898E+04   -0.24270E+00   -0.14617E-01  8472   0.473E-01    0.230E+00
DAV:   5    -0.196507165824E+04    0.21641E-01   -0.43553E-02  8352   0.271E-01    0.118E+00
DAV:   6    -0.196508287991E+04   -0.11222E-01   -0.15615E-02  9176   0.217E-01    0.720E-01
DAV:   7    -0.196509156939E+04   -0.86895E-02   -0.12419E-02  7688   0.144E-01    0.704E-01
DAV:   8    -0.196508961332E+04    0.19561E-02   -0.13573E-02  8688   0.154E-01    0.449E-01
DAV:   9    -0.196508907617E+04    0.53716E-03   -0.18162E-03  7144   0.705E-02    0.910E-02
DAV:  10    -0.196509000259E+04   -0.92642E-03   -0.33542E-04  7440   0.314E-02    0.452E-02
DAV:  11    -0.196509006399E+04   -0.61401E-04   -0.68730E-05  7680   0.140E-02    0.269E-02
DAV:  12    -0.196509010735E+04   -0.43358E-04   -0.34708E-05  5832   0.109E-02    0.168E-02
DAV:  13    -0.196509013565E+04   -0.28306E-04   -0.17120E-05  4424   0.666E-03    0.106E-02
DAV:  14    -0.196509015892E+04   -0.23263E-04   -0.65415E-06  4312   0.472E-03    0.548E-03
DAV:  15    -0.196509019420E+04   -0.35287E-04   -0.40900E-06  4216   0.364E-03    0.269E-03
DAV:  16    -0.196509022747E+04   -0.33270E-04   -0.34610E-06  4336   0.357E-03    0.299E-03
DAV:  17    -0.196509024218E+04   -0.14707E-04   -0.25268E-06  4512   0.227E-03    0.219E-03
DAV:  18    -0.196509025516E+04   -0.12983E-04   -0.14539E-06  4320   0.178E-03    0.130E-03
DAV:  19    -0.196509026702E+04   -0.11856E-04   -0.12092E-06  4376   0.168E-03    0.815E-04
DAV:  20    -0.196509027075E+04   -0.37360E-05   -0.61902E-07  4552   0.111E-03
  12 F= -.20176110E+04 E0= -.20175888E+04  d E =-.152816E+00
       N       E                     dE             d eps       ncg     rms          rms(c)
DAV:   1    -0.196503850037E+04    0.51767E-01   -0.30015E+01  6320   0.820E+00    0.165E+00
DAV:   2    -0.196519318089E+04   -0.15468E+00   -0.16677E+00  8424   0.116E+00    0.755E+00
DAV:   3    -0.196489212163E+04    0.30106E+00   -0.85426E-01  7952   0.591E-01    0.136E+00
DAV:   4    -0.196508040373E+04   -0.18828E+00   -0.37189E-02  7864   0.288E-01    0.135E+00
DAV:   5    -0.196507728774E+04    0.31160E-02   -0.26581E-02  8840   0.194E-01    0.807E-01
DAV:   6    -0.196508233124E+04   -0.50435E-02   -0.19248E-02  7984   0.126E-01    0.635E-01
DAV:   7    -0.196508242126E+04   -0.90022E-04   -0.73109E-03  7952   0.117E-01    0.286E-01
DAV:   8    -0.196508274411E+04   -0.32285E-03   -0.36689E-03  8640   0.877E-02    0.320E-01
DAV:   9    -0.196508202507E+04    0.71904E-03   -0.75242E-04  7768   0.467E-02    0.671E-02
DAV:  10    -0.196508253066E+04   -0.50559E-03   -0.14992E-04  7160   0.199E-02    0.300E-02
DAV:  11    -0.196508258012E+04   -0.49460E-04   -0.27767E-05  5576   0.954E-03    0.190E-02
DAV:  12    -0.196508260660E+04   -0.26484E-04   -0.19370E-05  5120   0.847E-03    0.881E-03
DAV:  13    -0.196508262315E+04   -0.16544E-04   -0.74666E-06  4440   0.464E-03    0.427E-03
DAV:  14    -0.196508263968E+04   -0.16535E-04   -0.26475E-06  4336   0.297E-03    0.262E-03
DAV:  15    -0.196508266477E+04   -0.25093E-04   -0.32291E-06  4280   0.272E-03    0.238E-03
DAV:  16    -0.196508267321E+04   -0.84371E-05   -0.15503E-06  4608   0.193E-03    0.168E-03
DAV:  17    -0.196508268240E+04   -0.91912E-05   -0.11333E-06  4320   0.128E-03    0.872E-04
DAV:  18    -0.196508268940E+04   -0.70010E-05   -0.73280E-07  4472   0.118E-03    0.650E-04
DAV:  19    -0.196508269240E+04   -0.29984E-05   -0.41926E-07  4432   0.954E-04
  13 F= -.20176457E+04 E0= -.20176237E+04  d E =-.187449E+00
       N       E                     dE             d eps       ncg     rms          rms(c)
DAV:   1    -0.196502775527E+04    0.54934E-01   -0.58517E+01  6376   0.110E+01    0.225E+00
DAV:   2    -0.196527261985E+04   -0.24486E+00   -0.29447E+00  8488   0.161E+00    0.758E+00
DAV:   3    -0.196496318750E+04    0.30943E+00   -0.13787E+00  8600   0.837E-01    0.233E+00
DAV:   4    -0.196514639734E+04   -0.18321E+00   -0.62503E-02  7584   0.408E-01    0.166E+00
DAV:   5    -0.196513236232E+04    0.14035E-01   -0.37287E-02  8880   0.250E-01    0.791E-01
DAV:   6    -0.196513526252E+04   -0.29002E-02   -0.34383E-02  9080   0.259E-01    0.880E-01
DAV:   7    -0.196513271515E+04    0.25474E-02   -0.16143E-02  7512   0.133E-01    0.348E-01
DAV:   8    -0.196513570902E+04   -0.29939E-02   -0.43976E-03  8704   0.101E-01    0.332E-01
DAV:   9    -0.196513526254E+04    0.44648E-03   -0.14987E-03  8544   0.663E-02    0.224E-01
DAV:  10    -0.196513572299E+04   -0.46045E-03   -0.35284E-04  8240   0.454E-02    0.112E-01
DAV:  11    -0.196513594433E+04   -0.22134E-03   -0.10736E-04  7336   0.231E-02    0.348E-02
DAV:  12    -0.196513613535E+04   -0.19102E-03   -0.45112E-05  7072   0.108E-02    0.114E-02
DAV:  13    -0.196513628734E+04   -0.15199E-03   -0.10679E-05  4768   0.578E-03    0.700E-03
DAV:  14    -0.196513649638E+04   -0.20903E-03   -0.13048E-05  5240   0.605E-03    0.496E-03
DAV:  15    -0.196513663812E+04   -0.14174E-03   -0.57266E-06  4512   0.356E-03    0.334E-03
DAV:  16    -0.196513672611E+04   -0.87992E-04   -0.32863E-06  4488   0.241E-03    0.239E-03
DAV:  17    -0.196513681114E+04   -0.85028E-04   -0.42839E-06  4520   0.273E-03    0.158E-03
DAV:  18    -0.196513683597E+04   -0.24836E-04   -0.21040E-06  4544   0.187E-03    0.162E-03
DAV:  19    -0.196513684394E+04   -0.79683E-05   -0.97731E-07  4480   0.115E-03    0.988E-04
DAV:  20    -0.196513685291E+04   -0.89671E-05   -0.70362E-07  4368   0.117E-03    0.909E-04
DAV:  21    -0.196513685431E+04   -0.14048E-05   -0.31827E-07  4640   0.917E-04
  14 F= -.20177630E+04 E0= -.20177413E+04  d E =-.117301E+00
       N       E                     dE             d eps       ncg     rms          rms(c)
DAV:   1    -0.196509136645E+04    0.45486E-01   -0.16193E+01  6352   0.577E+00    0.118E+00
DAV:   2    -0.196515870922E+04   -0.67343E-01   -0.76568E-01  8504   0.813E-01    0.473E+00
DAV:   3    -0.196502968988E+04    0.12902E+00   -0.47079E-01  8344   0.440E-01    0.137E+00
DAV:   4    -0.196512040991E+04   -0.90720E-01   -0.12238E-02  6877   0.214E-01    0.618E-01
DAV:   5    -0.196511979745E+04    0.61246E-03   -0.10070E-02  9048   0.121E-01    0.552E-01
DAV:   6    -0.196511862166E+04    0.11758E-02   -0.79341E-03  8456   0.992E-02    0.425E-01
DAV:   7    -0.196511819627E+04    0.42539E-03   -0.26665E-03  7016   0.827E-02    0.120E-01
DAV:   8    -0.196511910037E+04   -0.90410E-03   -0.93805E-04  8496   0.547E-02    0.110E-01
DAV:   9    -0.196511907934E+04    0.21027E-04   -0.41382E-04  8256   0.272E-02    0.717E-02
DAV:  10    -0.196511916805E+04   -0.88708E-04   -0.10800E-04  7816   0.180E-02    0.633E-02
DAV:  11    -0.196511920879E+04   -0.40743E-04   -0.32185E-05  5392   0.111E-02    0.284E-02
DAV:  12    -0.196511927791E+04   -0.69118E-04   -0.89550E-06  4656   0.652E-03    0.688E-03
DAV:  13    -0.196511934804E+04   -0.70132E-04   -0.68412E-06  4488   0.468E-03    0.384E-03
DAV:  14    -0.196511940293E+04   -0.54883E-04   -0.42253E-06  4496   0.340E-03    0.289E-03
DAV:  15    -0.196511943727E+04   -0.34343E-04   -0.25690E-06  4496   0.243E-03    0.192E-03
DAV:  16    -0.196511947418E+04   -0.36913E-04   -0.23735E-06  4448   0.208E-03    0.117E-03
DAV:  17    -0.196511949159E+04   -0.17408E-04   -0.16040E-06  4504   0.159E-03    0.114E-03
DAV:  18    -0.196511949848E+04   -0.68868E-05   -0.88148E-07  4504   0.112E-03    0.712E-04
DAV:  19    -0.196511950314E+04   -0.46671E-05   -0.57622E-07  4432   0.910E-04
  15 F= -.20177789E+04 E0= -.20177573E+04  d E =-.133204E+00
       N       E                     dE             d eps       ncg     rms          rms(c)
DAV:   1    -0.196507720158E+04    0.42297E-01   -0.48166E+01  6296   0.988E+00    0.208E+00
DAV:   2    -0.196529686585E+04   -0.21966E+00   -0.26720E+00  8464   0.144E+00    0.778E+00
DAV:   3    -0.196496925171E+04    0.32761E+00   -0.13181E+00  8536   0.800E-01    0.213E+00
DAV:   4    -0.196517663165E+04   -0.20738E+00   -0.69156E-02  7440   0.355E-01    0.188E+00
DAV:   5    -0.196515583253E+04    0.20799E-01   -0.28156E-02  8560   0.236E-01    0.743E-01
DAV:   6    -0.196515899216E+04   -0.31596E-02   -0.18264E-02  9472   0.205E-01    0.766E-01
DAV:   7    -0.196515964964E+04   -0.65748E-03   -0.17950E-02  8392   0.142E-01    0.471E-01
DAV:   8    -0.196516018394E+04   -0.53430E-03   -0.21018E-03  6744   0.450E-02    0.233E-01
DAV:   9    -0.196516054109E+04   -0.35715E-03   -0.34055E-04  9112   0.388E-02    0.136E-01
DAV:  10    -0.196516097491E+04   -0.43382E-03   -0.22314E-04  8048   0.321E-02    0.849E-02
DAV:  11    -0.196516102705E+04   -0.52139E-04   -0.63565E-05  7512   0.168E-02    0.244E-02
DAV:  12    -0.196516111174E+04   -0.84687E-04   -0.29424E-05  6912   0.953E-03    0.961E-03
DAV:  13    -0.196516116088E+04   -0.49138E-04   -0.50562E-06  4536   0.389E-03    0.632E-03
DAV:  14    -0.196516119504E+04   -0.34165E-04   -0.19942E-06  4504   0.253E-03    0.398E-03
DAV:  15    -0.196516126072E+04   -0.65679E-04   -0.50106E-06  4496   0.289E-03    0.251E-03
DAV:  16    -0.196516128409E+04   -0.23365E-04   -0.19557E-06  4592   0.219E-03    0.236E-03
DAV:  17    -0.196516131166E+04   -0.27579E-04   -0.20750E-06  4456   0.183E-03    0.146E-03
DAV:  18    -0.196516132318E+04   -0.11520E-04   -0.11388E-06  4520   0.144E-03    0.102E-03
DAV:  19    -0.196516132775E+04   -0.45663E-05   -0.61594E-07  4544   0.972E-04
  16 F= -.20178715E+04 E0= -.20178503E+04  d E =-.926075E-01
       N       E                     dE             d eps       ncg     rms          rms(c)
DAV:   1    -0.196506748390E+04    0.93839E-01   -0.42309E+01  6296   0.924E+00    0.188E+00
DAV:   2    -0.196523618355E+04   -0.16870E+00   -0.20243E+00  8520   0.130E+00    0.693E+00
DAV:   3    -0.196498807165E+04    0.24811E+00   -0.13475E+00  8736   0.729E-01    0.223E+00
DAV:   4    -0.196515245980E+04   -0.16439E+00   -0.49594E-02  7504   0.336E-01    0.175E+00
DAV:   5    -0.196513651154E+04    0.15948E-01   -0.19529E-02  8696   0.227E-01    0.758E-01
DAV:   6    -0.196513835255E+04   -0.18410E-02   -0.21828E-02  9248   0.181E-01    0.672E-01
DAV:   7    -0.196514057605E+04   -0.22235E-02   -0.65504E-03  7016   0.935E-02    0.482E-01
DAV:   8    -0.196514085788E+04   -0.28183E-03   -0.22396E-03  8608   0.780E-02    0.197E-01
DAV:   9    -0.196514147952E+04   -0.62164E-03   -0.67315E-04  8040   0.473E-02    0.195E-01
DAV:  10    -0.196514137498E+04    0.10453E-03   -0.26549E-04  8136   0.379E-02    0.785E-02
DAV:  11    -0.196514152823E+04   -0.15324E-03   -0.97824E-05  7832   0.192E-02    0.210E-02
DAV:  12    -0.196514158151E+04   -0.53284E-04   -0.21857E-05  6512   0.743E-03    0.116E-02
DAV:  13    -0.196514162852E+04   -0.47006E-04   -0.53803E-06  4480   0.398E-03    0.671E-03
DAV:  14    -0.196514167840E+04   -0.49879E-04   -0.45840E-06  4472   0.397E-03    0.354E-03
DAV:  15    -0.196514172709E+04   -0.48694E-04   -0.43732E-06  4536   0.330E-03    0.217E-03
DAV:  16    -0.196514175599E+04   -0.28903E-04   -0.27737E-06  4520   0.234E-03    0.228E-03
DAV:  17    -0.196514176861E+04   -0.12614E-04   -0.14570E-06  4504   0.166E-03    0.166E-03
DAV:  18    -0.196514178875E+04   -0.20139E-04   -0.17045E-06  4416   0.195E-03    0.113E-03
DAV:  19    -0.196514179098E+04   -0.22345E-05   -0.77419E-07  4696   0.130E-03
  17 F= -.20178996E+04 E0= -.20178788E+04  d E =-.120746E+00
       N       E                     dE             d eps       ncg     rms          rms(c)
DAV:   1    -0.196511121061E+04    0.30578E-01   -0.29559E+01  6296   0.764E+00    0.155E+00
DAV:   2    -0.196523436975E+04   -0.12316E+00   -0.13251E+00  8496   0.104E+00    0.648E+00
DAV:   3    -0.196500770161E+04    0.22667E+00   -0.79547E-01  8173   0.570E-01    0.156E+00
DAV:   4    -0.196515937282E+04   -0.15167E+00   -0.17119E-02  6624   0.214E-01    0.892E-01
DAV:   5    -0.196515884908E+04    0.52374E-03   -0.12990E-02  8768   0.154E-01    0.937E-01
DAV:   6    -0.196515256004E+04    0.62890E-02   -0.12918E-02  8504   0.115E-01    0.596E-01
DAV:   7    -0.196515524872E+04   -0.26887E-02   -0.39054E-03  7568   0.103E-01    0.258E-01
DAV:   8    -0.196515785995E+04   -0.26112E-02   -0.16424E-03  8160   0.755E-02    0.255E-01
DAV:   9    -0.196515740124E+04    0.45871E-03   -0.72865E-04  8168   0.402E-02    0.857E-02
DAV:  10    -0.196515772757E+04   -0.32632E-03   -0.10610E-04  8088   0.244E-02    0.521E-02
DAV:  11    -0.196515772534E+04    0.22261E-05   -0.37027E-05  7032   0.132E-02
  18 F= -.20179464E+04 E0= -.20179259E+04  d E =-.468153E-01
       N       E                     dE             d eps       ncg     rms          rms(c)
DAV:   1    -0.196514041940E+04    0.17308E-01   -0.57509E+00  6296   0.336E+00    0.695E-01
DAV:   2    -0.196516482401E+04   -0.24405E-01   -0.17273E-01  8520   0.450E-01    0.289E+00
DAV:   3    -0.196510910575E+04    0.55718E-01   -0.82874E-02  8208   0.274E-01    0.796E-01
DAV:   4    -0.196514931735E+04   -0.40212E-01   -0.42982E-03  6560   0.108E-01    0.444E-01
DAV:   5    -0.196514892945E+04    0.38790E-03   -0.45869E-03  8640   0.736E-02    0.389E-01
DAV:   6    -0.196514818017E+04    0.74928E-03   -0.26836E-03  8208   0.489E-02    0.252E-01
DAV:   7    -0.196514840238E+04   -0.22221E-03   -0.80805E-04  6880   0.480E-02    0.838E-02
DAV:   8    -0.196514874020E+04   -0.33783E-03   -0.24445E-04  7776   0.264E-02    0.458E-02
DAV:   9    -0.196514873883E+04    0.13737E-05   -0.79650E-05  7336   0.131E-02    0.334E-02
DAV:  10    -0.196514875377E+04   -0.14936E-04   -0.26688E-05  4896   0.958E-03    0.330E-02
DAV:  11    -0.196514876099E+04   -0.72215E-05   -0.12458E-05  4496   0.719E-03    0.127E-02
DAV:  12    -0.196514877255E+04   -0.11559E-04   -0.36353E-06  4416   0.410E-03    0.379E-03
DAV:  13    -0.196514878463E+04   -0.12088E-04   -0.21015E-06  4368   0.363E-03    0.251E-03
DAV:  14    -0.196514879309E+04   -0.84507E-05   -0.18238E-06  4480   0.232E-03    0.183E-03
DAV:  15    -0.196514879594E+04   -0.28578E-05   -0.80940E-07  4536   0.148E-03
  19 F= -.20179511E+04 E0= -.20179307E+04  d E =-.515216E-01
       N       E                     dE             d eps       ncg     rms          rms(c)
DAV:   1    -0.196510612650E+04    0.42667E-01   -0.35529E+01  6296   0.844E+00    0.176E+00
DAV:   2    -0.196526088298E+04   -0.15476E+00   -0.18538E+00  8624   0.116E+00    0.710E+00
DAV:   3    -0.196500745603E+04    0.25343E+00   -0.15715E+00  8821   0.730E-01    0.221E+00
DAV:   4    -0.196517860004E+04   -0.17114E+00   -0.63567E-02  7885   0.370E-01    0.204E+00
DAV:   5    -0.196515258514E+04    0.26015E-01   -0.18104E-02  8736   0.275E-01    0.804E-01
DAV:   6    -0.196515667431E+04   -0.40892E-02   -0.15860E-02  9664   0.227E-01    0.809E-01
DAV:   7    -0.196515900778E+04   -0.23335E-02   -0.68349E-03  7856   0.144E-01    0.240E-01
DAV:   8    -0.196516018864E+04   -0.11809E-02   -0.13992E-03  8136   0.644E-02    0.289E-01
DAV:   9    -0.196515973113E+04    0.45751E-03   -0.43766E-04  8640   0.382E-02    0.105E-01
DAV:  10    -0.196515999836E+04   -0.26723E-03   -0.31012E-04  8320   0.195E-02    0.105E-01
DAV:  11    -0.196515998831E+04    0.10052E-04   -0.10973E-04  7392   0.140E-02    0.382E-02
DAV:  12    -0.196516005303E+04   -0.64720E-04   -0.34522E-05  6640   0.110E-02    0.144E-02
DAV:  13    -0.196516008202E+04   -0.28985E-04   -0.84740E-06  4672   0.557E-03    0.869E-03
DAV:  14    -0.196516009871E+04   -0.16689E-04   -0.28565E-06  4480   0.467E-03    0.340E-03
DAV:  15    -0.196516010956E+04   -0.10859E-04   -0.20904E-06  4472   0.231E-03    0.198E-03
DAV:  16    -0.196516011723E+04   -0.76689E-05   -0.81542E-07  4496   0.154E-03    0.128E-03
DAV:  17    -0.196516012727E+04   -0.10037E-04   -0.79131E-07  4424   0.136E-03    0.132E-03
DAV:  18    -0.196516012768E+04   -0.41327E-06   -0.30564E-07  4648   0.934E-04
  20 F= -.20179887E+04 E0= -.20179688E+04  d E =-.375453E-01
       N       E                     dE             d eps       ncg     rms          rms(c)
DAV:   1    -0.196514624335E+04    0.13884E-01   -0.51719E+00  6296   0.322E+00    0.683E-01
DAV:   2    -0.196516775667E+04   -0.21513E-01   -0.16471E-01  8640   0.419E-01    0.287E+00
DAV:   3    -0.196511390228E+04    0.53854E-01   -0.10274E-01  8405   0.275E-01    0.894E-01
DAV:   4    -0.196515459045E+04   -0.40688E-01   -0.62556E-03  7058   0.128E-01    0.568E-01
DAV:   5    -0.196515290720E+04    0.16833E-02   -0.26635E-03  8584   0.765E-02    0.242E-01
DAV:   6    -0.196515308430E+04   -0.17710E-03   -0.19050E-03  8344   0.513E-02    0.205E-01
DAV:   7    -0.196515313098E+04   -0.46684E-04   -0.82816E-04  7528   0.478E-02    0.119E-01
DAV:   8    -0.196515325301E+04   -0.12203E-03   -0.27905E-04  8248   0.278E-02    0.574E-02
DAV:   9    -0.196515326783E+04   -0.14819E-04   -0.60250E-05  6968   0.105E-02    0.190E-02
DAV:  10    -0.196515328239E+04   -0.14561E-04   -0.80080E-06  4432   0.588E-03    0.921E-03
DAV:  11    -0.196515328590E+04   -0.35103E-05   -0.29584E-06  4544   0.432E-03
  21 F= -.20179918E+04 E0= -.20179722E+04  d E =-.407141E-01
       N       E                     dE             d eps       ncg     rms          rms(c)
DAV:   1    -0.196513755528E+04    0.15727E-01   -0.16234E+01  6296   0.537E+00    0.141E+00
DAV:   2    -0.196527101416E+04   -0.13346E+00   -0.12835E+00  8448   0.879E-01    0.749E+00
DAV:   3    -0.196502468224E+04    0.24633E+00   -0.18173E+00  9136   0.720E-01    0.182E+00
DAV:   4    -0.196517599019E+04   -0.15131E+00   -0.47552E-02  8341   0.337E-01    0.189E+00
DAV:   5    -0.196515396047E+04    0.22030E-01   -0.99662E-03  8456   0.241E-01    0.706E-01
DAV:   6    -0.196515813938E+04   -0.41789E-02   -0.94240E-03  8712   0.142E-01    0.374E-01
DAV:   7    -0.196516167861E+04   -0.35392E-02   -0.35715E-03  8784   0.100E-01    0.506E-01
DAV:   8    -0.196516151146E+04    0.16714E-03   -0.42880E-04  6824   0.395E-02    0.361E-01
DAV:   9    -0.196516109653E+04    0.41493E-03   -0.84798E-04  9544   0.509E-02    0.112E-01
DAV:  10    -0.196516163918E+04   -0.54265E-03   -0.36709E-04  8656   0.322E-02    0.550E-02
DAV:  11    -0.196516174375E+04   -0.10457E-03   -0.37343E-05  6832   0.127E-02    0.346E-02
DAV:  12    -0.196516176290E+04   -0.19150E-04   -0.11291E-05  4744   0.538E-03    0.196E-02
DAV:  13    -0.196516176918E+04   -0.62815E-05   -0.32673E-06  4360   0.349E-03    0.149E-02
DAV:  14    -0.196516177635E+04   -0.71665E-05   -0.45281E-06  4368   0.445E-03    0.322E-03
DAV:  15    -0.196516178002E+04   -0.36731E-05   -0.22720E-06  4560   0.253E-03
  22 F= -.20180163E+04 E0= -.20179971E+04  d E =-.244966E-01
       N       E                     dE             d eps       ncg     rms          rms(c)
DAV:   1    -0.196513761780E+04    0.24159E-01   -0.11681E+01  6296   0.455E+00    0.118E+00
DAV:   2    -0.196523032329E+04   -0.92705E-01   -0.81010E-01  8448   0.733E-01    0.646E+00
DAV:   3    -0.196504225582E+04    0.18807E+00   -0.12369E+00  9072   0.599E-01    0.159E+00
DAV:   4    -0.196516448815E+04   -0.12223E+00   -0.27962E-02  8157   0.277E-01    0.156E+00
DAV:   5    -0.196514896807E+04    0.15520E-01   -0.66730E-03  8576   0.199E-01    0.637E-01
DAV:   6    -0.196515215152E+04   -0.31835E-02   -0.58129E-03  8256   0.978E-02    0.363E-01
DAV:   7    -0.196515424752E+04   -0.20960E-02   -0.27295E-03  9080   0.105E-01    0.418E-01
DAV:   8    -0.196515467938E+04   -0.43186E-03   -0.57544E-04  6640   0.434E-02    0.310E-01
DAV:   9    -0.196515423958E+04    0.43980E-03   -0.58018E-04  9344   0.462E-02    0.898E-02
DAV:  10    -0.196515458187E+04   -0.34229E-03   -0.28184E-04  8592   0.276E-02    0.402E-02
DAV:  11    -0.196515465599E+04   -0.74117E-04   -0.24619E-05  5816   0.120E-02    0.294E-02
DAV:  12    -0.196515466386E+04   -0.78668E-05   -0.99730E-06  4552   0.508E-03    0.158E-02
DAV:  13    -0.196515466811E+04   -0.42488E-05   -0.28293E-06  4304   0.310E-03
  23 F= -.20180228E+04 E0= -.20180040E+04  d E =-.309669E-01
       N       E                     dE             d eps       ncg     rms          rms(c)
DAV:   1    -0.196515304777E+04    0.16161E-02   -0.72873E+00  6296   0.348E+00    0.113E+00
DAV:   2    -0.196524624124E+04   -0.93193E-01   -0.81725E-01  8496   0.660E-01    0.680E+00
DAV:   3    -0.196503644806E+04    0.20979E+00   -0.13107E+00  9061   0.609E-01    0.158E+00
DAV:   4    -0.196516778755E+04   -0.13134E+00   -0.24248E-02  8069   0.256E-01    0.136E+00
DAV:   5    -0.196515751324E+04    0.10274E-01   -0.48237E-03  8152   0.171E-01    0.571E-01
DAV:   6    -0.196515993871E+04   -0.24255E-02   -0.42792E-03  8304   0.819E-02    0.318E-01
DAV:   7    -0.196516167542E+04   -0.17367E-02   -0.19028E-03  9008   0.894E-02    0.343E-01
DAV:   8    -0.196516204069E+04   -0.36527E-03   -0.40047E-04  6616   0.342E-02    0.236E-01
DAV:   9    -0.196516182491E+04    0.21578E-03   -0.32234E-04  9216   0.350E-02    0.838E-02
DAV:  10    -0.196516200497E+04   -0.18006E-03   -0.14588E-04  8616   0.196E-02    0.348E-02
DAV:  11    -0.196516206660E+04   -0.61628E-04   -0.11320E-05  5160   0.848E-03    0.198E-02
DAV:  12    -0.196516208022E+04   -0.13619E-04   -0.61494E-06  4512   0.424E-03    0.112E-02
DAV:  13    -0.196516208481E+04   -0.45982E-05   -0.18396E-06  4304   0.260E-03
  24 F= -.20180397E+04 E0= -.20180213E+04  d E =-.168733E-01
       N       E                     dE             d eps       ncg     rms          rms(c)
DAV:   1    -0.196503283320E+04    0.12925E+00   -0.65841E+01  6296   0.105E+01    0.293E+00
DAV:   2    -0.196560695345E+04   -0.57412E+00   -0.50967E+00  8424   0.182E+00    0.111E+01
DAV:   3    -0.196502223909E+04    0.58471E+00   -0.12287E+00  9197   0.153E+00    0.303E+00
DAV:   4    -0.196518484961E+04   -0.16261E+00   -0.22781E-01  8701   0.635E-01    0.293E+00
DAV:   5    -0.196514002214E+04    0.44827E-01   -0.37818E-02  8768   0.516E-01    0.153E+00
DAV:   6    -0.196513702475E+04    0.29974E-02   -0.11784E-02  7064   0.146E-01    0.111E+00
DAV:   7    -0.196514314529E+04   -0.61205E-02   -0.72103E-03  8792   0.138E-01    0.910E-01
DAV:   8    -0.196514424980E+04   -0.11045E-02   -0.13114E-02  8384   0.150E-01    0.834E-01
DAV:   9    -0.196514237270E+04    0.18771E-02   -0.41151E-03  8856   0.121E-01    0.706E-01
DAV:  10    -0.196514366027E+04   -0.12876E-02   -0.11463E-03  8416   0.626E-02    0.372E-01
DAV:  11    -0.196514638393E+04   -0.27237E-02   -0.47551E-04  8312   0.459E-02    0.251E-01
DAV:  12    -0.196514640668E+04   -0.22746E-04   -0.49622E-04  9016   0.388E-02    0.116E-01
DAV:  13    -0.196514645965E+04   -0.52967E-04   -0.73577E-05  7184   0.121E-02    0.628E-02
DAV:  14    -0.196514649103E+04   -0.31386E-04   -0.86864E-06  4800   0.518E-03    0.424E-02
DAV:  15    -0.196514654210E+04   -0.51072E-04   -0.16993E-05  5584   0.700E-03    0.108E-02
DAV:  16    -0.196514657138E+04   -0.29273E-04   -0.51352E-06  4592   0.463E-03    0.995E-03
DAV:  17    -0.196514658501E+04   -0.13635E-04   -0.16565E-06  4344   0.256E-03    0.512E-03
DAV:  18    -0.196514660135E+04   -0.16337E-04   -0.11974E-06  4376   0.213E-03    0.212E-03
DAV:  19    -0.196514661100E+04   -0.96469E-05   -0.83266E-07  4496   0.140E-03    0.142E-03
DAV:  20    -0.196514661631E+04   -0.53176E-05   -0.42088E-07  4448   0.921E-04    0.165E-03
DAV:  21    -0.196514662371E+04   -0.73961E-05   -0.45102E-07  4344   0.796E-04    0.118E-03
DAV:  22    -0.196514662555E+04   -0.18408E-05   -0.22801E-07  4584   0.655E-04
  25 F= -.20180526E+04 E0= -.20180356E+04  d E =-.298159E-01
       N       E                     dE             d eps       ncg     rms          rms(c)
DAV:   1    -0.196515060074E+04   -0.39770E-02   -0.49716E+00  6299   0.287E+00    0.974E-01
DAV:   2    -0.196518619382E+04   -0.35593E-01   -0.14819E-01  8624   0.538E-01    0.237E+00
DAV:   3    -0.196513073802E+04    0.55456E-01   -0.21250E-02  8797   0.377E-01    0.457E-01
DAV:   4    -0.196515340178E+04   -0.22664E-01   -0.95634E-03  7760   0.135E-01    0.438E-01
DAV:   5    -0.196515693654E+04   -0.35348E-02   -0.29904E-03  8200   0.869E-02    0.426E-01
DAV:   6    -0.196515635428E+04    0.58226E-03   -0.21136E-03  9216   0.672E-02    0.244E-01
DAV:   7    -0.196515641183E+04   -0.57553E-04   -0.76680E-04  7512   0.317E-02    0.168E-01
DAV:   8    -0.196515656822E+04   -0.15639E-03   -0.34204E-04  9384   0.443E-02    0.256E-01
DAV:   9    -0.196515628335E+04    0.28487E-03   -0.25988E-04  8072   0.299E-02    0.337E-02
DAV:  10    -0.196515652849E+04   -0.24514E-03   -0.30743E-05  6376   0.788E-03    0.156E-02
DAV:  11    -0.196515654887E+04   -0.20386E-04   -0.27604E-06  4544   0.338E-03    0.479E-03
DAV:  12    -0.196515655179E+04   -0.29124E-05   -0.11865E-06  4304   0.195E-03
  26 F= -.20180547E+04 E0= -.20180374E+04  d E =-.319205E-01
       N       E                     dE             d eps       ncg     rms          rms(c)
DAV:   1    -0.196516023598E+04   -0.36871E-02   -0.61086E+00  6296   0.306E+00    0.128E+00
DAV:   2    -0.196526775963E+04   -0.10752E+00   -0.11149E+00  8824   0.696E-01    0.750E+00
DAV:   3    -0.196501727272E+04    0.25049E+00   -0.16543E+00  9176   0.687E-01    0.184E+00
DAV:   4    -0.196516878967E+04   -0.15152E+00   -0.28612E-02  8069   0.280E-01    0.127E+00
DAV:   5    -0.196516134908E+04    0.74406E-02   -0.47583E-03  7920   0.165E-01    0.674E-01
DAV:   6    -0.196516164828E+04   -0.29919E-03   -0.39310E-03  8944   0.983E-02    0.277E-01
DAV:   7    -0.196516455516E+04   -0.29069E-02   -0.14086E-03  8680   0.649E-02    0.226E-01
DAV:   8    -0.196516515928E+04   -0.60412E-03   -0.29228E-04  7584   0.287E-02    0.195E-01
DAV:   9    -0.196516495333E+04    0.20595E-03   -0.27388E-04  8744   0.313E-02    0.757E-02
DAV:  10    -0.196516507310E+04   -0.11977E-03   -0.13029E-04  8184   0.183E-02    0.298E-02
DAV:  11    -0.196516511671E+04   -0.43611E-04   -0.16535E-05  5808   0.940E-03    0.153E-02
DAV:  12    -0.196516511950E+04   -0.27829E-05   -0.64118E-06  4552   0.373E-03
  27 F= -.20180685E+04 E0= -.20180520E+04  d E =-.137974E-01
       N       E                     dE             d eps       ncg     rms          rms(c)
DAV:   1    -0.196514615074E+04    0.18966E-01   -0.20151E+01  6296   0.556E+00    0.200E+00
DAV:   2    -0.196540930573E+04   -0.26315E+00   -0.24999E+00  8536   0.115E+00    0.103E+01
DAV:   3    -0.196499571081E+04    0.41359E+00   -0.24366E+00  9192   0.106E+00    0.245E+00
DAV:   4    -0.196518346730E+04   -0.18776E+00   -0.79077E-02  8680   0.484E-01    0.187E+00
DAV:   5    -0.196516682854E+04    0.16639E-01   -0.15918E-02  8424   0.307E-01    0.119E+00
DAV:   6    -0.196516419340E+04    0.26351E-02   -0.56989E-03  7896   0.120E-01    0.765E-01
DAV:   7    -0.196516572653E+04   -0.15331E-02   -0.38914E-03  9192   0.138E-01    0.404E-01
DAV:   8    -0.196516771702E+04   -0.19905E-02   -0.15525E-03  7320   0.527E-02    0.306E-01
DAV:   9    -0.196516724702E+04    0.47001E-03   -0.34487E-04  9896   0.365E-02    0.227E-01
DAV:  10    -0.196516723156E+04    0.15457E-04   -0.11173E-03  8624   0.727E-02    0.180E-01
DAV:  11    -0.196516725751E+04   -0.25950E-04   -0.39992E-04  7760   0.315E-02    0.112E-01
DAV:  12    -0.196516727369E+04   -0.16179E-04   -0.97363E-05  8208   0.191E-02    0.596E-02
DAV:  13    -0.196516729835E+04   -0.24663E-04   -0.31127E-05  6896   0.748E-03    0.425E-02
DAV:  14    -0.196516730138E+04   -0.30280E-05   -0.25770E-05  5608   0.103E-02
  28 F= -.20180802E+04 E0= -.20180652E+04  d E =-.254687E-01
       N       E                     dE             d eps       ncg     rms          rms(c)
DAV:   1    -0.196517931727E+04   -0.12019E-01   -0.82739E+00  6296   0.338E+00    0.162E+00
DAV:   2    -0.196538631069E+04   -0.20699E+00   -0.16643E+00  8744   0.890E-01    0.101E+01
DAV:   3    -0.196499346460E+04    0.39285E+00   -0.31033E+00  9208   0.923E-01    0.204E+00
DAV:   4    -0.196519660738E+04   -0.20314E+00   -0.46522E-02  8368   0.377E-01    0.151E+00
DAV:   5    -0.196518484445E+04    0.11763E-01   -0.97864E-03  8600   0.241E-01    0.101E+00
DAV:   6    -0.196518035675E+04    0.44877E-02   -0.41785E-03  8824   0.115E-01    0.641E-01
DAV:   7    -0.196518069306E+04   -0.33631E-03   -0.20569E-03  8688   0.930E-02    0.365E-01
DAV:   8    -0.196518149473E+04   -0.80167E-03   -0.11325E-03  8952   0.611E-02    0.183E-01
DAV:   9    -0.196518191082E+04   -0.41609E-03   -0.32328E-04  8136   0.302E-02    0.999E-02
DAV:  10    -0.196518201276E+04   -0.10194E-03   -0.22381E-04  7064   0.309E-02    0.905E-02
DAV:  11    -0.196518214089E+04   -0.12813E-03   -0.38983E-04  8504   0.313E-02    0.156E-01
DAV:  12    -0.196518201162E+04    0.12927E-03   -0.89941E-05  7120   0.159E-02    0.108E-01
DAV:  13    -0.196518197560E+04    0.36014E-04   -0.90421E-05  7088   0.183E-02    0.290E-02
DAV:  14    -0.196518203330E+04   -0.57697E-04   -0.30517E-05  6680   0.749E-03    0.111E-02
DAV:  15    -0.196518204455E+04   -0.11254E-04   -0.24643E-06  4520   0.341E-03    0.110E-02
DAV:  16    -0.196518205035E+04   -0.58006E-05   -0.90052E-07  4336   0.160E-03    0.760E-03
DAV:  17    -0.196518205604E+04   -0.56872E-05   -0.11109E-06  4400   0.163E-03    0.241E-03
DAV:  18    -0.196518205902E+04   -0.29776E-05   -0.57668E-07  4544   0.122E-03
  29 F= -.20180986E+04 E0= -.20180854E+04  d E =-.184538E-01
       N       E                     dE             d eps       ncg     rms          rms(c)
DAV:   1    -0.196511676092E+04    0.65295E-01   -0.74923E+01  6296   0.103E+01    0.335E+00
DAV:   2    -0.196554484798E+04   -0.42809E+00   -0.41014E+00  8128   0.189E+00    0.117E+01
DAV:   3    -0.196508882674E+04    0.45602E+00   -0.33445E+00  8989   0.165E+00    0.259E+00
DAV:   4    -0.196527055295E+04   -0.18173E+00   -0.83755E-02  6648   0.354E-01    0.191E+00
DAV:   5    -0.196525203224E+04    0.18521E-01   -0.20173E-02  9088   0.269E-01    0.164E+00
DAV:   6    -0.196523836594E+04    0.13666E-01   -0.91891E-03  8304   0.145E-01    0.120E+00
DAV:   7    -0.196523435430E+04    0.40116E-02   -0.35054E-03  9672   0.159E-01    0.111E+00
DAV:   8    -0.196522964108E+04    0.47132E-02   -0.23946E-03  8416   0.767E-02    0.943E-01
DAV:   9    -0.196522234099E+04    0.73001E-02   -0.25170E-03 11304   0.148E-01    0.702E-01
DAV:  10    -0.196521854709E+04    0.37939E-02   -0.34176E-03  9104   0.143E-01    0.401E-01
DAV:  11    -0.196522076115E+04   -0.22141E-02   -0.12727E-03  6736   0.422E-02    0.373E-01
DAV:  12    -0.196522103681E+04   -0.27566E-03   -0.76294E-05  9536   0.151E-02    0.359E-01
DAV:  13    -0.196522194897E+04   -0.91216E-03   -0.14915E-04  6920   0.228E-02    0.439E-01
DAV:  14    -0.196521961149E+04    0.23375E-02   -0.25918E-03 11016   0.161E-01    0.406E-01
DAV:  15    -0.196522227580E+04   -0.26643E-02   -0.59841E-03  9360   0.180E-01    0.886E-01
DAV:  16    -0.196522048772E+04    0.17881E-02   -0.12509E-03  6848   0.591E-02    0.864E-01
DAV:  17    -0.196521697282E+04    0.35149E-02   -0.24437E-03  9808   0.107E-01    0.343E-01
DAV:  18    -0.196522095297E+04   -0.39801E-02   -0.11428E-03  8832   0.781E-02    0.728E-01
DAV:  19    -0.196521725819E+04    0.36948E-02   -0.81391E-04  8304   0.722E-02    0.285E-01
DAV:  20    -0.196521874558E+04   -0.14874E-02   -0.18279E-03  8520   0.730E-02    0.638E-02
DAV:  21    -0.196521924887E+04   -0.50329E-03   -0.17336E-04  7968   0.205E-02    0.117E-01
DAV:  22    -0.196521919213E+04    0.56733E-04   -0.23686E-05  6504   0.963E-03    0.116E-01
DAV:  23    -0.196521925472E+04   -0.62591E-04   -0.11409E-05  4557   0.915E-03    0.157E-01
DAV:  24    -0.196521908414E+04    0.17059E-03   -0.23571E-05  6232   0.125E-02    0.106E-01
DAV:  25    -0.196521914026E+04   -0.56125E-04   -0.10010E-05  4920   0.531E-03    0.829E-02
DAV:  26    -0.196521916601E+04   -0.25741E-04   -0.79993E-06  4696   0.697E-03    0.574E-02
DAV:  27    -0.196521919286E+04   -0.26853E-04   -0.10695E-05  4944   0.551E-03    0.319E-02
DAV:  28    -0.196521921773E+04   -0.24869E-04   -0.42798E-06  4432   0.360E-03    0.200E-02
DAV:  29    -0.196521922613E+04   -0.84066E-05   -0.19470E-06  4536   0.228E-03    0.128E-02
DAV:  30    -0.196521923049E+04   -0.43577E-05   -0.19388E-06  4344   0.285E-03
  30 F= -.20181469E+04 E0= -.20181394E+04  d E =-.667196E-01
       N       E                     dE             d eps       ncg     rms          rms(c)
DAV:   1    -0.196440902067E+04    0.81021E+00   -0.30008E+02  6304   0.210E+01    0.662E+00
DAV:   2    -0.196546446924E+04   -0.10554E+01   -0.11735E+01  8040   0.348E+00    0.614E+00
DAV:   3    -0.196531830669E+04    0.14616E+00   -0.84203E-01  8709   0.248E+00    0.354E+00
DAV:   4    -0.196522883537E+04    0.89471E-01   -0.17089E-01  7096   0.690E-01    0.179E+00
DAV:   5    -0.196524195455E+04   -0.13119E-01   -0.71267E-02  9504   0.683E-01    0.955E-01
DAV:   6    -0.196525772403E+04   -0.15769E-01   -0.32095E-02  8040   0.346E-01    0.495E-01
DAV:   7    -0.196525878175E+04   -0.10577E-02   -0.82418E-03  8176   0.191E-01    0.202E-01
DAV:   8    -0.196525875123E+04    0.30518E-04   -0.22094E-03  8248   0.676E-02    0.904E-02
DAV:   9    -0.196525879449E+04   -0.43254E-04   -0.13695E-04  8648   0.258E-02    0.527E-02
DAV:  10    -0.196525890554E+04   -0.11105E-03   -0.54841E-05  7712   0.236E-02    0.244E-02
DAV:  11    -0.196525901338E+04   -0.10784E-03   -0.47527E-05  7016   0.147E-02    0.156E-02
DAV:  12    -0.196525907095E+04   -0.57575E-04   -0.15307E-05  5496   0.659E-03    0.117E-02
DAV:  13    -0.196525913553E+04   -0.64574E-04   -0.34533E-06  4368   0.394E-03    0.689E-03
DAV:  14    -0.196525925617E+04   -0.12064E-03   -0.12336E-05  5184   0.620E-03    0.609E-03
DAV:  15    -0.196525928166E+04   -0.25495E-04   -0.36888E-06  4656   0.280E-03    0.461E-03
DAV:  16    -0.196525933949E+04   -0.57825E-04   -0.26921E-06  4280   0.372E-03    0.330E-03
DAV:  17    -0.196525938497E+04   -0.45479E-04   -0.43349E-06  4504   0.286E-03    0.562E-03
DAV:  18    -0.196525939297E+04   -0.80027E-05   -0.12874E-06  4656   0.263E-03    0.275E-03
DAV:  19    -0.196525940809E+04   -0.15119E-04   -0.13042E-06  4248   0.300E-03    0.172E-03
DAV:  20    -0.196525941302E+04   -0.49303E-05   -0.74576E-07  4496   0.211E-03
  31 F= -.20182093E+04 E0= -.20182093E+04  d E =-.129081E+00
       N       E                     dE             d eps       ncg     rms          rms(c)
DAV:   1    -0.196526211280E+04   -0.27047E-02   -0.32821E-01  6408   0.690E-01    0.204E-01
DAV:   2    -0.196526231578E+04   -0.20298E-03   -0.48396E-03  7936   0.819E-02    0.122E-01
DAV:   3    -0.196526240131E+04   -0.85527E-04   -0.42333E-04  8896   0.486E-02    0.112E-01
DAV:   4    -0.196526237879E+04    0.22521E-04   -0.14932E-04  8368   0.321E-02    0.389E-02
DAV:   5    -0.196526243068E+04   -0.51886E-04   -0.28835E-05  6552   0.100E-02    0.109E-02
DAV:   6    -0.196526243506E+04   -0.43826E-05   -0.65341E-06  5120   0.396E-03
  32 F= -.20182130E+04 E0= -.20182130E+04  d E =-.370733E-02
       N       E                     dE             d eps       ncg     rms          rms(c)
DAV:   1    -0.196526785602E+04   -0.54253E-02   -0.29540E+00  6314   0.207E+00    0.615E-01
DAV:   2    -0.196527002592E+04   -0.21699E-02   -0.46751E-02  7952   0.267E-01    0.365E-01
DAV:   3    -0.196527067370E+04   -0.64778E-03   -0.37020E-03  8936   0.143E-01    0.321E-01
DAV:   4    -0.196527049453E+04    0.17917E-03   -0.12247E-03  8864   0.932E-02    0.112E-01
DAV:   5    -0.196527096118E+04   -0.46664E-03   -0.25497E-04  6968   0.297E-02    0.325E-02
DAV:   6    -0.196527099603E+04   -0.34854E-04   -0.72209E-05  8096   0.127E-02    0.159E-02
DAV:   7    -0.196527099986E+04   -0.38274E-05   -0.68532E-06  4552   0.535E-03
  33 F= -.20182236E+04 E0= -.20182236E+04  d E =-.143267E-01
       N       E                     dE             d eps       ncg     rms          rms(c)
DAV:   1    -0.196527044944E+04    0.54659E-03   -0.11818E+01  6302   0.416E+00    0.123E+00
DAV:   2    -0.196528227716E+04   -0.11828E-01   -0.21136E-01  7936   0.576E-01    0.707E-01
DAV:   3    -0.196528416862E+04   -0.18915E-02   -0.13740E-02  8957   0.276E-01    0.577E-01
DAV:   4    -0.196528381099E+04    0.35764E-03   -0.41864E-03  9024   0.176E-01    0.214E-01
DAV:   5    -0.196528547535E+04   -0.16644E-02   -0.97792E-04  6949   0.578E-02    0.635E-02
DAV:   6    -0.196528559131E+04   -0.11596E-03   -0.31169E-04  8400   0.269E-02    0.329E-02
DAV:   7    -0.196528560188E+04   -0.10571E-04   -0.35870E-05  6957   0.112E-02    0.169E-02
DAV:   8    -0.196528561010E+04   -0.82213E-05   -0.56072E-06  4528   0.573E-03    0.756E-03
DAV:   9    -0.196528561967E+04   -0.95671E-05   -0.37840E-06  4296   0.433E-03    0.371E-03
DAV:  10    -0.196528562591E+04   -0.62437E-05   -0.16734E-06  4488   0.288E-03    0.252E-03
DAV:  11    -0.196528563252E+04   -0.66028E-05   -0.12183E-06  4256   0.235E-03    0.174E-03
DAV:  12    -0.196528563890E+04   -0.63838E-05   -0.92836E-07  4296   0.182E-03    0.122E-03
DAV:  13    -0.196528564412E+04   -0.52253E-05   -0.68051E-07  4304   0.132E-03    0.820E-04
DAV:  14    -0.196528564923E+04   -0.51036E-05   -0.56376E-07  4288   0.124E-03    0.611E-04
DAV:  15    -0.196528565064E+04   -0.14080E-05   -0.30507E-07  4584   0.758E-04
  34 F= -.20182424E+04 E0= -.20182424E+04  d E =-.330794E-01
       N       E                     dE             d eps       ncg     rms          rms(c)
DAV:   1    -0.196521849920E+04    0.67150E-01   -0.47378E+01  6296   0.842E+00    0.250E+00
DAV:   2    -0.196529142899E+04   -0.72930E-01   -0.10415E+00  7864   0.121E+00    0.134E+00
DAV:   3    -0.196529420303E+04   -0.27740E-02   -0.49141E-02  8688   0.512E-01    0.971E-01
DAV:   4    -0.196529498387E+04   -0.78084E-03   -0.12775E-02  8672   0.310E-01    0.398E-01
DAV:   5    -0.196530019439E+04   -0.52105E-02   -0.36766E-03  6968   0.110E-01    0.125E-01
DAV:   6    -0.196530051825E+04   -0.32386E-03   -0.12789E-03  8864   0.574E-02    0.701E-02
DAV:   7    -0.196530053144E+04   -0.13191E-04   -0.18102E-04  8048   0.234E-02    0.365E-02
DAV:   8    -0.196530054609E+04   -0.14650E-04   -0.29426E-05  6424   0.929E-03    0.180E-02
DAV:   9    -0.196530056079E+04   -0.14697E-04   -0.79056E-06  4824   0.816E-03    0.724E-03
DAV:  10    -0.196530057706E+04   -0.16273E-04   -0.52304E-06  4440   0.679E-03    0.392E-03
DAV:  11    -0.196530058897E+04   -0.11915E-04   -0.47112E-06  4416   0.390E-03    0.359E-03
DAV:  12    -0.196530059433E+04   -0.53516E-05   -0.16696E-06  4528   0.238E-03    0.305E-03
DAV:  13    -0.196530060807E+04   -0.13743E-04   -0.15915E-06  4240   0.199E-03    0.206E-03
DAV:  14    -0.196530061654E+04   -0.84697E-05   -0.10261E-06  4416   0.196E-03    0.184E-03
DAV:  15    -0.196530062198E+04   -0.54388E-05   -0.83386E-07  4296   0.147E-03    0.106E-03
DAV:  16    -0.196530062599E+04   -0.40155E-05   -0.74456E-07  4400   0.143E-03
  35 F= -.20182655E+04 E0= -.20182655E+04  d E =-.562146E-01
       N       E                     dE             d eps       ncg     rms          rms(c)
DAV:   1    -0.196474368434E+04    0.55694E+00   -0.19096E+02  6296   0.173E+01    0.536E+00
DAV:   2    -0.196524127260E+04   -0.49759E+00   -0.59053E+00  7760   0.246E+00    0.263E+00
DAV:   3    -0.196523088441E+04    0.10388E-01   -0.19614E-01  8224   0.956E-01    0.161E+00
DAV:   4    -0.196523958639E+04   -0.87020E-02   -0.40498E-02  7984   0.504E-01    0.748E-01
DAV:   5    -0.196525344059E+04   -0.13854E-01   -0.14730E-02  7008   0.203E-01    0.271E-01
DAV:   6    -0.196525416138E+04   -0.72080E-03   -0.50309E-03  9112   0.130E-01    0.151E-01
DAV:   7    -0.196525418899E+04   -0.27604E-04   -0.10398E-03  7912   0.498E-02    0.755E-02
DAV:   8    -0.196525421249E+04   -0.23506E-04   -0.12826E-04  7888   0.191E-02    0.405E-02
DAV:   9    -0.196525424064E+04   -0.28141E-04   -0.44273E-05  7480   0.165E-02    0.146E-02
DAV:  10    -0.196525427405E+04   -0.33418E-04   -0.17935E-05  5760   0.110E-02    0.861E-03
DAV:  11    -0.196525429622E+04   -0.22162E-04   -0.10399E-05  4864   0.516E-03    0.671E-03
DAV:  12    -0.196525431039E+04   -0.14179E-04   -0.19980E-06  4368   0.279E-03    0.501E-03
DAV:  13    -0.196525435780E+04   -0.47403E-04   -0.80019E-06  4576   0.504E-03    0.577E-03
DAV:  14    -0.196525436238E+04   -0.45834E-05   -0.23939E-06  4688   0.256E-03
  36 F= -.20182351E+04 E0= -.20182351E+04  d E =-.258193E-01
       N       E                     dE             d eps       ncg     rms          rms(c)
DAV:   1    -0.196502716463E+04    0.22719E+00   -0.11792E+02  6296   0.132E+01    0.364E+00
DAV:   2    -0.196528232026E+04   -0.25516E+00   -0.31083E+00  7696   0.192E+00    0.207E+00
DAV:   3    -0.196528624063E+04   -0.39204E-02   -0.97220E-02  8320   0.722E-01    0.151E+00
DAV:   4    -0.196528916673E+04   -0.29261E-02   -0.30704E-02  8336   0.466E-01    0.708E-01
DAV:   5    -0.196529941487E+04   -0.10248E-01   -0.10862E-02  7048   0.183E-01    0.210E-01
DAV:   6    -0.196529961196E+04   -0.19709E-03   -0.28172E-03  8680   0.954E-02    0.109E-01
DAV:   7    -0.196529967818E+04   -0.66216E-04   -0.63353E-04  7976   0.387E-02    0.593E-02
DAV:   8    -0.196529969503E+04   -0.16852E-04   -0.69523E-05  8240   0.213E-02    0.299E-02
DAV:   9    -0.196529973074E+04   -0.35709E-04   -0.45249E-05  8320   0.143E-02    0.124E-02
DAV:  10    -0.196529975163E+04   -0.20892E-04   -0.10011E-05  4904   0.625E-03    0.875E-03
DAV:  11    -0.196529976783E+04   -0.16195E-04   -0.42924E-06  4360   0.331E-03    0.497E-03
DAV:  12    -0.196529979353E+04   -0.25702E-04   -0.29568E-06  4240   0.349E-03    0.303E-03
DAV:  13    -0.196529981170E+04   -0.18170E-04   -0.21755E-06  4384   0.322E-03    0.251E-03
DAV:  14    -0.196529982576E+04   -0.14062E-04   -0.18212E-06  4288   0.255E-03    0.156E-03
DAV:  15    -0.196529983831E+04   -0.12550E-04   -0.17646E-06  4336   0.246E-03    0.118E-03
DAV:  16    -0.196529984329E+04   -0.49806E-05   -0.10366E-06  4552   0.171E-03
  37 F= -.20182682E+04 E0= -.20182682E+04  d E =-.589280E-01
       N       E                     dE             d eps       ncg     rms          rms(c)
DAV:   1    -0.196532834034E+04   -0.28502E-01   -0.19646E+00  6308   0.174E+00    0.547E-01
DAV:   2    -0.196532961299E+04   -0.12727E-02   -0.28996E-02  7880   0.184E-01    0.241E-01
DAV:   3    -0.196533016535E+04   -0.55236E-03   -0.87981E-04  8344   0.514E-02    0.114E-01
DAV:   4    -0.196533057278E+04   -0.40743E-03   -0.27778E-04  8816   0.426E-02    0.748E-02
DAV:   5    -0.196533057791E+04   -0.51304E-05   -0.10214E-04  8296   0.261E-02    0.253E-02
DAV:   6    -0.196533059143E+04   -0.13514E-04   -0.30127E-05  6352   0.894E-03    0.135E-02
DAV:   7    -0.196533059219E+04   -0.76613E-06   -0.31693E-06  4616   0.344E-03
  38 F= -.20183002E+04 E0= -.20183002E+04  d E =-.319608E-01
       N       E                     dE             d eps       ncg     rms          rms(c)
DAV:   1    -0.196538763217E+04   -0.57041E-01   -0.17714E+01  6296   0.524E+00    0.168E+00
DAV:   2    -0.196540635461E+04   -0.18722E-01   -0.30822E-01  7776   0.635E-01    0.746E-01
DAV:   3    -0.196540934466E+04   -0.29900E-02   -0.99619E-03  8392   0.183E-01    0.381E-01
DAV:   4    -0.196541230124E+04   -0.29566E-02   -0.30220E-03  8944   0.143E-01    0.224E-01
DAV:   5    -0.196541264003E+04   -0.33879E-03   -0.96487E-04  8088   0.766E-02    0.757E-02
DAV:   6    -0.196541275213E+04   -0.11210E-03   -0.35479E-04  7880   0.301E-02    0.415E-02
DAV:   7    -0.196541275891E+04   -0.67808E-05   -0.44325E-05  7008   0.107E-02    0.232E-02
DAV:   8    -0.196541276721E+04   -0.83039E-05   -0.11166E-05  5128   0.757E-03    0.110E-02
DAV:   9    -0.196541277736E+04   -0.10152E-04   -0.50342E-06  4416   0.596E-03    0.484E-03
DAV:  10    -0.196541278591E+04   -0.85508E-05   -0.35499E-06  4376   0.404E-03    0.367E-03
DAV:  11    -0.196541279303E+04   -0.71167E-05   -0.22019E-06  4336   0.332E-03    0.238E-03
DAV:  12    -0.196541279913E+04   -0.61002E-05   -0.13812E-06  4360   0.181E-03    0.164E-03
DAV:  13    -0.196541280627E+04   -0.71356E-05   -0.98123E-07  4280   0.177E-03    0.121E-03
DAV:  14    -0.196541280898E+04   -0.27145E-05   -0.60921E-07  4568   0.114E-03
  39 F= -.20183859E+04 E0= -.20183859E+04  d E =-.117722E+00
       N       E                     dE             d eps       ncg     rms          rms(c)
DAV:   1    -0.196539887582E+04    0.13930E-01   -0.71383E+01  6296   0.106E+01    0.361E+00
DAV:   2    -0.196551778173E+04   -0.11891E+00   -0.15317E+00  7736   0.133E+00    0.157E+00
DAV:   3    -0.196552245268E+04   -0.46710E-02   -0.47063E-02  8336   0.397E-01    0.792E-01
DAV:   4    -0.196553114124E+04   -0.86886E-02   -0.12273E-02  8208   0.264E-01    0.370E-01
DAV:   5    -0.196553252025E+04   -0.13790E-02   -0.32604E-03  7912   0.125E-01    0.168E-01
DAV:   6    -0.196553274344E+04   -0.22319E-03   -0.14647E-03  8784   0.647E-02    0.830E-02
DAV:   7    -0.196553274910E+04   -0.56642E-05   -0.18910E-04  8032   0.237E-02    0.431E-02
DAV:   8    -0.196553276881E+04   -0.19710E-04   -0.64865E-05  8320   0.157E-02    0.199E-02
DAV:   9    -0.196553278531E+04   -0.16496E-04   -0.83027E-06  4944   0.962E-03    0.792E-03
DAV:  10    -0.196553280212E+04   -0.16811E-04   -0.89442E-06  4680   0.692E-03    0.505E-03
DAV:  11    -0.196553281721E+04   -0.15091E-04   -0.40385E-06  4360   0.399E-03    0.359E-03
DAV:  12    -0.196553283273E+04   -0.15521E-04   -0.21211E-06  4272   0.335E-03    0.238E-03
DAV:  13    -0.196553284551E+04   -0.12777E-04   -0.17103E-06  4288   0.237E-03    0.140E-03
DAV:  14    -0.196553285513E+04   -0.96235E-05   -0.13521E-06  4320   0.182E-03    0.945E-04
DAV:  15    -0.196553286088E+04   -0.57482E-05   -0.83892E-07  4408   0.132E-03    0.793E-04
DAV:  16    -0.196553286333E+04   -0.24503E-05   -0.40824E-07  4464   0.888E-04
  40 F= -.20185122E+04 E0= -.20185122E+04  d E =-.243968E+00
       N       E                     dE             d eps       ncg     rms          rms(c)
DAV:   1    -0.196469104654E+04    0.84181E+00   -0.28931E+02  6304   0.210E+01    0.926E+00
DAV:   2    -0.196554013769E+04   -0.84909E+00   -0.93795E+00  7496   0.280E+00    0.392E+00
DAV:   3    -0.196551907764E+04    0.21060E-01   -0.32586E-01  8312   0.106E+00    0.199E+00
DAV:   4    -0.196554431719E+04   -0.25240E-01   -0.82011E-02  7928   0.545E-01    0.783E-01
DAV:   5    -0.196554987795E+04   -0.55608E-02   -0.14298E-02  7912   0.208E-01    0.397E-01
DAV:   6    -0.196554977177E+04    0.10618E-03   -0.75594E-03  9000   0.151E-01    0.143E-01
DAV:   7    -0.196554973614E+04    0.35628E-04   -0.80517E-04  8104   0.578E-02    0.646E-02
DAV:   8    -0.196554977866E+04   -0.42512E-04   -0.24959E-04  8408   0.278E-02    0.337E-02
DAV:   9    -0.196554980871E+04   -0.30056E-04   -0.24058E-05  6032   0.165E-02    0.130E-02
DAV:  10    -0.196554984390E+04   -0.35185E-04   -0.33026E-05  7216   0.127E-02    0.935E-03
DAV:  11    -0.196554987153E+04   -0.27633E-04   -0.70015E-06  4560   0.574E-03    0.660E-03
DAV:  12    -0.196554990356E+04   -0.32026E-04   -0.25525E-06  4240   0.593E-03    0.355E-03
DAV:  13    -0.196554993007E+04   -0.26510E-04   -0.40443E-06  4280   0.456E-03    0.261E-03
DAV:  14    -0.196554994192E+04   -0.11857E-04   -0.29861E-06  4504   0.308E-03    0.216E-03
DAV:  15    -0.196554995110E+04   -0.91728E-05   -0.12486E-06  4224   0.171E-03    0.174E-03
DAV:  16    -0.196554996393E+04   -0.12835E-04   -0.93385E-07  4216   0.191E-03    0.780E-04
DAV:  17    -0.196554996757E+04   -0.36366E-05   -0.57014E-07  4536   0.109E-03
  41 F= -.20185347E+04 E0= -.20185347E+04  d E =-.266530E+00
       N       E                     dE             d eps       ncg     rms          rms(c)
DAV:   1    -0.196543725939E+04    0.11270E+00   -0.72981E+01  6296   0.993E+00    0.431E+00
DAV:   2    -0.196557656396E+04   -0.13930E+00   -0.18438E+00  7728   0.153E+00    0.238E+00
DAV:   3    -0.196558035702E+04   -0.37931E-02   -0.71148E-02  8104   0.570E-01    0.132E+00
DAV:   4    -0.196558738991E+04   -0.70329E-02   -0.17752E-02  7840   0.320E-01    0.394E-01
DAV:   5    -0.196558858301E+04   -0.11931E-02   -0.47559E-03  7280   0.103E-01    0.159E-01
DAV:   6    -0.196558849759E+04    0.85420E-04   -0.11014E-03  8904   0.581E-02    0.777E-02
DAV:   7    -0.196558850346E+04   -0.58705E-05   -0.19443E-04  8144   0.253E-02    0.304E-02
DAV:   8    -0.196558852120E+04   -0.17738E-04   -0.35937E-05  6560   0.146E-02    0.136E-02
DAV:   9    -0.196558853666E+04   -0.15459E-04   -0.18379E-05  5656   0.864E-03    0.775E-03
DAV:  10    -0.196558854547E+04   -0.88119E-05   -0.39644E-06  4536   0.429E-03    0.433E-03
DAV:  11    -0.196558856011E+04   -0.14643E-04   -0.27472E-06  4200   0.401E-03    0.303E-03
DAV:  12    -0.196558856663E+04   -0.65176E-05   -0.14305E-06  4488   0.281E-03    0.231E-03
DAV:  13    -0.196558857257E+04   -0.59396E-05   -0.11552E-06  4208   0.242E-03    0.138E-03
DAV:  14    -0.196558857800E+04   -0.54300E-05   -0.11229E-06  4320   0.180E-03    0.105E-03
DAV:  15    -0.196558858123E+04   -0.32253E-05   -0.66249E-07  4376   0.124E-03
  42 F= -.20185692E+04 E0= -.20185692E+04  d E =-.301000E+00
       N       E                     dE             d eps       ncg     rms          rms(c)
DAV:   1    -0.196565932086E+04   -0.70743E-01   -0.50304E+00  6296   0.294E+00    0.155E+00
DAV:   2    -0.196566434258E+04   -0.50217E-02   -0.88715E-02  8032   0.314E-01    0.635E-01
DAV:   3    -0.196566543605E+04   -0.10935E-02   -0.38755E-03  8016   0.132E-01    0.284E-01
DAV:   4    -0.196566632933E+04   -0.89328E-03   -0.10685E-03  7760   0.609E-02    0.101E-01
DAV:   5    -0.196566634991E+04   -0.20580E-04   -0.24170E-04  8496   0.274E-02    0.468E-02
DAV:   6    -0.196566634667E+04    0.32329E-05   -0.57989E-05  7752   0.124E-02    0.190E-02
DAV:   7    -0.196566634707E+04   -0.39826E-06   -0.48512E-06  4784   0.507E-03
  43 F= -.20186456E+04 E0= -.20186456E+04  d E =-.763846E-01
       N       E                     dE             d eps       ncg     rms          rms(c)
DAV:   1    -0.196573627133E+04   -0.69925E-01   -0.45623E+01  6296   0.889E+00    0.562E+00
DAV:   2    -0.196580100493E+04   -0.64734E-01   -0.88934E-01  8008   0.977E-01    0.234E+00
DAV:   3    -0.196580296606E+04   -0.19611E-02   -0.45431E-02  8280   0.416E-01    0.915E-01
DAV:   4    -0.196580894787E+04   -0.59818E-02   -0.10186E-02  7176   0.146E-01    0.298E-01
DAV:   5    -0.196580873440E+04    0.21347E-03   -0.33588E-03  9096   0.117E-01    0.116E-01
DAV:   6    -0.196580875374E+04   -0.19344E-04   -0.56978E-04  7952   0.418E-02    0.496E-02
DAV:   7    -0.196580875477E+04   -0.10250E-05   -0.56943E-05  6880   0.126E-02    0.285E-02
DAV:   8    -0.196580876129E+04   -0.65283E-05   -0.10836E-05  5064   0.998E-03    0.130E-02
DAV:   9    -0.196580876889E+04   -0.76008E-05   -0.70443E-06  4416   0.905E-03    0.442E-03
DAV:  10    -0.196580877483E+04   -0.59400E-05   -0.77436E-06  4432   0.568E-03    0.401E-03
DAV:  11    -0.196580877680E+04   -0.19639E-05   -0.29038E-06  4592   0.294E-03
  44 F= -.20187858E+04 E0= -.20187858E+04  d E =-.216622E+00
       N       E                     dE             d eps       ncg     rms          rms(c)
DAV:   1    -0.196580621307E+04    0.25618E-02   -0.68192E+00  6299   0.338E+00    0.251E+00
[...]
DAV:   3    -0.196631764382E+04    0.61353E-05   -0.40629E-05  7576   0.129E-02    0.266E-02
DAV:   4    -0.196631764922E+04   -0.54019E-05   -0.29624E-05  6352   0.124E-02    0.936E-03
DAV:   5    -0.196631765097E+04   -0.17523E-05   -0.10023E-05  5000   0.486E-03    0.756E-03
DAV:   6    -0.196631765119E+04   -0.21746E-06   -0.16090E-06  4208   0.238E-03
  69 F= -.20192015E+04 E0= -.20192015E+04  d E =-.180100E-02
       N       E                     dE             d eps       ncg     rms          rms(c)
DAV:   1    -0.196631964660E+04   -0.19956E-02   -0.92675E-01  6296   0.149E+00    0.242E-01
DAV:   2    -0.196632129192E+04   -0.16453E-02   -0.18698E-02  8648   0.170E-01    0.124E-01
DAV:   3    -0.196632121437E+04    0.77542E-04   -0.36581E-04  8272   0.368E-02    0.826E-02
DAV:   4    -0.196632121067E+04    0.37007E-05   -0.26435E-04  8000   0.354E-02    0.304E-02
DAV:   5    -0.196632122002E+04   -0.93486E-05   -0.81237E-05  7264   0.134E-02    0.236E-02
DAV:   6    -0.196632121863E+04    0.13910E-05   -0.10623E-05  4536   0.682E-03
  70 F= -.20192025E+04 E0= -.20192025E+04  d E =-.103074E-02
       N       E                     dE             d eps       ncg     rms          rms(c)
DAV:   1    -0.196632107955E+04    0.14048E-03   -0.27342E-03  6672   0.803E-02    0.137E-02
DAV:   2    -0.196632108388E+04   -0.43343E-05   -0.50117E-05  7320   0.969E-03    0.809E-03
DAV:   3    -0.196632108420E+04   -0.32014E-06   -0.22074E-06  4432   0.239E-03    0.475E-03
DAV:   4    -0.196632108517E+04   -0.96636E-06   -0.91723E-07  4224   0.175E-03    0.200E-03
DAV:   5    -0.196632108617E+04   -0.10057E-05   -0.62235E-07  4416   0.120E-03    0.765E-04
DAV:   6    -0.196632108678E+04   -0.60536E-06   -0.19937E-07  4376   0.890E-04
  71 F= -.20192026E+04 E0= -.20192026E+04  d E =-.103722E-02
       N       E                     dE             d eps       ncg     rms          rms(c)
DAV:   1    -0.196632295564E+04   -0.18695E-02   -0.62202E-01  6299   0.123E+00    0.220E-01
DAV:   2    -0.196632407808E+04   -0.11224E-02   -0.12617E-02  8664   0.142E-01    0.105E-01
DAV:   3    -0.196632402849E+04    0.49593E-04   -0.27761E-04  8312   0.334E-02    0.682E-02
DAV:   4    -0.196632402013E+04    0.83585E-05   -0.18292E-04  8104   0.311E-02    0.239E-02
DAV:   5    -0.196632402502E+04   -0.48900E-05   -0.63490E-05  7256   0.124E-02    0.205E-02
DAV:   6    -0.196632402360E+04    0.14222E-05   -0.86746E-06  4408   0.580E-03
  72 F= -.20192033E+04 E0= -.20192033E+04  d E =-.711912E-03
       N       E                     dE             d eps       ncg     rms          rms(c)
DAV:   1    -0.196632420000E+04   -0.17498E-03   -0.40953E-03  6584   0.101E-01    0.192E-02
DAV:   2    -0.196632420875E+04   -0.87416E-05   -0.96073E-05  8456   0.124E-02    0.987E-03
DAV:   3    -0.196632420828E+04    0.46287E-06   -0.20560E-06  4400   0.398E-03    0.630E-03
DAV:   4    -0.196632420864E+04   -0.35495E-06   -0.36685E-06  4224   0.407E-03    0.249E-03
DAV:   5    -0.196632420898E+04   -0.34587E-06   -0.15055E-06  4408   0.248E-03    0.217E-03
DAV:   6    -0.196632420917E+04   -0.18277E-06   -0.33555E-07  4200   0.967E-04
  73 F= -.20192033E+04 E0= -.20192033E+04  d E =-.718207E-03
       N       E                     dE             d eps       ncg     rms          rms(c)
DAV:   1    -0.196632541970E+04   -0.12107E-02   -0.44560E-01  6296   0.105E+00    0.160E-01
DAV:   2    -0.196632621669E+04   -0.79699E-03   -0.86836E-03  8656   0.117E-01    0.780E-02
DAV:   3    -0.196632618509E+04    0.31605E-04   -0.15605E-04  8280   0.251E-02    0.516E-02
DAV:   4    -0.196632616761E+04    0.17476E-04   -0.11445E-04  7832   0.266E-02    0.196E-02
DAV:   5    -0.196632617196E+04   -0.43454E-05   -0.48451E-05  7280   0.975E-03    0.164E-02
DAV:   6    -0.196632617112E+04    0.83609E-06   -0.41469E-06  4272   0.406E-03
  74 F= -.20192038E+04 E0= -.20192038E+04  d E =-.553941E-03
       N       E                     dE             d eps       ncg     rms          rms(c)
DAV:   1    -0.196632665830E+04   -0.48634E-03   -0.68511E-02  6317   0.412E-01    0.632E-02
DAV:   2    -0.196632678281E+04   -0.12451E-03   -0.13578E-03  8688   0.462E-02    0.311E-02
DAV:   3    -0.196632677744E+04    0.53702E-05   -0.22747E-05  6384   0.105E-02    0.207E-02
DAV:   4    -0.196632677464E+04    0.27962E-05   -0.23583E-05  5904   0.114E-02    0.734E-03
DAV:   5    -0.196632677563E+04   -0.98976E-06   -0.90340E-06  4592   0.452E-03    0.593E-03
DAV:   6    -0.196632677571E+04   -0.73807E-07   -0.15320E-06  4104   0.247E-03
  75 F= -.20192039E+04 E0= -.20192039E+04  d E =-.606726E-03
       N       E                     dE             d eps       ncg     rms          rms(c)
DAV:   1    -0.196632854617E+04   -0.17705E-02   -0.50280E-01  6296   0.111E+00    0.181E-01
DAV:   2    -0.196632945800E+04   -0.91183E-03   -0.98902E-03  8648   0.124E-01    0.886E-02
DAV:   3    -0.196632942887E+04    0.29129E-04   -0.17735E-04  8272   0.262E-02    0.575E-02
DAV:   4    -0.196632942218E+04    0.66891E-05   -0.13609E-04  8016   0.263E-02    0.193E-02
DAV:   5    -0.196632942568E+04   -0.34934E-05   -0.37428E-05  6936   0.911E-03    0.158E-02
DAV:   6    -0.196632942481E+04    0.86194E-06   -0.48985E-06  4272   0.448E-03
  76 F= -.20192044E+04 E0= -.20192044E+04  d E =-.475321E-03
       N       E                     dE             d eps       ncg     rms          rms(c)
DAV:   1    -0.196632996908E+04   -0.54341E-03   -0.36271E-02  6320   0.299E-01    0.488E-02
DAV:   2    -0.196633003672E+04   -0.67639E-04   -0.72965E-04  8648   0.334E-02    0.242E-02
DAV:   3    -0.196633003407E+04    0.26529E-05   -0.10428E-05  5032   0.776E-03    0.160E-02
DAV:   4    -0.196633003400E+04    0.64028E-07   -0.18473E-05  5664   0.841E-03    0.447E-03
DAV:   5    -0.196633003440E+04   -0.39977E-06   -0.39702E-06  4304   0.355E-03    0.362E-03
DAV:   6    -0.196633003449E+04   -0.88941E-07   -0.61601E-07  4008   0.152E-03
  77 F= -.20192044E+04 E0= -.20192044E+04  d E =-.502409E-03
       N       E                     dE             d eps       ncg     rms          rms(c)
DAV:   1    -0.196633188874E+04   -0.18543E-02   -0.45673E-01  6296   0.106E+00    0.164E-01
DAV:   2    -0.196633272681E+04   -0.83806E-03   -0.91458E-03  8664   0.121E-01    0.815E-02
DAV:   3    -0.196633269737E+04    0.29432E-04   -0.17977E-04  8288   0.262E-02    0.533E-02
DAV:   4    -0.196633268870E+04    0.86725E-05   -0.12411E-04  8160   0.234E-02    0.211E-02
DAV:   5    -0.196633269133E+04   -0.26280E-05   -0.28183E-05  6368   0.856E-03    0.154E-02
DAV:   6    -0.196633269085E+04    0.47614E-06   -0.55030E-06  4352   0.454E-03
  78 F= -.20192048E+04 E0= -.20192048E+04  d E =-.376350E-03
       N       E                     dE             d eps       ncg     rms          rms(c)
DAV:   1    -0.196633301113E+04   -0.31979E-03   -0.95922E-03  6352   0.154E-01    0.246E-02
DAV:   2    -0.196633302963E+04   -0.18509E-04   -0.19887E-04  8720   0.176E-02    0.123E-02
DAV:   3    -0.196633302875E+04    0.88103E-06   -0.28819E-06  4440   0.448E-03    0.814E-03
DAV:   4    -0.196633302881E+04   -0.53435E-07   -0.61235E-06  4320   0.465E-03    0.284E-03
DAV:   5    -0.196633302901E+04   -0.20070E-06   -0.17418E-06  4136   0.302E-03    0.203E-03
DAV:   6    -0.196633302912E+04   -0.10978E-06   -0.28542E-07  4048   0.887E-04
  79 F= -.20192048E+04 E0= -.20192048E+04  d E =-.385463E-03
       N       E                     dE             d eps       ncg     rms          rms(c)
DAV:   1    -0.196633406578E+04   -0.10368E-02   -0.37456E-01  6296   0.961E-01    0.143E-01
DAV:   2    -0.196633470556E+04   -0.63977E-03   -0.70533E-03  8720   0.105E-01    0.709E-02
DAV:   3    -0.196633468103E+04    0.24530E-04   -0.12403E-04  8272   0.214E-02    0.471E-02
DAV:   4    -0.196633467147E+04    0.95603E-05   -0.92072E-05  7896   0.208E-02    0.182E-02
DAV:   5    -0.196633467441E+04   -0.29409E-05   -0.25472E-05  6336   0.712E-03    0.125E-02
DAV:   6    -0.196633467414E+04    0.26834E-06   -0.31185E-06  4184   0.348E-03
  80 F= -.20192051E+04 E0= -.20192051E+04  d E =-.308198E-03
       N       E                     dE             d eps       ncg     rms          rms(c)
DAV:   1    -0.196633513392E+04   -0.45951E-03   -0.57796E-02  6314   0.378E-01    0.561E-02
DAV:   2    -0.196633523364E+04   -0.99725E-04   -0.10930E-03  8736   0.411E-02    0.281E-02
DAV:   3    -0.196633522939E+04    0.42475E-05   -0.16262E-05  5656   0.873E-03    0.188E-02
DAV:   4    -0.196633522821E+04    0.11839E-05   -0.23291E-05  6120   0.928E-03    0.610E-03
DAV:   5    -0.196633522885E+04   -0.64226E-06   -0.49437E-06  4312   0.353E-03    0.411E-03
DAV:   6    -0.196633522897E+04   -0.11665E-06   -0.71821E-07  4016   0.166E-03
  81 F= -.20192051E+04 E0= -.20192051E+04  d E =-.338291E-03
       N       E                     dE             d eps       ncg     rms          rms(c)
DAV:   1    -0.196633607946E+04   -0.85061E-03   -0.38741E-01  6296   0.975E-01    0.147E-01
DAV:   2    -0.196633675781E+04   -0.67835E-03   -0.74262E-03  8720   0.107E-01    0.731E-02
DAV:   3    -0.196633673764E+04    0.20172E-04   -0.12718E-04  8272   0.211E-02    0.479E-02
DAV:   4    -0.196633673289E+04    0.47536E-05   -0.82441E-05  7920   0.198E-02    0.178E-02
DAV:   5    -0.196633673589E+04   -0.29962E-05   -0.23661E-05  6256   0.707E-03    0.122E-02
DAV:   6    -0.196633673556E+04    0.32270E-06   -0.32951E-06  4200   0.362E-03
  82 F= -.20192054E+04 E0= -.20192054E+04  d E =-.258858E-03
       N       E                     dE             d eps       ncg     rms          rms(c)
DAV:   1    -0.196633698167E+04   -0.24578E-03   -0.17565E-02  6320   0.208E-01    0.318E-02
DAV:   2    -0.196633701265E+04   -0.30982E-04   -0.33946E-04  8728   0.228E-02    0.157E-02
DAV:   3    -0.196633701141E+04    0.12434E-05   -0.42197E-06  4552   0.489E-03    0.106E-02
DAV:   4    -0.196633701129E+04    0.11735E-06   -0.79752E-06  4464   0.538E-03    0.297E-03
DAV:   5    -0.196633701155E+04   -0.25763E-06   -0.22244E-06  3992   0.295E-03    0.208E-03
DAV:   6    -0.196633701162E+04   -0.75554E-07   -0.39945E-07  3832   0.108E-03
  83 F= -.20192054E+04 E0= -.20192054E+04  d E =-.269771E-03
       N       E                     dE             d eps       ncg     rms          rms(c)
DAV:   1    -0.196633768431E+04   -0.67277E-03   -0.31552E-01  6299   0.880E-01    0.140E-01
DAV:   2    -0.196633823465E+04   -0.55033E-03   -0.60626E-03  8680   0.974E-02    0.674E-02
DAV:   3    -0.196633821950E+04    0.15142E-04   -0.10826E-04  8264   0.194E-02    0.438E-02
DAV:   4    -0.196633821976E+04   -0.25239E-06   -0.72545E-05  7848   0.183E-02    0.150E-02
DAV:   5    -0.196633822200E+04   -0.22479E-05   -0.18641E-05  5848   0.658E-03    0.110E-02
DAV:   6    -0.196633822172E+04    0.27905E-06   -0.27847E-06  4136   0.326E-03
  84 F= -.20192056E+04 E0= -.20192056E+04  d E =-.250997E-03
       N       E                     dE             d eps       ncg     rms          rms(c)
DAV:   1    -0.196633856400E+04   -0.34200E-03   -0.58215E-02  6314   0.378E-01    0.603E-02
DAV:   2    -0.196633866635E+04   -0.10235E-03   -0.11228E-03  8688   0.418E-02    0.291E-02
DAV:   3    -0.196633866298E+04    0.33673E-05   -0.17274E-05  5824   0.868E-03    0.191E-02
DAV:   4    -0.196633866319E+04   -0.20978E-06   -0.20611E-05  5856   0.881E-03    0.554E-03
DAV:   5    -0.196633866365E+04   -0.46520E-06   -0.45951E-06  4320   0.360E-03    0.406E-03
DAV:   6    -0.196633866368E+04   -0.25844E-07   -0.74966E-07  3936   0.170E-03
  85 F= -.20192057E+04 E0= -.20192057E+04  d E =-.281494E-03
       N       E                     dE             d eps       ncg     rms          rms(c)
DAV:   1    -0.196633885935E+04   -0.19569E-03   -0.36555E-01  6296   0.948E-01    0.143E-01
DAV:   2    -0.196633949952E+04   -0.64017E-03   -0.69575E-03  8688   0.104E-01    0.714E-02
DAV:   3    -0.196633948376E+04    0.15756E-04   -0.11613E-04  8280   0.202E-02    0.469E-02
DAV:   4    -0.196633948251E+04    0.12506E-05   -0.83949E-05  8008   0.199E-02    0.163E-02
DAV:   5    -0.196633948509E+04   -0.25773E-05   -0.21286E-05  5992   0.675E-03    0.122E-02
DAV:   6    -0.196633948475E+04    0.34354E-06   -0.30208E-06  4184   0.348E-03
  86 F= -.20192059E+04 E0= -.20192059E+04  d E =-.256484E-03
       N       E                     dE             d eps       ncg     rms          rms(c)
DAV:   1    -0.196633965022E+04   -0.16513E-03   -0.10093E-01  6305   0.498E-01    0.755E-02
DAV:   2    -0.196633982841E+04   -0.17819E-03   -0.19241E-03  8704   0.545E-02    0.378E-02
DAV:   3    -0.196633982368E+04    0.47267E-05   -0.30340E-05  6989   0.109E-02    0.249E-02
DAV:   4    -0.196633982355E+04    0.13621E-06   -0.27522E-05  6376   0.110E-02    0.801E-03
DAV:   5    -0.196633982432E+04   -0.77172E-06   -0.66565E-06  4528   0.385E-03    0.605E-03
DAV:   6    -0.196633982429E+04    0.29220E-07   -0.97034E-07  3968   0.205E-03
  87 F= -.20192060E+04 E0= -.20192060E+04  d E =-.299443E-03
       N       E                     dE             d eps       ncg     rms          rms(c)
DAV:   1    -0.196633999899E+04   -0.17467E-03   -0.25713E-01  6299   0.797E-01    0.122E-01
DAV:   2    -0.196634045432E+04   -0.45533E-03   -0.49492E-03  8696   0.879E-02    0.605E-02
DAV:   3    -0.196634044079E+04    0.13531E-04   -0.86772E-05  8256   0.181E-02    0.395E-02
DAV:   4    -0.196634043731E+04    0.34863E-05   -0.58346E-05  7808   0.168E-02    0.143E-02
DAV:   5    -0.196634043906E+04   -0.17496E-05   -0.16792E-05  5616   0.630E-03    0.102E-02
DAV:   6    -0.196634043888E+04    0.17334E-06   -0.25486E-06  4040   0.294E-03
  88 F= -.20192061E+04 E0= -.20192061E+04  d E =-.180812E-03
       N       E                     dE             d eps       ncg     rms          rms(c)
DAV:   1    -0.196634055383E+04   -0.11478E-03   -0.32046E-02  6317   0.281E-01    0.432E-02
DAV:   2    -0.196634061104E+04   -0.57203E-04   -0.61809E-04  8704   0.311E-02    0.216E-02
DAV:   3    -0.196634060894E+04    0.20950E-05   -0.86486E-06  4869   0.671E-03    0.143E-02
DAV:   4    -0.196634060868E+04    0.26484E-06   -0.13999E-05  5360   0.719E-03    0.423E-03
DAV:   5    -0.196634060900E+04   -0.32329E-06   -0.33795E-06  4048   0.326E-03    0.310E-03
DAV:   6    -0.196634060904E+04   -0.38533E-07   -0.60644E-07  3824   0.145E-03
  89 F= -.20192062E+04 E0= -.20192062E+04  d E =-.197947E-03
       N       E                     dE             d eps       ncg     rms          rms(c)
DAV:   1    -0.196634047087E+04    0.13813E-03   -0.28099E-01  6299   0.832E-01    0.126E-01
DAV:   2    -0.196634096895E+04   -0.49808E-03   -0.54302E-03  8664   0.921E-02    0.624E-02
DAV:   3    -0.196634095376E+04    0.15190E-04   -0.95139E-05  8232   0.188E-02    0.408E-02
DAV:   4    -0.196634095092E+04    0.28382E-05   -0.65244E-05  7800   0.172E-02    0.146E-02
DAV:   5    -0.196634095271E+04   -0.17813E-05   -0.16609E-05  5528   0.632E-03    0.103E-02
DAV:   6    -0.196634095257E+04    0.13784E-06   -0.25565E-06  4144   0.300E-03
  90 F= -.20192063E+04 E0= -.20192063E+04  d E =-.137955E-03
       N       E                     dE             d eps       ncg     rms          rms(c)
DAV:   1    -0.196634095818E+04   -0.54773E-05   -0.20689E-04  6144   0.229E-02    0.431E-03
DAV:   2    -0.196634095855E+04   -0.36450E-06   -0.42937E-06  4320   0.313E-03    0.272E-03
DAV:   3    -0.196634095860E+04   -0.53435E-07   -0.75545E-07  3840   0.169E-03    0.159E-03
DAV:   4    -0.196634095868E+04   -0.75204E-07   -0.35366E-07  4208   0.100E-03    0.644E-04
DAV:   5    -0.196634095873E+04   -0.49709E-07   -0.15151E-07  3736   0.650E-04    0.425E-04
DAV:   6    -0.196634095879E+04   -0.60652E-07   -0.63168E-08  4184   0.366E-04
  91 F= -.20192063E+04 E0= -.20192063E+04  d E =-.138753E-03
       N       E                     dE             d eps       ncg     rms          rms(c)
DAV:   1    -0.196634049452E+04    0.46420E-03   -0.22016E-01  6299   0.737E-01    0.109E-01
DAV:   2    -0.196634087915E+04   -0.38463E-03   -0.41933E-03  8712   0.807E-02    0.541E-02
DAV:   3    -0.196634086858E+04    0.10573E-04   -0.72560E-05  8109   0.158E-02    0.356E-02
DAV:   4    -0.196634086522E+04    0.33586E-05   -0.44830E-05  6968   0.145E-02    0.132E-02
DAV:   5    -0.196634086688E+04   -0.16538E-05   -0.13505E-05  5360   0.542E-03    0.917E-03
DAV:   6    -0.196634086676E+04    0.11863E-06   -0.21327E-06  4096   0.294E-03
  92 F= -.20192064E+04 E0= -.20192064E+04  d E =-.111696E-03
       N       E                     dE             d eps       ncg     rms          rms(c)
DAV:   1    -0.196634084374E+04    0.23136E-04   -0.23158E-03  6384   0.758E-02    0.116E-02
DAV:   2    -0.196634084791E+04   -0.41657E-05   -0.44774E-05  7136   0.851E-03    0.588E-03
DAV:   3    -0.196634084787E+04    0.38766E-07   -0.14626E-06  3784   0.240E-03    0.381E-03
DAV:   4    -0.196634084791E+04   -0.38068E-07   -0.11043E-06  4160   0.210E-03    0.123E-03
DAV:   5    -0.196634084797E+04   -0.68103E-07   -0.42975E-07  3600   0.124E-03    0.938E-04
DAV:   6    -0.196634084800E+04   -0.25728E-07   -0.10743E-07  3520   0.496E-04
  93 F= -.20192064E+04 E0= -.20192064E+04  d E =-.113674E-03
       N       E                     dE             d eps       ncg     rms          rms(c)
DAV:   1    -0.196634045304E+04    0.39494E-03   -0.11963E-01  6302   0.544E-01    0.820E-02
DAV:   2    -0.196634066498E+04   -0.21194E-03   -0.22945E-03  8728   0.597E-02    0.404E-02
DAV:   3    -0.196634065840E+04    0.65800E-05   -0.39499E-05  7592   0.122E-02    0.265E-02
DAV:   4    -0.196634065533E+04    0.30701E-05   -0.25770E-05  6384   0.116E-02    0.978E-03
DAV:   5    -0.196634065630E+04   -0.97055E-06   -0.92877E-06  4768   0.453E-03    0.703E-03
DAV:   6    -0.196634065621E+04    0.91619E-07   -0.15443E-06  3904   0.247E-03
  94 F= -.20192065E+04 E0= -.20192065E+04  d E =-.764580E-04
       N       E                     dE             d eps       ncg     rms          rms(c)
DAV:   1    -0.196634060483E+04    0.51467E-04   -0.36905E-03  6320   0.957E-02    0.145E-02
DAV:   2    -0.196634061162E+04   -0.67897E-05   -0.72323E-05  8168   0.107E-02    0.757E-03
DAV:   3    -0.196634061139E+04    0.23423E-06   -0.12129E-06  3864   0.252E-03    0.491E-03
DAV:   4    -0.196634061133E+04    0.59139E-07   -0.16686E-06  4040   0.267E-03    0.153E-03
DAV:   5    -0.196634061140E+04   -0.68569E-07   -0.64992E-07  3576   0.156E-03    0.118E-03
DAV:   6    -0.196634061141E+04   -0.11525E-07   -0.14116E-07  3392   0.615E-04
  95 F= -.20192065E+04 E0= -.20192065E+04  d E =-.786124E-04
       N       E                     dE             d eps       ncg     rms          rms(c)
DAV:   1    -0.196634013906E+04    0.47234E-03   -0.79215E-02  6302   0.442E-01    0.653E-02
DAV:   2    -0.196634028195E+04   -0.14289E-03   -0.15307E-03  8672   0.488E-02    0.326E-02
DAV:   3    -0.196634027715E+04    0.47969E-05   -0.23695E-05  6488   0.970E-03    0.215E-02
DAV:   4    -0.196634027482E+04    0.23323E-05   -0.21873E-05  5832   0.990E-03    0.712E-03
DAV:   5    -0.196634027545E+04   -0.62597E-06   -0.66521E-06  4544   0.384E-03    0.479E-03
DAV:   6    -0.196634027541E+04    0.38068E-07   -0.11088E-06  3848   0.209E-03
  96 F= -.20192065E+04 E0= -.20192065E+04  d E =-.438257E-04
       N       E                     dE             d eps       ncg     rms          rms(c)
DAV:   1    -0.196634029612E+04   -0.20679E-04   -0.23813E-04  6032   0.241E-02    0.395E-03
DAV:   2    -0.196634029638E+04   -0.25192E-06   -0.36573E-06  4072   0.287E-03    0.211E-03
DAV:   3    -0.196634029644E+04   -0.58790E-07   -0.81485E-07  3552   0.154E-03    0.120E-03
DAV:   4    -0.196634029648E+04   -0.46217E-07   -0.31009E-07  3968   0.842E-04    0.643E-04
DAV:   5    -0.196634029652E+04   -0.40629E-07   -0.11689E-07  3944   0.507E-04    0.225E-04
DAV:   6    -0.196634029656E+04   -0.33993E-07   -0.51073E-08  3960   0.327E-04
  97 F= -.20192065E+04 E0= -.20192065E+04  d E =-.439374E-04
