<?xml version="1.0" encoding="ISO-8859-1"?>
<modeling>
 <generator>
  <i name="program" type="string">vasp </i>
  <i name="version" type="string">6.2.1  </i>
  <i name="subversion" type="string">16May21 (build May 12 2022 08:28:04) complex                          parallel </i>
  <i name="platform" type="string">LinuxPGI </i>
  <i name="date" type="string">2022 07 10 </i>
  <i name="time" type="string">08:34:04 </i>
 </generator>
 <incar>
  <i type="string" name="SYSTEM">NiAl</i>
  <i type="int" name="ISTART">     0</i>
  <i type="int" name="NELMIN">     6</i>
  <i type="int" name="IBRION">     2</i>
  <i name="EDIFF">      0.00000500</i>
  <i type="int" name="NSW">   150</i>
  <i type="int" name="ISIF">     0</i>
  <i name="ENCUT">    360.00000000</i>
  <i name="POTIM">      0.20000000</i>
  <i type="string" name="LREAL">Auto</i>
  <i type="logical" name="LPLANE"> T  </i>
  <i type="int" name="ISMEAR">     0</i>
  <i name="SIGMA">      0.05000000</i>
  <i type="logical" name="LWAVE"> F  </i>
  <i type="logical" name="LCHARG"> F  </i>
  <i type="int" name="IVDW">    12</i>
 </incar>
 <primitive_cell>
  <structure name="primitive_cell" >
   <crystal>
    <varray name="basis" >
     <v>      14.41508400       0.00000000       0.00000000 </v>
     <v>      -7.20754200      12.48382800       0.00000000 </v>
     <v>       0.00000000       0.00000000      31.11625400 </v>
    </varray>
    <i name="volume">   5599.53884558 </i>
    <varray name="rec_basis" >
     <v>       0.06937178       0.04005182      -0.00000000 </v>
     <v>       0.00000000       0.08010363       0.00000000 </v>
     <v>       0.00000000      -0.00000000       0.03213754 </v>
    </varray>
   </crystal>
   <varray name="positions" >
    <v>       0.00000000       0.00000000       0.06234511 </v>
    <v>       0.11111100       0.22222233       0.00790906 </v>
    <v>       0.11111100       0.22222233       0.13259929 </v>
    <v>       0.22222233       0.11111100       0.07816281 </v>
    <v>       0.22222233       0.11111100       0.20285304 </v>
    <v>       0.00000000       0.00000000       0.14841698 </v>
    <v>       0.00000000       0.00000000       0.27310721 </v>
    <v>       0.11111100       0.22222233       0.21867116 </v>
    <v>       0.11111100       0.22222233       0.34336139 </v>
    <v>       0.22222233       0.11111100       0.28892491 </v>
    <v>       0.22222233       0.11111100       0.41361514 </v>
    <v>       0.00000000       0.00000000       0.35917908 </v>
    <v>       1.00000000       0.33333333       0.06234511 </v>
    <v>       0.11111100       0.55555567       0.00790906 </v>
    <v>       0.11111100       0.55555567       0.13259929 </v>
    <v>       0.22222233       0.44444433       0.07816281 </v>
    <v>       0.22222233       0.44444433       0.20285304 </v>
    <v>       1.00000000       0.33333333       0.14841698 </v>
    <v>       1.00000000       0.33333333       0.27310721 </v>
    <v>       0.11111100       0.55555567       0.21867116 </v>
    <v>       0.11111100       0.55555567       0.34336139 </v>
    <v>       0.22222233       0.44444433       0.28892491 </v>
    <v>       0.22222233       0.44444433       0.41361514 </v>
    <v>       1.00000000       0.33333333       0.35917908 </v>
    <v>       1.00000000       0.66666667       0.06234511 </v>
    <v>       0.11111100       0.88888900       0.00790906 </v>
    <v>       0.11111100       0.88888900       0.13259929 </v>
    <v>       0.22222233       0.77777767       0.07816281 </v>
    <v>       0.22222233       0.77777767       0.20285304 </v>
    <v>       1.00000000       0.66666667       0.14841698 </v>
    <v>       1.00000000       0.66666667       0.27310721 </v>
    <v>       0.11111100       0.88888900       0.21867116 </v>
    <v>       0.11111100       0.88888900       0.34336139 </v>
    <v>       0.22222233       0.77777767       0.28892491 </v>
    <v>       0.22222233       0.77777767       0.41361514 </v>
    <v>       1.00000000       0.66666667       0.35917908 </v>
    <v>       0.33333333       0.00000000       0.06234511 </v>
    <v>       0.44444433       0.22222233       0.00790906 </v>
    <v>       0.44444433       0.22222233       0.13259929 </v>
    <v>       0.55555567       0.11111100       0.07816281 </v>
    <v>       0.55555567       0.11111100       0.20285304 </v>
    <v>       0.33333333       0.00000000       0.14841698 </v>
    <v>       0.33333333       0.00000000       0.27310721 </v>
    <v>       0.44444433       0.22222233       0.21867116 </v>
    <v>       0.44444433       0.22222233       0.34336139 </v>
    <v>       0.55555567       0.11111100       0.28892491 </v>
    <v>       0.55555567       0.11111100       0.41361514 </v>
    <v>       0.33333333       0.00000000       0.35917908 </v>
    <v>       0.33333333       0.33333333       0.06234511 </v>
    <v>       0.44444433       0.55555567       0.00790906 </v>
    <v>       0.44444433       0.55555567       0.13259929 </v>
    <v>       0.55555567       0.44444433       0.07816281 </v>
    <v>       0.55555567       0.44444433       0.20285304 </v>
    <v>       0.33333333       0.33333333       0.14841698 </v>
    <v>       0.33333333       0.33333333       0.27310721 </v>
    <v>       0.44444433       0.55555567       0.21867116 </v>
    <v>       0.44444433       0.55555567       0.34336139 </v>
    <v>       0.55555567       0.44444433       0.28892491 </v>
    <v>       0.55555567       0.44444433       0.41361514 </v>
    <v>       0.33333333       0.33333333       0.35917908 </v>
    <v>       0.33333333       0.66666667       0.06234511 </v>
    <v>       0.44444433       0.88888900       0.00790906 </v>
    <v>       0.44444433       0.88888900       0.13259929 </v>
    <v>       0.55555567       0.77777767       0.07816281 </v>
    <v>       0.55555567       0.77777767       0.20285304 </v>
    <v>       0.33333333       0.66666667       0.14841698 </v>
    <v>       0.33333333       0.66666667       0.27310721 </v>
    <v>       0.44444433       0.88888900       0.21867116 </v>
    <v>       0.44444433       0.88888900       0.34336139 </v>
    <v>       0.55555567       0.77777767       0.28892491 </v>
    <v>       0.55555567       0.77777767       0.41361514 </v>
    <v>       0.33333333       0.66666667       0.35917908 </v>
    <v>       0.66666667       0.00000000       0.06234511 </v>
    <v>       0.77777767       0.22222233       0.00790906 </v>
    <v>       0.77777767       0.22222233       0.13259929 </v>
    <v>       0.88888900       0.11111100       0.07816281 </v>
    <v>       0.88888900       0.11111100       0.20285304 </v>
    <v>       0.66666667       0.00000000       0.14841698 </v>
    <v>       0.66666667       0.00000000       0.27310721 </v>
    <v>       0.77777767       0.22222233       0.21867116 </v>
    <v>       0.77777767       0.22222233       0.34336139 </v>
    <v>       0.88888900       0.11111100       0.28892491 </v>
    <v>       0.88888900       0.11111100       0.41361514 </v>
    <v>       0.66666667       0.00000000       0.35917908 </v>
    <v>       0.66666667       0.33333333       0.06234511 </v>
    <v>       0.77777767       0.55555567       0.00790906 </v>
    <v>       0.77777767       0.55555567       0.13259929 </v>
    <v>       0.88888900       0.44444433       0.07816281 </v>
    <v>       0.88888900       0.44444433       0.20285304 </v>
    <v>       0.66666667       0.33333333       0.14841698 </v>
    <v>       0.66666667       0.33333333       0.27310721 </v>
    <v>       0.77777767       0.55555567       0.21867116 </v>
    <v>       0.77777767       0.55555567       0.34336139 </v>
    <v>       0.88888900       0.44444433       0.28892491 </v>
    <v>       0.88888900       0.44444433       0.41361514 </v>
    <v>       0.66666667       0.33333333       0.35917908 </v>
    <v>       0.66666667       0.66666667       0.06234511 </v>
    <v>       0.77777767       0.88888900       0.00790906 </v>
    <v>       0.77777767       0.88888900       0.13259929 </v>
    <v>       0.88888900       0.77777767       0.07816281 </v>
    <v>       0.88888900       0.77777767       0.20285304 </v>
    <v>       0.66666667       0.66666667       0.14841698 </v>
    <v>       0.66666667       0.66666667       0.27310721 </v>
    <v>       0.77777767       0.88888900       0.21867116 </v>
    <v>       0.77777767       0.88888900       0.34336139 </v>
    <v>       0.88888900       0.77777767       0.28892491 </v>
    <v>       0.88888900       0.77777767       0.41361514 </v>
    <v>       0.66666667       0.66666667       0.35917908 </v>
    <v>       0.10204867       0.00000000       0.10538105 </v>
    <v>       0.22222233       0.00906233       0.03512688 </v>
    <v>       1.00000000       0.10204867       0.10538105 </v>
    <v>       0.23128467       0.23128467       0.10538105 </v>
    <v>       0.32427100       0.21315967       0.03512688 </v>
    <v>       0.12017367       0.11111100       0.03512688 </v>
    <v>       0.32427100       0.11111100       0.24588897 </v>
    <v>       0.11111100       0.12017367       0.17563522 </v>
    <v>       0.22222233       0.21315967       0.24588897 </v>
    <v>       0.12017367       0.00906233       0.24588897 </v>
    <v>       0.21315967       0.32427100       0.17563522 </v>
    <v>       0.00906233       0.22222233       0.17563522 </v>
    <v>       0.21315967       0.22222233       0.38639732 </v>
    <v>       1.00000000       0.23128467       0.31614315 </v>
    <v>       0.11111100       0.32427100       0.38639732 </v>
    <v>       0.00906233       0.12017367       0.38639732 </v>
    <v>       0.10204867       0.10204867       0.31614315 </v>
    <v>       0.23128467       0.00000000       0.31614315 </v>
    <v>       0.10204867       0.33333333       0.10538105 </v>
    <v>       0.22222233       0.34239567       0.03512688 </v>
    <v>       1.00000000       0.43538200       0.10538105 </v>
    <v>       0.23128467       0.56461800       0.10538105 </v>
    <v>       0.32427100       0.54649300       0.03512688 </v>
    <v>       0.12017367       0.44444433       0.03512688 </v>
    <v>       0.32427100       0.44444433       0.24588897 </v>
    <v>       0.11111100       0.45350700       0.17563522 </v>
    <v>       0.22222233       0.54649300       0.24588897 </v>
    <v>       0.12017367       0.34239567       0.24588897 </v>
    <v>       0.21315967       0.65760433       0.17563522 </v>
    <v>       0.00906233       0.55555567       0.17563522 </v>
    <v>       0.21315967       0.55555567       0.38639732 </v>
    <v>       1.00000000       0.56461800       0.31614315 </v>
    <v>       0.11111100       0.65760433       0.38639732 </v>
    <v>       0.00906233       0.45350700       0.38639732 </v>
    <v>       0.10204867       0.43538200       0.31614315 </v>
    <v>       0.23128467       0.33333333       0.31614315 </v>
    <v>       0.10204867       0.66666667       0.10538105 </v>
    <v>       0.22222233       0.67572900       0.03512688 </v>
    <v>       1.00000000       0.76871533       0.10538105 </v>
    <v>       0.23128467       0.89795133       0.10538105 </v>
    <v>       0.32427100       0.87982633       0.03512688 </v>
    <v>       0.12017367       0.77777767       0.03512688 </v>
    <v>       0.32427100       0.77777767       0.24588897 </v>
    <v>       0.11111100       0.78684033       0.17563522 </v>
    <v>       0.22222233       0.87982633       0.24588897 </v>
    <v>       0.12017367       0.67572900       0.24588897 </v>
    <v>       0.21315967       0.99093767       0.17563522 </v>
    <v>       0.00906233       0.88888900       0.17563522 </v>
    <v>       0.21315967       0.88888900       0.38639732 </v>
    <v>       1.00000000       0.89795133       0.31614315 </v>
    <v>       0.11111100       0.99093767       0.38639732 </v>
    <v>       0.00906233       0.78684033       0.38639732 </v>
    <v>       0.10204867       0.76871533       0.31614315 </v>
    <v>       0.23128467       0.66666667       0.31614315 </v>
    <v>       0.43538200       0.00000000       0.10538105 </v>
    <v>       0.55555567       0.00906233       0.03512688 </v>
    <v>       0.33333333       0.10204867       0.10538105 </v>
    <v>       0.56461800       0.23128467       0.10538105 </v>
    <v>       0.65760433       0.21315967       0.03512688 </v>
    <v>       0.45350700       0.11111100       0.03512688 </v>
    <v>       0.65760433       0.11111100       0.24588897 </v>
    <v>       0.44444433       0.12017367       0.17563522 </v>
    <v>       0.55555567       0.21315967       0.24588897 </v>
    <v>       0.45350700       0.00906233       0.24588897 </v>
    <v>       0.54649300       0.32427100       0.17563522 </v>
    <v>       0.34239567       0.22222233       0.17563522 </v>
    <v>       0.54649300       0.22222233       0.38639732 </v>
    <v>       0.33333333       0.23128467       0.31614315 </v>
    <v>       0.44444433       0.32427100       0.38639732 </v>
    <v>       0.34239567       0.12017367       0.38639732 </v>
    <v>       0.43538200       0.10204867       0.31614315 </v>
    <v>       0.56461800       0.00000000       0.31614315 </v>
    <v>       0.43538200       0.33333333       0.10538105 </v>
    <v>       0.55555567       0.34239567       0.03512688 </v>
    <v>       0.33333333       0.43538200       0.10538105 </v>
    <v>       0.56461800       0.56461800       0.10538105 </v>
    <v>       0.65760433       0.54649300       0.03512688 </v>
    <v>       0.45350700       0.44444433       0.03512688 </v>
    <v>       0.65760433       0.44444433       0.24588897 </v>
    <v>       0.44444433       0.45350700       0.17563522 </v>
    <v>       0.55555567       0.54649300       0.24588897 </v>
    <v>       0.45350700       0.34239567       0.24588897 </v>
    <v>       0.54649300       0.65760433       0.17563522 </v>
    <v>       0.34239567       0.55555567       0.17563522 </v>
    <v>       0.54649300       0.55555567       0.38639732 </v>
    <v>       0.33333333       0.56461800       0.31614315 </v>
    <v>       0.44444433       0.65760433       0.38639732 </v>
    <v>       0.34239567       0.45350700       0.38639732 </v>
    <v>       0.43538200       0.43538200       0.31614315 </v>
    <v>       0.56461800       0.33333333       0.31614315 </v>
    <v>       0.43538200       0.66666667       0.10538105 </v>
    <v>       0.55555567       0.67572900       0.03512688 </v>
    <v>       0.33333333       0.76871533       0.10538105 </v>
    <v>       0.56461800       0.89795133       0.10538105 </v>
    <v>       0.65760433       0.87982633       0.03512688 </v>
    <v>       0.45350700       0.77777767       0.03512688 </v>
    <v>       0.65760433       0.77777767       0.24588897 </v>
    <v>       0.44444433       0.78684033       0.17563522 </v>
    <v>       0.55555567       0.87982633       0.24588897 </v>
    <v>       0.45350700       0.67572900       0.24588897 </v>
    <v>       0.54649300       0.99093767       0.17563522 </v>
    <v>       0.34239567       0.88888900       0.17563522 </v>
    <v>       0.54649300       0.88888900       0.38639732 </v>
    <v>       0.33333333       0.89795133       0.31614315 </v>
    <v>       0.44444433       0.99093767       0.38639732 </v>
    <v>       0.34239567       0.78684033       0.38639732 </v>
    <v>       0.43538200       0.76871533       0.31614315 </v>
    <v>       0.56461800       0.66666667       0.31614315 </v>
    <v>       0.76871533       0.00000000       0.10538105 </v>
    <v>       0.88888900       0.00906233       0.03512688 </v>
    <v>       0.66666667       0.10204867       0.10538105 </v>
    <v>       0.89795133       0.23128467       0.10538105 </v>
    <v>       0.99093767       0.21315967       0.03512688 </v>
    <v>       0.78684033       0.11111100       0.03512688 </v>
    <v>       0.99093767       0.11111100       0.24588897 </v>
    <v>       0.77777767       0.12017367       0.17563522 </v>
    <v>       0.88888900       0.21315967       0.24588897 </v>
    <v>       0.78684033       0.00906233       0.24588897 </v>
    <v>       0.87982633       0.32427100       0.17563522 </v>
    <v>       0.67572900       0.22222233       0.17563522 </v>
    <v>       0.87982633       0.22222233       0.38639732 </v>
    <v>       0.66666667       0.23128467       0.31614315 </v>
    <v>       0.77777767       0.32427100       0.38639732 </v>
    <v>       0.67572900       0.12017367       0.38639732 </v>
    <v>       0.76871533       0.10204867       0.31614315 </v>
    <v>       0.89795133       0.00000000       0.31614315 </v>
    <v>       0.76871533       0.33333333       0.10538105 </v>
    <v>       0.88888900       0.34239567       0.03512688 </v>
    <v>       0.66666667       0.43538200       0.10538105 </v>
    <v>       0.89795133       0.56461800       0.10538105 </v>
    <v>       0.99093767       0.54649300       0.03512688 </v>
    <v>       0.78684033       0.44444433       0.03512688 </v>
    <v>       0.99093767       0.44444433       0.24588897 </v>
    <v>       0.77777767       0.45350700       0.17563522 </v>
    <v>       0.88888900       0.54649300       0.24588897 </v>
    <v>       0.78684033       0.34239567       0.24588897 </v>
    <v>       0.87982633       0.65760433       0.17563522 </v>
    <v>       0.67572900       0.55555567       0.17563522 </v>
    <v>       0.87982633       0.55555567       0.38639732 </v>
    <v>       0.66666667       0.56461800       0.31614315 </v>
    <v>       0.77777767       0.65760433       0.38639732 </v>
    <v>       0.67572900       0.45350700       0.38639732 </v>
    <v>       0.76871533       0.43538200       0.31614315 </v>
    <v>       0.89795133       0.33333333       0.31614315 </v>
    <v>       0.76871533       0.66666667       0.10538105 </v>
    <v>       0.88888900       0.67572900       0.03512688 </v>
    <v>       0.66666667       0.76871533       0.10538105 </v>
    <v>       0.89795133       0.89795133       0.10538105 </v>
    <v>       0.99093767       0.87982633       0.03512688 </v>
    <v>       0.78684033       0.77777767       0.03512688 </v>
    <v>       0.99093767       0.77777767       0.24588897 </v>
    <v>       0.77777767       0.78684033       0.17563522 </v>
    <v>       0.88888900       0.87982633       0.24588897 </v>
    <v>       0.78684033       0.67572900       0.24588897 </v>
    <v>       0.87982633       0.99093767       0.17563522 </v>
    <v>       0.67572900       0.88888900       0.17563522 </v>
    <v>       0.87982633       0.88888900       0.38639732 </v>
    <v>       0.66666667       0.89795133       0.31614315 </v>
    <v>       0.77777767       0.99093767       0.38639732 </v>
    <v>       0.67572900       0.78684033       0.38639732 </v>
    <v>       0.76871533       0.76871533       0.31614315 </v>
    <v>       0.89795133       0.66666667       0.31614315 </v>
    <v>       0.46187937       0.46187937       0.44575268 </v>
   </varray>
  </structure>
  <varray name="primitive_index" >
   <v type="int" >        1 </v>
   <v type="int" >        2 </v>
   <v type="int" >        3 </v>
   <v type="int" >        4 </v>
   <v type="int" >        5 </v>
   <v type="int" >        6 </v>
   <v type="int" >        7 </v>
   <v type="int" >        8 </v>
   <v type="int" >        9 </v>
   <v type="int" >       10 </v>
   <v type="int" >       11 </v>
   <v type="int" >       12 </v>
   <v type="int" >       13 </v>
   <v type="int" >       14 </v>
   <v type="int" >       15 </v>
   <v type="int" >       16 </v>
   <v type="int" >       17 </v>
   <v type="int" >       18 </v>
   <v type="int" >       19 </v>
   <v type="int" >       20 </v>
   <v type="int" >       21 </v>
   <v type="int" >       22 </v>
   <v type="int" >       23 </v>
   <v type="int" >       24 </v>
   <v type="int" >       25 </v>
   <v type="int" >       26 </v>
   <v type="int" >       27 </v>
   <v type="int" >       28 </v>
   <v type="int" >       29 </v>
   <v type="int" >       30 </v>
   <v type="int" >       31 </v>
   <v type="int" >       32 </v>
   <v type="int" >       33 </v>
   <v type="int" >       34 </v>
   <v type="int" >       35 </v>
   <v type="int" >       36 </v>
   <v type="int" >       37 </v>
   <v type="int" >       38 </v>
   <v type="int" >       39 </v>
   <v type="int" >       40 </v>
   <v type="int" >       41 </v>
   <v type="int" >       42 </v>
   <v type="int" >       43 </v>
   <v type="int" >       44 </v>
   <v type="int" >       45 </v>
   <v type="int" >       46 </v>
   <v type="int" >       47 </v>
   <v type="int" >       48 </v>
   <v type="int" >       49 </v>
   <v type="int" >       50 </v>
   <v type="int" >       51 </v>
   <v type="int" >       52 </v>
   <v type="int" >       53 </v>
   <v type="int" >       54 </v>
   <v type="int" >       55 </v>
   <v type="int" >       56 </v>
   <v type="int" >       57 </v>
   <v type="int" >       58 </v>
   <v type="int" >       59 </v>
   <v type="int" >       60 </v>
   <v type="int" >       61 </v>
   <v type="int" >       62 </v>
   <v type="int" >       63 </v>
   <v type="int" >       64 </v>
   <v type="int" >       65 </v>
   <v type="int" >       66 </v>
   <v type="int" >       67 </v>
   <v type="int" >       68 </v>
   <v type="int" >       69 </v>
   <v type="int" >       70 </v>
   <v type="int" >       71 </v>
   <v type="int" >       72 </v>
   <v type="int" >       73 </v>
   <v type="int" >       74 </v>
   <v type="int" >       75 </v>
   <v type="int" >       76 </v>
   <v type="int" >       77 </v>
   <v type="int" >       78 </v>
   <v type="int" >       79 </v>
   <v type="int" >       80 </v>
   <v type="int" >       81 </v>
   <v type="int" >       82 </v>
   <v type="int" >       83 </v>
   <v type="int" >       84 </v>
   <v type="int" >       85 </v>
   <v type="int" >       86 </v>
   <v type="int" >       87 </v>
   <v type="int" >       88 </v>
   <v type="int" >       89 </v>
   <v type="int" >       90 </v>
   <v type="int" >       91 </v>
   <v type="int" >       92 </v>
   <v type="int" >       93 </v>
   <v type="int" >       94 </v>
   <v type="int" >       95 </v>
   <v type="int" >       96 </v>
   <v type="int" >       97 </v>
   <v type="int" >       98 </v>
   <v type="int" >       99 </v>
   <v type="int" >      100 </v>
   <v type="int" >      101 </v>
   <v type="int" >      102 </v>
   <v type="int" >      103 </v>
   <v type="int" >      104 </v>
   <v type="int" >      105 </v>
   <v type="int" >      106 </v>
   <v type="int" >      107 </v>
   <v type="int" >      108 </v>
   <v type="int" >      109 </v>
   <v type="int" >      110 </v>
   <v type="int" >      111 </v>
   <v type="int" >      112 </v>
   <v type="int" >      113 </v>
   <v type="int" >      114 </v>
   <v type="int" >      115 </v>
   <v type="int" >      116 </v>
   <v type="int" >      117 </v>
   <v type="int" >      118 </v>
   <v type="int" >      119 </v>
   <v type="int" >      120 </v>
   <v type="int" >      121 </v>
   <v type="int" >      122 </v>
   <v type="int" >      123 </v>
   <v type="int" >      124 </v>
   <v type="int" >      125 </v>
   <v type="int" >      126 </v>
   <v type="int" >      127 </v>
   <v type="int" >      128 </v>
   <v type="int" >      129 </v>
   <v type="int" >      130 </v>
   <v type="int" >      131 </v>
   <v type="int" >      132 </v>
   <v type="int" >      133 </v>
   <v type="int" >      134 </v>
   <v type="int" >      135 </v>
   <v type="int" >      136 </v>
   <v type="int" >      137 </v>
   <v type="int" >      138 </v>
   <v type="int" >      139 </v>
   <v type="int" >      140 </v>
   <v type="int" >      141 </v>
   <v type="int" >      142 </v>
   <v type="int" >      143 </v>
   <v type="int" >      144 </v>
   <v type="int" >      145 </v>
   <v type="int" >      146 </v>
   <v type="int" >      147 </v>
   <v type="int" >      148 </v>
   <v type="int" >      149 </v>
   <v type="int" >      150 </v>
   <v type="int" >      151 </v>
   <v type="int" >      152 </v>
   <v type="int" >      153 </v>
   <v type="int" >      154 </v>
   <v type="int" >      155 </v>
   <v type="int" >      156 </v>
   <v type="int" >      157 </v>
   <v type="int" >      158 </v>
   <v type="int" >      159 </v>
   <v type="int" >      160 </v>
   <v type="int" >      161 </v>
   <v type="int" >      162 </v>
   <v type="int" >      163 </v>
   <v type="int" >      164 </v>
   <v type="int" >      165 </v>
   <v type="int" >      166 </v>
   <v type="int" >      167 </v>
   <v type="int" >      168 </v>
   <v type="int" >      169 </v>
   <v type="int" >      170 </v>
   <v type="int" >      171 </v>
   <v type="int" >      172 </v>
   <v type="int" >      173 </v>
   <v type="int" >      174 </v>
   <v type="int" >      175 </v>
   <v type="int" >      176 </v>
   <v type="int" >      177 </v>
   <v type="int" >      178 </v>
   <v type="int" >      179 </v>
   <v type="int" >      180 </v>
   <v type="int" >      181 </v>
   <v type="int" >      182 </v>
   <v type="int" >      183 </v>
   <v type="int" >      184 </v>
   <v type="int" >      185 </v>
   <v type="int" >      186 </v>
   <v type="int" >      187 </v>
   <v type="int" >      188 </v>
   <v type="int" >      189 </v>
   <v type="int" >      190 </v>
   <v type="int" >      191 </v>
   <v type="int" >      192 </v>
   <v type="int" >      193 </v>
   <v type="int" >      194 </v>
   <v type="int" >      195 </v>
   <v type="int" >      196 </v>
   <v type="int" >      197 </v>
   <v type="int" >      198 </v>
   <v type="int" >      199 </v>
   <v type="int" >      200 </v>
   <v type="int" >      201 </v>
   <v type="int" >      202 </v>
   <v type="int" >      203 </v>
   <v type="int" >      204 </v>
   <v type="int" >      205 </v>
   <v type="int" >      206 </v>
   <v type="int" >      207 </v>
   <v type="int" >      208 </v>
   <v type="int" >      209 </v>
   <v type="int" >      210 </v>
   <v type="int" >      211 </v>
   <v type="int" >      212 </v>
   <v type="int" >      213 </v>
   <v type="int" >      214 </v>
   <v type="int" >      215 </v>
   <v type="int" >      216 </v>
   <v type="int" >      217 </v>
   <v type="int" >      218 </v>
   <v type="int" >      219 </v>
   <v type="int" >      220 </v>
   <v type="int" >      221 </v>
   <v type="int" >      222 </v>
   <v type="int" >      223 </v>
   <v type="int" >      224 </v>
   <v type="int" >      225 </v>
   <v type="int" >      226 </v>
   <v type="int" >      227 </v>
   <v type="int" >      228 </v>
   <v type="int" >      229 </v>
   <v type="int" >      230 </v>
   <v type="int" >      231 </v>
   <v type="int" >      232 </v>
   <v type="int" >      233 </v>
   <v type="int" >      234 </v>
   <v type="int" >      235 </v>
   <v type="int" >      236 </v>
   <v type="int" >      237 </v>
   <v type="int" >      238 </v>
   <v type="int" >      239 </v>
   <v type="int" >      240 </v>
   <v type="int" >      241 </v>
   <v type="int" >      242 </v>
   <v type="int" >      243 </v>
   <v type="int" >      244 </v>
   <v type="int" >      245 </v>
   <v type="int" >      246 </v>
   <v type="int" >      247 </v>
   <v type="int" >      248 </v>
   <v type="int" >      249 </v>
   <v type="int" >      250 </v>
   <v type="int" >      251 </v>
   <v type="int" >      252 </v>
   <v type="int" >      253 </v>
   <v type="int" >      254 </v>
   <v type="int" >      255 </v>
   <v type="int" >      256 </v>
   <v type="int" >      257 </v>
   <v type="int" >      258 </v>
   <v type="int" >      259 </v>
   <v type="int" >      260 </v>
   <v type="int" >      261 </v>
   <v type="int" >      262 </v>
   <v type="int" >      263 </v>
   <v type="int" >      264 </v>
   <v type="int" >      265 </v>
   <v type="int" >      266 </v>
   <v type="int" >      267 </v>
   <v type="int" >      268 </v>
   <v type="int" >      269 </v>
   <v type="int" >      270 </v>
   <v type="int" >      271 </v>
  </varray>
 </primitive_cell>
 <kpoints>
  <generation param="Gamma">
   <v type="int" name="divisions">       2        2        1 </v>
   <v name="usershift">      0.00000000       0.00000000       0.00000000 </v>
   <v name="genvec1">      0.50000000      -0.00000000       0.00000000 </v>
   <v name="genvec2">      0.00000000       0.50000000       0.00000000 </v>
   <v name="genvec3">      0.00000000       0.00000000       1.00000000 </v>
   <v name="shift">      0.00000000       0.00000000       0.00000000 </v>
  </generation>
  <varray name="kpointlist" >
   <v>       0.00000000       0.00000000       0.00000000 </v>
   <v>       0.50000000       0.00000000       0.00000000 </v>
   <v>       0.00000000       0.50000000       0.00000000 </v>
   <v>       0.50000000       0.50000000       0.00000000 </v>
  </varray>
  <varray name="weights" >
   <v>       0.25000000 </v>
   <v>       0.25000000 </v>
   <v>       0.25000000 </v>
   <v>       0.25000000 </v>
  </varray>
 </kpoints>
 <parameters>
  <separator name="general" >
   <i type="string" name="SYSTEM">NiAl</i>
   <i type="logical" name="LCOMPAT"> F  </i>
  </separator>
  <separator name="electronic" >
   <i type="string" name="PREC">normal</i>
   <i name="ENMAX">    360.00000000</i>
   <i name="ENAUG">   1139.60900000</i>
   <i name="EDIFF">      0.00000500</i>
   <i type="int" name="IALGO">    38</i>
   <i type="int" name="IWAVPR">    11</i>
   <i type="int" name="NBANDS">   787</i>
   <i type="int" name="NBANDSLOW">    -1</i>
   <i type="int" name="NBANDSHIGH">    -1</i>
   <i name="NELECT">   1302.00000000</i>
   <i type="int" name="TURBO">     0</i>
   <i type="int" name="IRESTART">     0</i>
   <i type="int" name="NREBOOT">     0</i>
   <i type="int" name="NMIN">     0</i>
   <i name="EREF">      0.00000000</i>
   <separator name="electronic smearing" >
    <i type="int" name="ISMEAR">     0</i>
    <i name="SIGMA">      0.05000000</i>
    <i name="KSPACING">      0.50000000</i>
    <i type="logical" name="KGAMMA"> T  </i>
    <i type="logical" name="KBLOWUP"> T  </i>
   </separator>
   <separator name="electronic projectors" >
    <i type="logical" name="LREAL"> T  </i>
    <v name="ROPT">     -0.00050000     -0.00050000</v>
    <i type="int" name="LMAXPAW">  -100</i>
    <i type="int" name="LMAXMIX">     2</i>
    <i type="logical" name="NLSPLINE"> F  </i>
   </separator>
   <separator name="electronic startup" >
    <i type="int" name="ISTART">     0</i>
    <i type="int" name="ICHARG">     2</i>
    <i type="int" name="INIWAV">     1</i>
   </separator>
   <separator name="electronic spin" >
    <i type="int" name="ISPIN">     1</i>
    <i type="logical" name="LNONCOLLINEAR"> F  </i>
    <v name="MAGMOM">      1.00000000      1.00000000      1.00000000      1.00000000      1.00000000      1.00000000      1.00000000      1.00000000      1.00000000      1.00000000      1.00000000      1.00000000      1.00000000      1.00000000      1.00000000      1.00000000      1.00000000      1.00000000      1.00000000      1.00000000
      1.00000000      1.00000000      1.00000000      1.00000000      1.00000000      1.00000000      1.00000000      1.00000000      1.00000000      1.00000000      1.00000000      1.00000000      1.00000000      1.00000000      1.00000000      1.00000000      1.00000000      1.00000000      1.00000000      1.00000000
      1.00000000      1.00000000      1.00000000      1.00000000      1.00000000      1.00000000      1.00000000      1.00000000      1.00000000      1.00000000      1.00000000      1.00000000      1.00000000      1.00000000      1.00000000      1.00000000      1.00000000      1.00000000      1.00000000      1.00000000
      1.00000000      1.00000000      1.00000000      1.00000000      1.00000000      1.00000000      1.00000000      1.00000000      1.00000000      1.00000000      1.00000000      1.00000000      1.00000000      1.00000000      1.00000000      1.00000000      1.00000000      1.00000000      1.00000000      1.00000000
      1.00000000      1.00000000      1.00000000      1.00000000      1.00000000      1.00000000      1.00000000      1.00000000      1.00000000      1.00000000      1.00000000      1.00000000      1.00000000      1.00000000      1.00000000      1.00000000      1.00000000      1.00000000      1.00000000      1.00000000
      1.00000000      1.00000000      1.00000000      1.00000000      1.00000000      1.00000000      1.00000000      1.00000000      1.00000000      1.00000000      1.00000000      1.00000000      1.00000000      1.00000000      1.00000000      1.00000000      1.00000000      1.00000000      1.00000000      1.00000000
      1.00000000      1.00000000      1.00000000      1.00000000      1.00000000      1.00000000      1.00000000      1.00000000      1.00000000      1.00000000      1.00000000      1.00000000      1.00000000      1.00000000      1.00000000      1.00000000      1.00000000      1.00000000      1.00000000      1.00000000
      1.00000000      1.00000000      1.00000000      1.00000000      1.00000000      1.00000000      1.00000000      1.00000000      1.00000000      1.00000000      1.00000000      1.00000000      1.00000000      1.00000000      1.00000000      1.00000000      1.00000000      1.00000000      1.00000000      1.00000000
      1.00000000      1.00000000      1.00000000      1.00000000      1.00000000      1.00000000      1.00000000      1.00000000      1.00000000      1.00000000      1.00000000      1.00000000      1.00000000      1.00000000      1.00000000      1.00000000      1.00000000      1.00000000      1.00000000      1.00000000
      1.00000000      1.00000000      1.00000000      1.00000000      1.00000000      1.00000000      1.00000000      1.00000000      1.00000000      1.00000000      1.00000000      1.00000000      1.00000000      1.00000000      1.00000000      1.00000000      1.00000000      1.00000000      1.00000000      1.00000000
      1.00000000      1.00000000      1.00000000      1.00000000      1.00000000      1.00000000      1.00000000      1.00000000      1.00000000      1.00000000      1.00000000      1.00000000      1.00000000      1.00000000      1.00000000      1.00000000      1.00000000      1.00000000      1.00000000      1.00000000
      1.00000000      1.00000000      1.00000000      1.00000000      1.00000000      1.00000000      1.00000000      1.00000000      1.00000000      1.00000000      1.00000000      1.00000000      1.00000000      1.00000000      1.00000000      1.00000000      1.00000000      1.00000000      1.00000000      1.00000000
      1.00000000      1.00000000      1.00000000      1.00000000      1.00000000      1.00000000      1.00000000      1.00000000      1.00000000      1.00000000      1.00000000      1.00000000      1.00000000      1.00000000      1.00000000      1.00000000      1.00000000      1.00000000      1.00000000      1.00000000
      1.00000000      1.00000000      1.00000000      1.00000000      1.00000000      1.00000000      1.00000000      1.00000000      1.00000000      1.00000000      1.00000000</v>
    <i name="NUPDOWN">     -1.00000000</i>
    <i type="logical" name="LSORBIT"> F  </i>
    <v name="SAXIS">      0.00000000      0.00000000      1.00000000</v>
    <i type="logical" name="LSPIRAL"> F  </i>
    <v name="QSPIRAL">      0.00000000      0.00000000      0.00000000</v>
    <i type="logical" name="LZEROZ"> F  </i>
   </separator>
   <separator name="electronic exchange-correlation" >
    <i type="logical" name="LASPH"> F  </i>
    <i type="logical" name="LMETAGGA"> F  </i>
   </separator>
   <separator name="electronic convergence" >
    <i type="int" name="NELM">    60</i>
    <i type="int" name="NELMDL">    -5</i>
    <i type="int" name="NELMIN">     6</i>
    <i name="ENINI">    360.00000000</i>
    <separator name="electronic convergence detail" >
     <i type="logical" name="LDIAG"> T  </i>
     <i type="logical" name="LSUBROT"> F  </i>
     <i name="WEIMIN">      0.00100000</i>
     <i name="EBREAK">      0.00000000</i>
     <i name="DEPER">      0.30000000</i>
     <i type="int" name="NRMM">     4</i>
     <i name="TIME">      0.40000000</i>
    </separator>
   </separator>
   <separator name="electronic mixer" >
    <i name="AMIX">      0.40000000</i>
    <i name="BMIX">      1.00000000</i>
    <i name="AMIN">      0.10000000</i>
    <i name="AMIX_MAG">      1.60000000</i>
    <i name="BMIX_MAG">      1.00000000</i>
    <separator name="electronic mixer details" >
     <i type="int" name="IMIX">     4</i>
     <i type="logical" name="MIXFIRST"> F  </i>
     <i type="int" name="MAXMIX">   -45</i>
     <i name="WC">    100.00000000</i>
     <i type="int" name="INIMIX">     1</i>
     <i type="int" name="MIXPRE">     1</i>
     <i type="int" name="MREMOVE">     5</i>
    </separator>
   </separator>
   <separator name="electronic dipolcorrection" >
    <i type="logical" name="LDIPOL"> F  </i>
    <i type="logical" name="LMONO"> F  </i>
    <i type="int" name="IDIPOL">     0</i>
    <i name="EPSILON">      1.00000000</i>
    <v name="DIPOL">   -100.00000000   -100.00000000   -100.00000000</v>
    <i name="EFIELD">      0.00000000</i>
   </separator>
  </separator>
  <separator name="grids" >
   <i type="int" name="NGX">    70</i>
   <i type="int" name="NGY">    70</i>
   <i type="int" name="NGZ">   144</i>
   <i type="int" name="NGXF">   140</i>
   <i type="int" name="NGYF">   140</i>
   <i type="int" name="NGZF">   288</i>
   <i type="logical" name="ADDGRID"> F  </i>
  </separator>
  <separator name="ionic" >
   <i type="int" name="NSW">   150</i>
   <i type="int" name="IBRION">     2</i>
   <i type="int" name="MDALGO">     0</i>
   <i type="int" name="ISIF">     0</i>
   <i name="PSTRESS">      0.00000000</i>
   <i name="EDIFFG">      0.00005000</i>
   <i type="int" name="NFREE">     1</i>
   <i name="POTIM">      0.20000000</i>
   <i name="SMASS">     -3.00000000</i>
   <i name="SCALEE">      1.00000000</i>
  </separator>
  <separator name="ionic md" >
   <i name="TEBEG">      0.00010000</i>
   <i name="TEEND">      0.00010000</i>
   <i type="int" name="NBLOCK">     1</i>
   <i type="int" name="KBLOCK">   150</i>
   <i type="int" name="NPACO">   256</i>
   <i name="APACO">     16.00000000</i>
  </separator>
  <separator name="symmetry" >
   <i type="int" name="ISYM">     2</i>
   <i name="SYMPREC">      0.00001000</i>
  </separator>
  <separator name="dos" >
   <i type="int" name="LORBIT">     0</i>
   <v name="RWIGS">     -1.00000000     -1.00000000</v>
   <i type="int" name="NEDOS">   301</i>
   <i name="EMIN">     10.00000000</i>
   <i name="EMAX">    -10.00000000</i>
   <i name="EFERMI">      0.00000000</i>
  </separator>
  <separator name="writing" >
   <i type="int" name="NWRITE">     2</i>
   <i type="logical" name="LWAVE"> F  </i>
   <i type="logical" name="LDOWNSAMPLE"> F  </i>
   <i type="logical" name="LCHARG"> F  </i>
   <i type="logical" name="LPARD"> F  </i>
   <i type="logical" name="LVTOT"> F  </i>
   <i type="logical" name="LVHAR"> F  </i>
   <i type="logical" name="LELF"> F  </i>
   <i type="logical" name="LOPTICS"> F  </i>
   <v name="STM">      0.00000000      0.00000000      0.00000000      0.00000000      0.00000000      0.00000000      0.00000000</v>
  </separator>
  <separator name="performance" >
   <i type="int" name="NPAR">     1</i>
   <i type="int" name="NSIM">     4</i>
   <i type="int" name="NBLK">    -1</i>
   <i type="logical" name="LPLANE"> T  </i>
   <i type="logical" name="LSCALAPACK"> T  </i>
   <i type="logical" name="LSCAAWARE"> F  </i>
   <i type="logical" name="LSCALU"> F  </i>
   <i type="logical" name="LASYNC"> F  </i>
   <i type="logical" name="LORBITALREAL"> F  </i>
  </separator>
  <separator name="miscellaneous" >
   <i type="int" name="IDIOT">     3</i>
   <i type="int" name="PHON_NSTRUCT">    -1</i>
   <i type="logical" name="LMUSIC"> F  </i>
   <v name="POMASS">     26.98200000     16.00000000</v>
   <v name="DARWINR">      0.00000000      0.00000000</v>
   <v name="DARWINV">      1.00000000      1.00000000</v>
   <i type="logical" name="LCORR"> T  </i>
  </separator>
  <i type="logical" name="GGA_COMPAT"> T  </i>
  <i type="logical" name="LBERRY"> F  </i>
  <i type="int" name="ICORELEVEL">     0</i>
  <i type="logical" name="LDAU"> F  </i>
  <i type="int" name="I_CONSTRAINED_M">     0</i>
  <separator name="electronic exchange-correlation" >
   <i type="string" name="GGA">--</i>
   <i type="int" name="VOSKOWN">     0</i>
   <i type="logical" name="LHFCALC"> F  </i>
   <i type="string" name="PRECFOCK"></i>
   <i type="logical" name="LSYMGRAD"> F  </i>
   <i type="logical" name="LHFONE"> F  </i>
   <i type="logical" name="LRHFCALC"> F  </i>
   <i type="logical" name="LTHOMAS"> F  </i>
   <i type="logical" name="LMODELHF"> F  </i>
   <i type="logical" name="LFOCKACE"> F  </i>
   <i name="ENCUT4O">     -1.00000000</i>
   <i type="int" name="EXXOEP">     0</i>
   <i type="int" name="FOURORBIT">     0</i>
   <i name="AEXX">      0.00000000</i>
   <i name="HFALPHA">      0.00000000</i>
   <i name="MCALPHA">      0.00000000</i>
   <i name="ALDAX">      1.00000000</i>
   <i name="AGGAX">      1.00000000</i>
   <i name="ALDAC">      1.00000000</i>
   <i name="AGGAC">      1.00000000</i>
   <i type="int" name="NKREDX">     1</i>
   <i type="int" name="NKREDY">     1</i>
   <i type="int" name="NKREDZ">     1</i>
   <i type="logical" name="SHIFTRED"> F  </i>
   <i type="logical" name="ODDONLY"> F  </i>
   <i type="logical" name="EVENONLY"> F  </i>
   <i type="int" name="LMAXFOCK">     0</i>
   <i type="int" name="NMAXFOCKAE">     0</i>
   <i type="logical" name="LFOCKAEDFT"> F  </i>
   <i name="HFSCREEN">      0.00000000</i>
   <i name="HFSCREENC">      0.00000000</i>
   <i type="int" name="NBANDSGWLOW">     0</i>
  </separator>
  <separator name="vdW DFT" >
   <i type="logical" name="LUSE_VDW"> F  </i>
   <i name="Zab_VDW">     -0.84910000</i>
   <i name="PARAM1">      0.12340000</i>
   <i name="PARAM2">      1.00000000</i>
   <i name="PARAM3">      0.00000000</i>
  </separator>
  <separator name="model GW" >
   <i type="int" name="MODEL_GW">     0</i>
   <i name="MODEL_EPS0">     12.39750298</i>
   <i name="MODEL_ALPHA">      1.00000000</i>
  </separator>
  <separator name="linear response parameters" >
   <i type="logical" name="LEPSILON"> F  </i>
   <i type="logical" name="LRPA"> F  </i>
   <i type="logical" name="LNABLA"> F  </i>
   <i type="logical" name="LVEL"> F  </i>
   <i type="int" name="KINTER">     0</i>
   <i name="CSHIFT">      0.10000000</i>
   <i name="OMEGAMAX">     -1.00000000</i>
   <i name="DEG_THRESHOLD">      0.00200000</i>
   <i name="RTIME">     -0.10000000</i>
   <i name="WPLASMAI">      0.00000000</i>
   <v name="DFIELD">      0.00000000      0.00000000      0.00000000</v>
   <v name="WPLASMA">      0.00000000      0.00000000      0.00000000      0.00000000      0.00000000      0.00000000      0.00000000      0.00000000      0.00000000</v>
  </separator>
  <separator name="orbital magnetization" >
   <i type="logical" name="NUCIND"> F  </i>
   <v name="MAGPOS">      0.00000000      0.00000000      0.00000000</v>
   <i type="logical" name="LNICSALL"> T  </i>
   <i type="logical" name="ORBITALMAG"> F  </i>
   <i type="logical" name="LMAGBLOCH"> F  </i>
   <i type="logical" name="LCHIMAG"> F  </i>
   <i type="logical" name="LGAUGE"> T  </i>
   <i type="int" name="MAGATOM">     0</i>
   <v name="MAGDIPOL">      0.00000000      0.00000000      0.00000000</v>
   <v name="AVECCONST">      0.00000000      0.00000000      0.00000000</v>
  </separator>
  <separator name="response functions" >
   <i type="logical" name="LFINITE_TEMPERATURE"> F  </i>
   <i type="logical" name="LADDER"> F  </i>
   <i type="logical" name="LRPAFORCE"> F  </i>
   <i type="logical" name="LFXC"> F  </i>
   <i type="logical" name="LHARTREE"> T  </i>
   <i type="int" name="IBSE">     0</i>
   <v type="int" name="KPOINT">    -1     0     0     0</v>
   <i type="logical" name="LTCTC"> F  </i>
   <i type="logical" name="LTCTE"> F  </i>
   <i type="logical" name="LTETE"> F  </i>
   <i type="logical" name="LTRIPLET"> F  </i>
   <i type="logical" name="LFXCEPS"> F  </i>
   <i type="logical" name="LFXHEG"> F  </i>
   <i type="int" name="NATURALO">     2</i>
   <i type="logical" name="LHOLEGF"> F  </i>
   <i type="logical" name="L2ORDER"> F  </i>
   <i type="logical" name="LDMP1"> F  </i>
   <i type="logical" name="LMP2LT"> F  </i>
   <i type="logical" name="LSMP2LT"> F  </i>
   <i type="logical" name="LGWLF"> F  </i>
   <i name="ENCUTGW">     -2.00000000</i>
   <i name="ENCUTGWSOFT">     -2.00000000</i>
   <i name="ENCUTLF">     -1.00000000</i>
   <i type="logical" name="LESF_SPLINES"> F  </i>
   <i type="int" name="LMAXMP2">    -1</i>
   <i name="SCISSOR">      0.00000000</i>
   <i type="int" name="NOMEGA">     0</i>
   <i type="int" name="NOMEGAR">     0</i>
   <i type="int" name="NBANDSGW">    -1</i>
   <i type="int" name="NBANDSO">    -1</i>
   <i type="int" name="NBANDSV">    -1</i>
   <i type="int" name="NELM">     1</i>
   <i type="int" name="NELMHF">     1</i>
   <i type="int" name="DIM">     3</i>
   <i type="int" name="IESPILON">     4</i>
   <i type="int" name="ANTIRES">     0</i>
   <i name="OMEGAMAX">    -30.00000000</i>
   <i name="OMEGAMIN">    -30.00000000</i>
   <i name="OMEGATL">   -200.00000000</i>
   <i type="int" name="OMEGAGRID">     0</i>
   <i name="CSHIFT">     -0.10000000</i>
   <i type="logical" name="LSELFENERGY"> F  </i>
   <i type="logical" name="LSPECTRAL"> F  </i>
   <i type="logical" name="LSPECTRALGW"> F  </i>
   <i type="logical" name="LSINGLES"> F  </i>
   <i type="logical" name="LFERMIGW"> F  </i>
   <i type="logical" name="ODDONLYGW"> F  </i>
   <i type="logical" name="EVENONLYGW"> F  </i>
   <i type="int" name="NKREDLFX">     1</i>
   <i type="int" name="NKREDLFY">     1</i>
   <i type="int" name="NKREDLFZ">     1</i>
   <i type="int" name="MAXMEM">  2800</i>
   <i type="int" name="TELESCOPE">     0</i>
   <i type="int" name="NTAUPAR">    -1</i>
   <i type="int" name="NOMEGAPAR">    -1</i>
   <i name="DAMP_NEWTON">      0.80000001</i>
   <i name="LAMBDA">      1.00000000</i>
  </separator>
  <separator name="External order field" >
   <i name="OFIELD_KAPPA">      0.00000000</i>
   <v name="OFIELD_K">      0.00000000      0.00000000      0.00000000</v>
   <i name="OFIELD_Q6_NEAR">      0.00000000</i>
   <i name="OFIELD_Q6_FAR">      0.00000000</i>
   <i name="OFIELD_A">      0.00000000</i>
  </separator>
 </parameters>
 <atominfo>
  <atoms>     271 </atoms>
  <types>       2 </types>
  <array name="atoms" >
   <dimension dim="1">ion</dimension>
   <field type="string">element</field>
   <field type="int">atomtype</field>
   <set>
    <rc><c>Al</c><c>   1</c></rc>
    <rc><c>Al</c><c>   1</c></rc>
    <rc><c>Al</c><c>   1</c></rc>
    <rc><c>Al</c><c>   1</c></rc>
    <rc><c>Al</c><c>   1</c></rc>
    <rc><c>Al</c><c>   1</c></rc>
    <rc><c>Al</c><c>   1</c></rc>
    <rc><c>Al</c><c>   1</c></rc>
    <rc><c>Al</c><c>   1</c></rc>
    <rc><c>Al</c><c>   1</c></rc>
    <rc><c>Al</c><c>   1</c></rc>
    <rc><c>Al</c><c>   1</c></rc>
    <rc><c>Al</c><c>   1</c></rc>
    <rc><c>Al</c><c>   1</c></rc>
    <rc><c>Al</c><c>   1</c></rc>
    <rc><c>Al</c><c>   1</c></rc>
    <rc><c>Al</c><c>   1</c></rc>
    <rc><c>Al</c><c>   1</c></rc>
    <rc><c>Al</c><c>   1</c></rc>
    <rc><c>Al</c><c>   1</c></rc>
    <rc><c>Al</c><c>   1</c></rc>
    <rc><c>Al</c><c>   1</c></rc>
    <rc><c>Al</c><c>   1</c></rc>
    <rc><c>Al</c><c>   1</c></rc>
    <rc><c>Al</c><c>   1</c></rc>
    <rc><c>Al</c><c>   1</c></rc>
    <rc><c>Al</c><c>   1</c></rc>
    <rc><c>Al</c><c>   1</c></rc>
    <rc><c>Al</c><c>   1</c></rc>
    <rc><c>Al</c><c>   1</c></rc>
    <rc><c>Al</c><c>   1</c></rc>
    <rc><c>Al</c><c>   1</c></rc>
    <rc><c>Al</c><c>   1</c></rc>
    <rc><c>Al</c><c>   1</c></rc>
    <rc><c>Al</c><c>   1</c></rc>
    <rc><c>Al</c><c>   1</c></rc>
    <rc><c>Al</c><c>   1</c></rc>
    <rc><c>Al</c><c>   1</c></rc>
    <rc><c>Al</c><c>   1</c></rc>
    <rc><c>Al</c><c>   1</c></rc>
    <rc><c>Al</c><c>   1</c></rc>
    <rc><c>Al</c><c>   1</c></rc>
    <rc><c>Al</c><c>   1</c></rc>
    <rc><c>Al</c><c>   1</c></rc>
    <rc><c>Al</c><c>   1</c></rc>
    <rc><c>Al</c><c>   1</c></rc>
    <rc><c>Al</c><c>   1</c></rc>
    <rc><c>Al</c><c>   1</c></rc>
    <rc><c>Al</c><c>   1</c></rc>
    <rc><c>Al</c><c>   1</c></rc>
    <rc><c>Al</c><c>   1</c></rc>
    <rc><c>Al</c><c>   1</c></rc>
    <rc><c>Al</c><c>   1</c></rc>
    <rc><c>Al</c><c>   1</c></rc>
    <rc><c>Al</c><c>   1</c></rc>
    <rc><c>Al</c><c>   1</c></rc>
    <rc><c>Al</c><c>   1</c></rc>
    <rc><c>Al</c><c>   1</c></rc>
    <rc><c>Al</c><c>   1</c></rc>
    <rc><c>Al</c><c>   1</c></rc>
    <rc><c>Al</c><c>   1</c></rc>
    <rc><c>Al</c><c>   1</c></rc>
    <rc><c>Al</c><c>   1</c></rc>
    <rc><c>Al</c><c>   1</c></rc>
    <rc><c>Al</c><c>   1</c></rc>
    <rc><c>Al</c><c>   1</c></rc>
    <rc><c>Al</c><c>   1</c></rc>
    <rc><c>Al</c><c>   1</c></rc>
    <rc><c>Al</c><c>   1</c></rc>
    <rc><c>Al</c><c>   1</c></rc>
    <rc><c>Al</c><c>   1</c></rc>
    <rc><c>Al</c><c>   1</c></rc>
    <rc><c>Al</c><c>   1</c></rc>
    <rc><c>Al</c><c>   1</c></rc>
    <rc><c>Al</c><c>   1</c></rc>
    <rc><c>Al</c><c>   1</c></rc>
    <rc><c>Al</c><c>   1</c></rc>
    <rc><c>Al</c><c>   1</c></rc>
    <rc><c>Al</c><c>   1</c></rc>
    <rc><c>Al</c><c>   1</c></rc>
    <rc><c>Al</c><c>   1</c></rc>
    <rc><c>Al</c><c>   1</c></rc>
    <rc><c>Al</c><c>   1</c></rc>
    <rc><c>Al</c><c>   1</c></rc>
    <rc><c>Al</c><c>   1</c></rc>
    <rc><c>Al</c><c>   1</c></rc>
    <rc><c>Al</c><c>   1</c></rc>
    <rc><c>Al</c><c>   1</c></rc>
    <rc><c>Al</c><c>   1</c></rc>
    <rc><c>Al</c><c>   1</c></rc>
    <rc><c>Al</c><c>   1</c></rc>
    <rc><c>Al</c><c>   1</c></rc>
    <rc><c>Al</c><c>   1</c></rc>
    <rc><c>Al</c><c>   1</c></rc>
    <rc><c>Al</c><c>   1</c></rc>
    <rc><c>Al</c><c>   1</c></rc>
    <rc><c>Al</c><c>   1</c></rc>
    <rc><c>Al</c><c>   1</c></rc>
    <rc><c>Al</c><c>   1</c></rc>
    <rc><c>Al</c><c>   1</c></rc>
    <rc><c>Al</c><c>   1</c></rc>
    <rc><c>Al</c><c>   1</c></rc>
    <rc><c>Al</c><c>   1</c></rc>
    <rc><c>Al</c><c>   1</c></rc>
    <rc><c>Al</c><c>   1</c></rc>
    <rc><c>Al</c><c>   1</c></rc>
    <rc><c>Al</c><c>   1</c></rc>
    <rc><c>Al</c><c>   1</c></rc>
    <rc><c>O </c><c>   2</c></rc>
    <rc><c>O </c><c>   2</c></rc>
    <rc><c>O </c><c>   2</c></rc>
    <rc><c>O </c><c>   2</c></rc>
    <rc><c>O </c><c>   2</c></rc>
    <rc><c>O </c><c>   2</c></rc>
    <rc><c>O </c><c>   2</c></rc>
    <rc><c>O </c><c>   2</c></rc>
    <rc><c>O </c><c>   2</c></rc>
    <rc><c>O </c><c>   2</c></rc>
    <rc><c>O </c><c>   2</c></rc>
    <rc><c>O </c><c>   2</c></rc>
    <rc><c>O </c><c>   2</c></rc>
    <rc><c>O </c><c>   2</c></rc>
    <rc><c>O </c><c>   2</c></rc>
    <rc><c>O </c><c>   2</c></rc>
    <rc><c>O </c><c>   2</c></rc>
    <rc><c>O </c><c>   2</c></rc>
    <rc><c>O </c><c>   2</c></rc>
    <rc><c>O </c><c>   2</c></rc>
    <rc><c>O </c><c>   2</c></rc>
    <rc><c>O </c><c>   2</c></rc>
    <rc><c>O </c><c>   2</c></rc>
    <rc><c>O </c><c>   2</c></rc>
    <rc><c>O </c><c>   2</c></rc>
    <rc><c>O </c><c>   2</c></rc>
    <rc><c>O </c><c>   2</c></rc>
    <rc><c>O </c><c>   2</c></rc>
    <rc><c>O </c><c>   2</c></rc>
    <rc><c>O </c><c>   2</c></rc>
    <rc><c>O </c><c>   2</c></rc>
    <rc><c>O </c><c>   2</c></rc>
    <rc><c>O </c><c>   2</c></rc>
    <rc><c>O </c><c>   2</c></rc>
    <rc><c>O </c><c>   2</c></rc>
    <rc><c>O </c><c>   2</c></rc>
    <rc><c>O </c><c>   2</c></rc>
    <rc><c>O </c><c>   2</c></rc>
    <rc><c>O </c><c>   2</c></rc>
    <rc><c>O </c><c>   2</c></rc>
    <rc><c>O </c><c>   2</c></rc>
    <rc><c>O </c><c>   2</c></rc>
    <rc><c>O </c><c>   2</c></rc>
    <rc><c>O </c><c>   2</c></rc>
    <rc><c>O </c><c>   2</c></rc>
    <rc><c>O </c><c>   2</c></rc>
    <rc><c>O </c><c>   2</c></rc>
    <rc><c>O </c><c>   2</c></rc>
    <rc><c>O </c><c>   2</c></rc>
    <rc><c>O </c><c>   2</c></rc>
    <rc><c>O </c><c>   2</c></rc>
    <rc><c>O </c><c>   2</c></rc>
    <rc><c>O </c><c>   2</c></rc>
    <rc><c>O </c><c>   2</c></rc>
    <rc><c>O </c><c>   2</c></rc>
    <rc><c>O </c><c>   2</c></rc>
    <rc><c>O </c><c>   2</c></rc>
    <rc><c>O </c><c>   2</c></rc>
    <rc><c>O </c><c>   2</c></rc>
    <rc><c>O </c><c>   2</c></rc>
    <rc><c>O </c><c>   2</c></rc>
    <rc><c>O </c><c>   2</c></rc>
    <rc><c>O </c><c>   2</c></rc>
    <rc><c>O </c><c>   2</c></rc>
    <rc><c>O </c><c>   2</c></rc>
    <rc><c>O </c><c>   2</c></rc>
    <rc><c>O </c><c>   2</c></rc>
    <rc><c>O </c><c>   2</c></rc>
    <rc><c>O </c><c>   2</c></rc>
    <rc><c>O </c><c>   2</c></rc>
    <rc><c>O </c><c>   2</c></rc>
    <rc><c>O </c><c>   2</c></rc>
    <rc><c>O </c><c>   2</c></rc>
    <rc><c>O </c><c>   2</c></rc>
    <rc><c>O </c><c>   2</c></rc>
    <rc><c>O </c><c>   2</c></rc>
    <rc><c>O </c><c>   2</c></rc>
    <rc><c>O </c><c>   2</c></rc>
    <rc><c>O </c><c>   2</c></rc>
    <rc><c>O </c><c>   2</c></rc>
    <rc><c>O </c><c>   2</c></rc>
    <rc><c>O </c><c>   2</c></rc>
    <rc><c>O </c><c>   2</c></rc>
    <rc><c>O </c><c>   2</c></rc>
    <rc><c>O </c><c>   2</c></rc>
    <rc><c>O </c><c>   2</c></rc>
    <rc><c>O </c><c>   2</c></rc>
    <rc><c>O </c><c>   2</c></rc>
    <rc><c>O </c><c>   2</c></rc>
    <rc><c>O </c><c>   2</c></rc>
    <rc><c>O </c><c>   2</c></rc>
    <rc><c>O </c><c>   2</c></rc>
    <rc><c>O </c><c>   2</c></rc>
    <rc><c>O </c><c>   2</c></rc>
    <rc><c>O </c><c>   2</c></rc>
    <rc><c>O </c><c>   2</c></rc>
    <rc><c>O </c><c>   2</c></rc>
    <rc><c>O </c><c>   2</c></rc>
    <rc><c>O </c><c>   2</c></rc>
    <rc><c>O </c><c>   2</c></rc>
    <rc><c>O </c><c>   2</c></rc>
    <rc><c>O </c><c>   2</c></rc>
    <rc><c>O </c><c>   2</c></rc>
    <rc><c>O </c><c>   2</c></rc>
    <rc><c>O </c><c>   2</c></rc>
    <rc><c>O </c><c>   2</c></rc>
    <rc><c>O </c><c>   2</c></rc>
    <rc><c>O </c><c>   2</c></rc>
    <rc><c>O </c><c>   2</c></rc>
    <rc><c>O </c><c>   2</c></rc>
    <rc><c>O </c><c>   2</c></rc>
    <rc><c>O </c><c>   2</c></rc>
    <rc><c>O </c><c>   2</c></rc>
    <rc><c>O </c><c>   2</c></rc>
    <rc><c>O </c><c>   2</c></rc>
    <rc><c>O </c><c>   2</c></rc>
    <rc><c>O </c><c>   2</c></rc>
    <rc><c>O </c><c>   2</c></rc>
    <rc><c>O </c><c>   2</c></rc>
    <rc><c>O </c><c>   2</c></rc>
    <rc><c>O </c><c>   2</c></rc>
    <rc><c>O </c><c>   2</c></rc>
    <rc><c>O </c><c>   2</c></rc>
    <rc><c>O </c><c>   2</c></rc>
    <rc><c>O </c><c>   2</c></rc>
    <rc><c>O </c><c>   2</c></rc>
    <rc><c>O </c><c>   2</c></rc>
    <rc><c>O </c><c>   2</c></rc>
    <rc><c>O </c><c>   2</c></rc>
    <rc><c>O </c><c>   2</c></rc>
    <rc><c>O </c><c>   2</c></rc>
    <rc><c>O </c><c>   2</c></rc>
    <rc><c>O </c><c>   2</c></rc>
    <rc><c>O </c><c>   2</c></rc>
    <rc><c>O </c><c>   2</c></rc>
    <rc><c>O </c><c>   2</c></rc>
    <rc><c>O </c><c>   2</c></rc>
    <rc><c>O </c><c>   2</c></rc>
    <rc><c>O </c><c>   2</c></rc>
    <rc><c>O </c><c>   2</c></rc>
    <rc><c>O </c><c>   2</c></rc>
    <rc><c>O </c><c>   2</c></rc>
    <rc><c>O </c><c>   2</c></rc>
    <rc><c>O </c><c>   2</c></rc>
    <rc><c>O </c><c>   2</c></rc>
    <rc><c>O </c><c>   2</c></rc>
    <rc><c>O </c><c>   2</c></rc>
    <rc><c>O </c><c>   2</c></rc>
    <rc><c>O </c><c>   2</c></rc>
    <rc><c>O </c><c>   2</c></rc>
    <rc><c>O </c><c>   2</c></rc>
    <rc><c>O </c><c>   2</c></rc>
    <rc><c>O </c><c>   2</c></rc>
    <rc><c>O </c><c>   2</c></rc>
    <rc><c>O </c><c>   2</c></rc>
    <rc><c>O </c><c>   2</c></rc>
    <rc><c>O </c><c>   2</c></rc>
    <rc><c>O </c><c>   2</c></rc>
    <rc><c>O </c><c>   2</c></rc>
    <rc><c>O </c><c>   2</c></rc>
    <rc><c>O </c><c>   2</c></rc>
    <rc><c>O </c><c>   2</c></rc>
    <rc><c>O </c><c>   2</c></rc>
   </set>
  </array>
  <array name="atomtypes" >
   <dimension dim="1">type</dimension>
   <field type="int">atomspertype</field>
   <field type="string">element</field>
   <field>mass</field>
   <field>valence</field>
   <field type="string">pseudopotential</field>
   <set>
    <rc><c> 108</c><c>Al</c><c>     26.98200000</c><c>      3.00000000</c><c>  PAW Al_GW 19Mar2012                   </c></rc>
    <rc><c> 163</c><c>O </c><c>     16.00000000</c><c>      6.00000000</c><c>  PAW O_GW 19Mar2012                    </c></rc>
   </set>
  </array>
 </atominfo>
 <structure name="initialpos" >
  <crystal>
   <varray name="basis" >
    <v>      14.41508400       0.00000000       0.00000000 </v>
    <v>      -7.20754200      12.48382800       0.00000000 </v>
    <v>       0.00000000       0.00000000      31.11625400 </v>
   </varray>
   <i name="volume">   5599.53884558 </i>
   <varray name="rec_basis" >
    <v>       0.06937178       0.04005182      -0.00000000 </v>
    <v>       0.00000000       0.08010363       0.00000000 </v>
    <v>       0.00000000      -0.00000000       0.03213754 </v>
   </varray>
  </crystal>
  <varray name="positions" >
   <v>       0.00000000       0.00000000       0.06234511 </v>
   <v>       0.11111100       0.22222233       0.00790906 </v>
   <v>       0.11111100       0.22222233       0.13259929 </v>
   <v>       0.22222233       0.11111100       0.07816281 </v>
   <v>       0.22222233       0.11111100       0.20285304 </v>
   <v>       0.00000000       0.00000000       0.14841698 </v>
   <v>       0.00000000       0.00000000       0.27310721 </v>
   <v>       0.11111100       0.22222233       0.21867116 </v>
   <v>       0.11111100       0.22222233       0.34336139 </v>
   <v>       0.22222233       0.11111100       0.28892491 </v>
   <v>       0.22222233       0.11111100       0.41361514 </v>
   <v>       0.00000000       0.00000000       0.35917908 </v>
   <v>       0.00000000       0.33333333       0.06234511 </v>
   <v>       0.11111100       0.55555567       0.00790906 </v>
   <v>       0.11111100       0.55555567       0.13259929 </v>
   <v>       0.22222233       0.44444433       0.07816281 </v>
   <v>       0.22222233       0.44444433       0.20285304 </v>
   <v>       0.00000000       0.33333333       0.14841698 </v>
   <v>       0.00000000       0.33333333       0.27310721 </v>
   <v>       0.11111100       0.55555567       0.21867116 </v>
   <v>       0.11111100       0.55555567       0.34336139 </v>
   <v>       0.22222233       0.44444433       0.28892491 </v>
   <v>       0.22222233       0.44444433       0.41361514 </v>
   <v>       0.00000000       0.33333333       0.35917908 </v>
   <v>       0.00000000       0.66666667       0.06234511 </v>
   <v>       0.11111100       0.88888900       0.00790906 </v>
   <v>       0.11111100       0.88888900       0.13259929 </v>
   <v>       0.22222233       0.77777767       0.07816281 </v>
   <v>       0.22222233       0.77777767       0.20285304 </v>
   <v>       0.00000000       0.66666667       0.14841698 </v>
   <v>       0.00000000       0.66666667       0.27310721 </v>
   <v>       0.11111100       0.88888900       0.21867116 </v>
   <v>       0.11111100       0.88888900       0.34336139 </v>
   <v>       0.22222233       0.77777767       0.28892491 </v>
   <v>       0.22222233       0.77777767       0.41361514 </v>
   <v>       0.00000000       0.66666667       0.35917908 </v>
   <v>       0.33333333       0.00000000       0.06234511 </v>
   <v>       0.44444433       0.22222233       0.00790906 </v>
   <v>       0.44444433       0.22222233       0.13259929 </v>
   <v>       0.55555567       0.11111100       0.07816281 </v>
   <v>       0.55555567       0.11111100       0.20285304 </v>
   <v>       0.33333333       0.00000000       0.14841698 </v>
   <v>       0.33333333       0.00000000       0.27310721 </v>
   <v>       0.44444433       0.22222233       0.21867116 </v>
   <v>       0.44444433       0.22222233       0.34336139 </v>
   <v>       0.55555567       0.11111100       0.28892491 </v>
   <v>       0.55555567       0.11111100       0.41361514 </v>
   <v>       0.33333333       0.00000000       0.35917908 </v>
   <v>       0.33333333       0.33333333       0.06234511 </v>
   <v>       0.44444433       0.55555567       0.00790906 </v>
   <v>       0.44444433       0.55555567       0.13259929 </v>
   <v>       0.55555567       0.44444433       0.07816281 </v>
   <v>       0.55555567       0.44444433       0.20285304 </v>
   <v>       0.33333333       0.33333333       0.14841698 </v>
   <v>       0.33333333       0.33333333       0.27310721 </v>
   <v>       0.44444433       0.55555567       0.21867116 </v>
   <v>       0.44444433       0.55555567       0.34336139 </v>
   <v>       0.55555567       0.44444433       0.28892491 </v>
   <v>       0.55555567       0.44444433       0.41361514 </v>
   <v>       0.33333333       0.33333333       0.35917908 </v>
   <v>       0.33333333       0.66666667       0.06234511 </v>
   <v>       0.44444433       0.88888900       0.00790906 </v>
   <v>       0.44444433       0.88888900       0.13259929 </v>
   <v>       0.55555567       0.77777767       0.07816281 </v>
   <v>       0.55555567       0.77777767       0.20285304 </v>
   <v>       0.33333333       0.66666667       0.14841698 </v>
   <v>       0.33333333       0.66666667       0.27310721 </v>
   <v>       0.44444433       0.88888900       0.21867116 </v>
   <v>       0.44444433       0.88888900       0.34336139 </v>
   <v>       0.55555567       0.77777767       0.28892491 </v>
   <v>       0.55555567       0.77777767       0.41361514 </v>
   <v>       0.33333333       0.66666667       0.35917908 </v>
   <v>       0.66666667       0.00000000       0.06234511 </v>
   <v>       0.77777767       0.22222233       0.00790906 </v>
   <v>       0.77777767       0.22222233       0.13259929 </v>
   <v>       0.88888900       0.11111100       0.07816281 </v>
   <v>       0.88888900       0.11111100       0.20285304 </v>
   <v>       0.66666667       0.00000000       0.14841698 </v>
   <v>       0.66666667       0.00000000       0.27310721 </v>
   <v>       0.77777767       0.22222233       0.21867116 </v>
   <v>       0.77777767       0.22222233       0.34336139 </v>
   <v>       0.88888900       0.11111100       0.28892491 </v>
   <v>       0.88888900       0.11111100       0.41361514 </v>
   <v>       0.66666667       0.00000000       0.35917908 </v>
   <v>       0.66666667       0.33333333       0.06234511 </v>
   <v>       0.77777767       0.55555567       0.00790906 </v>
   <v>       0.77777767       0.55555567       0.13259929 </v>
   <v>       0.88888900       0.44444433       0.07816281 </v>
   <v>       0.88888900       0.44444433       0.20285304 </v>
   <v>       0.66666667       0.33333333       0.14841698 </v>
   <v>       0.66666667       0.33333333       0.27310721 </v>
   <v>       0.77777767       0.55555567       0.21867116 </v>
   <v>       0.77777767       0.55555567       0.34336139 </v>
   <v>       0.88888900       0.44444433       0.28892491 </v>
   <v>       0.88888900       0.44444433       0.41361514 </v>
   <v>       0.66666667       0.33333333       0.35917908 </v>
   <v>       0.66666667       0.66666667       0.06234511 </v>
   <v>       0.77777767       0.88888900       0.00790906 </v>
   <v>       0.77777767       0.88888900       0.13259929 </v>
   <v>       0.88888900       0.77777767       0.07816281 </v>
   <v>       0.88888900       0.77777767       0.20285304 </v>
   <v>       0.66666667       0.66666667       0.14841698 </v>
   <v>       0.66666667       0.66666667       0.27310721 </v>
   <v>       0.77777767       0.88888900       0.21867116 </v>
   <v>       0.77777767       0.88888900       0.34336139 </v>
   <v>       0.88888900       0.77777767       0.28892491 </v>
   <v>       0.88888900       0.77777767       0.41361514 </v>
   <v>       0.66666667       0.66666667       0.35917908 </v>
   <v>       0.10204867       0.00000000       0.10538105 </v>
   <v>       0.22222233       0.00906233       0.03512688 </v>
   <v>       0.00000000       0.10204867       0.10538105 </v>
   <v>       0.23128467       0.23128467       0.10538105 </v>
   <v>       0.32427100       0.21315967       0.03512688 </v>
   <v>       0.12017367       0.11111100       0.03512688 </v>
   <v>       0.32427100       0.11111100       0.24588897 </v>
   <v>       0.11111100       0.12017367       0.17563522 </v>
   <v>       0.22222233       0.21315967       0.24588897 </v>
   <v>       0.12017367       0.00906233       0.24588897 </v>
   <v>       0.21315967       0.32427100       0.17563522 </v>
   <v>       0.00906233       0.22222233       0.17563522 </v>
   <v>       0.21315967       0.22222233       0.38639732 </v>
   <v>       0.00000000       0.23128467       0.31614315 </v>
   <v>       0.11111100       0.32427100       0.38639732 </v>
   <v>       0.00906233       0.12017367       0.38639732 </v>
   <v>       0.10204867       0.10204867       0.31614315 </v>
   <v>       0.23128467       0.00000000       0.31614315 </v>
   <v>       0.10204867       0.33333333       0.10538105 </v>
   <v>       0.22222233       0.34239567       0.03512688 </v>
   <v>       0.00000000       0.43538200       0.10538105 </v>
   <v>       0.23128467       0.56461800       0.10538105 </v>
   <v>       0.32427100       0.54649300       0.03512688 </v>
   <v>       0.12017367       0.44444433       0.03512688 </v>
   <v>       0.32427100       0.44444433       0.24588897 </v>
   <v>       0.11111100       0.45350700       0.17563522 </v>
   <v>       0.22222233       0.54649300       0.24588897 </v>
   <v>       0.12017367       0.34239567       0.24588897 </v>
   <v>       0.21315967       0.65760433       0.17563522 </v>
   <v>       0.00906233       0.55555567       0.17563522 </v>
   <v>       0.21315967       0.55555567       0.38639732 </v>
   <v>       0.00000000       0.56461800       0.31614315 </v>
   <v>       0.11111100       0.65760433       0.38639732 </v>
   <v>       0.00906233       0.45350700       0.38639732 </v>
   <v>       0.10204867       0.43538200       0.31614315 </v>
   <v>       0.23128467       0.33333333       0.31614315 </v>
   <v>       0.10204867       0.66666667       0.10538105 </v>
   <v>       0.22222233       0.67572900       0.03512688 </v>
   <v>       0.00000000       0.76871533       0.10538105 </v>
   <v>       0.23128467       0.89795133       0.10538105 </v>
   <v>       0.32427100       0.87982633       0.03512688 </v>
   <v>       0.12017367       0.77777767       0.03512688 </v>
   <v>       0.32427100       0.77777767       0.24588897 </v>
   <v>       0.11111100       0.78684033       0.17563522 </v>
   <v>       0.22222233       0.87982633       0.24588897 </v>
   <v>       0.12017367       0.67572900       0.24588897 </v>
   <v>       0.21315967       0.99093767       0.17563522 </v>
   <v>       0.00906233       0.88888900       0.17563522 </v>
   <v>       0.21315967       0.88888900       0.38639732 </v>
   <v>       0.00000000       0.89795133       0.31614315 </v>
   <v>       0.11111100       0.99093767       0.38639732 </v>
   <v>       0.00906233       0.78684033       0.38639732 </v>
   <v>       0.10204867       0.76871533       0.31614315 </v>
   <v>       0.23128467       0.66666667       0.31614315 </v>
   <v>       0.43538200       0.00000000       0.10538105 </v>
   <v>       0.55555567       0.00906233       0.03512688 </v>
   <v>       0.33333333       0.10204867       0.10538105 </v>
   <v>       0.56461800       0.23128467       0.10538105 </v>
   <v>       0.65760433       0.21315967       0.03512688 </v>
   <v>       0.45350700       0.11111100       0.03512688 </v>
   <v>       0.65760433       0.11111100       0.24588897 </v>
   <v>       0.44444433       0.12017367       0.17563522 </v>
   <v>       0.55555567       0.21315967       0.24588897 </v>
   <v>       0.45350700       0.00906233       0.24588897 </v>
   <v>       0.54649300       0.32427100       0.17563522 </v>
   <v>       0.34239567       0.22222233       0.17563522 </v>
   <v>       0.54649300       0.22222233       0.38639732 </v>
   <v>       0.33333333       0.23128467       0.31614315 </v>
   <v>       0.44444433       0.32427100       0.38639732 </v>
   <v>       0.34239567       0.12017367       0.38639732 </v>
   <v>       0.43538200       0.10204867       0.31614315 </v>
   <v>       0.56461800       0.00000000       0.31614315 </v>
   <v>       0.43538200       0.33333333       0.10538105 </v>
   <v>       0.55555567       0.34239567       0.03512688 </v>
   <v>       0.33333333       0.43538200       0.10538105 </v>
   <v>       0.56461800       0.56461800       0.10538105 </v>
   <v>       0.65760433       0.54649300       0.03512688 </v>
   <v>       0.45350700       0.44444433       0.03512688 </v>
   <v>       0.65760433       0.44444433       0.24588897 </v>
   <v>       0.44444433       0.45350700       0.17563522 </v>
   <v>       0.55555567       0.54649300       0.24588897 </v>
   <v>       0.45350700       0.34239567       0.24588897 </v>
   <v>       0.54649300       0.65760433       0.17563522 </v>
   <v>       0.34239567       0.55555567       0.17563522 </v>
   <v>       0.54649300       0.55555567       0.38639732 </v>
   <v>       0.33333333       0.56461800       0.31614315 </v>
   <v>       0.44444433       0.65760433       0.38639732 </v>
   <v>       0.34239567       0.45350700       0.38639732 </v>
   <v>       0.43538200       0.43538200       0.31614315 </v>
   <v>       0.56461800       0.33333333       0.31614315 </v>
   <v>       0.43538200       0.66666667       0.10538105 </v>
   <v>       0.55555567       0.67572900       0.03512688 </v>
   <v>       0.33333333       0.76871533       0.10538105 </v>
   <v>       0.56461800       0.89795133       0.10538105 </v>
   <v>       0.65760433       0.87982633       0.03512688 </v>
   <v>       0.45350700       0.77777767       0.03512688 </v>
   <v>       0.65760433       0.77777767       0.24588897 </v>
   <v>       0.44444433       0.78684033       0.17563522 </v>
   <v>       0.55555567       0.87982633       0.24588897 </v>
   <v>       0.45350700       0.67572900       0.24588897 </v>
   <v>       0.54649300       0.99093767       0.17563522 </v>
   <v>       0.34239567       0.88888900       0.17563522 </v>
   <v>       0.54649300       0.88888900       0.38639732 </v>
   <v>       0.33333333       0.89795133       0.31614315 </v>
   <v>       0.44444433       0.99093767       0.38639732 </v>
   <v>       0.34239567       0.78684033       0.38639732 </v>
   <v>       0.43538200       0.76871533       0.31614315 </v>
   <v>       0.56461800       0.66666667       0.31614315 </v>
   <v>       0.76871533       0.00000000       0.10538105 </v>
   <v>       0.88888900       0.00906233       0.03512688 </v>
   <v>       0.66666667       0.10204867       0.10538105 </v>
   <v>       0.89795133       0.23128467       0.10538105 </v>
   <v>       0.99093767       0.21315967       0.03512688 </v>
   <v>       0.78684033       0.11111100       0.03512688 </v>
   <v>       0.99093767       0.11111100       0.24588897 </v>
   <v>       0.77777767       0.12017367       0.17563522 </v>
   <v>       0.88888900       0.21315967       0.24588897 </v>
   <v>       0.78684033       0.00906233       0.24588897 </v>
   <v>       0.87982633       0.32427100       0.17563522 </v>
   <v>       0.67572900       0.22222233       0.17563522 </v>
   <v>       0.87982633       0.22222233       0.38639732 </v>
   <v>       0.66666667       0.23128467       0.31614315 </v>
   <v>       0.77777767       0.32427100       0.38639732 </v>
   <v>       0.67572900       0.12017367       0.38639732 </v>
   <v>       0.76871533       0.10204867       0.31614315 </v>
   <v>       0.89795133       0.00000000       0.31614315 </v>
   <v>       0.76871533       0.33333333       0.10538105 </v>
   <v>       0.88888900       0.34239567       0.03512688 </v>
   <v>       0.66666667       0.43538200       0.10538105 </v>
   <v>       0.89795133       0.56461800       0.10538105 </v>
   <v>       0.99093767       0.54649300       0.03512688 </v>
   <v>       0.78684033       0.44444433       0.03512688 </v>
   <v>       0.99093767       0.44444433       0.24588897 </v>
   <v>       0.77777767       0.45350700       0.17563522 </v>
   <v>       0.88888900       0.54649300       0.24588897 </v>
   <v>       0.78684033       0.34239567       0.24588897 </v>
   <v>       0.87982633       0.65760433       0.17563522 </v>
   <v>       0.67572900       0.55555567       0.17563522 </v>
   <v>       0.87982633       0.55555567       0.38639732 </v>
   <v>       0.66666667       0.56461800       0.31614315 </v>
   <v>       0.77777767       0.65760433       0.38639732 </v>
   <v>       0.67572900       0.45350700       0.38639732 </v>
   <v>       0.76871533       0.43538200       0.31614315 </v>
   <v>       0.89795133       0.33333333       0.31614315 </v>
   <v>       0.76871533       0.66666667       0.10538105 </v>
   <v>       0.88888900       0.67572900       0.03512688 </v>
   <v>       0.66666667       0.76871533       0.10538105 </v>
   <v>       0.89795133       0.89795133       0.10538105 </v>
   <v>       0.99093767       0.87982633       0.03512688 </v>
   <v>       0.78684033       0.77777767       0.03512688 </v>
   <v>       0.99093767       0.77777767       0.24588897 </v>
   <v>       0.77777767       0.78684033       0.17563522 </v>
   <v>       0.88888900       0.87982633       0.24588897 </v>
   <v>       0.78684033       0.67572900       0.24588897 </v>
   <v>       0.87982633       0.99093767       0.17563522 </v>
   <v>       0.67572900       0.88888900       0.17563522 </v>
   <v>       0.87982633       0.88888900       0.38639732 </v>
   <v>       0.66666667       0.89795133       0.31614315 </v>
   <v>       0.77777767       0.99093767       0.38639732 </v>
   <v>       0.67572900       0.78684033       0.38639732 </v>
   <v>       0.76871533       0.76871533       0.31614315 </v>
   <v>       0.89795133       0.66666667       0.31614315 </v>
   <v>       0.46187937       0.46187937       0.44575268 </v>
  </varray>
 </structure>
 <calculation>
  <scstep>
   <time name="dav">   15.18   15.19</time>
   <time name="total">   15.63   15.65</time>
   <energy>
    <i name="alphaZ">    931.37252147 </i>
    <i name="ewald"> 677151.12178776 </i>
    <i name="hartreedc">-746100.05541327 </i>
    <i name="XCdc">   1495.64603501 </i>
    <i name="pawpsdc">  64061.31290008 </i>
    <i name="pawaedc"> -60479.27482165 </i>
    <i name="eentropy">     -0.06804010 </i>
    <i name="bandstr">  -1586.92312655 </i>
    <i name="atom">  76196.07950652 </i>
    <i name="e_fr_energy">  11669.21134927 </i>
    <i name="e_wo_entrp">  11669.27938937 </i>
    <i name="e_0_energy">  11669.24536932 </i>
   </energy>
  </scstep>
  <scstep>
   <time name="dav">   18.85   18.85</time>
   <time name="total">   18.85   18.86</time>
   <energy>
    <i name="e_fr_energy">   -136.28084851 </i>
    <i name="e_wo_entrp">   -136.28066864 </i>
    <i name="e_0_energy">   -136.28075858 </i>
   </energy>
  </scstep>
  <scstep>
   <time name="dav">   18.17   18.17</time>
   <time name="total">   18.17   18.17</time>
   <energy>
    <i name="e_fr_energy">  -2112.87000660 </i>
    <i name="e_wo_entrp">  -2112.86998555 </i>
    <i name="e_0_energy">  -2112.86999607 </i>
   </energy>
  </scstep>
  <scstep>
   <time name="dav">   18.40   18.40</time>
   <time name="total">   18.40   18.40</time>
   <energy>
    <i name="e_fr_energy">  -2194.66404086 </i>
    <i name="e_wo_entrp">  -2194.66403288 </i>
    <i name="e_0_energy">  -2194.66403687 </i>
   </energy>
  </scstep>
  <scstep>
   <time name="dav">   18.72   18.72</time>
   <time name="total">   19.70   19.71</time>
   <energy>
    <i name="e_fr_energy">  -2196.54866018 </i>
    <i name="e_wo_entrp">  -2196.54865207 </i>
    <i name="e_0_energy">  -2196.54865612 </i>
   </energy>
  </scstep>
  <scstep>
   <time name="dav">   19.53   19.53</time>
   <time name="total">   20.95   20.96</time>
   <energy>
    <i name="e_fr_energy">  -1945.34164431 </i>
    <i name="e_wo_entrp">  -1945.28495597 </i>
    <i name="e_0_energy">  -1945.31330014 </i>
   </energy>
  </scstep>
  <scstep>
   <time name="dav">   19.23   19.23</time>
   <time name="total">   20.65   20.65</time>
   <energy>
    <i name="e_fr_energy">  -1934.12927756 </i>
    <i name="e_wo_entrp">  -1934.12365003 </i>
    <i name="e_0_energy">  -1934.12646380 </i>
   </energy>
  </scstep>
  <scstep>
   <time name="dav">   20.12   20.12</time>
   <time name="total">   21.55   21.55</time>
   <energy>
    <i name="e_fr_energy">  -1941.03186476 </i>
    <i name="e_wo_entrp">  -1941.01809479 </i>
    <i name="e_0_energy">  -1941.02497978 </i>
   </energy>
  </scstep>
  <scstep>
   <time name="dav">   18.70   18.70</time>
   <time name="total">   20.11   20.12</time>
   <energy>
    <i name="e_fr_energy">  -1930.78241048 </i>
    <i name="e_wo_entrp">  -1930.73767527 </i>
    <i name="e_0_energy">  -1930.76004287 </i>
   </energy>
  </scstep>
  <scstep>
   <time name="dav">   19.84   19.84</time>
   <time name="total">   21.28   21.28</time>
   <energy>
    <i name="e_fr_energy">  -1925.26804363 </i>
    <i name="e_wo_entrp">  -1925.22769428 </i>
    <i name="e_0_energy">  -1925.24786896 </i>
   </energy>
  </scstep>
  <scstep>
   <time name="dav">   17.65   17.65</time>
   <time name="total">   19.09   19.09</time>
   <energy>
    <i name="e_fr_energy">  -1923.99875427 </i>
    <i name="e_wo_entrp">  -1923.95357692 </i>
    <i name="e_0_energy">  -1923.97616559 </i>
   </energy>
  </scstep>
  <scstep>
   <time name="dav">   17.95   17.95</time>
   <time name="total">   19.39   19.39</time>
   <energy>
    <i name="e_fr_energy">  -1923.63523452 </i>
    <i name="e_wo_entrp">  -1923.60411277 </i>
    <i name="e_0_energy">  -1923.61967364 </i>
   </energy>
  </scstep>
  <scstep>
   <time name="dav">   15.37   15.37</time>
   <time name="total">   16.82   16.83</time>
   <energy>
    <i name="e_fr_energy">  -1923.51127237 </i>
    <i name="e_wo_entrp">  -1923.46059851 </i>
    <i name="e_0_energy">  -1923.48593544 </i>
   </energy>
  </scstep>
  <scstep>
   <time name="dav">   22.41   22.42</time>
   <time name="total">   23.88   23.89</time>
   <energy>
    <i name="e_fr_energy">  -1923.77758085 </i>
    <i name="e_wo_entrp">  -1923.71555867 </i>
    <i name="e_0_energy">  -1923.74656976 </i>
   </energy>
  </scstep>
  <scstep>
   <time name="dav">   17.74   17.75</time>
   <time name="total">   19.21   19.22</time>
   <energy>
    <i name="e_fr_energy">  -1923.52374207 </i>
    <i name="e_wo_entrp">  -1923.49508321 </i>
    <i name="e_0_energy">  -1923.50941264 </i>
   </energy>
  </scstep>
  <scstep>
   <time name="dav">   16.86   16.86</time>
   <time name="total">   18.32   18.32</time>
   <energy>
    <i name="e_fr_energy">  -1923.35390976 </i>
    <i name="e_wo_entrp">  -1923.30707419 </i>
    <i name="e_0_energy">  -1923.33049197 </i>
   </energy>
  </scstep>
  <scstep>
   <time name="dav">   18.29   18.29</time>
   <time name="total">   19.78   19.78</time>
   <energy>
    <i name="e_fr_energy">  -1923.40124075 </i>
    <i name="e_wo_entrp">  -1923.35224462 </i>
    <i name="e_0_energy">  -1923.37674269 </i>
   </energy>
  </scstep>
  <scstep>
   <time name="dav">   18.55   18.55</time>
   <time name="total">   20.03   20.03</time>
   <energy>
    <i name="e_fr_energy">  -1923.33108336 </i>
    <i name="e_wo_entrp">  -1923.28078911 </i>
    <i name="e_0_energy">  -1923.30593623 </i>
   </energy>
  </scstep>
  <scstep>
   <time name="dav">   17.64   17.65</time>
   <time name="total">   19.16   19.16</time>
   <energy>
    <i name="e_fr_energy">  -1923.33650485 </i>
    <i name="e_wo_entrp">  -1923.28168983 </i>
    <i name="e_0_energy">  -1923.30909734 </i>
   </energy>
  </scstep>
  <scstep>
[...]
       <r>     4.8902     1.5137  1340.5150 </r>
       <r>     5.0016     8.9222  1341.5082 </r>
       <r>     5.1129    24.4398  1344.2288 </r>
       <r>     5.2242     5.7147  1344.8650 </r>
       <r>     5.3355    24.5790  1347.6011 </r>
       <r>     5.4468    24.4600  1350.3240 </r>
       <r>     5.5582    15.9569  1352.1004 </r>
       <r>     5.6695    14.4027  1353.7037 </r>
       <r>     5.7808    14.2793  1355.2932 </r>
       <r>     5.8921    66.3097  1362.6748 </r>
       <r>     6.0034    35.1077  1366.5830 </r>
       <r>     6.1148    59.5204  1373.2089 </r>
       <r>     6.2261    34.3953  1377.0378 </r>
       <r>     6.3374    44.5217  1381.9939 </r>
       <r>     6.4487   127.5474  1396.1925 </r>
       <r>     6.5600   110.5906  1408.5035 </r>
       <r>     6.6714   104.7655  1420.1660 </r>
       <r>     6.7827    33.1679  1423.8583 </r>
       <r>     6.8940    61.3240  1430.6849 </r>
       <r>     7.0053    61.4788  1437.5287 </r>
       <r>     7.1166    75.9455  1445.9830 </r>
       <r>     7.2280    83.9816  1455.3318 </r>
       <r>     7.3393    71.0298  1463.2389 </r>
       <r>     7.4506    37.2514  1467.3857 </r>
       <r>     7.5619    63.8639  1474.4950 </r>
       <r>     7.6732   141.8129  1490.2817 </r>
       <r>     7.7846   150.4147  1507.0259 </r>
       <r>     7.8959   118.0315  1520.1652 </r>
       <r>     8.0072   156.0052  1537.5317 </r>
       <r>     8.1185   146.7842  1553.8717 </r>
       <r>     8.2298   126.3747  1567.9398 </r>
       <r>     8.3412    54.0504  1573.9567 </r>
       <r>     8.4525     0.3890  1574.0000 </r>
       <r>     8.5638     0.0000  1574.0000 </r>
       <r>     8.6751     0.0000  1574.0000 </r>
       <r>     8.7864     0.0000  1574.0000 </r>
       <r>     8.8978     0.0000  1574.0000 </r>
       <r>     9.0091     0.0000  1574.0000 </r>
       <r>     9.1204     0.0000  1574.0000 </r>
       <r>     9.2317     0.0000  1574.0000 </r>
       <r>     9.3430     0.0000  1574.0000 </r>
       <r>     9.4544     0.0000  1574.0000 </r>
       <r>     9.5657     0.0000  1574.0000 </r>
       <r>     9.6770     0.0000  1574.0000 </r>
       <r>     9.7883     0.0000  1574.0000 </r>
      </set>
     </set>
    </array>
   </total>
  </dos>
 </calculation>
 <structure name="finalpos" >
  <crystal>
   <varray name="basis" >
    <v>      14.41508400       0.00000000       0.00000000 </v>
    <v>      -7.20754200      12.48382800       0.00000000 </v>
    <v>       0.00000000       0.00000000      31.11625400 </v>
   </varray>
   <i name="volume">   5599.53884558 </i>
   <varray name="rec_basis" >
    <v>       0.06937178       0.04005182      -0.00000000 </v>
    <v>       0.00000000       0.08010363       0.00000000 </v>
    <v>       0.00000000      -0.00000000       0.03213754 </v>
   </varray>
  </crystal>
  <varray name="positions" >
   <v>      -0.00051462      -0.00028239       0.06348707 </v>
   <v>       0.11046344       0.22184864       0.03227682 </v>
   <v>       0.11062895       0.22187234       0.13341772 </v>
   <v>       0.22174059       0.11084387       0.07213462 </v>
   <v>       0.22184512       0.11088249       0.20199131 </v>
   <v>      -0.00053436      -0.00044029       0.14803185 </v>
   <v>       0.00009567      -0.00003479       0.27370705 </v>
   <v>       0.11038110       0.22178955       0.21895931 </v>
   <v>       0.11163070       0.22247233       0.34909519 </v>
   <v>       0.22232005       0.11100311       0.28777664 </v>
   <v>       0.22277840       0.11189119       0.38935800 </v>
   <v>       0.00009768      -0.00020016       0.35859401 </v>
   <v>      -0.00049084       0.33307506       0.06345046 </v>
   <v>       0.11060845       0.55530531       0.03230455 </v>
   <v>       0.11062223       0.55522810       0.13350864 </v>
   <v>       0.22174378       0.44417340       0.07205575 </v>
   <v>       0.22174278       0.44433831       0.20154050 </v>
   <v>      -0.00070307       0.33287643       0.14797155 </v>
   <v>      -0.00078502       0.33298240       0.27367375 </v>
   <v>       0.11013306       0.55529905       0.21912150 </v>
   <v>       0.11062531       0.55513831       0.34963902 </v>
   <v>       0.22041875       0.44321606       0.28703808 </v>
   <v>       0.22270380       0.44405371       0.38965714 </v>
   <v>      -0.00017582       0.33298219       0.35852460 </v>
   <v>      -0.00045258       0.66638266       0.06353107 </v>
   <v>       0.11057784       0.88862623       0.03235153 </v>
   <v>       0.11072261       0.88864028       0.13364058 </v>
   <v>       0.22174981       0.77756641       0.07218660 </v>
   <v>       0.22193949       0.77758574       0.20224831 </v>
   <v>      -0.00036862       0.66641616       0.14810008 </v>
   <v>      -0.00050277       0.66619308       0.27401409 </v>
   <v>       0.11082641       0.88855394       0.21936665 </v>
   <v>       0.11116356       0.88884945       0.35013038 </v>
   <v>       0.22175071       0.77772351       0.28816716 </v>
   <v>       0.22218043       0.77763072       0.38989776 </v>
   <v>      -0.00061215       0.66627177       0.35889119 </v>
   <v>       0.33281848      -0.00021073       0.06346295 </v>
   <v>       0.44401773       0.22193054       0.03227925 </v>
   <v>       0.44410928       0.22197596       0.13349044 </v>
   <v>       0.55511015       0.11086045       0.07222216 </v>
   <v>       0.55517522       0.11089014       0.20236695 </v>
   <v>       0.33296231      -0.00024206       0.14800122 </v>
   <v>       0.33325984      -0.00013525       0.27375679 </v>
   <v>       0.44423275       0.22176600       0.21905960 </v>
   <v>       0.44533921       0.22309773       0.34910451 </v>
   <v>       0.55559461       0.11077612       0.28825031 </v>
   <v>       0.55550859       0.11129280       0.38997728 </v>
   <v>       0.33349503       0.00021561       0.35862346 </v>
   <v>       0.33286178       0.33306689       0.06326827 </v>
   <v>       0.44408881       0.55540876       0.03218085 </v>
   <v>       0.44405483       0.55535842       0.13325265 </v>
   <v>       0.55512814       0.44416516       0.07212561 </v>
   <v>       0.55514313       0.44401365       0.20224886 </v>
   <v>       0.33297897       0.33302640       0.14776567 </v>
   <v>       0.33303325       0.33342701       0.27235143 </v>
   <v>       0.44410156       0.55521090       0.21859572 </v>
   <v>       0.43973748       0.55427427       0.34583906 </v>
   <v>       0.55571699       0.44393421       0.28860784 </v>
   <v>       0.55500067       0.43786662       0.40214616 </v>
   <v>       0.33533465       0.33398970       0.35677980 </v>
   <v>       0.33290842       0.66647252       0.06330608 </v>
   <v>       0.44400371       0.88882608       0.03228415 </v>
   <v>       0.44406167       0.88872767       0.13357526 </v>
   <v>       0.55512995       0.77760473       0.07213705 </v>
   <v>       0.55522377       0.77751450       0.20197323 </v>
   <v>       0.33285496       0.66668248       0.14780748 </v>
   <v>       0.33258118       0.66624348       0.27269716 </v>
   <v>       0.44436042       0.88887525       0.21922814 </v>
   <v>       0.44436148       0.88875204       0.34982744 </v>
   <v>       0.55533839       0.77779614       0.28776320 </v>
   <v>       0.55490076       0.77633046       0.38959323 </v>
   <v>       0.33285094       0.66698903       0.35744809 </v>
   <v>       0.66621351      -0.00023271       0.06353651 </v>
   <v>       0.77729802       0.22194590       0.03232113 </v>
   <v>       0.77728723       0.22190081       0.13371913 </v>
   <v>       0.88836815       0.11082186       0.07222841 </v>
   <v>       0.88842099       0.11081253       0.20238246 </v>
   <v>       0.66631942      -0.00016427       0.14807608 </v>
   <v>       0.66646973      -0.00027794       0.27399388 </v>
   <v>       0.77725108       0.22187115       0.21945870 </v>
   <v>       0.77741617       0.22185110       0.35030550 </v>
   <v>       0.88855629       0.11081036       0.28829412 </v>
   <v>       0.88914372       0.11081584       0.39003455 </v>
   <v>       0.66635938      -0.00047143       0.35896633 </v>
   <v>       0.66619600       0.33304494       0.06348718 </v>
   <v>       0.77737684       0.55530157       0.03233261 </v>
   <v>       0.77737451       0.55522692       0.13363494 </v>
   <v>       0.88839574       0.44415670       0.07224050 </v>
   <v>       0.88841860       0.44402233       0.20248935 </v>
   <v>       0.66638487       0.33301689       0.14805997 </v>
   <v>       0.66565345       0.33273742       0.27369758 </v>
   <v>       0.77758809       0.55510312       0.21927574 </v>
   <v>       0.77608484       0.55420313       0.35048624 </v>
   <v>       0.88810874       0.44400521       0.28843718 </v>
   <v>       0.88860675       0.44399587       0.39014455 </v>
   <v>       0.66615779       0.33336666       0.35844752 </v>
   <v>       0.66623893       0.66641886       0.06342233 </v>
   <v>       0.77725953       0.88854319       0.03231813 </v>
   <v>       0.77732952       0.88863246       0.13363975 </v>
   <v>       0.88845868       0.77748880       0.07225343 </v>
   <v>       0.88861635       0.77747973       0.20234282 </v>
   <v>       0.66647773       0.66635715       0.14793601 </v>
   <v>       0.66624591       0.66568352       0.27255400 </v>
   <v>       0.77777534       0.88883958       0.21933205 </v>
   <v>       0.77807174       0.88943432       0.34999504 </v>
   <v>       0.88933256       0.77772906       0.28831021 </v>
   <v>       0.88901086       0.77746218       0.39098502 </v>
   <v>       0.67135900       0.66987430       0.35657077 </v>
   <v>       0.10314904      -0.00061475       0.10490682 </v>
   <v>       0.22682416       0.00826981       0.03516523 </v>
   <v>      -0.00029691       0.10355870       0.10487959 </v>
   <v>       0.22893677       0.22936536       0.10472961 </v>
   <v>       0.32434602       0.21849704       0.03507986 </v>
   <v>       0.11391282       0.10561397       0.03516363 </v>
   <v>       0.32385988       0.11008854       0.24566158 </v>
   <v>       0.11014047       0.11949151       0.17538381 </v>
   <v>       0.22233031       0.21295136       0.24507490 </v>
   <v>       0.11964167       0.00891665       0.24584064 </v>
   <v>       0.21267283       0.32374657       0.17508473 </v>
   <v>       0.00849082       0.22204821       0.17551134 </v>
   <v>       0.22029063       0.22850010       0.38534947 </v>
   <v>      -0.00059054       0.22921276       0.31691705 </v>
   <v>       0.10642614       0.32469761       0.38660992 </v>
   <v>       0.00912446       0.11470760       0.38679913 </v>
   <v>       0.10375706       0.10331298       0.31655014 </v>
   <v>       0.22971934       0.00036901       0.31705665 </v>
   <v>       0.10301067       0.33268641       0.10478390 </v>
   <v>       0.22675414       0.34150866       0.03506691 </v>
   <v>      -0.00036034       0.43694391       0.10489678 </v>
   <v>       0.22890350       0.56279495       0.10475803 </v>
   <v>       0.32441494       0.55197814       0.03505908 </v>
   <v>       0.11397254       0.43903950       0.03513639 </v>
   <v>       0.32300363       0.44351250       0.24456887 </v>
   <v>       0.11002537       0.45297690       0.17524404 </v>
   <v>       0.22175394       0.54646193       0.24509880 </v>
   <v>       0.11863557       0.34212710       0.24533032 </v>
   <v>       0.21283253       0.65734905       0.17541261 </v>
   <v>       0.00867913       0.55561117       0.17569649 </v>
   <v>       0.21945964       0.56023572       0.38589007 </v>
   <v>      -0.00082704       0.56237563       0.31724045 </v>
   <v>       0.10594624       0.65776515       0.38706428 </v>
   <v>       0.00852511       0.44751877       0.38702198 </v>
   <v>       0.10324145       0.43650056       0.31651449 </v>
   <v>       0.22900084       0.33290824       0.31535053 </v>
   <v>       0.10311942       0.66613015       0.10492619 </v>
   <v>       0.22682049       0.67499598       0.03513883 </v>
   <v>      -0.00015615       0.77026552       0.10500000 </v>
   <v>       0.22894058       0.89608159       0.10490905 </v>
   <v>       0.32432828       0.88532460       0.03519579 </v>
   <v>       0.11399832       0.77239775       0.03522589 </v>
   <v>       0.32360510       0.77715835       0.24559150 </v>
   <v>       0.11040920       0.78638972       0.17569493 </v>
   <v>       0.22243427       0.87991100       0.24605502 </v>
   <v>       0.11930244       0.67563878       0.24603702 </v>
   <v>       0.21295684       0.99044066       0.17551916 </v>
   <v>       0.00880169       0.88887631       0.17567066 </v>
   <v>       0.21912867       0.89419439       0.38721151 </v>
   <v>      -0.00023477       0.89601676       0.31723134 </v>
   <v>       0.10635363       0.99197235       0.38708382 </v>
   <v>       0.00867815       0.78102888       0.38754987 </v>
   <v>       0.10368332       0.77012970       0.31734908 </v>
   <v>       0.22914474       0.66672930       0.31659012 </v>
   <v>       0.43653425      -0.00056401       0.10491503 </v>
   <v>       0.56031278       0.00838173       0.03522945 </v>
   <v>       0.33316075       0.10353724       0.10485199 </v>
   <v>       0.56235882       0.22930697       0.10488817 </v>
   <v>       0.65766731       0.21853739       0.03521445 </v>
   <v>       0.44737063       0.10567258       0.03517829 </v>
   <v>       0.65725108       0.11024404       0.24622009 </v>
   <v>       0.44378135       0.11960871       0.17551517 </v>
   <v>       0.55583317       0.21268950       0.24564755 </v>
   <v>       0.45303222       0.00882818       0.24605162 </v>
   <v>       0.54655341       0.32385369       0.17539386 </v>
   <v>       0.34212223       0.22213166       0.17523635 </v>
   <v>       0.55197778       0.22764841       0.38725097 </v>
   <v>       0.33376349       0.22971555       0.31577602 </v>
   <v>       0.44098661       0.32586649       0.38489724 </v>
   <v>       0.34239831       0.11522314       0.38663408 </v>
   <v>       0.43735602       0.10332950       0.31695464 </v>
   <v>       0.56297289      -0.00011532       0.31727283 </v>
   <v>       0.43652414       0.33270303       0.10473620 </v>
   <v>       0.56027788       0.34157454       0.03516006 </v>
   <v>       0.33317908       0.43696895       0.10467040 </v>
   <v>       0.56244551       0.56280158       0.10476623 </v>
   <v>       0.65775746       0.55193394       0.03515438 </v>
   <v>       0.44744758       0.43913354       0.03507502 </v>
   <v>       0.65742405       0.44401205       0.24591961 </v>
   <v>       0.44383314       0.45309516       0.17513511 </v>
   <v>       0.55582517       0.54649700       0.24519590 </v>
   <v>       0.45315254       0.34232284       0.24512499 </v>
   <v>       0.54647932       0.65736763       0.17523725 </v>
   <v>       0.34216298       0.55591671       0.17502757 </v>
   <v>       0.55246680       0.55642874       0.38311421 </v>
   <v>       0.33191187       0.56309173       0.31458524 </v>
   <v>       0.43958957       0.65645030       0.38433178 </v>
   <v>       0.34232451       0.44873951       0.38383519 </v>
   <v>       0.43589398       0.43732184       0.31469582 </v>
   <v>       0.56359130       0.33223781       0.31578421 </v>
   <v>       0.43660304       0.66631734       0.10471170 </v>
   <v>       0.56033350       0.67506005       0.03512215 </v>
   <v>       0.33319469       0.77037567       0.10486419 </v>
   <v>       0.56239800       0.89619617       0.10492619 </v>
   <v>       0.65771303       0.88532350       0.03520508 </v>
   <v>       0.44741512       0.77259963       0.03511561 </v>
   <v>       0.65717670       0.77704461       0.24572601 </v>
   <v>       0.44378196       0.78656113       0.17543190 </v>
   <v>       0.55600902       0.88007663       0.24591135 </v>
   <v>       0.45311296       0.67587461       0.24521546 </v>
   <v>       0.54639380       0.99062229       0.17567869 </v>
   <v>       0.34218896       0.88912206       0.17557198 </v>
   <v>       0.55166828       0.89276121       0.38712232 </v>
   <v>       0.33279951       0.89581586       0.31709284 </v>
   <v>       0.43932510       0.99132778       0.38708481 </v>
   <v>       0.34173480       0.78045694       0.38671045 </v>
   <v>       0.43684846       0.77023946       0.31630412 </v>
   <v>       0.56276238       0.66540816       0.31621998 </v>
   <v>       0.76988745      -0.00043877       0.10499734 </v>
   <v>       0.89344794       0.00820230       0.03523070 </v>
   <v>       0.66650872       0.10362073       0.10499771 </v>
   <v>       0.89556791       0.22944455       0.10497962 </v>
   <v>       0.99082898       0.21848170       0.03517521 </v>
   <v>       0.78067295       0.10571516       0.03525060 </v>
   <v>       0.99030397       0.11034142       0.24591142 </v>
   <v>       0.77695136       0.11959306       0.17576040 </v>
   <v>       0.88865219       0.21294240       0.24611806 </v>
   <v>       0.78620867       0.00882619       0.24619923 </v>
   <v>       0.87957763       0.32376503       0.17574523 </v>
   <v>       0.67557985       0.22224692       0.17570005 </v>
   <v>       0.88566900       0.22711595       0.38725298 </v>
   <v>       0.66602290       0.22853721       0.31739628 </v>
   <v>       0.77209828       0.32439440       0.38725697 </v>
   <v>       0.67488953       0.11385314       0.38750013 </v>
   <v>       0.77039079       0.10300073       0.31746328 </v>
   <v>       0.89628323       0.00022286       0.31724473 </v>
   <v>       0.76977709       0.33269050       0.10499559 </v>
   <v>       0.89350320       0.34158146       0.03521070 </v>
   <v>       0.66660833       0.43694731       0.10489804 </v>
   <v>       0.89567588       0.56274822       0.10497704 </v>
   <v>       0.99097426       0.55188951       0.03522921 </v>
   <v>       0.78074748       0.43903903       0.03522219 </v>
   <v>       0.98997889       0.44362045       0.24595549 </v>
   <v>       0.77718590       0.45293570       0.17569053 </v>
   <v>       0.88887335       0.54640736       0.24620160 </v>
   <v>       0.78594042       0.34211884       0.24624538 </v>
   <v>       0.87984657       0.65717897       0.17569064 </v>
   <v>       0.67566918       0.55558388       0.17546802 </v>
   <v>       0.88503495       0.56035107       0.38748138 </v>
   <v>       0.66644764       0.56395034       0.31664235 </v>
   <v>       0.77231007       0.65816554       0.38688160 </v>
   <v>       0.67351006       0.44636822       0.38712645 </v>
   <v>       0.77030110       0.43687522       0.31744184 </v>
   <v>       0.89587483       0.33321911       0.31725363 </v>
   <v>       0.76990650       0.66614613       0.10494094 </v>
   <v>       0.89360572       0.67493245       0.03524227 </v>
   <v>       0.66669525       0.77043477       0.10486897 </v>
   <v>       0.89572795       0.89614383       0.10498549 </v>
   <v>       0.99091540       0.88518115       0.03523251 </v>
   <v>       0.78079846       0.77237549       0.03519818 </v>
   <v>       0.99058322       0.77703178       0.24617771 </v>
   <v>       0.77712302       0.78634584       0.17563483 </v>
   <v>       0.88934108       0.87998989       0.24603959 </v>
   <v>       0.78671179       0.67583622       0.24575027 </v>
   <v>       0.87957870       0.99046328       0.17570199 </v>
   <v>       0.67559695       0.88909851       0.17559718 </v>
   <v>       0.88541067       0.89362024       0.38718089 </v>
   <v>       0.66592357       0.89530764       0.31721043 </v>
   <v>       0.77250400       0.99092747       0.38738201 </v>
   <v>       0.67431893       0.77919457       0.38651324 </v>
   <v>       0.77098161       0.77127126       0.31654716 </v>
   <v>       0.89604902       0.66673058       0.31735804 </v>
   <v>       0.54675054       0.53959301       0.43164873 </v>
  </varray>
 </structure>
</modeling>
