ITEM: TIMESTEP
0
ITEM: NUMBER OF ATOMS
4
ITEM: BOX BOUNDS pp pp pp
0.0000000000000000e+00 1.4500000000000000e+01
0.0000000000000000e+00 1.4500000000000000e+01
0.0000000000000000e+00 1.4500000000000000e+01
ITEM: ATOMS id type xs ys zs
1 1 0 0 0
2 1 0.0832414 0 0
3 1 0 0 0.12069
4 1 0.0832414 0 0.12069
ITEM: TIMESTEP
10
ITEM: NUMBER OF ATOMS
4
ITEM: BOX BOUNDS pp pp pp
0.0000000000000000e+00 1.4500000000000000e+01
0.0000000000000000e+00 1.4500000000000000e+01
0.0000000000000000e+00 1.4500000000000000e+01
ITEM: ATOMS id type xs ys zs
1 1 -0.00449501 -0.00128221 0.0109096
2 1 0.0866788 0.00045081 0.00916445
3 1 -0.00422718 0.00104976 0.111344
4 1 0.0885261 -0.000218358 0.109961
ITEM: TIMESTEP
20
ITEM: NUMBER OF ATOMS
4
ITEM: BOX BOUNDS pp pp pp
0.0000000000000000e+00 1.4500000000000000e+01
0.0000000000000000e+00 1.4500000000000000e+01
0.0000000000000000e+00 1.4500000000000000e+01
ITEM: ATOMS id type xs ys zs
1 1 -0.0117597 -0.0027211 0.0236162
2 1 0.0923572 0.00102089 0.0207474
3 1 -0.0101921 0.00222787 0.0998413
4 1 0.0960773 -0.000527653 0.0971744
ITEM: TIMESTEP
30
ITEM: NUMBER OF ATOMS
4
ITEM: BOX BOUNDS pp pp pp
0.0000000000000000e+00 1.4500000000000000e+01
0.0000000000000000e+00 1.4500000000000000e+01
0.0000000000000000e+00 1.4500000000000000e+01
ITEM: ATOMS id type xs ys zs
1 1 -0.0185025 -0.00480359 0.0256128
2 1 0.0984683 0.00173352 0.0205869
3 1 -0.015032 0.00403134 0.100049
4 1 0.101549 -0.000961263 0.0951309
ITEM: TIMESTEP
40
ITEM: NUMBER OF ATOMS
4
ITEM: BOX BOUNDS pp pp pp
0.0000000000000000e+00 1.4500000000000000e+01
0.0000000000000000e+00 1.4500000000000000e+01
0.0000000000000000e+00 1.4500000000000000e+01
ITEM: ATOMS id type xs ys zs
1 1 -0.0112243 -0.00743161 0.0190821
2 1 0.0898724 0.0023752 0.0128811
3 1 -0.0046339 0.00657213 0.107581
4 1 0.0924685 -0.00151572 0.101835
ITEM: TIMESTEP
50
ITEM: NUMBER OF ATOMS
4
ITEM: BOX BOUNDS pp pp pp
0.0000000000000000e+00 1.4500000000000000e+01
0.0000000000000000e+00 1.4500000000000000e+01
0.0000000000000000e+00 1.4500000000000000e+01
ITEM: ATOMS id type xs ys zs
1 1 -0.00171368 -0.0108822 0.00988835
2 1 0.0771813 0.00366123 0.00416472
3 1 0.00826087 0.0100492 0.115862
4 1 0.0827542 -0.00282822 0.111465
ITEM: TIMESTEP
60
ITEM: NUMBER OF ATOMS
4
ITEM: BOX BOUNDS pp pp pp
0.0000000000000000e+00 1.4500000000000000e+01
0.0000000000000000e+00 1.4500000000000000e+01
0.0000000000000000e+00 1.4500000000000000e+01
ITEM: ATOMS id type xs ys zs
1 1 0.00223615 -0.0151534 0.00770513
2 1 0.0711654 0.006726 0.000375332
3 1 0.0124671 0.0146668 0.118529
4 1 0.0806141 -0.00623936 0.114769
ITEM: TIMESTEP
70
ITEM: NUMBER OF ATOMS
4
ITEM: BOX BOUNDS pp pp pp
0.0000000000000000e+00 1.4500000000000000e+01
0.0000000000000000e+00 1.4500000000000000e+01
0.0000000000000000e+00 1.4500000000000000e+01
ITEM: ATOMS id type xs ys zs
1 1 -0.00335312 -0.0213083 0.0150426
2 1 0.0763277 0.0129022 0.00260732
3 1 0.00470993 0.0212731 0.114131
4 1 0.0887983 -0.012867 0.109599
ITEM: TIMESTEP
80
ITEM: NUMBER OF ATOMS
4
ITEM: BOX BOUNDS pp pp pp
0.0000000000000000e+00 1.4500000000000000e+01
0.0000000000000000e+00 1.4500000000000000e+01
0.0000000000000000e+00 1.4500000000000000e+01
ITEM: ATOMS id type xs ys zs
1 1 -0.0142554 -0.029322 0.0238034
2 1 0.0864595 0.0209737 0.00643933
3 1 -0.00678412 0.029077 0.108259
4 1 0.101063 -0.0207287 0.102877
ITEM: TIMESTEP
90
ITEM: NUMBER OF ATOMS
4
ITEM: BOX BOUNDS pp pp pp
0.0000000000000000e+00 1.4500000000000000e+01
0.0000000000000000e+00 1.4500000000000000e+01
0.0000000000000000e+00 1.4500000000000000e+01
ITEM: ATOMS id type xs ys zs
1 1 -0.0136777 -0.0340789 0.0336783
2 1 0.0863418 0.025811 0.0151834
3 1 0.000454295 0.03008 0.0988097
4 1 0.0933644 -0.0218122 0.0937079
ITEM: TIMESTEP
100
ITEM: NUMBER OF ATOMS
4
ITEM: BOX BOUNDS pp pp pp
0.0000000000000000e+00 1.4500000000000000e+01
0.0000000000000000e+00 1.4500000000000000e+01
0.0000000000000000e+00 1.4500000000000000e+01
ITEM: ATOMS id type xs ys zs
1 1 -0.0124093 -0.0381535 0.035098
2 1 0.0865141 0.0279807 0.0132854
3 1 0.00352936 0.0331513 0.100706
4 1 0.0888486 -0.0229785 0.0922899
ITEM: TIMESTEP
110
ITEM: NUMBER OF ATOMS
4
ITEM: BOX BOUNDS pp pp pp
0.0000000000000000e+00 1.4500000000000000e+01
0.0000000000000000e+00 1.4500000000000000e+01
0.0000000000000000e+00 1.4500000000000000e+01
ITEM: ATOMS id type xs ys zs
1 1 -0.0120367 -0.0393355 0.0267225
2 1 0.0789605 0.0264761 0.00716697
3 1 0.00360322 0.0390008 0.106514
4 1 0.0959557 -0.0261414 0.100976
ITEM: TIMESTEP
120
ITEM: NUMBER OF ATOMS
4
ITEM: BOX BOUNDS pp pp pp
0.0000000000000000e+00 1.4500000000000000e+01
0.0000000000000000e+00 1.4500000000000000e+01
0.0000000000000000e+00 1.4500000000000000e+01
ITEM: ATOMS id type xs ys zs
1 1 -0.00490575 -0.0317102 0.0197037
2 1 0.066167 0.0175897 0.00225778
3 1 0.00555204 0.0388177 0.111325
4 1 0.0996695 -0.0246973 0.108093
ITEM: TIMESTEP
130
ITEM: NUMBER OF ATOMS
4
ITEM: BOX BOUNDS pp pp pp
0.0000000000000000e+00 1.4500000000000000e+01
0.0000000000000000e+00 1.4500000000000000e+01
0.0000000000000000e+00 1.4500000000000000e+01
ITEM: ATOMS id type xs ys zs
1 1 -0.000374256 -0.0212919 0.0223191
2 1 0.0647543 0.00750155 -0.00589596
3 1 0.00947591 0.0292272 0.11689
4 1 0.0926268 -0.0154368 0.108066
ITEM: TIMESTEP
140
ITEM: NUMBER OF ATOMS
4
ITEM: BOX BOUNDS pp pp pp
0.0000000000000000e+00 1.4500000000000000e+01
0.0000000000000000e+00 1.4500000000000000e+01
0.0000000000000000e+00 1.4500000000000000e+01
ITEM: ATOMS id type xs ys zs
1 1 -0.0135206 -0.015018 0.0212631
2 1 0.0738975 -9.75234e-05 -0.000554724
3 1 0.0121925 0.01988 0.118098
4 1 0.0939133 -0.00476444 0.102573
ITEM: TIMESTEP
150
ITEM: NUMBER OF ATOMS
4
ITEM: BOX BOUNDS pp pp pp
0.0000000000000000e+00 1.4500000000000000e+01
0.0000000000000000e+00 1.4500000000000000e+01
0.0000000000000000e+00 1.4500000000000000e+01
ITEM: ATOMS id type xs ys zs
1 1 -0.0255844 -0.00923869 0.0256639
2 1 0.0859006 -0.00642778 0.0103517
3 1 0.0112568 0.0114815 0.115795
4 1 0.0949098 0.00418497 0.089569
ITEM: TIMESTEP
160
ITEM: NUMBER OF ATOMS
4
ITEM: BOX BOUNDS pp pp pp
0.0000000000000000e+00 1.4500000000000000e+01
0.0000000000000000e+00 1.4500000000000000e+01
0.0000000000000000e+00 1.4500000000000000e+01
ITEM: ATOMS id type xs ys zs
1 1 -0.0225133 -0.00320201 0.0310644
2 1 0.0875586 -0.013844 0.0149236
3 1 0.00655228 0.00383119 0.115963
4 1 0.0948852 0.0132148 0.079428
ITEM: TIMESTEP
170
ITEM: NUMBER OF ATOMS
4
ITEM: BOX BOUNDS pp pp pp
0.0000000000000000e+00 1.4500000000000000e+01
0.0000000000000000e+00 1.4500000000000000e+01
0.0000000000000000e+00 1.4500000000000000e+01
ITEM: ATOMS id type xs ys zs
1 1 -0.0191959 0.00118196 0.0283671
2 1 0.0780484 -0.025259 0.0112862
3 1 0.0027155 -0.00397015 0.119489
4 1 0.104915 0.0280472 0.0822372
ITEM: TIMESTEP
180
ITEM: NUMBER OF ATOMS
4
ITEM: BOX BOUNDS pp pp pp
0.0000000000000000e+00 1.4500000000000000e+01
0.0000000000000000e+00 1.4500000000000000e+01
0.0000000000000000e+00 1.4500000000000000e+01
ITEM: ATOMS id type xs ys zs
1 1 -0.0152376 0.006771 0.0232098
2 1 0.0661816 -0.0382452 0.00789097
3 1 0.0089424 -0.0101239 0.120705
4 1 0.106596 0.0415981 0.0895735
ITEM: TIMESTEP
190
ITEM: NUMBER OF ATOMS
4
ITEM: BOX BOUNDS pp pp pp
0.0000000000000000e+00 1.4500000000000000e+01
0.0000000000000000e+00 1.4500000000000000e+01
0.0000000000000000e+00 1.4500000000000000e+01
ITEM: ATOMS id type xs ys zs
1 1 -0.0104894 0.0155383 0.0195407
2 1 0.0642181 -0.0440216 0.00966041
3 1 0.0206052 -0.0121673 0.125896
4 1 0.0921489 0.0406506 0.0862824
ITEM: TIMESTEP
200
ITEM: NUMBER OF ATOMS
4
ITEM: BOX BOUNDS pp pp pp
0.0000000000000000e+00 1.4500000000000000e+01
0.0000000000000000e+00 1.4500000000000000e+01
0.0000000000000000e+00 1.4500000000000000e+01
ITEM: ATOMS id type xs ys zs
1 1 -0.014573 0.0199189 0.0233938
2 1 0.0694607 -0.0494263 0.00746771
3 1 0.0220073 -0.010304 0.125854
4 1 0.0895877 0.0398115 0.0846638
ITEM: TIMESTEP
210
ITEM: NUMBER OF ATOMS
4
ITEM: BOX BOUNDS pp pp pp
0.0000000000000000e+00 1.4500000000000000e+01
0.0000000000000000e+00 1.4500000000000000e+01
0.0000000000000000e+00 1.4500000000000000e+01
ITEM: ATOMS id type xs ys zs
1 1 -0.0265178 0.0166417 0.0318392
2 1 0.0745669 -0.0483076 0.0112628
3 1 0.0155618 -0.00718058 0.113433
4 1 0.102872 0.0388465 0.0848441
ITEM: TIMESTEP
220
ITEM: NUMBER OF ATOMS
4
ITEM: BOX BOUNDS pp pp pp
0.0000000000000000e+00 1.4500000000000000e+01
0.0000000000000000e+00 1.4500000000000000e+01
0.0000000000000000e+00 1.4500000000000000e+01
ITEM: ATOMS id type xs ys zs
1 1 -0.0199487 0.00468302 0.0346839
2 1 0.0727606 -0.0378858 0.00790931
3 1 0.00298136 9.79399e-05 0.119365
4 1 0.110689 0.0331048 0.0794211
ITEM: TIMESTEP
230
ITEM: NUMBER OF ATOMS
4
ITEM: BOX BOUNDS pp pp pp
0.0000000000000000e+00 1.4500000000000000e+01
0.0000000000000000e+00 1.4500000000000000e+01
0.0000000000000000e+00 1.4500000000000000e+01
ITEM: ATOMS id type xs ys zs
1 1 -0.0117334 -0.00693406 0.0326899
2 1 0.0688319 -0.0255474 0.00786569
3 1 0.00750097 0.0101983 0.122982
4 1 0.101883 0.0222832 0.0778413
ITEM: TIMESTEP
240
ITEM: NUMBER OF ATOMS
4
ITEM: BOX BOUNDS pp pp pp
0.0000000000000000e+00 1.4500000000000000e+01
0.0000000000000000e+00 1.4500000000000000e+01
0.0000000000000000e+00 1.4500000000000000e+01
ITEM: ATOMS id type xs ys zs
1 1 -0.0218748 -0.0209007 0.0242737
2 1 0.0659007 -0.0148358 0.00822417
3 1 0.0177051 0.0195886 0.123807
4 1 0.104752 0.016148 0.0850748
ITEM: TIMESTEP
250
ITEM: NUMBER OF ATOMS
4
ITEM: BOX BOUNDS pp pp pp
0.0000000000000000e+00 1.4500000000000000e+01
0.0000000000000000e+00 1.4500000000000000e+01
0.0000000000000000e+00 1.4500000000000000e+01
ITEM: ATOMS id type xs ys zs
1 1 -0.0297089 -0.0286189 0.0301585
2 1 0.0673804 -0.00617681 0.00170557
3 1 0.0184862 0.0239735 0.115778
4 1 0.110325 0.0108222 0.0937373
ITEM: TIMESTEP
260
ITEM: NUMBER OF ATOMS
4
ITEM: BOX BOUNDS pp pp pp
0.0000000000000000e+00 1.4500000000000000e+01
0.0000000000000000e+00 1.4500000000000000e+01
0.0000000000000000e+00 1.4500000000000000e+01
ITEM: ATOMS id type xs ys zs
1 1 -0.0325876 -0.0317107 0.0435693
2 1 0.070964 0.000110392 -0.010007
3 1 0.00979827 0.0262421 0.106965
4 1 0.118308 0.00535822 0.100852
ITEM: TIMESTEP
270
ITEM: NUMBER OF ATOMS
4
ITEM: BOX BOUNDS pp pp pp
0.0000000000000000e+00 1.4500000000000000e+01
0.0000000000000000e+00 1.4500000000000000e+01
0.0000000000000000e+00 1.4500000000000000e+01
ITEM: ATOMS id type xs ys zs
1 1 -0.0203488 -0.0318245 0.0461137
2 1 0.0660349 0.00115127 -0.00109882
3 1 0.00161423 0.0311966 0.103342
4 1 0.119183 -0.000523322 0.0930227
ITEM: TIMESTEP
280
ITEM: NUMBER OF ATOMS
4
ITEM: BOX BOUNDS pp pp pp
0.0000000000000000e+00 1.4500000000000000e+01
0.0000000000000000e+00 1.4500000000000000e+01
0.0000000000000000e+00 1.4500000000000000e+01
ITEM: ATOMS id type xs ys zs
1 1 -0.00878775 -0.0358935 0.0452473
2 1 0.0666526 -0.000138369 -0.00148694
3 1 0.00822224 0.0372632 0.110756
4 1 0.100396 -0.00123134 0.0868629
ITEM: TIMESTEP
290
ITEM: NUMBER OF ATOMS
4
ITEM: BOX BOUNDS pp pp pp
0.0000000000000000e+00 1.4500000000000000e+01
0.0000000000000000e+00 1.4500000000000000e+01
0.0000000000000000e+00 1.4500000000000000e+01
ITEM: ATOMS id type xs ys zs
1 1 -0.0185494 -0.047849 0.0380327
2 1 0.0659325 0.00148814 -0.00136792
3 1 0.0201496 0.0411054 0.113095
4 1 0.0989501 0.00525548 0.0916196
ITEM: TIMESTEP
300
ITEM: NUMBER OF ATOMS
4
ITEM: BOX BOUNDS pp pp pp
0.0000000000000000e+00 1.4500000000000000e+01
0.0000000000000000e+00 1.4500000000000000e+01
0.0000000000000000e+00 1.4500000000000000e+01
ITEM: ATOMS id type xs ys zs
1 1 -0.0252909 -0.0459108 0.0432866
2 1 0.0671254 0.00227092 -0.00923876
3 1 0.0184305 0.0334112 0.108824
4 1 0.106218 0.0102287 0.0985075
ITEM: TIMESTEP
310
ITEM: NUMBER OF ATOMS
4
ITEM: BOX BOUNDS pp pp pp
0.0000000000000000e+00 1.4500000000000000e+01
0.0000000000000000e+00 1.4500000000000000e+01
0.0000000000000000e+00 1.4500000000000000e+01
ITEM: ATOMS id type xs ys zs
1 1 -0.0215833 -0.0381013 0.0441579
2 1 0.0676123 -0.00314614 -0.0081917
3 1 0.00795227 0.0288481 0.113821
4 1 0.112501 0.0123993 0.0915924
ITEM: TIMESTEP
320
ITEM: NUMBER OF ATOMS
4
ITEM: BOX BOUNDS pp pp pp
0.0000000000000000e+00 1.4500000000000000e+01
0.0000000000000000e+00 1.4500000000000000e+01
0.0000000000000000e+00 1.4500000000000000e+01
ITEM: ATOMS id type xs ys zs
1 1 -0.0122609 -0.0281741 0.0417063
2 1 0.064282 -0.00890805 0.00816648
3 1 0.00162738 0.0234522 0.114666
4 1 0.112834 0.01363 0.0768405
ITEM: TIMESTEP
330
ITEM: NUMBER OF ATOMS
4
ITEM: BOX BOUNDS pp pp pp
0.0000000000000000e+00 1.4500000000000000e+01
0.0000000000000000e+00 1.4500000000000000e+01
0.0000000000000000e+00 1.4500000000000000e+01
ITEM: ATOMS id type xs ys zs
1 1 -0.0087947 -0.0218596 0.038323
2 1 0.0663464 -0.0166848 0.0122983
3 1 0.000279925 0.0215321 0.121555
4 1 0.108651 0.0170124 0.0692027
ITEM: TIMESTEP
340
ITEM: NUMBER OF ATOMS
4
ITEM: BOX BOUNDS pp pp pp
0.0000000000000000e+00 1.4500000000000000e+01
0.0000000000000000e+00 1.4500000000000000e+01
0.0000000000000000e+00 1.4500000000000000e+01
ITEM: ATOMS id type xs ys zs
1 1 -0.0222213 -0.0208617 0.032076
2 1 0.0689916 -0.0261481 0.0113902
3 1 0.0140457 0.0196116 0.12211
4 1 0.105667 0.0273982 0.0758035
ITEM: TIMESTEP
350
ITEM: NUMBER OF ATOMS
4
ITEM: BOX BOUNDS pp pp pp
0.0000000000000000e+00 1.4500000000000000e+01
0.0000000000000000e+00 1.4500000000000000e+01
0.0000000000000000e+00 1.4500000000000000e+01
ITEM: ATOMS id type xs ys zs
1 1 -0.0347598 -0.0182167 0.0284946
2 1 0.0741708 -0.0386231 0.00483656
3 1 0.0259895 0.0178946 0.123968
4 1 0.101082 0.0389452 0.0840802
ITEM: TIMESTEP
360
ITEM: NUMBER OF ATOMS
4
ITEM: BOX BOUNDS pp pp pp
0.0000000000000000e+00 1.4500000000000000e+01
0.0000000000000000e+00 1.4500000000000000e+01
0.0000000000000000e+00 1.4500000000000000e+01
ITEM: ATOMS id type xs ys zs
1 1 -0.0351291 -0.0139867 0.032249
2 1 0.0736113 -0.0395695 0.0112435
3 1 0.0286666 0.00979661 0.115809
4 1 0.0993339 0.0437596 0.0820781
ITEM: TIMESTEP
370
ITEM: NUMBER OF ATOMS
4
ITEM: BOX BOUNDS pp pp pp
0.0000000000000000e+00 1.4500000000000000e+01
0.0000000000000000e+00 1.4500000000000000e+01
0.0000000000000000e+00 1.4500000000000000e+01
ITEM: ATOMS id type xs ys zs
1 1 -0.0283238 -0.00993277 0.0373245
2 1 0.0773412 -0.0397224 0.00914102
3 1 0.0167904 0.00566349 0.124207
4 1 0.100675 0.0439917 0.0707072
ITEM: TIMESTEP
380
ITEM: NUMBER OF ATOMS
4
ITEM: BOX BOUNDS pp pp pp
0.0000000000000000e+00 1.4500000000000000e+01
0.0000000000000000e+00 1.4500000000000000e+01
0.0000000000000000e+00 1.4500000000000000e+01
ITEM: ATOMS id type xs ys zs
1 1 0.984085 0.994611 0.041078
2 1 0.0807093 0.959209 0.00335373
3 1 0.00711358 0.00547889 0.135895
4 1 0.0945746 0.0407007 0.0610531
ITEM: TIMESTEP
390
ITEM: NUMBER OF ATOMS
4
ITEM: BOX BOUNDS pp pp pp
0.0000000000000000e+00 1.4500000000000000e+01
0.0000000000000000e+00 1.4500000000000000e+01
0.0000000000000000e+00 1.4500000000000000e+01
ITEM: ATOMS id type xs ys zs
1 1 0.985043 0.993572 0.0390276
2 1 0.0827819 0.957528 -0.00256411
3 1 0.00845744 0.00974713 0.14271
4 1 0.0902008 0.0391534 0.0622058
ITEM: TIMESTEP
400
ITEM: NUMBER OF ATOMS
4
ITEM: BOX BOUNDS pp pp pp
0.0000000000000000e+00 1.4500000000000000e+01
0.0000000000000000e+00 1.4500000000000000e+01
0.0000000000000000e+00 1.4500000000000000e+01
ITEM: ATOMS id type xs ys zs
1 1 0.976064 0.987023 0.0356344
2 1 0.0829075 0.956341 -0.00778248
3 1 0.0126247 0.0147315 0.144021
4 1 0.0948863 0.0419041 0.0695063
ITEM: TIMESTEP
410
ITEM: NUMBER OF ATOMS
4
ITEM: BOX BOUNDS pp pp pp
0.0000000000000000e+00 1.4500000000000000e+01
0.0000000000000000e+00 1.4500000000000000e+01
0.0000000000000000e+00 1.4500000000000000e+01
ITEM: ATOMS id type xs ys zs
1 1 0.983391 0.980325 0.0390454
2 1 0.0724081 0.962411 -0.00516018
3 1 0.0203045 0.0197794 0.127857
4 1 0.0903791 0.0374845 0.079637
ITEM: TIMESTEP
420
ITEM: NUMBER OF ATOMS
4
ITEM: BOX BOUNDS pp pp pp
0.0000000000000000e+00 1.4500000000000000e+01
0.0000000000000000e+00 1.4500000000000000e+01
0.0000000000000000e+00 1.4500000000000000e+01
ITEM: ATOMS id type xs ys zs
1 1 0.983558 0.969936 0.0404079
2 1 0.0624532 0.971336 0.000973308
3 1 0.0236556 0.0231735 0.113061
4 1 0.0968162 0.0355552 0.0869375
ITEM: TIMESTEP
430
ITEM: NUMBER OF ATOMS
4
ITEM: BOX BOUNDS pp pp pp
0.0000000000000000e+00 1.4500000000000000e+01
0.0000000000000000e+00 1.4500000000000000e+01
0.0000000000000000e+00 1.4500000000000000e+01
ITEM: ATOMS id type xs ys zs
1 1 0.981957 0.960526 0.0443212
2 1 0.0621449 0.977267 -0.00377371
3 1 0.0155555 0.0314499 0.113949
4 1 0.106825 0.0307575 0.0868827
ITEM: TIMESTEP
440
ITEM: NUMBER OF ATOMS
4
ITEM: BOX BOUNDS pp pp pp
0.0000000000000000e+00 1.4500000000000000e+01
0.0000000000000000e+00 1.4500000000000000e+01
0.0000000000000000e+00 1.4500000000000000e+01
ITEM: ATOMS id type xs ys zs
1 1 0.979323 0.951908 0.0503284
2 1 0.0672439 0.983364 -0.0109861
3 1 0.00342554 0.041075 0.119589
4 1 0.11649 0.0236528 0.0824482
ITEM: TIMESTEP
450
ITEM: NUMBER OF ATOMS
4
ITEM: BOX BOUNDS pp pp pp
0.0000000000000000e+00 1.4500000000000000e+01
0.0000000000000000e+00 1.4500000000000000e+01
0.0000000000000000e+00 1.4500000000000000e+01
ITEM: ATOMS id type xs ys zs
1 1 0.981448 0.950364 0.0577143
2 1 0.0701068 0.989272 -0.0122771
3 1 0.00696012 0.041809 0.115134
4 1 0.107968 0.0185547 0.0808078
ITEM: TIMESTEP
460
ITEM: NUMBER OF ATOMS
4
ITEM: BOX BOUNDS pp pp pp
0.0000000000000000e+00 1.4500000000000000e+01
0.0000000000000000e+00 1.4500000000000000e+01
0.0000000000000000e+00 1.4500000000000000e+01
ITEM: ATOMS id type xs ys zs
1 1 0.991574 0.955022 0.0602919
2 1 0.0637914 0.992088 -0.00516832
3 1 0.0167985 0.0373826 0.104772
4 1 0.0943192 0.0155071 0.081484
ITEM: TIMESTEP
470
ITEM: NUMBER OF ATOMS
4
ITEM: BOX BOUNDS pp pp pp
0.0000000000000000e+00 1.4500000000000000e+01
0.0000000000000000e+00 1.4500000000000000e+01
0.0000000000000000e+00 1.4500000000000000e+01
ITEM: ATOMS id type xs ys zs
1 1 0.982485 0.946969 0.0575133
2 1 0.0603661 0.98927 -0.0112444
3 1 0.0162764 0.040997 0.108292
4 1 0.107355 0.022764 0.0868184
ITEM: TIMESTEP
480
ITEM: NUMBER OF ATOMS
4
ITEM: BOX BOUNDS pp pp pp
0.0000000000000000e+00 1.4500000000000000e+01
0.0000000000000000e+00 1.4500000000000000e+01
0.0000000000000000e+00 1.4500000000000000e+01
ITEM: ATOMS id type xs ys zs
1 1 0.977746 0.944774 0.0544889
2 1 0.0602942 0.986534 -0.00963277
3 1 0.00952101 0.0426013 0.114055
4 1 0.118921 0.0260901 0.0824685
ITEM: TIMESTEP
490
ITEM: NUMBER OF ATOMS
4
ITEM: BOX BOUNDS pp pp pp
0.0000000000000000e+00 1.4500000000000000e+01
0.0000000000000000e+00 1.4500000000000000e+01
0.0000000000000000e+00 1.4500000000000000e+01
ITEM: ATOMS id type xs ys zs
1 1 0.978855 0.953029 0.0536165
2 1 0.0610891 0.987008 0.00778582
3 1 0.00840463 0.0330272 0.109397
4 1 0.118134 0.0269365 0.0705804
ITEM: TIMESTEP
500
ITEM: NUMBER OF ATOMS
4
ITEM: BOX BOUNDS pp pp pp
0.0000000000000000e+00 1.4500000000000000e+01
0.0000000000000000e+00 1.4500000000000000e+01
0.0000000000000000e+00 1.4500000000000000e+01
ITEM: ATOMS id type xs ys zs
1 1 0.97861 0.960618 0.0529653
2 1 0.0692724 0.978846 0.00627533
3 1 0.00631852 0.0303246 0.118317
4 1 0.112282 0.0302114 0.0638214
ITEM: TIMESTEP
510
ITEM: NUMBER OF ATOMS
4
ITEM: BOX BOUNDS pp pp pp
0.0000000000000000e+00 1.4500000000000000e+01
0.0000000000000000e+00 1.4500000000000000e+01
0.0000000000000000e+00 1.4500000000000000e+01
ITEM: ATOMS id type xs ys zs
1 1 0.978653 0.967406 0.0515029
2 1 0.0767077 0.966377 -0.00203661
3 1 0.0145837 0.0301585 0.125572
4 1 0.0965382 0.0360588 0.0663407
ITEM: TIMESTEP
520
ITEM: NUMBER OF ATOMS
4
ITEM: BOX BOUNDS pp pp pp
0.0000000000000000e+00 1.4500000000000000e+01
0.0000000000000000e+00 1.4500000000000000e+01
0.0000000000000000e+00 1.4500000000000000e+01
ITEM: ATOMS id type xs ys zs
1 1 0.97953 0.973212 0.0486058
2 1 0.0815611 0.953341 -0.00977807
3 1 0.0226704 0.0297694 0.133112
4 1 0.0827212 0.0436775 0.0694392
ITEM: TIMESTEP
530
ITEM: NUMBER OF ATOMS
4
ITEM: BOX BOUNDS pp pp pp
0.0000000000000000e+00 1.4500000000000000e+01
0.0000000000000000e+00 1.4500000000000000e+01
0.0000000000000000e+00 1.4500000000000000e+01
ITEM: ATOMS id type xs ys zs
1 1 0.98145 0.972032 0.041433
2 1 0.0766993 0.955275 -0.00110604
3 1 0.0256919 0.0268013 0.141321
4 1 0.0826413 0.0458922 0.0597319
ITEM: TIMESTEP
540
ITEM: NUMBER OF ATOMS
4
ITEM: BOX BOUNDS pp pp pp
0.0000000000000000e+00 1.4500000000000000e+01
0.0000000000000000e+00 1.4500000000000000e+01
0.0000000000000000e+00 1.4500000000000000e+01
ITEM: ATOMS id type xs ys zs
1 1 0.983111 0.971524 0.0455626
2 1 0.0693011 0.961704 0.0122053
3 1 0.0212147 0.0156259 0.13654
4 1 0.0928558 0.0511466 0.0470714
ITEM: TIMESTEP
550
ITEM: NUMBER OF ATOMS
4
ITEM: BOX BOUNDS pp pp pp
0.0000000000000000e+00 1.4500000000000000e+01
0.0000000000000000e+00 1.4500000000000000e+01
0.0000000000000000e+00 1.4500000000000000e+01
ITEM: ATOMS id type xs ys zs
1 1 0.985233 0.974919 0.051904
2 1 0.0663313 0.964271 0.0205439
3 1 0.0247233 0.0099059 0.121957
4 1 0.0901954 0.0509035 0.0469745
ITEM: TIMESTEP
560
ITEM: NUMBER OF ATOMS
4
ITEM: BOX BOUNDS pp pp pp
0.0000000000000000e+00 1.4500000000000000e+01
0.0000000000000000e+00 1.4500000000000000e+01
0.0000000000000000e+00 1.4500000000000000e+01
ITEM: ATOMS id type xs ys zs
1 1 0.97839 0.975948 0.0557976
2 1 0.0763548 0.953378 0.00479499
3 1 0.0239322 0.0168235 0.130962
4 1 0.0878058 0.0538504 0.0498245
ITEM: TIMESTEP
570
ITEM: NUMBER OF ATOMS
4
ITEM: BOX BOUNDS pp pp pp
0.0000000000000000e+00 1.4500000000000000e+01
0.0000000000000000e+00 1.4500000000000000e+01
0.0000000000000000e+00 1.4500000000000000e+01
ITEM: ATOMS id type xs ys zs
1 1 0.98223 0.974058 0.0516364
2 1 0.0765596 0.949794 -0.00366894
3 1 0.0249422 0.0260078 0.141864
4 1 0.0827511 0.0501409 0.051548
ITEM: TIMESTEP
580
ITEM: NUMBER OF ATOMS
4
ITEM: BOX BOUNDS pp pp pp
0.0000000000000000e+00 1.4500000000000000e+01
0.0000000000000000e+00 1.4500000000000000e+01
0.0000000000000000e+00 1.4500000000000000e+01
ITEM: ATOMS id type xs ys zs
1 1 0.989215 0.966519 0.0484175
2 1 0.0674354 0.954124 -0.00407909
3 1 0.0242022 0.0316182 0.144891
4 1 0.0856305 0.0477389 0.0521498
ITEM: TIMESTEP
590
ITEM: NUMBER OF ATOMS
4
ITEM: BOX BOUNDS pp pp pp
0.0000000000000000e+00 1.4500000000000000e+01
0.0000000000000000e+00 1.4500000000000000e+01
0.0000000000000000e+00 1.4500000000000000e+01
ITEM: ATOMS id type xs ys zs
1 1 0.990984 0.962409 0.0636043
2 1 0.0607225 0.959612 -0.00517064
3 1 0.0179344 0.0264507 0.129434
4 1 0.0968415 0.0515282 0.053512
ITEM: TIMESTEP
600
ITEM: NUMBER OF ATOMS
4
ITEM: BOX BOUNDS pp pp pp
0.0000000000000000e+00 1.4500000000000000e+01
0.0000000000000000e+00 1.4500000000000000e+01
0.0000000000000000e+00 1.4500000000000000e+01
ITEM: ATOMS id type xs ys zs
1 1 0.992815 0.958135 0.0780473
2 1 0.0565471 0.968489 -0.00503534
3 1 0.0146473 0.0238611 0.113217
4 1 0.102473 0.0495147 0.0551508
ITEM: TIMESTEP
610
ITEM: NUMBER OF ATOMS
4
ITEM: BOX BOUNDS pp pp pp
0.0000000000000000e+00 1.4500000000000000e+01
0.0000000000000000e+00 1.4500000000000000e+01
0.0000000000000000e+00 1.4500000000000000e+01
ITEM: ATOMS id type xs ys zs
1 1 0.995371 0.948707 0.08773
2 1 0.05448 0.977717 0.993415
3 1 0.0138204 0.0309992 0.103324
4 1 0.102811 0.0425765 0.0569107
ITEM: TIMESTEP
620
ITEM: NUMBER OF ATOMS
4
ITEM: BOX BOUNDS pp pp pp
0.0000000000000000e+00 1.4500000000000000e+01
0.0000000000000000e+00 1.4500000000000000e+01
0.0000000000000000e+00 1.4500000000000000e+01
ITEM: ATOMS id type xs ys zs
1 1 1.0048 0.938736 0.0853159
2 1 0.0499447 0.978951 0.991954
3 1 0.0103305 0.0487538 0.104729
4 1 0.101411 0.0335591 0.0593802
ITEM: TIMESTEP
630
ITEM: NUMBER OF ATOMS
4
ITEM: BOX BOUNDS pp pp pp
0.0000000000000000e+00 1.4500000000000000e+01
0.0000000000000000e+00 1.4500000000000000e+01
0.0000000000000000e+00 1.4500000000000000e+01
ITEM: ATOMS id type xs ys zs
1 1 1.0185 0.937381 0.0766946
2 1 0.0383034 0.980958 1.00293
3 1 0.00847876 0.0566706 0.0988992
4 1 0.101203 0.0249897 0.0628509
ITEM: TIMESTEP
640
ITEM: NUMBER OF ATOMS
4
ITEM: BOX BOUNDS pp pp pp
0.0000000000000000e+00 1.4500000000000000e+01
0.0000000000000000e+00 1.4500000000000000e+01
0.0000000000000000e+00 1.4500000000000000e+01
ITEM: ATOMS id type xs ys zs
1 1 1.02373 0.938146 0.0766792
2 1 0.0275229 0.980163 1.00174
3 1 0.00590643 0.057361 0.0964076
4 1 0.109326 0.0243298 0.0665487
ITEM: TIMESTEP
650
ITEM: NUMBER OF ATOMS
4
ITEM: BOX BOUNDS pp pp pp
0.0000000000000000e+00 1.4500000000000000e+01
0.0000000000000000e+00 1.4500000000000000e+01
0.0000000000000000e+00 1.4500000000000000e+01
ITEM: ATOMS id type xs ys zs
1 1 1.02237 0.941409 0.0854028
2 1 0.0223975 0.983398 0.995556
3 1 0.00852557 0.0477649 0.0927887
4 1 0.113189 0.0274278 0.0676316
ITEM: TIMESTEP
660
ITEM: NUMBER OF ATOMS
4
ITEM: BOX BOUNDS pp pp pp
0.0000000000000000e+00 1.4500000000000000e+01
0.0000000000000000e+00 1.4500000000000000e+01
0.0000000000000000e+00 1.4500000000000000e+01
ITEM: ATOMS id type xs ys zs
1 1 1.02062 0.945533 0.0965617
2 1 0.0237122 0.987561 0.986293
3 1 0.0120725 0.0387801 0.0940566
4 1 0.110077 0.0281255 0.0644683
ITEM: TIMESTEP
670
ITEM: NUMBER OF ATOMS
4
ITEM: BOX BOUNDS pp pp pp
0.0000000000000000e+00 1.4500000000000000e+01
0.0000000000000000e+00 1.4500000000000000e+01
0.0000000000000000e+00 1.4500000000000000e+01
ITEM: ATOMS id type xs ys zs
1 1 1.01854 0.946645 0.100607
2 1 0.0332124 0.98863 0.98428
3 1 0.0124013 0.0387538 0.103389
4 1 0.102325 0.025971 0.0531031
ITEM: TIMESTEP
680
ITEM: NUMBER OF ATOMS
4
ITEM: BOX BOUNDS pp pp pp
0.0000000000000000e+00 1.4500000000000000e+01
0.0000000000000000e+00 1.4500000000000000e+01
0.0000000000000000e+00 1.4500000000000000e+01
ITEM: ATOMS id type xs ys zs
1 1 1.01216 0.942914 0.0922485
2 1 0.0410544 0.984174 0.999685
3 1 0.0121313 0.0429566 0.111916
4 1 0.101137 0.0299556 0.0375301
ITEM: TIMESTEP
690
ITEM: NUMBER OF ATOMS
4
ITEM: BOX BOUNDS pp pp pp
0.0000000000000000e+00 1.4500000000000000e+01
0.0000000000000000e+00 1.4500000000000000e+01
0.0000000000000000e+00 1.4500000000000000e+01
ITEM: ATOMS id type xs ys zs
1 1 1.01016 0.942882 0.0804099
2 1 0.0447296 0.973893 1.00896
3 1 0.0204288 0.0480755 0.11562
4 1 0.091165 0.0351501 0.0363929
ITEM: TIMESTEP
700
ITEM: NUMBER OF ATOMS
4
ITEM: BOX BOUNDS pp pp pp
0.0000000000000000e+00 1.4500000000000000e+01
0.0000000000000000e+00 1.4500000000000000e+01
0.0000000000000000e+00 1.4500000000000000e+01
ITEM: ATOMS id type xs ys zs
1 1 1.0053 0.941789 0.0747965
2 1 0.0458224 0.962088 1.01307
3 1 0.0331503 0.0488149 0.112016
4 1 0.0822062 0.0473081 0.0414952
ITEM: TIMESTEP
710
ITEM: NUMBER OF ATOMS
4
ITEM: BOX BOUNDS pp pp pp
0.0000000000000000e+00 1.4500000000000000e+01
0.0000000000000000e+00 1.4500000000000000e+01
0.0000000000000000e+00 1.4500000000000000e+01
ITEM: ATOMS id type xs ys zs
1 1 0.999897 0.948519 0.0782096
2 1 0.0507602 0.952755 1.01045
3 1 0.040869 0.0412634 0.109346
4 1 0.0749568 0.0574627 0.0433724
ITEM: TIMESTEP
720
ITEM: NUMBER OF ATOMS
4
ITEM: BOX BOUNDS pp pp pp
0.0000000000000000e+00 1.4500000000000000e+01
0.0000000000000000e+00 1.4500000000000000e+01
0.0000000000000000e+00 1.4500000000000000e+01
ITEM: ATOMS id type xs ys zs
1 1 0.994711 0.961646 0.0853777
2 1 0.0600039 0.950482 1.00707
3 1 0.044384 0.0272849 0.111442
4 1 0.0673841 0.0605868 0.037487
ITEM: TIMESTEP
730
ITEM: NUMBER OF ATOMS
4
ITEM: BOX BOUNDS pp pp pp
0.0000000000000000e+00 1.4500000000000000e+01
0.0000000000000000e+00 1.4500000000000000e+01
0.0000000000000000e+00 1.4500000000000000e+01
ITEM: ATOMS id type xs ys zs
1 1 0.986903 0.972331 0.0902652
2 1 0.0696396 0.952443 1.00547
3 1 0.049811 0.0143558 0.12051
4 1 0.0601289 0.0608702 0.0251379
ITEM: TIMESTEP
740
ITEM: NUMBER OF ATOMS
4
ITEM: BOX BOUNDS pp pp pp
0.0000000000000000e+00 1.4500000000000000e+01
0.0000000000000000e+00 1.4500000000000000e+01
0.0000000000000000e+00 1.4500000000000000e+01
ITEM: ATOMS id type xs ys zs
1 1 0.981521 0.979223 0.0830547
2 1 0.0718812 0.95929 1.01355
3 1 0.0617997 0.00471574 0.129876
4 1 0.0512809 0.0567713 0.0149
ITEM: TIMESTEP
750
ITEM: NUMBER OF ATOMS
4
ITEM: BOX BOUNDS pp pp pp
0.0000000000000000e+00 1.4500000000000000e+01
0.0000000000000000e+00 1.4500000000000000e+01
0.0000000000000000e+00 1.4500000000000000e+01
ITEM: ATOMS id type xs ys zs
1 1 0.967555 0.98459 0.0797627
2 1 0.0798369 0.962701 0.016614
3 1 0.0745721 0.00243764 0.129174
4 1 0.0445185 0.0502716 0.0158282
ITEM: TIMESTEP
760
ITEM: NUMBER OF ATOMS
4
ITEM: BOX BOUNDS pp pp pp
0.0000000000000000e+00 1.4500000000000000e+01
0.0000000000000000e+00 1.4500000000000000e+01
0.0000000000000000e+00 1.4500000000000000e+01
ITEM: ATOMS id type xs ys zs
1 1 0.969376 0.993039 0.0737028
2 1 0.0836772 0.965465 0.0288335
3 1 0.0827521 -0.00470029 0.122752
4 1 0.0306774 0.046197 0.0160908
ITEM: TIMESTEP
770
ITEM: NUMBER OF ATOMS
4
ITEM: BOX BOUNDS pp pp pp
0.0000000000000000e+00 1.4500000000000000e+01
0.0000000000000000e+00 1.4500000000000000e+01
0.0000000000000000e+00 1.4500000000000000e+01
ITEM: ATOMS id type xs ys zs
1 1 0.972839 1.00314 0.0772648
2 1 0.0977093 0.962803 0.0354512
3 1 0.0789362 -0.0118288 0.115302
4 1 0.0169988 0.0458899 0.0133611
ITEM: TIMESTEP
780
ITEM: NUMBER OF ATOMS
4
ITEM: BOX BOUNDS pp pp pp
0.0000000000000000e+00 1.4500000000000000e+01
0.0000000000000000e+00 1.4500000000000000e+01
0.0000000000000000e+00 1.4500000000000000e+01
ITEM: ATOMS id type xs ys zs
1 1 0.972331 1.01089 0.0863105
2 1 0.104479 0.968563 0.0316517
3 1 0.0717838 -0.016353 0.113316
4 1 0.0178891 0.0369036 0.0101014
ITEM: TIMESTEP
790
ITEM: NUMBER OF ATOMS
4
ITEM: BOX BOUNDS pp pp pp
0.0000000000000000e+00 1.4500000000000000e+01
0.0000000000000000e+00 1.4500000000000000e+01
0.0000000000000000e+00 1.4500000000000000e+01
ITEM: ATOMS id type xs ys zs
1 1 0.972647 1.01657 0.0978244
2 1 0.106854 0.977744 0.0228399
3 1 0.0670366 -0.0243805 0.124443
4 1 0.0199452 0.0300712 -0.00372797
ITEM: TIMESTEP
800
ITEM: NUMBER OF ATOMS
4
ITEM: BOX BOUNDS pp pp pp
0.0000000000000000e+00 1.4500000000000000e+01
0.0000000000000000e+00 1.4500000000000000e+01
0.0000000000000000e+00 1.4500000000000000e+01
ITEM: ATOMS id type xs ys zs
1 1 0.976619 1.0225 0.1024
2 1 0.10755 0.986666 0.0179519
3 1 0.0621398 -0.0304826 0.12853
4 1 0.0201738 0.021318 -0.00750254
ITEM: TIMESTEP
810