       N       E                     dE             d eps       ncg     rms          rms(c)
DAV:   1     0.244111800837E+04    0.24411E+04   -0.20472E+05  3088   0.854E+02
DAV:   2    -0.678274453799E+03   -0.31194E+04   -0.29423E+04  4168   0.203E+02
DAV:   3    -0.940871853973E+03   -0.26260E+03   -0.25049E+03  4696   0.456E+01
DAV:   4    -0.955714359261E+03   -0.14843E+02   -0.14501E+02  4664   0.105E+01
DAV:   5    -0.956278758692E+03   -0.56440E+00   -0.56026E+00  4920   0.220E+00    0.573E+01
DAV:   6    -0.969135724593E+03   -0.12857E+02   -0.19412E+02  4128   0.167E+01    0.425E+01
DAV:   7    -0.955833305667E+03    0.13302E+02   -0.28422E+02  4208   0.242E+01    0.266E+01
DAV:   8    -0.933397919634E+03    0.22435E+02   -0.17449E+02  3880   0.142E+01    0.675E+00
DAV:   9    -0.945636913098E+03   -0.12239E+02   -0.16909E+01  4128   0.117E+01    0.108E+01
DAV:  10    -0.927375917781E+03    0.18261E+02   -0.11777E+01  4248   0.873E+00    0.319E+00
DAV:  11    -0.927058199993E+03    0.31772E+00   -0.82536E+00  3744   0.273E+00    0.129E+00
DAV:  12    -0.927028122574E+03    0.30077E-01   -0.72920E-01  3960   0.126E+00    0.116E+00
DAV:  13    -0.926994640172E+03    0.33482E-01   -0.16433E-01  3968   0.566E-01    0.649E-01
DAV:  14    -0.926940882675E+03    0.53757E-01   -0.72892E-02  3744   0.387E-01    0.433E-01
DAV:  15    -0.926927478447E+03    0.13404E-01   -0.64570E-02  3760   0.279E-01    0.242E-01
DAV:  16    -0.926936582945E+03   -0.91045E-02   -0.42217E-02  4232   0.226E-01    0.253E-01
DAV:  17    -0.926935203092E+03    0.13799E-02   -0.14684E-02  3624   0.143E-01    0.213E-01
DAV:  18    -0.926936262037E+03   -0.10589E-02   -0.48850E-03  3936   0.847E-02    0.118E-01
DAV:  19    -0.926939845390E+03   -0.35834E-02   -0.18688E-03  3648   0.582E-02    0.619E-02
DAV:  20    -0.926942167849E+03   -0.23225E-02   -0.76078E-04  3664   0.365E-02    0.795E-02
DAV:  21    -0.926943352364E+03   -0.11845E-02   -0.35497E-04  3720   0.243E-02    0.390E-02
DAV:  22    -0.926944820079E+03   -0.14677E-02   -0.22437E-04  3864   0.177E-02    0.324E-02
DAV:  23    -0.926945473276E+03   -0.65320E-03   -0.29913E-04  3320   0.120E-02    0.269E-02
DAV:  24    -0.926945860051E+03   -0.38677E-03   -0.62399E-05  3384   0.757E-03    0.209E-02
DAV:  25    -0.926946976111E+03   -0.11161E-02   -0.72776E-05  3272   0.819E-03    0.861E-03
DAV:  26    -0.926947578724E+03   -0.60261E-03   -0.27298E-05  3000   0.498E-03    0.161E-02
DAV:  27    -0.926947922441E+03   -0.34372E-03   -0.12072E-05  2472   0.350E-03    0.915E-03
DAV:  28    -0.926948207580E+03   -0.28514E-03   -0.22485E-05  2880   0.363E-03    0.441E-03
DAV:  29    -0.926948331711E+03   -0.12413E-03   -0.69877E-06  2312   0.209E-03    0.186E-03
DAV:  30    -0.926948398179E+03   -0.66468E-04   -0.40389E-06  2304   0.137E-03    0.270E-03
DAV:  31    -0.926948409745E+03   -0.11566E-04   -0.44545E-07  1928   0.868E-04    0.158E-03
DAV:  32    -0.926948414767E+03   -0.50222E-05   -0.24865E-07  1792   0.603E-04    0.157E-03
DAV:  33    -0.926948417333E+03   -0.25664E-05   -0.14204E-07  1840   0.484E-04
   1 F= -.99978012E+03 E0= -.99974987E+03  d E =-.604945E-01
