         324
 Energy:  -1430.7635746999999      en  -1350.2698846999999      edisp  -80.493690000000001      config: Al-slab-Olayer1
 X   0.00000000       0.00000000       0.00000000    
 X   17.1805725       0.00000000       0.00000000    
 X   8.59028721       14.8788118       0.00000000    
 X   0.00000000       0.00000000       36.4000015    
 X   25.7708588       14.8788118       0.00000000    
 X   17.1805725       0.00000000       36.4000015    
 X   8.59028721       14.8788118       36.4000015    
 X   25.7708588       14.8788118       36.4000015    
 Al   11.4768600       6.62617016       2.48277998    
 Al   14.3288202       11.5656700       2.50312996    
 Al   8.59029007       1.62647998       2.48277998    
 Al   17.1805706       6.62627983       2.50312996    
 Al   20.0323296       11.5656700       2.50312996    
 Al   14.3149099       1.65448999       2.47218990    
 Al   5.70371008       6.62617016       2.48277998    
 Al   8.59029007       11.5698299       2.47218990    
 Al   2.86565995       1.65448999       2.47218990    
 Al   14.3126698       8.26342964       4.80441999    
 Al   17.1805706       13.2307701       4.80441999    
 Al   11.4653702       3.29967999       4.80317020    
 Al   20.0484695       8.26342964       4.80441999    
 Al   22.9168701       13.2310600       4.81611013    
 Al   17.1805706       3.29551005       4.81611013    
 Al   8.59029007       8.27945995       4.80317020    
 Al   11.4442797       13.2310600       4.81611013    
 Al   5.71520996       3.29967999       4.80317020    
 Al   17.1805706       9.91921043       7.08481979    
 Al   11.4428501       1.28899999E-02   7.07545996    
 Al   14.3005505       4.96256018       7.07545996    
 Al   5.73259020       9.90334988       7.07545996    
 Al   0.00000000      -0.00000000       7.07104015    
 Al   2.88001990       4.96256018       7.07545996    
 Al   11.4479799       9.90334988       7.07545996    
 Al   5.73772001       1.28899999E-02   7.07545996    
 Al   8.59027958       4.95959997       7.07598019    
 Al   20.0229893       11.5602798       9.31702042    
 Al   14.3114004       1.65652001       9.33726025    
 Al   17.1805706       6.63707018       9.31702042    
 Al   8.59029007       11.5657701       9.33726025    
 Al   2.86916995       1.65652001       9.33726025    
 Al   5.71117020       6.62186003       9.29146957    
 Al   14.3381596       11.5602798       9.31702042    
 Al   8.59027958       1.63508999       9.29146957    
 Al   11.4694004       6.62186003       9.29146957    
 Al   23.0063000       13.2826996       11.4701595    
 Al   17.1805706       3.19222999       11.4701595    
 Al   20.0893402       8.23983002       11.5070000    
 Al   11.3548403       13.2826996       11.4701595    
 Al   5.68650007       3.28310990       11.5227699    
 Al   8.59027958       8.31260014       11.5227699    
 Al   17.1805706       13.2779703       11.5070000    
 Al   11.4940701       3.28310990       11.5227699    
 Al   14.2718000       8.23983002       11.5070000    
 Al   0.00000000      -0.00000000       13.8719196    
 Al   2.91664004       4.90098000       13.7572699    
 Al   5.80423021       9.90244007       13.7572699    
 Al   5.70269012       7.53900036E-02   13.7572699    
 Al   8.59027958       4.95959997       13.3890896    
 Al   11.3763399       9.90244007       13.7572699    
 Al   11.4778795       7.53900036E-02   13.7572699    
 Al   14.2639399       4.90098000       13.7572699    
 Al   17.1805706       9.91921043       14.1092300    
 Al   2.97496009       1.71758997       17.6404591    
 Al   5.86134005       6.53516006       16.6784401    
 Al   8.59029007       11.4436302       17.6404591    
 Al   8.59027958       1.80849004       16.6784401    
 Al   11.3192301       6.53516006       16.6784401    
 Al   14.5552902       11.4349098       16.0228691    
 Al   14.2056198       1.71758997       17.6404591    
 Al   17.1805801       6.88780022       16.0228691    
 Al   19.8058491       11.4349098       16.0228691    
 Al   7.14690018       4.12626982       2.50312996    
 Al   10.0197697       9.09389973       2.47218990    
 Al   12.8854303       14.0656900       2.50312996    
 Al   12.8854303       4.13042021       2.47218990    
 Al   15.7510900       9.09389973       2.47218990    
 Al   18.5891399       14.0655699       2.48277998    
 Al   18.6239605       4.12626982       2.50312996    
 Al   21.4757195       9.06587982       2.48277998    
 Al   24.3622894       14.0655699       2.48277998    
 Al   10.0314398       5.79164982       4.81611013    
 Al   12.8854303       10.7349100       4.81611013    
 Al   7.16304016      0.824020028       4.80441999    
 Al   15.7394199       5.79164982       4.81611013    
 Al   18.6006393       10.7390804       4.80317020    
 Al   12.8854303      0.840049982       4.80317020    
 Al   4.29513979       5.79136992       4.80441999    
 Al   7.17021990       10.7390804       4.80317020    
 Al   1.42724001      0.824020028       4.80441999    
 Al   12.8854303       7.43941021       7.07104015    
 Al   15.7654600       12.4019699       7.07545996    
 Al   10.0277300       2.46394992       7.07545996    
 Al   18.6231499       7.45230007       7.07545996    
 Al   21.4757195       12.3990097       7.07598019    
 Al   15.7431297       2.46394992       7.07545996    
 Al   7.14770985       7.45230007       7.07545996    
 Al   10.0054102       12.4019699       7.07545996    
 Al   4.29513979       2.47979999       7.08481979    
 Al   15.7545996       9.09593010       9.33726025    
 Al   18.5965996       14.0612698       9.29146957    
 Al   12.8854303       4.12636995       9.33726025    
 Al   21.4757195       9.07450008       9.29146957    
 Al   24.3548298       14.0612698       9.29146957    
 Al   18.6333008       4.12087011       9.31702042    
 Al   10.0162497       9.09593010       9.33726025    
 Al   12.8854303       14.0764799       9.31702042    
 Al   7.13755989       4.12087011       9.31702042    
 Al   18.5719299       10.7225103       11.5227699    
 Al   12.8854303      0.873199999       11.5227699    
 Al   15.6499796       5.84328985       11.4701595    
 Al   7.19892979       10.7225103       11.5227699    
 Al   1.38636994      0.800419986       11.5070000    
 Al   4.29513979       5.83856010       11.5070000    
 Al   12.8854303       10.6316404       11.4701595    
 Al   7.20390987      0.800419986       11.5070000    
 Al   10.1208801       5.84328985       11.4701595    
 Al   21.4757195       12.3990097       13.3890896    
 Al   15.6714802       2.46303010       13.7572699    
 Al   18.5881195       7.51480007       13.7572699    
 Al   9.96879005       12.3403902       13.7572699    
 Al   4.29513979       2.47979999       14.1092300    
 Al   7.18274021       7.51480007       13.7572699    
 Al   15.8020697       12.3403902       13.7572699    
 Al   10.0993795       2.46303010       13.7572699    
 Al   12.8854303       7.43941021       13.8719196    
 Al   24.2046700       13.9745703       16.6784401    
 Al   18.8504391       3.99551010       16.0228691    
 Al   21.4757195       9.24789047       16.6784401    
 Al   12.8854303       14.3271999       16.0228691    
 Al   6.92042017       3.99551010       16.0228691    
 Al   9.91047001       9.15699959       17.6404591    
 Al   18.7467709       13.9745703       16.6784401    
 Al   12.8854303       4.00422001       17.6404591    
 Al   15.8603802       9.15699959       17.6404591    
 Al   8.59029007       6.62627983       2.50312996    
 Al   11.4420404       11.5656700       2.50312996    
 Al   5.72461987       1.65448999       2.47218990    
 Al   14.2939997       6.62617016       2.48277998    
 Al   17.1805706       11.5698299       2.47218990    
 Al   11.4559498       1.65448999       2.47218990    
 Al   20.0671501       6.62617016       2.48277998    
 Al   22.9190998       11.5656700       2.50312996    
 Al   17.1805706       1.62647998       2.48277998    
 Al   11.4581900       8.26342964       4.80441999    
 Al   14.3265800       13.2310600       4.81611013    
 Al   8.59029007       3.29551005       4.81611013    
 Al   17.1805706       8.27945995       4.80317020    
 Al   20.0345592       13.2310600       4.81611013    
 Al   14.3054895       3.29967999       4.80317020    
 Al   5.72239017       8.26342964       4.80441999    
 Al   8.59029007       13.2307701       4.80441999    
 Al   2.87508011       3.29967999       4.80317020    
 Al   14.3228798       9.90334988       7.07545996    
 Al   8.59029007      -0.00000000       7.07104015    
 Al   11.4703102       4.96256018       7.07545996    
 Al   20.0382710       9.90334988       7.07545996    
 Al   14.3280096       1.28899999E-02   7.07545996    
 Al   17.1805706       4.95959997       7.07598019    
 Al   8.59029007       9.91921043       7.08481979    
 Al   2.85257006       1.28899999E-02   7.07545996    
 Al   5.71025991       4.96256018       7.07545996    
 Al   17.1805706       11.5657701       9.33726025    
 Al   11.4594603       1.65652001       9.33726025    
 Al   14.3014603       6.62186003       9.29146957    
 Al   22.9284401       11.5602798       9.31702042    
 Al   17.1805706       1.63508999       9.29146957    
 Al   20.0596905       6.62186003       9.29146957    
 Al   11.4327002       11.5602798       9.31702042    
 Al   5.72110987       1.65652001       9.33726025    
 Al   8.59027958       6.63707018       9.31702042    
 Al   19.9451294       13.2826996       11.4701595    
 Al   14.2767897       3.28310990       11.5227699    
 Al   17.1805706       8.31260014       11.5227699    
 Al   8.59029007       13.2779703       11.5070000    
 Al   2.90377998       3.28310990       11.5227699    
 Al   5.68151999       8.23983002       11.5070000    
 Al   14.4160204       13.2826996       11.4701595    
 Al   8.59027958       3.19222999       11.4701595    
 Al   11.4990597       8.23983002       11.5070000    
 Al   14.2929802       7.53900036E-02   13.7572699    
 Al   17.1805706       4.95959997       13.3890896    
 Al   19.9666309       9.90244007       13.7572699    
 Al   2.88758993       7.53900036E-02   13.7572699    
 Al   5.67364979       4.90098000       13.7572699    
 Al   8.59029007       9.91921043       14.1092300    
 Al   8.59027958      -0.00000000       13.8719196    
 Al   11.5069199       4.90098000       13.7572699    
 Al   14.3945198       9.90244007       13.7572699    
 Al   17.1805706       1.80849004       16.6784401    
 Al   19.9095192       6.53516006       16.6784401    
 Al   23.1455803       11.4349098       16.0228691    
 Al   5.61533022       1.71758997       17.6404591    
 Al   8.59027958       6.88780022       16.0228691    
 Al   11.2155600       11.4349098       16.0228691    
 Al   11.5652399       1.71758997       17.6404591    
 Al   14.4516201       6.53516006       16.6784401    
 Al   17.1805706       11.4436302       17.6404591    
 Al   10.0336704       4.12626982       2.50312996    
 Al   12.8854303       9.06587982       2.48277998    
 Al   15.7720003       14.0655699       2.48277998    
 Al   15.7371902       4.12626982       2.50312996    
 Al   18.6100502       9.09389973       2.47218990    
 Al   21.4757195       14.0656900       2.50312996    
 Al   4.29513979       4.13042021       2.47218990    
 Al   7.16080999       9.09389973       2.47218990    
 Al   9.99886036       14.0655699       2.48277998    
 Al   12.8854303       5.79136992       4.80441999    
 Al   15.7605104       10.7390804       4.80317020    
 Al   10.0175304      0.824020028       4.80441999    
 Al   18.6217194       5.79164982       4.81611013    
 Al   21.4757195       10.7349100       4.81611013    
 Al   15.7533302      0.824020028       4.80441999    
 Al   7.14912987       5.79164982       4.81611013    
 Al   10.0103502       10.7390804       4.80317020    
 Al   4.29513979      0.840049982       4.80317020    
 Al   15.7379999       7.45230007       7.07545996    
 Al   18.5956898       12.4019699       7.07545996    
 Al   12.8854303       2.47979999       7.08481979    
 Al   4.29513979       7.43941021       7.07104015    
 Al   7.17516994       12.4019699       7.07545996    
 Al   1.43745005       2.46394992       7.07545996    
 Al   10.0328598       7.45230007       7.07545996    
 Al   12.8854303       12.3990097       7.07598019    
 Al   7.15284014       2.46394992       7.07545996    
 Al   18.6065407       9.09593010       9.33726025    
 Al   21.4757195       14.0764799       9.31702042    
 Al   15.7278500       4.12087011       9.31702042    
 Al   7.16431999       9.09593010       9.33726025    
 Al   10.0063200       14.0612698       9.29146957    
 Al   4.29513979       4.12636995       9.33726025    
 Al   12.8854303       9.07450008       9.29146957    
 Al   15.7645397       14.0612698       9.29146957    
 Al   10.0430202       4.12087011       9.31702042    
 Al   21.4757195       10.6316404       11.4701595    
 Al   15.7941999      0.800419986       11.5070000    
 Al   18.7111607       5.84328985       11.4701595    
 Al   9.98165035       10.7225103       11.5227699    
 Al   4.29513979      0.873199999       11.5227699    
 Al   7.05970001       5.84328985       11.4701595    
 Al   15.7892103       10.7225103       11.5227699    
 Al   9.97665977      0.800419986       11.5070000    
 Al   12.8854303       5.83856010       11.5070000    
 Al   7.21178007       12.3403902       13.7572699    
 Al   1.50908995       2.46303010       13.7572699    
 Al   4.29513979       7.43941021       13.8719196    
 Al   12.8854303       12.3990097       13.3890896    
 Al   7.08120012       2.46303010       13.7572699    
 Al   9.99783993       7.51480007       13.7572699    
 Al   18.5590801       12.3403902       13.7572699    
 Al   12.8854303       2.47979999       14.1092300    
 Al   15.7730198       7.51480007       13.7572699    
 Al   10.1564798       13.9745703       16.6784401    
 Al   4.29513979       4.00422001       17.6404591    
 Al   7.27010012       9.15699959       17.6404591    
 Al   15.6143799       13.9745703       16.6784401    
 Al   10.2601500       3.99551010       16.0228691    
 Al   12.8854303       9.24789047       16.6784401    
 Al   21.4757195       14.3271999       16.0228691    
 Al   15.5107098       3.99551010       16.0228691    
 Al   18.5007591       9.15699959       17.6404591    
 O    0.00000000      -0.00000000       16.4794807    
 O    1.28549004       2.07731009       17.7368603    
 O    1.98493004       3.81360006       17.7660694    
 O    3.13889003       5.28748989       17.7368603    
 O    4.29513979       7.43941021       16.4794807    
 O    5.58062983       9.51671028       17.7368603    
 O    6.28007984       11.2530098       17.7660694    
 O    7.43403006       12.7268896       17.7368603    
 O    2.44174004       7.46100023E-02   17.7368603    
 O    3.44910002       1.99134004       19.2426891    
 O    4.29513979       3.45672989       19.2426891    
 O    5.45139980       5.28748989       17.7368603    
 O    6.73688984       7.51401997       17.7368603    
 O    7.74424982       9.43074989       19.2426891    
 O    8.59029007       10.8961296       19.2426891    
 O    9.74654007       12.7268896       17.7368603    
 O    4.29513979     -0.187800005       17.7660694    
 O    5.14118004       1.99134004       19.2426891    
 O    6.60535002       3.81360006       17.7660694    
 O    7.30462980       5.70187998       15.9638596    
 O    8.59029007       7.25160980       17.7660694    
 O    9.43632984       9.43074989       19.2426891    
 O    10.9005003       11.2530098       17.7660694    
 O    11.5997696       13.1412802       15.9638596    
 O    6.14854002       7.46100023E-02   17.7368603    
 O    7.30480003       2.07731009       17.7368603    
 O    8.59029007       3.47504997       15.9638596    
 O    9.87594032       5.70187998       15.9638596    
 O    10.4436903       7.51401997       17.7368603    
 O    11.5999403       9.51671028       17.7368603    
 O    12.8854303       10.9144602       15.9638596    
 O    14.1710901       13.1412802       15.9638596    
 O    8.59029007      -0.00000000       16.4794807    
 O    9.87576962       2.07731009       17.7368603    
 O    10.5752201       3.81360006       17.7660694    
 O    11.7291698       5.28748989       17.7368603    
 O    12.8854303       7.43941021       16.4794807    
 O    14.1709204       9.51671028       17.7368603    
 O    14.8703604       11.2530098       17.7660694    
 O    16.0243206       12.7268896       17.7368603    
 O    11.0320301       7.46100023E-02   17.7368603    
 O    12.0393896       1.99134004       19.2426891    
 O    12.8854303       3.45672989       19.2426891    
 O    14.0416899       5.28748989       17.7368603    
 O    15.3271704       7.51401997       17.7368603    
 O    16.3345299       9.43074989       19.2426891    
 O    17.1805706       10.8961296       19.2426891    
 O    18.3368301       12.7268896       17.7368603    
 O    12.8854303     -0.187800005       17.7660694    
 O    13.7314701       1.99134004       19.2426891    
 O    15.1956396       3.81360006       17.7660694    
 O    15.8949203       5.70187998       15.9638596    
 O    17.1805706       7.25160980       17.7660694    
 O    18.0266094       9.43074989       19.2426891    
 O    19.4907799       11.2530098       17.7660694    
 O    20.1900597       13.1412802       15.9638596    
 O    14.7388296       7.46100023E-02   17.7368603    
 O    15.8950901       2.07731009       17.7368603    
 O    17.1805706       3.47504997       15.9638596    
 O    18.4662304       5.70187998       15.9638596    
 O    19.0339699       7.51401997       17.7368603    
 O    20.1902294       9.51671028       17.7368603    
 O    21.4757195       10.9144602       15.9638596    
 O    22.7613697       13.1412802       15.9638596    
         388
 Energy:  -1559.7900866000000      en  -1468.4129166000000      edisp  -91.377170000000007      config: Al-slab-Olayer2
 X   0.00000000       0.00000000       0.00000000    
 X   17.1805725       0.00000000       0.00000000    
 X   8.59028721       14.8788118       0.00000000    
 X   0.00000000       0.00000000       37.5999985    
 X   25.7708588       14.8788118       0.00000000    
 X   17.1805725       0.00000000       37.5999985    
 X   8.59028721       14.8788118       37.5999985    
 X   25.7708588       14.8788118       37.5999985    
 Al   11.4562197       6.61425018       2.52386999    
 Al   14.3116703       11.5755701       2.54027009    
 Al   8.59029007       1.65031004       2.52386999    
 Al   17.1805706       6.60649014       2.54027009    
 Al   20.0494709       11.5755701       2.54027009    
 Al   14.3281002       1.64688003       2.52990007    
 Al   5.72434998       6.61425018       2.52386999    
 Al   8.59029007       11.5850601       2.52990007    
 Al   2.85246992       1.64688003       2.52990007    
 Al   14.3157196       8.26517963       4.83138990    
 Al   17.1805706       13.2272596       4.83138990    
 Al   11.4558897       3.30515003       4.82508993    
 Al   20.0454292       8.26517963       4.83138990    
 Al   22.9205093       13.2331600       4.84596014    
 Al   17.1805706       3.29130006       4.84596014    
 Al   8.59029007       8.26850986       4.82508993    
 Al   11.4406404       13.2331600       4.84596014    
 Al   5.72468996       3.30515003       4.82508993    
 Al   17.1805706       9.91921043       7.06194019    
 Al   11.4430103       1.75800007E-02   7.04496002    
 Al   14.2965698       4.96009016       7.04496002    
 Al   5.73672009       9.90114975       7.04496002    
 Al  -0.00000000      -0.00000000       7.05191994    
 Al   2.88400006       4.96009016       7.04496002    
 Al   11.4438496       9.90114975       7.04496002    
 Al   5.73756981       1.75800007E-02   7.04496002    
 Al   8.59027958       4.95959997       7.02528000    
 Al   20.0516701       11.5768404       9.18159962    
 Al   14.3235502       1.64950001       9.24176025    
 Al   17.1805706       6.60395002       9.18159962    
 Al   8.59029007       11.5798101       9.24176025    
 Al   2.85701990       1.64950001       9.24176025    
 Al   5.72129011       6.61602020       9.25321007    
 Al   14.3094797       11.5768404       9.18159962    
 Al   8.59027958       1.64677000       9.25321007    
 Al   11.4592800       6.61602020       9.25321007    
 Al   22.8879299       13.2143497       11.4654703    
 Al   17.1805706       3.32891989       11.4654703    
 Al   20.0518494       8.26146984       11.4693003    
 Al   11.4732103       13.2143497       11.4654703    
 Al   5.79881001       3.34794998       11.3925896    
 Al   8.59027958       8.18292046       11.3925896    
 Al   17.1805706       13.2346802       11.4693003    
 Al   11.3817596       3.34794998       11.3925896    
 Al   14.3092899       8.26146984       11.4693003    
 Al  -0.00000000      -0.00000000       13.7858601    
 Al   2.83552003       4.99172020       13.7123003    
 Al   5.68508005       9.92731953       13.7123003    
 Al   5.74071980      -4.02299985E-02   13.7123003    
 Al   8.59027958       4.95959997       14.0467396    
 Al   11.4954901       9.92731953       13.7123003    
 Al   11.4398499      -4.02299985E-02   13.7123003    
 Al   14.3450603       4.99172020       13.7123003    
 Al   17.1805706       9.91921043       13.3999596    
 Al   2.90741992       1.67859995       15.6543999    
 Al   5.87094021       6.52962017       16.3815308    
 Al   8.59029007       11.5216103       15.6543999    
 Al   8.59027958       1.81956995       16.3815308    
 Al   11.3096304       6.52962017       16.3815308    
 Al   14.6715803       11.3677797       16.4001007    
 Al   14.2731504       1.67859995       15.6543999    
 Al   17.1805801       7.02206993       16.4001007    
 Al   19.6895695       11.3677797       16.4001007    
 Al   7.16404009       4.13615990       2.54027009    
 Al   10.0329504       9.08627987       2.52990007    
 Al   12.8854303       14.0458899       2.54027009    
 Al   12.8854303       4.14564991       2.52990007    
 Al   15.7379103       9.08627987       2.52990007    
 Al   18.6097794       14.0536604       2.52386999    
 Al   18.6068096       4.13615990       2.54027009    
 Al   21.4757195       9.08971977       2.52386999    
 Al   24.3416500       14.0536604       2.52386999    
 Al   10.0350800       5.79375982       4.84596014    
 Al   12.8854303       10.7307100       4.84596014    
 Al   7.15999985      0.825779974       4.83138990    
 Al   15.7357798       5.79375982       4.84596014    
 Al   18.6101208       10.7445602       4.82508993    
 Al   12.8854303      0.829110026       4.82508993    
 Al   4.29513979       5.78784990       4.83138990    
 Al   7.16073990       10.7445602       4.82508993    
 Al   1.43027997      0.825779974       4.83138990    
 Al   12.8854303       7.43941021       7.05191994    
 Al   15.7694302       12.3994999       7.04496002    
 Al   10.0318699       2.46174002       7.04496002    
 Al   18.6229992       7.45698023       7.04496002    
 Al   21.4757195       12.3990097       7.02528000    
 Al   15.7389898       2.46174002       7.04496002    
 Al   7.14786005       7.45698023       7.04496002    
 Al   10.0014296       12.3994999       7.04496002    
 Al   4.29513979       2.47979999       7.06194019    
 Al   15.7424498       9.08891010       9.24176025    
 Al   18.6067200       14.0554304       9.25321007    
 Al   12.8854303       4.14039993       9.24176025    
 Al   21.4757195       9.08617973       9.25321007    
 Al   24.3447094       14.0554304       9.25321007    
 Al   18.6046200       4.13743019       9.18159962    
 Al   10.0284100       9.08891010       9.24176025    
 Al   12.8854303       14.0433598       9.18159962    
 Al   7.16624022       4.13743019       9.18159962    
 Al   18.6842403       10.7873497       11.3925896    
 Al   12.8854303      0.743520021       11.3925896    
 Al   15.7683496       5.77495003       11.4654703    
 Al   7.08661985       10.7873497       11.3925896    
 Al   1.42385995      0.822070003       11.4693003    
 Al   4.29513979       5.79526997       11.4693003    
 Al   12.8854303       10.7683201       11.4654703    
 Al   7.16641998      0.822070003       11.4693003    
 Al   10.0025101       5.77495003       11.4654703    
 Al   21.4757195       12.3990097       14.0467396    
 Al   15.7906303       2.48792005       13.7123003    
 Al   18.6261501       7.39916992       13.7123003    
 Al   10.0499096       12.4311304       13.7123003    
 Al   4.29513979       2.47979999       13.3999596    
 Al   7.14471006       7.39916992       13.7123003    
 Al   15.7209501       12.4311304       13.7123003    
 Al   9.98023033       2.48792005       13.7123003    
 Al   12.8854303       7.43941021       13.7858601    
 Al   24.1950607       13.9690304       16.3815308    
 Al   18.9667206       3.92837000       16.4001007    
 Al   21.4757195       9.25897980       16.3815308    
 Al   12.8854303       14.4614801       16.4001007    
 Al   6.80414009       3.92837000       16.4001007    
 Al   9.97801018       9.11800957       15.6543999    
 Al   18.7563705       13.9690304       16.3815308    
 Al   12.8854303       4.08220005       15.6543999    
 Al   15.7928495       9.11800957       15.6543999    
 Al   8.59029007       6.60649014       2.54027009    
 Al   11.4591904       11.5755701       2.54027009    
 Al   5.73781013       1.64688003       2.52990007    
 Al   14.3146400       6.61425018       2.52386999    
 Al   17.1805706       11.5850601       2.52990007    
 Al   11.4427605       1.64688003       2.52990007    
 Al   20.0465107       6.61425018       2.52386999    
 Al   22.9019604       11.5755701       2.54027009    
 Al   17.1805706       1.65031004       2.52386999    
 Al   11.4551401       8.26517963       4.83138990    
 Al   14.3302202       13.2331600       4.84596014    
 Al   8.59029007       3.29130006       4.84596014    
 Al   17.1805706       8.26850986       4.82508993    
 Al   20.0309200       13.2331600       4.84596014    
 Al   14.3149700       3.30515003       4.82508993    
 Al   5.72543001       8.26517963       4.83138990    
 Al   8.59029007       13.2272596       4.83138990    
 Al   2.86560011       3.30515003       4.82508993    
 Al   14.3270102       9.90114975       7.04496002    
 Al   8.59029007      -0.00000000       7.05191994    
 Al   11.4742899       4.96009016       7.04496002    
 Al   20.0341396       9.90114975       7.04496002    
 Al   14.3278503       1.75800007E-02   7.04496002    
 Al   17.1805706       4.95959997       7.02528000    
 Al   8.59029007       9.91921043       7.06194019    
 Al   2.85272002       1.75800007E-02   7.04496002    
 Al   5.70628023       4.96009016       7.04496002    
 Al   17.1805706       11.5798101       9.24176025    
 Al   11.4473104       1.64950001       9.24176025    
 Al   14.3115702       6.61602020       9.25321007    
 Al   22.8997593       11.5768404       9.18159962    
 Al   17.1805706       1.64677000       9.25321007    
 Al   20.0495701       6.61602020       9.25321007    
 Al   11.4613800       11.5768404       9.18159962    
 Al   5.73326015       1.64950001       9.24176025    
 Al   8.59027958       6.60395002       9.18159962    
 Al   20.0634995       13.2143497       11.4654703    
 Al   14.3891001       3.34794998       11.3925896    
 Al   17.1805706       8.18292046       11.3925896    
 Al   8.59029007       13.2346802       11.4693003    
 Al   2.79148006       3.34794998       11.3925896    
 Al   5.71900988       8.26146984       11.4693003    
 Al   14.2976503       13.2143497       11.4654703    
 Al   8.59027958       3.32891989       11.4654703    
 Al   11.4615698       8.26146984       11.4693003    
 Al   14.3310003      -4.02299985E-02   13.7123003    
 Al   17.1805706       4.95959997       14.0467396    
 Al   20.0857792       9.92731953       13.7123003    
 Al   2.84957004      -4.02299985E-02   13.7123003    
 Al   5.75476980       4.99172020       13.7123003    
 Al   8.59029007       9.91921043       13.3999596    
 Al   8.59027958      -0.00000000       13.7858601    
 Al   11.4258003       4.99172020       13.7123003    
 Al   14.2753696       9.92731953       13.7123003    
 Al   17.1805706       1.81956995       16.3815308    
 Al   19.8999195       6.52962017       16.3815308    
 Al   23.2618694       11.3677797       16.4001007    
 Al   5.68285990       1.67859995       15.6543999    
 Al   8.59027958       7.02206993       16.4001007    
 Al   11.0992804       11.3677797       16.4001007    
 Al   11.4977102       1.67859995       15.6543999    
 Al   14.4612303       6.52962017       16.3815308    
 Al   17.1805706       11.5216103       15.6543999    
 Al   10.0165300       4.13615990       2.54027009    
 Al   12.8854303       9.08971977       2.52386999    
 Al   15.7513599       14.0536604       2.52386999    
 Al   15.7543297       4.13615990       2.54027009    
 Al   18.6232395       9.08627987       2.52990007    
 Al   21.4757195       14.0458899       2.54027009    
 Al   4.29513979       4.14564991       2.52990007    
 Al   7.14762020       9.08627987       2.52990007    
 Al   10.0194998       14.0536604       2.52386999    
 Al   12.8854303       5.78784990       4.83138990    
 Al   15.7510300       10.7445602       4.82508993    
 Al   10.0205698      0.825779974       4.83138990    
 Al   18.6253605       5.79375982       4.84596014    
 Al   21.4757195       10.7307100       4.84596014    
 Al   15.7502899      0.825779974       4.83138990    
 Al   7.14549017       5.79375982       4.84596014    
 Al   10.0198298       10.7445602       4.82508993    
 Al   4.29513979      0.829110026       4.82508993    
 Al   15.7381496       7.45698023       7.04496002    