 254 254   0   0
  0.3019211E+02  0.1718057E-08  0.1718057E-08  0.3000000E-08  0.5000000E-15
   1.0000000000000000E-004
  CAR 
 NiAl                                    
      6.04166973    -34.68314520  301      1.83845837      1.00000000
    -34.683  0.0000E+00  0.0000E+00
    -34.547  0.0000E+00  0.0000E+00
    -34.412  0.0000E+00  0.0000E+00
    -34.276  0.0000E+00  0.0000E+00
    -34.140  0.0000E+00  0.0000E+00
    -34.004  0.0000E+00  0.0000E+00
    -33.869  0.0000E+00  0.0000E+00
    -33.733  0.0000E+00  0.0000E+00
    -33.597  0.0000E+00  0.0000E+00
    -33.461  0.0000E+00  0.0000E+00
    -33.326  0.0000E+00  0.0000E+00
    -33.190  0.0000E+00  0.0000E+00
    -33.054  0.2123E-08  0.2883E-09
    -32.918  0.1007E+00  0.1367E-01
    -32.783  0.1338E+02  0.1830E+01
    -32.647  0.1249E+01  0.2000E+01
    -32.511  0.1370E-05  0.2000E+01
    -32.375  0.0000E+00  0.2000E+01
    -32.240  0.0000E+00  0.2000E+01
    -32.104  0.0000E+00  0.2000E+01
    -31.968  0.0000E+00  0.2000E+01
    -31.832  0.0000E+00  0.2000E+01
    -31.697  0.0000E+00  0.2000E+01
    -31.561  0.0000E+00  0.2000E+01
    -31.425  0.0000E+00  0.2000E+01
    -31.289  0.0000E+00  0.2000E+01
    -31.154  0.0000E+00  0.2000E+01
    -31.018  0.0000E+00  0.2000E+01
    -30.882  0.0000E+00  0.2000E+01
    -30.746  0.0000E+00  0.2000E+01
    -30.611  0.0000E+00  0.2000E+01
    -30.475  0.0000E+00  0.2000E+01
    -30.339  0.0000E+00  0.2000E+01
    -30.203  0.0000E+00  0.2000E+01
    -30.068  0.0000E+00  0.2000E+01
    -29.932  0.0000E+00  0.2000E+01
    -29.796  0.0000E+00  0.2000E+01
    -29.660  0.0000E+00  0.2000E+01
    -29.525  0.0000E+00  0.2000E+01
    -29.389  0.0000E+00  0.2000E+01
    -29.253  0.0000E+00  0.2000E+01
    -29.117  0.0000E+00  0.2000E+01
    -28.982  0.0000E+00  0.2000E+01
    -28.846  0.0000E+00  0.2000E+01
    -28.710  0.0000E+00  0.2000E+01
    -28.574  0.0000E+00  0.2000E+01
    -28.439  0.0000E+00  0.2000E+01
    -28.303  0.0000E+00  0.2000E+01
    -28.167  0.0000E+00  0.2000E+01
    -28.031  0.0000E+00  0.2000E+01
    -27.896  0.0000E+00  0.2000E+01
    -27.760  0.0000E+00  0.2000E+01
    -27.624  0.0000E+00  0.2000E+01
    -27.488  0.0000E+00  0.2000E+01
    -27.353  0.0000E+00  0.2000E+01
    -27.217  0.0000E+00  0.2000E+01
    -27.081  0.0000E+00  0.2000E+01
    -26.945  0.0000E+00  0.2000E+01
    -26.810  0.0000E+00  0.2000E+01
    -26.674  0.0000E+00  0.2000E+01
    -26.538  0.0000E+00  0.2000E+01
    -26.402  0.0000E+00  0.2000E+01
    -26.267  0.0000E+00  0.2000E+01
    -26.131  0.0000E+00  0.2000E+01
    -25.995  0.0000E+00  0.2000E+01
    -25.859  0.0000E+00  0.2000E+01
    -25.724  0.0000E+00  0.2000E+01
    -25.588  0.0000E+00  0.2000E+01
    -25.452  0.0000E+00  0.2000E+01
    -25.316  0.0000E+00  0.2000E+01
    -25.181  0.0000E+00  0.2000E+01
    -25.045  0.0000E+00  0.2000E+01
    -24.909  0.0000E+00  0.2000E+01
    -24.773  0.0000E+00  0.2000E+01
    -24.638  0.0000E+00  0.2000E+01
    -24.502  0.0000E+00  0.2000E+01
    -24.366  0.0000E+00  0.2000E+01
    -24.230  0.0000E+00  0.2000E+01
    -24.095  0.0000E+00  0.2000E+01
    -23.959  0.0000E+00  0.2000E+01
    -23.823  0.0000E+00  0.2000E+01
    -23.687  0.0000E+00  0.2000E+01
    -23.552  0.0000E+00  0.2000E+01
    -23.416  0.0000E+00  0.2000E+01
    -23.280  0.0000E+00  0.2000E+01
    -23.144  0.0000E+00  0.2000E+01
    -23.009  0.0000E+00  0.2000E+01
    -22.873  0.0000E+00  0.2000E+01
    -22.737  0.0000E+00  0.2000E+01
    -22.601  0.0000E+00  0.2000E+01
    -22.466  0.0000E+00  0.2000E+01
    -22.330  0.0000E+00  0.2000E+01
    -22.194  0.0000E+00  0.2000E+01
    -22.058  0.0000E+00  0.2000E+01
    -21.923  0.0000E+00  0.2000E+01
    -21.787  0.0000E+00  0.2000E+01
    -21.651  0.0000E+00  0.2000E+01
    -21.515  0.0000E+00  0.2000E+01
    -21.380  0.0000E+00  0.2000E+01
    -21.244  0.0000E+00  0.2000E+01
    -21.108  0.0000E+00  0.2000E+01
    -20.972  0.0000E+00  0.2000E+01
    -20.837  0.0000E+00  0.2000E+01
    -20.701  0.0000E+00  0.2000E+01
    -20.565  0.0000E+00  0.2000E+01
    -20.429  0.0000E+00  0.2000E+01
    -20.294  0.0000E+00  0.2000E+01
    -20.158  0.0000E+00  0.2000E+01
    -20.022  0.0000E+00  0.2000E+01
    -19.886  0.0000E+00  0.2000E+01
    -19.751  0.0000E+00  0.2000E+01
    -19.615  0.0000E+00  0.2000E+01
    -19.479  0.0000E+00  0.2000E+01
    -19.343  0.0000E+00  0.2000E+01
    -19.208  0.0000E+00  0.2000E+01
    -19.072  0.0000E+00  0.2000E+01
    -18.936  0.0000E+00  0.2000E+01
    -18.800  0.0000E+00  0.2000E+01
    -18.665  0.0000E+00  0.2000E+01
    -18.529  0.0000E+00  0.2000E+01
    -18.393  0.0000E+00  0.2000E+01
    -18.257  0.0000E+00  0.2000E+01
    -18.122  0.0000E+00  0.2000E+01
    -17.986  0.0000E+00  0.2000E+01
    -17.850  0.0000E+00  0.2000E+01
    -17.714  0.0000E+00  0.2000E+01
    -17.579  0.0000E+00  0.2000E+01
    -17.443  0.0000E+00  0.2000E+01
    -17.307  0.0000E+00  0.2000E+01
    -17.171  0.0000E+00  0.2000E+01
    -17.036  0.0000E+00  0.2000E+01
    -16.900  0.2393E-05  0.2000E+01
    -16.764  0.1506E+01  0.2204E+01
    -16.628  0.1315E+02  0.3990E+01
    -16.493  0.7478E-01  0.4000E+01
    -16.357  0.1071E-08  0.4000E+01
    -16.221  0.0000E+00  0.4000E+01
    -16.085  0.0000E+00  0.4000E+01
    -15.950  0.0000E+00  0.4000E+01
    -15.814  0.0000E+00  0.4000E+01
    -15.678  0.0000E+00  0.4000E+01
    -15.542  0.0000E+00  0.4000E+01
    -15.407  0.0000E+00  0.4000E+01
    -15.271  0.0000E+00  0.4000E+01
    -15.135  0.0000E+00  0.4000E+01
    -14.999  0.0000E+00  0.4000E+01
    -14.864  0.0000E+00  0.4000E+01
    -14.728  0.0000E+00  0.4000E+01
    -14.592  0.0000E+00  0.4000E+01
    -14.456  0.0000E+00  0.4000E+01
    -14.321  0.0000E+00  0.4000E+01
    -14.185  0.0000E+00  0.4000E+01
    -14.049  0.0000E+00  0.4000E+01
    -13.913  0.0000E+00  0.4000E+01
    -13.778  0.0000E+00  0.4000E+01
    -13.642  0.0000E+00  0.4000E+01
    -13.506  0.0000E+00  0.4000E+01
    -13.370  0.3374E-12  0.4000E+01
    -13.235  0.1558E-02  0.4000E+01
    -13.099  0.8147E+01  0.5106E+01
    -12.963  0.6584E+01  0.6000E+01
    -12.827  0.5255E-03  0.6000E+01
    -12.692  0.0000E+00  0.6000E+01
    -12.556  0.0000E+00  0.6000E+01
    -12.420  0.0000E+00  0.6000E+01
    -12.284  0.2395E-04  0.6000E+01
    -12.149  0.3054E+01  0.6415E+01
    -12.013  0.1166E+02  0.7997E+01
    -11.877  0.1845E-01  0.8000E+01
    -11.741  0.5024E-10  0.8000E+01
    -11.606  0.0000E+00  0.8000E+01
    -11.470  0.0000E+00  0.8000E+01
    -11.334  0.0000E+00  0.8000E+01
    -11.199  0.0000E+00  0.8000E+01
    -11.063  0.0000E+00  0.8000E+01
    -10.927  0.0000E+00  0.8000E+01
    -10.791  0.6254E-11  0.8000E+01
    -10.656  0.6756E-02  0.8001E+01
    -10.520  0.1030E+02  0.9399E+01
    -10.384  0.4425E+01  0.1000E+02
    -10.248  0.9506E-04  0.1000E+02
    -10.113  0.0000E+00  0.1000E+02
     -9.977  0.0000E+00  0.1000E+02
     -9.841  0.0000E+00  0.1000E+02
     -9.705  0.0000E+00  0.1000E+02
     -9.570  0.0000E+00  0.1000E+02
     -9.434  0.0000E+00  0.1000E+02
     -9.298  0.6189E-09  0.1000E+02
     -9.162  0.2693E-01  0.1000E+02
     -9.027  0.3368E+01  0.1046E+02
     -8.891  0.1577E+02  0.1260E+02
     -8.755  0.7102E+01  0.1357E+02
     -8.619  0.6427E+01  0.1444E+02
     -8.484  0.4051E+02  0.1994E+02
     -8.348  0.2169E+02  0.2288E+02
     -8.212  0.1349E+02  0.2471E+02
     -8.076  0.1682E+02  0.2700E+02
     -7.941  0.3021E+02  0.3110E+02
     -7.805  0.5409E+02  0.3844E+02
     -7.669  0.6910E+00  0.3854E+02
     -7.533  0.6863E+02  0.4785E+02
     -7.398  0.3049E+02  0.5199E+02
     -7.262  0.1524E+02  0.5406E+02
     -7.126  0.2574E+02  0.5755E+02
     -6.990  0.4112E+02  0.6314E+02
     -6.855  0.8055E+02  0.7407E+02
     -6.719  0.3502E+02  0.7882E+02
     -6.583  0.4948E+02  0.8554E+02
     -6.447  0.6118E+02  0.9385E+02
     -6.312  0.1585E+02  0.9600E+02
     -6.176  0.3025E+01  0.9641E+02
     -6.040  0.8449E+02  0.1079E+03
     -5.904  0.9089E+02  0.1202E+03
     -5.769  0.3264E+02  0.1246E+03
     -5.633  0.5051E+02  0.1315E+03
     -5.497  0.9276E+02  0.1441E+03
     -5.361  0.2407E+02  0.1474E+03
     -5.226  0.5647E+02  0.1550E+03
     -5.090  0.4882E+02  0.1617E+03
     -4.954  0.7841E+02  0.1723E+03
     -4.818  0.4219E+02  0.1780E+03
     -4.683  0.4490E+02  0.1841E+03
     -4.547  0.1053E+03  0.1984E+03
     -4.411  0.5457E+02  0.2058E+03
     -4.275  0.4655E+02  0.2122E+03
     -4.140  0.8283E+02  0.2234E+03
     -4.004  0.1047E+03  0.2376E+03
     -3.868  0.6109E+02  0.2459E+03
     -3.732  0.6874E+02  0.2552E+03
     -3.597  0.8203E+02  0.2664E+03
     -3.461  0.6214E+02  0.2748E+03
     -3.325  0.3254E+02  0.2792E+03
     -3.189  0.3919E+02  0.2845E+03
     -3.054  0.8413E+02  0.2960E+03
     -2.918  0.1041E+03  0.3101E+03
     -2.782  0.1191E+03  0.3263E+03
     -2.646  0.1600E+03  0.3480E+03
     -2.511  0.2340E+02  0.3512E+03
     -2.375  0.3045E+02  0.3553E+03
     -2.239  0.9625E+02  0.3684E+03
     -2.103  0.8915E+02  0.3805E+03
     -1.968  0.8001E+02  0.3913E+03
     -1.832  0.7442E+02  0.4014E+03
     -1.696  0.1316E+03  0.4193E+03
     -1.560  0.5751E+02  0.4271E+03
     -1.425  0.7797E+02  0.4377E+03
     -1.289  0.1055E+03  0.4520E+03
     -1.153  0.1224E+03  0.4686E+03
     -1.017  0.9402E+02  0.4814E+03
     -0.882  0.7518E+02  0.4916E+03
     -0.746  0.1242E+03  0.5084E+03
     -0.610  0.6927E+02  0.5178E+03
     -0.474  0.5240E+02  0.5250E+03
     -0.339  0.1704E+03  0.5481E+03
     -0.203  0.1070E+03  0.5626E+03
     -0.067  0.8641E+02  0.5743E+03
      0.069  0.5019E+02  0.5812E+03
      0.204  0.9489E+02  0.5940E+03
      0.340  0.9158E+02  0.6065E+03
      0.476  0.7988E+02  0.6173E+03
      0.612  0.1256E+03  0.6344E+03
      0.747  0.6521E+02  0.6432E+03
      0.883  0.4687E+02  0.6496E+03
      1.019  0.1531E+03  0.6704E+03
      1.155  0.1722E+03  0.6937E+03
      1.290  0.9137E+02  0.7061E+03
      1.426  0.6695E+02  0.7152E+03
      1.562  0.9895E+02  0.7286E+03
      1.698  0.1643E+03  0.7509E+03
      1.833  0.1237E+03  0.7677E+03
      1.969  0.5362E+02  0.7750E+03
      2.105  0.1434E+03  0.7945E+03
      2.241  0.8147E+02  0.8055E+03
      2.376  0.7146E+02  0.8152E+03
      2.512  0.9740E+02  0.8285E+03
      2.648  0.1065E+03  0.8429E+03
      2.784  0.1026E+03  0.8568E+03
      2.919  0.9227E+02  0.8694E+03
      3.055  0.2663E+03  0.9055E+03
      3.191  0.9230E+02  0.9180E+03
      3.327  0.9157E+02  0.9305E+03
      3.462  0.1312E+03  0.9483E+03
      3.598  0.1172E+03  0.9642E+03
      3.734  0.9518E+02  0.9771E+03
      3.870  0.8113E+02  0.9881E+03
      4.005  0.1349E+03  0.1006E+04
      4.141  0.1127E+03  0.1022E+04
      4.277  0.1655E+02  0.1024E+04
      4.413  0.5531E-01  0.1024E+04
      4.548  0.9618E-09  0.1024E+04
      4.684  0.0000E+00  0.1024E+04
      4.820  0.0000E+00  0.1024E+04
      4.956  0.0000E+00  0.1024E+04
      5.091  0.0000E+00  0.1024E+04
      5.227  0.0000E+00  0.1024E+04
      5.363  0.0000E+00  0.1024E+04
      5.499  0.0000E+00  0.1024E+04
      5.634  0.0000E+00  0.1024E+04
      5.770  0.0000E+00  0.1024E+04
      5.906  0.0000E+00  0.1024E+04
      6.042  0.0000E+00  0.1024E+04
