ITEM: TIMESTEP
0
ITEM: NUMBER OF ATOMS
2
ITEM: BOX BOUNDS pp pp pp
0.0000000000000000e+00 1.4500000000000000e+01
0.0000000000000000e+00 1.4500000000000000e+01
0.0000000000000000e+00 1.4500000000000000e+01
ITEM: ATOMS id type xs ys zs
1 1 0 0 0
2 1 0.0517241 0 0
ITEM: TIMESTEP
10
ITEM: NUMBER OF ATOMS
2
ITEM: BOX BOUNDS pp pp pp
0.0000000000000000e+00 1.4500000000000000e+01
0.0000000000000000e+00 1.4500000000000000e+01
0.0000000000000000e+00 1.4500000000000000e+01
ITEM: ATOMS id type xs ys zs
1 1 -0.0108451 -0.00090914 0.00121598
2 1 0.0625692 0.00090914 -0.00121598
ITEM: TIMESTEP
20
ITEM: NUMBER OF ATOMS
2
ITEM: BOX BOUNDS pp pp pp
0.0000000000000000e+00 1.4500000000000000e+01
0.0000000000000000e+00 1.4500000000000000e+01
0.0000000000000000e+00 1.4500000000000000e+01
ITEM: ATOMS id type xs ys zs
1 1 -0.0300724 -0.00196431 0.00262727
2 1 0.0817966 0.00196431 -0.00262727
ITEM: TIMESTEP
30
ITEM: NUMBER OF ATOMS
2
ITEM: BOX BOUNDS pp pp pp
0.0000000000000000e+00 1.4500000000000000e+01
0.0000000000000000e+00 1.4500000000000000e+01
0.0000000000000000e+00 1.4500000000000000e+01
ITEM: ATOMS id type xs ys zs
1 1 -0.041273 -0.0027254 0.00364524
2 1 0.0929971 0.0027254 -0.00364524
ITEM: TIMESTEP
40
ITEM: NUMBER OF ATOMS
2
ITEM: BOX BOUNDS pp pp pp
0.0000000000000000e+00 1.4500000000000000e+01
0.0000000000000000e+00 1.4500000000000000e+01
0.0000000000000000e+00 1.4500000000000000e+01
ITEM: ATOMS id type xs ys zs
1 1 -0.037865 -0.0028929 0.00386927
2 1 0.0895892 0.0028929 -0.00386927
ITEM: TIMESTEP
50
ITEM: NUMBER OF ATOMS
2
ITEM: BOX BOUNDS pp pp pp
0.0000000000000000e+00 1.4500000000000000e+01
0.0000000000000000e+00 1.4500000000000000e+01
0.0000000000000000e+00 1.4500000000000000e+01
ITEM: ATOMS id type xs ys zs
1 1 -0.0214763 -0.00247453 0.0033097
2 1 0.0732004 0.00247453 -0.0033097
ITEM: TIMESTEP
60
ITEM: NUMBER OF ATOMS
2
ITEM: BOX BOUNDS pp pp pp
0.0000000000000000e+00 1.4500000000000000e+01
0.0000000000000000e+00 1.4500000000000000e+01
0.0000000000000000e+00 1.4500000000000000e+01
ITEM: ATOMS id type xs ys zs
1 1 -0.00362932 -0.00200787 0.00268553
2 1 0.0553535 0.00200787 -0.00268553
ITEM: TIMESTEP
70
ITEM: NUMBER OF ATOMS
2
ITEM: BOX BOUNDS pp pp pp
0.0000000000000000e+00 1.4500000000000000e+01
0.0000000000000000e+00 1.4500000000000000e+01
0.0000000000000000e+00 1.4500000000000000e+01
ITEM: ATOMS id type xs ys zs
1 1 -0.00150975 -0.0026892 0.00359681
2 1 0.0532339 0.0026892 -0.00359681
ITEM: TIMESTEP
80
ITEM: NUMBER OF ATOMS
2
ITEM: BOX BOUNDS pp pp pp
0.0000000000000000e+00 1.4500000000000000e+01
0.0000000000000000e+00 1.4500000000000000e+01
0.0000000000000000e+00 1.4500000000000000e+01
ITEM: ATOMS id type xs ys zs
1 1 -0.0172108 -0.0050541 0.00675989
2 1 0.0689349 0.0050541 -0.00675989
ITEM: TIMESTEP
90
ITEM: NUMBER OF ATOMS
2
ITEM: BOX BOUNDS pp pp pp
0.0000000000000000e+00 1.4500000000000000e+01
0.0000000000000000e+00 1.4500000000000000e+01
0.0000000000000000e+00 1.4500000000000000e+01
ITEM: ATOMS id type xs ys zs
1 1 -0.0345374 -0.00757152 0.0101269
2 1 0.0862615 0.00757152 -0.0101269
ITEM: TIMESTEP
100
ITEM: NUMBER OF ATOMS
2
ITEM: BOX BOUNDS pp pp pp
0.0000000000000000e+00 1.4500000000000000e+01
0.0000000000000000e+00 1.4500000000000000e+01
0.0000000000000000e+00 1.4500000000000000e+01
ITEM: ATOMS id type xs ys zs
1 1 -0.0403648 -0.00864179 0.0115584
2 1 0.0920889 0.00864179 -0.0115584
ITEM: TIMESTEP
110
ITEM: NUMBER OF ATOMS
2
ITEM: BOX BOUNDS pp pp pp
0.0000000000000000e+00 1.4500000000000000e+01
0.0000000000000000e+00 1.4500000000000000e+01
0.0000000000000000e+00 1.4500000000000000e+01
ITEM: ATOMS id type xs ys zs
1 1 -0.0316614 -0.00781612 0.0104541
2 1 0.0833855 0.00781612 -0.0104541
ITEM: TIMESTEP
120
ITEM: NUMBER OF ATOMS
2
ITEM: BOX BOUNDS pp pp pp
0.0000000000000000e+00 1.4500000000000000e+01
0.0000000000000000e+00 1.4500000000000000e+01
0.0000000000000000e+00 1.4500000000000000e+01
ITEM: ATOMS id type xs ys zs
1 1 -0.0131645 -0.00566837 0.00758146
2 1 0.0648886 0.00566837 -0.00758146
ITEM: TIMESTEP
130
ITEM: NUMBER OF ATOMS
2
ITEM: BOX BOUNDS pp pp pp
0.0000000000000000e+00 1.4500000000000000e+01
0.0000000000000000e+00 1.4500000000000000e+01
0.0000000000000000e+00 1.4500000000000000e+01
ITEM: ATOMS id type xs ys zs
1 1 0.000442549 -0.00428176 0.00572687
2 1 0.0512816 0.00428176 -0.00572687
ITEM: TIMESTEP
140
ITEM: NUMBER OF ATOMS
2
ITEM: BOX BOUNDS pp pp pp
0.0000000000000000e+00 1.4500000000000000e+01
0.0000000000000000e+00 1.4500000000000000e+01
0.0000000000000000e+00 1.4500000000000000e+01
ITEM: ATOMS id type xs ys zs
1 1 -0.00478483 -0.00611105 0.00817355
2 1 0.056509 0.00611105 -0.00817355
ITEM: TIMESTEP
150
ITEM: NUMBER OF ATOMS
2
ITEM: BOX BOUNDS pp pp pp
0.0000000000000000e+00 1.4500000000000000e+01
0.0000000000000000e+00 1.4500000000000000e+01
0.0000000000000000e+00 1.4500000000000000e+01
ITEM: ATOMS id type xs ys zs
1 1 -0.0223697 -0.010325 0.0138097
2 1 0.0740938 0.010325 -0.0138097
ITEM: TIMESTEP
160
ITEM: NUMBER OF ATOMS
2
ITEM: BOX BOUNDS pp pp pp
0.0000000000000000e+00 1.4500000000000000e+01
0.0000000000000000e+00 1.4500000000000000e+01
0.0000000000000000e+00 1.4500000000000000e+01
ITEM: ATOMS id type xs ys zs
1 1 -0.0357725 -0.0136225 0.0182202
2 1 0.0874966 0.0136225 -0.0182202
ITEM: TIMESTEP
170
ITEM: NUMBER OF ATOMS
2
ITEM: BOX BOUNDS pp pp pp
0.0000000000000000e+00 1.4500000000000000e+01
0.0000000000000000e+00 1.4500000000000000e+01
0.0000000000000000e+00 1.4500000000000000e+01
ITEM: ATOMS id type xs ys zs
1 1 -0.0361113 -0.0140307 0.0187661
2 1 0.0878355 0.0140307 -0.0187661
ITEM: TIMESTEP
180
ITEM: NUMBER OF ATOMS
2
ITEM: BOX BOUNDS pp pp pp
0.0000000000000000e+00 1.4500000000000000e+01
0.0000000000000000e+00 1.4500000000000000e+01
0.0000000000000000e+00 1.4500000000000000e+01
ITEM: ATOMS id type xs ys zs
1 1 -0.0231828 -0.0114366 0.0152965
2 1 0.0749069 0.0114366 -0.0152965
ITEM: TIMESTEP
190
ITEM: NUMBER OF ATOMS
2
ITEM: BOX BOUNDS pp pp pp
0.0000000000000000e+00 1.4500000000000000e+01
0.0000000000000000e+00 1.4500000000000000e+01
0.0000000000000000e+00 1.4500000000000000e+01
ITEM: ATOMS id type xs ys zs
1 1 -0.00507589 -0.00765368 0.0102368
2 1 0.0568 0.00765368 -0.0102368
ITEM: TIMESTEP
200
ITEM: NUMBER OF ATOMS
2
ITEM: BOX BOUNDS pp pp pp
0.0000000000000000e+00 1.4500000000000000e+01
0.0000000000000000e+00 1.4500000000000000e+01
0.0000000000000000e+00 1.4500000000000000e+01
ITEM: ATOMS id type xs ys zs
1 1 0.0022282 -0.00662157 0.00885638
2 1 0.0494959 0.00662157 -0.00885638
ITEM: TIMESTEP
210
ITEM: NUMBER OF ATOMS
2
ITEM: BOX BOUNDS pp pp pp
0.0000000000000000e+00 1.4500000000000000e+01
0.0000000000000000e+00 1.4500000000000000e+01
0.0000000000000000e+00 1.4500000000000000e+01
ITEM: ATOMS id type xs ys zs
1 1 -0.00856058 -0.0106268 0.0142134
2 1 0.0602847 0.0106268 -0.0142134
ITEM: TIMESTEP
220
ITEM: NUMBER OF ATOMS
2
ITEM: BOX BOUNDS pp pp pp
0.0000000000000000e+00 1.4500000000000000e+01
0.0000000000000000e+00 1.4500000000000000e+01
0.0000000000000000e+00 1.4500000000000000e+01
ITEM: ATOMS id type xs ys zs
1 1 -0.0250984 -0.0163457 0.0218624
2 1 0.0768226 0.0163457 -0.0218624
ITEM: TIMESTEP
230
ITEM: NUMBER OF ATOMS
2
ITEM: BOX BOUNDS pp pp pp
0.0000000000000000e+00 1.4500000000000000e+01
0.0000000000000000e+00 1.4500000000000000e+01
0.0000000000000000e+00 1.4500000000000000e+01
ITEM: ATOMS id type xs ys zs
1 1 -0.0334774 -0.0194363 0.0259962
2 1 0.0852015 0.0194363 -0.0259962
ITEM: TIMESTEP
240
ITEM: NUMBER OF ATOMS
2
ITEM: BOX BOUNDS pp pp pp
0.0000000000000000e+00 1.4500000000000000e+01
0.0000000000000000e+00 1.4500000000000000e+01
0.0000000000000000e+00 1.4500000000000000e+01
ITEM: ATOMS id type xs ys zs
1 1 -0.0288696 -0.018273 0.0244402
2 1 0.0805938 0.018273 -0.0244402
ITEM: TIMESTEP
250
ITEM: NUMBER OF ATOMS
2
ITEM: BOX BOUNDS pp pp pp
0.0000000000000000e+00 1.4500000000000000e+01
0.0000000000000000e+00 1.4500000000000000e+01
0.0000000000000000e+00 1.4500000000000000e+01
ITEM: ATOMS id type xs ys zs
1 1 -0.0135001 -0.0135219 0.0180856
2 1 0.0652242 0.0135219 -0.0180856
ITEM: TIMESTEP
260
ITEM: NUMBER OF ATOMS
2
ITEM: BOX BOUNDS pp pp pp
0.0000000000000000e+00 1.4500000000000000e+01
0.0000000000000000e+00 1.4500000000000000e+01
0.0000000000000000e+00 1.4500000000000000e+01
ITEM: ATOMS id type xs ys zs
1 1 0.0015947 -0.00890356 0.0119085
2 1 0.0501294 0.00890356 -0.0119085
ITEM: TIMESTEP
270
ITEM: NUMBER OF ATOMS
2
ITEM: BOX BOUNDS pp pp pp
0.0000000000000000e+00 1.4500000000000000e+01
0.0000000000000000e+00 1.4500000000000000e+01
0.0000000000000000e+00 1.4500000000000000e+01
ITEM: ATOMS id type xs ys zs
1 1 0.00207278 -0.00973266 0.0130175
2 1 0.0496514 0.00973266 -0.0130175
ITEM: TIMESTEP
280
ITEM: NUMBER OF ATOMS
2
ITEM: BOX BOUNDS pp pp pp
0.0000000000000000e+00 1.4500000000000000e+01
0.0000000000000000e+00 1.4500000000000000e+01
0.0000000000000000e+00 1.4500000000000000e+01
ITEM: ATOMS id type xs ys zs
1 1 -0.0114056 -0.016182 0.0216435
2 1 0.0631298 0.016182 -0.0216435
ITEM: TIMESTEP
290
ITEM: NUMBER OF ATOMS
2
ITEM: BOX BOUNDS pp pp pp
0.0000000000000000e+00 1.4500000000000000e+01
0.0000000000000000e+00 1.4500000000000000e+01
0.0000000000000000e+00 1.4500000000000000e+01
ITEM: ATOMS id type xs ys zs
1 1 -0.0247442 -0.0225316 0.0301361
2 1 0.0764684 0.0225316 -0.0301361
ITEM: TIMESTEP
300
ITEM: NUMBER OF ATOMS
2
ITEM: BOX BOUNDS pp pp pp
0.0000000000000000e+00 1.4500000000000000e+01
0.0000000000000000e+00 1.4500000000000000e+01
0.0000000000000000e+00 1.4500000000000000e+01
ITEM: ATOMS id type xs ys zs
1 1 -0.0280194 -0.0243954 0.032629
2 1 0.0797435 0.0243954 -0.032629
ITEM: TIMESTEP
310
ITEM: NUMBER OF ATOMS
2
ITEM: BOX BOUNDS pp pp pp
0.0000000000000000e+00 1.4500000000000000e+01
0.0000000000000000e+00 1.4500000000000000e+01
0.0000000000000000e+00 1.4500000000000000e+01
ITEM: ATOMS id type xs ys zs
1 1 -0.01952 -0.0209287 0.0279922
2 1 0.0712442 0.0209287 -0.0279922
ITEM: TIMESTEP
320
ITEM: NUMBER OF ATOMS
2
ITEM: BOX BOUNDS pp pp pp
0.0000000000000000e+00 1.4500000000000000e+01
0.0000000000000000e+00 1.4500000000000000e+01
0.0000000000000000e+00 1.4500000000000000e+01
ITEM: ATOMS id type xs ys zs
1 1 -0.00395437 -0.0142164 0.0190145
2 1 0.0556785 0.0142164 -0.0190145
ITEM: TIMESTEP
330
ITEM: NUMBER OF ATOMS
2
ITEM: BOX BOUNDS pp pp pp
0.0000000000000000e+00 1.4500000000000000e+01
0.0000000000000000e+00 1.4500000000000000e+01
0.0000000000000000e+00 1.4500000000000000e+01
ITEM: ATOMS id type xs ys zs
1 1 0.0061779 -0.0101672 0.0135987
2 1 0.0455462 0.0101672 -0.0135987
ITEM: TIMESTEP
340
ITEM: NUMBER OF ATOMS
2
ITEM: BOX BOUNDS pp pp pp
0.0000000000000000e+00 1.4500000000000000e+01
0.0000000000000000e+00 1.4500000000000000e+01
0.0000000000000000e+00 1.4500000000000000e+01
ITEM: ATOMS id type xs ys zs
1 1 0.00113927 -0.0139839 0.0187036
2 1 0.0505849 0.0139839 -0.0187036
ITEM: TIMESTEP
350
ITEM: NUMBER OF ATOMS
2
ITEM: BOX BOUNDS pp pp pp
0.0000000000000000e+00 1.4500000000000000e+01
0.0000000000000000e+00 1.4500000000000000e+01
0.0000000000000000e+00 1.4500000000000000e+01
ITEM: ATOMS id type xs ys zs
1 1 -0.0121068 -0.0223457 0.0298874
2 1 0.063831 0.0223457 -0.0298874
ITEM: TIMESTEP
360
ITEM: NUMBER OF ATOMS
2
ITEM: BOX BOUNDS pp pp pp
0.0000000000000000e+00 1.4500000000000000e+01
0.0000000000000000e+00 1.4500000000000000e+01
0.0000000000000000e+00 1.4500000000000000e+01
ITEM: ATOMS id type xs ys zs
1 1 -0.0210898 -0.0281754 0.0376848
2 1 0.0728139 0.0281754 -0.0376848
ITEM: TIMESTEP
370
ITEM: NUMBER OF ATOMS
2
ITEM: BOX BOUNDS pp pp pp
0.0000000000000000e+00 1.4500000000000000e+01
0.0000000000000000e+00 1.4500000000000000e+01
0.0000000000000000e+00 1.4500000000000000e+01
ITEM: ATOMS id type xs ys zs
1 1 -0.0199874 -0.0279514 0.0373851
2 1 0.0717115 0.0279514 -0.0373851
ITEM: TIMESTEP
380
ITEM: NUMBER OF ATOMS
2
ITEM: BOX BOUNDS pp pp pp
0.0000000000000000e+00 1.4500000000000000e+01
0.0000000000000000e+00 1.4500000000000000e+01
0.0000000000000000e+00 1.4500000000000000e+01
ITEM: ATOMS id type xs ys zs
1 1 -0.00921384 -0.0218344 0.0292036
2 1 0.060938 0.0218344 -0.0292036
ITEM: TIMESTEP
390
ITEM: NUMBER OF ATOMS
2
ITEM: BOX BOUNDS pp pp pp
0.0000000000000000e+00 1.4500000000000000e+01
0.0000000000000000e+00 1.4500000000000000e+01
0.0000000000000000e+00 1.4500000000000000e+01
ITEM: ATOMS id type xs ys zs
1 1 0.00433046 -0.0140231 0.018756
2 1 0.0473937 0.0140231 -0.018756
ITEM: TIMESTEP
400
ITEM: NUMBER OF ATOMS
2
ITEM: BOX BOUNDS pp pp pp
0.0000000000000000e+00 1.4500000000000000e+01
0.0000000000000000e+00 1.4500000000000000e+01
0.0000000000000000e+00 1.4500000000000000e+01
ITEM: ATOMS id type xs ys zs
1 1 0.00882613 -0.0122178 0.0163414
2 1 0.042898 0.0122178 -0.0163414
ITEM: TIMESTEP
410
ITEM: NUMBER OF ATOMS
2
ITEM: BOX BOUNDS pp pp pp
0.0000000000000000e+00 1.4500000000000000e+01
0.0000000000000000e+00 1.4500000000000000e+01
0.0000000000000000e+00 1.4500000000000000e+01
ITEM: ATOMS id type xs ys zs
1 1 0.000840428 -0.0192907 0.0258014
2 1 0.0508837 0.0192907 -0.0258014
ITEM: TIMESTEP
420
ITEM: NUMBER OF ATOMS
2
ITEM: BOX BOUNDS pp pp pp
0.0000000000000000e+00 1.4500000000000000e+01
0.0000000000000000e+00 1.4500000000000000e+01
0.0000000000000000e+00 1.4500000000000000e+01
ITEM: ATOMS id type xs ys zs
1 1 -0.00994127 -0.0284421 0.0380414
2 1 0.0616654 0.0284421 -0.0380414
ITEM: TIMESTEP
430
ITEM: NUMBER OF ATOMS
2
ITEM: BOX BOUNDS pp pp pp
0.0000000000000000e+00 1.4500000000000000e+01
0.0000000000000000e+00 1.4500000000000000e+01
0.0000000000000000e+00 1.4500000000000000e+01
ITEM: ATOMS id type xs ys zs
1 1 -0.014497 -0.0326345 0.0436487
2 1 0.0662211 0.0326345 -0.0436487
ITEM: TIMESTEP
440
ITEM: NUMBER OF ATOMS
2
ITEM: BOX BOUNDS pp pp pp
0.0000000000000000e+00 1.4500000000000000e+01
0.0000000000000000e+00 1.4500000000000000e+01
0.0000000000000000e+00 1.4500000000000000e+01
ITEM: ATOMS id type xs ys zs
1 1 -0.0101912 -0.0296612 0.039672
2 1 0.0619153 0.0296612 -0.039672
ITEM: TIMESTEP
450
ITEM: NUMBER OF ATOMS
2
ITEM: BOX BOUNDS pp pp pp
0.0000000000000000e+00 1.4500000000000000e+01
0.0000000000000000e+00 1.4500000000000000e+01
0.0000000000000000e+00 1.4500000000000000e+01
ITEM: ATOMS id type xs ys zs
1 1 0.000879496 -0.0211326 0.028265
2 1 0.0508446 0.0211326 -0.028265
ITEM: TIMESTEP
460
ITEM: NUMBER OF ATOMS
2
ITEM: BOX BOUNDS pp pp pp
0.0000000000000000e+00 1.4500000000000000e+01
0.0000000000000000e+00 1.4500000000000000e+01
0.0000000000000000e+00 1.4500000000000000e+01
ITEM: ATOMS id type xs ys zs
1 1 0.0107198 -0.0137131 0.0183413
2 1 0.0410043 0.0137131 -0.0183413
ITEM: TIMESTEP
470
ITEM: NUMBER OF ATOMS
2
ITEM: BOX BOUNDS pp pp pp
0.0000000000000000e+00 1.4500000000000000e+01
0.0000000000000000e+00 1.4500000000000000e+01
0.0000000000000000e+00 1.4500000000000000e+01
ITEM: ATOMS id type xs ys zs
1 1 0.010518 -0.0155023 0.0207344
2 1 0.0412061 0.0155023 -0.0207344
ITEM: TIMESTEP
480
ITEM: NUMBER OF ATOMS
2
ITEM: BOX BOUNDS pp pp pp
0.0000000000000000e+00 1.4500000000000000e+01
0.0000000000000000e+00 1.4500000000000000e+01
0.0000000000000000e+00 1.4500000000000000e+01
ITEM: ATOMS id type xs ys zs
1 1 0.00236109 -0.0251771 0.0336745
2 1 0.049363 0.0251771 -0.0336745
ITEM: TIMESTEP
490
ITEM: NUMBER OF ATOMS
2
ITEM: BOX BOUNDS pp pp pp
0.0000000000000000e+00 1.4500000000000000e+01
0.0000000000000000e+00 1.4500000000000000e+01
0.0000000000000000e+00 1.4500000000000000e+01
ITEM: ATOMS id type xs ys zs
1 1 -0.0048599 -0.0337953 0.0452014
2 1 0.056584 0.0337953 -0.0452014
ITEM: TIMESTEP
500
ITEM: NUMBER OF ATOMS
2
ITEM: BOX BOUNDS pp pp pp
0.0000000000000000e+00 1.4500000000000000e+01
0.0000000000000000e+00 1.4500000000000000e+01
0.0000000000000000e+00 1.4500000000000000e+01
ITEM: ATOMS id type xs ys zs
1 1 -0.00577268 -0.0354678 0.0474384
2 1 0.0574968 0.0354678 -0.0474384
ITEM: TIMESTEP
510
ITEM: NUMBER OF ATOMS
2
ITEM: BOX BOUNDS pp pp pp
0.0000000000000000e+00 1.4500000000000000e+01
0.0000000000000000e+00 1.4500000000000000e+01
0.0000000000000000e+00 1.4500000000000000e+01
ITEM: ATOMS id type xs ys zs
1 1 0.00018393 -0.02944 0.0393762
2 1 0.0515402 0.02944 -0.0393762
ITEM: TIMESTEP
520
ITEM: NUMBER OF ATOMS
2
ITEM: BOX BOUNDS pp pp pp
0.0000000000000000e+00 1.4500000000000000e+01
0.0000000000000000e+00 1.4500000000000000e+01
0.0000000000000000e+00 1.4500000000000000e+01
ITEM: ATOMS id type xs ys zs
1 1 0.00969737 -0.0193623 0.0258972
2 1 0.0420268 0.0193623 -0.0258972
ITEM: TIMESTEP
530
ITEM: NUMBER OF ATOMS
2
ITEM: BOX BOUNDS pp pp pp
0.0000000000000000e+00 1.4500000000000000e+01
0.0000000000000000e+00 1.4500000000000000e+01
0.0000000000000000e+00 1.4500000000000000e+01
ITEM: ATOMS id type xs ys zs
1 1 0.0152914 -0.0141215 0.0188876
2 1 0.0364327 0.0141215 -0.0188876
ITEM: TIMESTEP
540
ITEM: NUMBER OF ATOMS
2
ITEM: BOX BOUNDS pp pp pp
0.0000000000000000e+00 1.4500000000000000e+01
0.0000000000000000e+00 1.4500000000000000e+01
0.0000000000000000e+00 1.4500000000000000e+01
ITEM: ATOMS id type xs ys zs
1 1 0.0126066 -0.0199447 0.0266762
2 1 0.0391175 0.0199447 -0.0266762
ITEM: TIMESTEP
550
ITEM: NUMBER OF ATOMS
2
ITEM: BOX BOUNDS pp pp pp
0.0000000000000000e+00 1.4500000000000000e+01
0.0000000000000000e+00 1.4500000000000000e+01
0.0000000000000000e+00 1.4500000000000000e+01
ITEM: ATOMS id type xs ys zs
1 1 0.00638864 -0.0309093 0.0413413
2 1 0.0453355 0.0309093 -0.0413413
ITEM: TIMESTEP
560
ITEM: NUMBER OF ATOMS
2
ITEM: BOX BOUNDS pp pp pp
0.0000000000000000e+00 1.4500000000000000e+01
0.0000000000000000e+00 1.4500000000000000e+01
0.0000000000000000e+00 1.4500000000000000e+01
ITEM: ATOMS id type xs ys zs
1 1 0.00277202 -0.0377068 0.050433
2 1 0.0489521 0.0377068 -0.050433
ITEM: TIMESTEP
570
ITEM: NUMBER OF ATOMS
2
ITEM: BOX BOUNDS pp pp pp
0.0000000000000000e+00 1.4500000000000000e+01
0.0000000000000000e+00 1.4500000000000000e+01
0.0000000000000000e+00 1.4500000000000000e+01
ITEM: ATOMS id type xs ys zs
1 1 0.00416144 -0.0363272 0.0485879
2 1 0.0475627 0.0363272 -0.0485879
ITEM: TIMESTEP
580
ITEM: NUMBER OF ATOMS
2
ITEM: BOX BOUNDS pp pp pp
0.0000000000000000e+00 1.4500000000000000e+01
0.0000000000000000e+00 1.4500000000000000e+01
0.0000000000000000e+00 1.4500000000000000e+01
ITEM: ATOMS id type xs ys zs
1 1 0.0100333 -0.0274527 0.0367181
2 1 0.0416909 0.0274527 -0.0367181
ITEM: TIMESTEP
590
ITEM: NUMBER OF ATOMS
2
ITEM: BOX BOUNDS pp pp pp
0.0000000000000000e+00 1.4500000000000000e+01
0.0000000000000000e+00 1.4500000000000000e+01
0.0000000000000000e+00 1.4500000000000000e+01
ITEM: ATOMS id type xs ys zs
1 1 0.0166868 -0.0173007 0.0231398
2 1 0.0350374 0.0173007 -0.0231398
ITEM: TIMESTEP
600
ITEM: NUMBER OF ATOMS
2
ITEM: BOX BOUNDS pp pp pp
0.0000000000000000e+00 1.4500000000000000e+01
0.0000000000000000e+00 1.4500000000000000e+01
0.0000000000000000e+00 1.4500000000000000e+01
ITEM: ATOMS id type xs ys zs
1 1 0.0188805 -0.0158139 0.0211511
2 1 0.0328437 0.0158139 -0.0211511
ITEM: TIMESTEP
610
ITEM: NUMBER OF ATOMS
2
ITEM: BOX BOUNDS pp pp pp
0.0000000000000000e+00 1.4500000000000000e+01
0.0000000000000000e+00 1.4500000000000000e+01
0.0000000000000000e+00 1.4500000000000000e+01
ITEM: ATOMS id type xs ys zs
1 1 0.0162404 -0.0250362 0.0334861
2 1 0.0354837 0.0250362 -0.0334861
ITEM: TIMESTEP
620
ITEM: NUMBER OF ATOMS
2
ITEM: BOX BOUNDS pp pp pp
0.0000000000000000e+00 1.4500000000000000e+01
0.0000000000000000e+00 1.4500000000000000e+01
0.0000000000000000e+00 1.4500000000000000e+01
ITEM: ATOMS id type xs ys zs
1 1 0.0129687 -0.0357216 0.0477778
2 1 0.0387555 0.0357216 -0.0477778
ITEM: TIMESTEP
630
ITEM: NUMBER OF ATOMS
2
ITEM: BOX BOUNDS pp pp pp
0.0000000000000000e+00 1.4500000000000000e+01
0.0000000000000000e+00 1.4500000000000000e+01
0.0000000000000000e+00 1.4500000000000000e+01
ITEM: ATOMS id type xs ys zs
1 1 0.0120822 -0.0397692 0.0531915
2 1 0.039642 0.0397692 -0.0531915
ITEM: TIMESTEP
640
ITEM: NUMBER OF ATOMS
2
ITEM: BOX BOUNDS pp pp pp
0.0000000000000000e+00 1.4500000000000000e+01
0.0000000000000000e+00 1.4500000000000000e+01
0.0000000000000000e+00 1.4500000000000000e+01
ITEM: ATOMS id type xs ys zs
1 1 0.0142222 -0.0350825 0.046923
2 1 0.0375019 0.0350825 -0.046923
ITEM: TIMESTEP
650
ITEM: NUMBER OF ATOMS
2
ITEM: BOX BOUNDS pp pp pp
0.0000000000000000e+00 1.4500000000000000e+01
0.0000000000000000e+00 1.4500000000000000e+01
0.0000000000000000e+00 1.4500000000000000e+01
ITEM: ATOMS id type xs ys zs
1 1 0.0184251 -0.0242172 0.0323906
2 1 0.033299 0.0242172 -0.0323906
ITEM: TIMESTEP
660
ITEM: NUMBER OF ATOMS
2
ITEM: BOX BOUNDS pp pp pp
0.0000000000000000e+00 1.4500000000000000e+01
0.0000000000000000e+00 1.4500000000000000e+01
0.0000000000000000e+00 1.4500000000000000e+01
ITEM: ATOMS id type xs ys zs
1 1 0.0219535 -0.015804 0.0211379
2 1 0.0297706 0.015804 -0.0211379
ITEM: TIMESTEP
670
ITEM: NUMBER OF ATOMS
2
ITEM: BOX BOUNDS pp pp pp
0.0000000000000000e+00 1.4500000000000000e+01
0.0000000000000000e+00 1.4500000000000000e+01
0.0000000000000000e+00 1.4500000000000000e+01
ITEM: ATOMS id type xs ys zs
1 1 0.0227415 -0.0188089 0.025157
2 1 0.0289826 0.0188089 -0.025157
ITEM: TIMESTEP
680
ITEM: NUMBER OF ATOMS
2
ITEM: BOX BOUNDS pp pp pp
0.0000000000000000e+00 1.4500000000000000e+01
0.0000000000000000e+00 1.4500000000000000e+01
0.0000000000000000e+00 1.4500000000000000e+01
ITEM: ATOMS id type xs ys zs
1 1 0.0220403 -0.0300141 0.040144
2 1 0.0296838 0.0300141 -0.040144
ITEM: TIMESTEP
690
ITEM: NUMBER OF ATOMS
2
ITEM: BOX BOUNDS pp pp pp
0.0000000000000000e+00 1.4500000000000000e+01
0.0000000000000000e+00 1.4500000000000000e+01
0.0000000000000000e+00 1.4500000000000000e+01
ITEM: ATOMS id type xs ys zs
1 1 0.0215841 -0.0390086 0.0521742
2 1 0.03014 0.0390086 -0.0521742
ITEM: TIMESTEP
700
ITEM: NUMBER OF ATOMS
2
ITEM: BOX BOUNDS pp pp pp
0.0000000000000000e+00 1.4500000000000000e+01
0.0000000000000000e+00 1.4500000000000000e+01
0.0000000000000000e+00 1.4500000000000000e+01
ITEM: ATOMS id type xs ys zs
1 1 0.0220238 0.960199 0.0532341
2 1 0.0297003 0.0398011 0.946766
ITEM: TIMESTEP
710
ITEM: NUMBER OF ATOMS
2
ITEM: BOX BOUNDS pp pp pp
0.0000000000000000e+00 1.4500000000000000e+01
0.0000000000000000e+00 1.4500000000000000e+01
0.0000000000000000e+00 1.4500000000000000e+01
ITEM: ATOMS id type xs ys zs
1 1 0.0232913 0.967971 0.0428384
2 1 0.0284329 0.0320286 0.957162
ITEM: TIMESTEP
720
ITEM: NUMBER OF ATOMS
2
ITEM: BOX BOUNDS pp pp pp
0.0000000000000000e+00 1.4500000000000000e+01
0.0000000000000000e+00 1.4500000000000000e+01
0.0000000000000000e+00 1.4500000000000000e+01
ITEM: ATOMS id type xs ys zs
1 1 0.0248847 0.979474 0.0274532
2 1 0.0268394 0.0205257 0.972547
ITEM: TIMESTEP
730
ITEM: NUMBER OF ATOMS
2
ITEM: BOX BOUNDS pp pp pp
0.0000000000000000e+00 1.4500000000000000e+01
0.0000000000000000e+00 1.4500000000000000e+01
0.0000000000000000e+00 1.4500000000000000e+01
ITEM: ATOMS id type xs ys zs
1 1 0.0262847 0.984461 0.0207837
2 1 0.0254394 0.0155391 0.979216
ITEM: TIMESTEP
740
ITEM: NUMBER OF ATOMS
2
ITEM: BOX BOUNDS pp pp pp
0.0000000000000000e+00 1.4500000000000000e+01
0.0000000000000000e+00 1.4500000000000000e+01
0.0000000000000000e+00 1.4500000000000000e+01
ITEM: ATOMS id type xs ys zs
1 1 0.0279798 0.977403 0.0302239
2 1 0.0237443 0.0225972 0.969776
ITEM: TIMESTEP
750
ITEM: NUMBER OF ATOMS
2
ITEM: BOX BOUNDS pp pp pp
0.0000000000000000e+00 1.4500000000000000e+01
0.0000000000000000e+00 1.4500000000000000e+01
0.0000000000000000e+00 1.4500000000000000e+01
ITEM: ATOMS id type xs ys zs
1 1 0.0299895 0.965958 0.045532
2 1 0.0217347 0.0340425 0.954468
ITEM: TIMESTEP
760
ITEM: NUMBER OF ATOMS
2
ITEM: BOX BOUNDS pp pp pp
0.0000000000000000e+00 1.4500000000000000e+01
0.0000000000000000e+00 1.4500000000000000e+01
0.0000000000000000e+00 1.4500000000000000e+01
ITEM: ATOMS id type xs ys zs
1 1 0.03135 0.959716 0.0538797
2 1 0.0203742 0.0402838 0.94612
ITEM: TIMESTEP
770
ITEM: NUMBER OF ATOMS
2
ITEM: BOX BOUNDS pp pp pp
0.0000000000000000e+00 1.4500000000000000e+01
0.0000000000000000e+00 1.4500000000000000e+01
0.0000000000000000e+00 1.4500000000000000e+01
ITEM: ATOMS id type xs ys zs
1 1 0.0315117 0.96227 0.0504639
2 1 0.0202125 0.0377299 0.949536
ITEM: TIMESTEP
780
ITEM: NUMBER OF ATOMS
2
ITEM: BOX BOUNDS pp pp pp
0.0000000000000000e+00 1.4500000000000000e+01
0.0000000000000000e+00 1.4500000000000000e+01
0.0000000000000000e+00 1.4500000000000000e+01
ITEM: ATOMS id type xs ys zs
1 1 0.0305495 0.972374 0.0369496
2 1 0.0211747 0.0276258 0.96305
ITEM: TIMESTEP
790
ITEM: NUMBER OF ATOMS
2
ITEM: BOX BOUNDS pp pp pp
0.0000000000000000e+00 1.4500000000000000e+01
0.0000000000000000e+00 1.4500000000000000e+01
0.0000000000000000e+00 1.4500000000000000e+01
ITEM: ATOMS id type xs ys zs
1 1 0.0295879 0.982778 0.0230342
2 1 0.0221362 0.0172218 0.976966
ITEM: TIMESTEP
800
ITEM: NUMBER OF ATOMS
2
ITEM: BOX BOUNDS pp pp pp
0.0000000000000000e+00 1.4500000000000000e+01
0.0000000000000000e+00 1.4500000000000000e+01
0.0000000000000000e+00 1.4500000000000000e+01
ITEM: ATOMS id type xs ys zs
1 1 0.0308836 0.983331 0.0222949
2 1 0.0208405 0.016669 0.977705
ITEM: TIMESTEP
810
ITEM: NUMBER OF ATOMS
2
ITEM: BOX BOUNDS pp pp pp
0.0000000000000000e+00 1.4500000000000000e+01
0.0000000000000000e+00 1.4500000000000000e+01
0.0000000000000000e+00 1.4500000000000000e+01
ITEM: ATOMS id type xs ys zs
1 1 0.0351538 0.97361 0.0352973
2 1 0.0165703 0.0263904 0.964703
ITEM: TIMESTEP
820
ITEM: NUMBER OF ATOMS
2
ITEM: BOX BOUNDS pp pp pp
0.0000000000000000e+00 1.4500000000000000e+01
0.0000000000000000e+00 1.4500000000000000e+01
0.0000000000000000e+00 1.4500000000000000e+01
ITEM: ATOMS id type xs ys zs
1 1 0.0395002 0.963506 0.048811
2 1 0.0122239 0.0364941 0.951189
ITEM: TIMESTEP
830
ITEM: NUMBER OF ATOMS
2
ITEM: BOX BOUNDS pp pp pp
0.0000000000000000e+00 1.4500000000000000e+01
0.0000000000000000e+00 1.4500000000000000e+01
0.0000000000000000e+00 1.4500000000000000e+01
ITEM: ATOMS id type xs ys zs
1 1 0.0411759 0.960527 0.0527954
2 1 0.0105482 0.0394731 0.947205
ITEM: TIMESTEP
840
ITEM: NUMBER OF ATOMS
2
ITEM: BOX BOUNDS pp pp pp
0.0000000000000000e+00 1.4500000000000000e+01
0.0000000000000000e+00 1.4500000000000000e+01
0.0000000000000000e+00 1.4500000000000000e+01
ITEM: ATOMS id type xs ys zs
1 1 0.0394981 0.966193 0.0452169
2 1 0.0122261 0.0338069 0.954783
ITEM: TIMESTEP
850
ITEM: NUMBER OF ATOMS
2
ITEM: BOX BOUNDS pp pp pp
0.0000000000000000e+00 1.4500000000000000e+01
0.0000000000000000e+00 1.4500000000000000e+01
0.0000000000000000e+00 1.4500000000000000e+01
ITEM: ATOMS id type xs ys zs
1 1 0.0356181 0.977359 0.0302821
2 1 0.016106 0.0226408 0.969718
ITEM: TIMESTEP
860
ITEM: NUMBER OF ATOMS
2
ITEM: BOX BOUNDS pp pp pp
0.0000000000000000e+00 1.4500000000000000e+01
0.0000000000000000e+00 1.4500000000000000e+01
0.0000000000000000e+00 1.4500000000000000e+01
ITEM: ATOMS id type xs ys zs
1 1 0.0333512 0.984995 0.0200687
2 1 0.0183729 0.0150046 0.979931
ITEM: TIMESTEP
870
ITEM: NUMBER OF ATOMS
2
ITEM: BOX BOUNDS pp pp pp
0.0000000000000000e+00 1.4500000000000000e+01
0.0000000000000000e+00 1.4500000000000000e+01
0.0000000000000000e+00 1.4500000000000000e+01
ITEM: ATOMS id type xs ys zs
1 1 0.0368287 0.981234 0.0250999
2 1 0.0148955 0.0187662 0.9749
ITEM: TIMESTEP
880
ITEM: NUMBER OF ATOMS
2
ITEM: BOX BOUNDS pp pp pp
0.0000000000000000e+00 1.4500000000000000e+01
0.0000000000000000e+00 1.4500000000000000e+01
0.0000000000000000e+00 1.4500000000000000e+01
ITEM: ATOMS id type xs ys zs
1 1 0.0441623 0.970652 0.0392531
2 1 0.00756182 0.029348 0.960747
ITEM: TIMESTEP
890
ITEM: NUMBER OF ATOMS
2
ITEM: BOX BOUNDS pp pp pp
0.0000000000000000e+00 1.4500000000000000e+01
0.0000000000000000e+00 1.4500000000000000e+01
0.0000000000000000e+00 1.4500000000000000e+01
ITEM: ATOMS id type xs ys zs
1 1 0.0496129 0.963039 0.049436
2 1 0.00211123 0.0369614 0.950564
ITEM: TIMESTEP
900
ITEM: NUMBER OF ATOMS
2
ITEM: BOX BOUNDS pp pp pp
0.0000000000000000e+00 1.4500000000000000e+01
0.0000000000000000e+00 1.4500000000000000e+01
0.0000000000000000e+00 1.4500000000000000e+01
ITEM: ATOMS id type xs ys zs
1 1 0.0499872 0.963321 0.0490583
2 1 0.00173689 0.036679 0.950942
ITEM: TIMESTEP
910
ITEM: NUMBER OF ATOMS
2
ITEM: BOX BOUNDS pp pp pp
0.0000000000000000e+00 1.4500000000000000e+01
0.0000000000000000e+00 1.4500000000000000e+01
0.0000000000000000e+00 1.4500000000000000e+01
ITEM: ATOMS id type xs ys zs
1 1 0.0452378 0.971398 0.0382553
2 1 0.00648635 0.028602 0.961745
ITEM: TIMESTEP
920
ITEM: NUMBER OF ATOMS
2
ITEM: BOX BOUNDS pp pp pp
0.0000000000000000e+00 1.4500000000000000e+01
0.0000000000000000e+00 1.4500000000000000e+01
0.0000000000000000e+00 1.4500000000000000e+01
ITEM: ATOMS id type xs ys zs
1 1 0.0387492 0.982094 0.0239496
2 1 0.012975 0.0179062 0.97605
ITEM: TIMESTEP
930
ITEM: NUMBER OF ATOMS
2
ITEM: BOX BOUNDS pp pp pp
0.0000000000000000e+00 1.4500000000000000e+01
0.0000000000000000e+00 1.4500000000000000e+01
0.0000000000000000e+00 1.4500000000000000e+01
ITEM: ATOMS id type xs ys zs
1 1 0.0374032 0.985833 0.0189485
2 1 0.0143209 0.014167 0.981052
ITEM: TIMESTEP
940
ITEM: NUMBER OF ATOMS
2
ITEM: BOX BOUNDS pp pp pp
0.0000000000000000e+00 1.4500000000000000e+01
0.0000000000000000e+00 1.4500000000000000e+01
0.0000000000000000e+00 1.4500000000000000e+01
ITEM: ATOMS id type xs ys zs
1 1 0.0446278 0.978963 0.0281372
2 1 0.00709635 0.0210371 0.971863
ITEM: TIMESTEP
950
ITEM: NUMBER OF ATOMS
2
ITEM: BOX BOUNDS pp pp pp
0.0000000000000000e+00 1.4500000000000000e+01
0.0000000000000000e+00 1.4500000000000000e+01
0.0000000000000000e+00 1.4500000000000000e+01
ITEM: ATOMS id type xs ys zs
1 1 0.0543046 0.969236 0.0411465
2 1 -0.00258044 0.0307636 0.958854
ITEM: TIMESTEP
960
ITEM: NUMBER OF ATOMS
2
ITEM: BOX BOUNDS pp pp pp
0.0000000000000000e+00 1.4500000000000000e+01
0.0000000000000000e+00 1.4500000000000000e+01
0.0000000000000000e+00 1.4500000000000000e+01
ITEM: ATOMS id type xs ys zs
1 1 0.0591891 0.964675 0.047247
2 1 -0.00746492 0.0353248 0.952753
ITEM: TIMESTEP
970
ITEM: NUMBER OF ATOMS
2
ITEM: BOX BOUNDS pp pp pp
0.0000000000000000e+00 1.4500000000000000e+01
0.0000000000000000e+00 1.4500000000000000e+01
0.0000000000000000e+00 1.4500000000000000e+01
ITEM: ATOMS id type xs ys zs
1 1 0.0567645 0.967861 0.0429861
2 1 -0.00504035 0.0321391 0.957014
ITEM: TIMESTEP
980
ITEM: NUMBER OF ATOMS
2
ITEM: BOX BOUNDS pp pp pp
0.0000000000000000e+00 1.4500000000000000e+01