 254 254   0   0
  0.3019211E+02  0.1718057E-08  0.1718057E-08  0.3000000E-08  0.5000000E-15
   1.0000000000000000E-004
  CAR 
 NiAl                                    
      5.49229752    -25.01775180  301      1.74822129      1.00000000
    -25.018  0.0000E+00  0.0000E+00
    -24.916  0.0000E+00  0.0000E+00
    -24.814  0.0000E+00  0.0000E+00
    -24.713  0.0000E+00  0.0000E+00
    -24.611  0.0000E+00  0.0000E+00
    -24.509  0.0000E+00  0.0000E+00
    -24.408  0.0000E+00  0.0000E+00
    -24.306  0.0000E+00  0.0000E+00
    -24.204  0.0000E+00  0.0000E+00
    -24.102  0.0000E+00  0.0000E+00
    -24.001  0.0000E+00  0.0000E+00
    -23.899  0.3057E-12  0.3109E-13
    -23.797  0.2352E-04  0.2392E-05
    -23.696  0.6456E+00  0.6566E-01
    -23.594  0.1607E+02  0.1700E+01
    -23.492  0.2952E+01  0.2000E+01
    -23.391  0.8993E-03  0.2000E+01
    -23.289  0.1113E-09  0.2000E+01
    -23.187  0.0000E+00  0.2000E+01
    -23.085  0.0000E+00  0.2000E+01
    -22.984  0.0000E+00  0.2000E+01
    -22.882  0.0000E+00  0.2000E+01
    -22.780  0.0000E+00  0.2000E+01
    -22.679  0.0000E+00  0.2000E+01
    -22.577  0.0000E+00  0.2000E+01
    -22.475  0.0000E+00  0.2000E+01
    -22.374  0.0000E+00  0.2000E+01
    -22.272  0.0000E+00  0.2000E+01
    -22.170  0.0000E+00  0.2000E+01
    -22.068  0.0000E+00  0.2000E+01
    -21.967  0.0000E+00  0.2000E+01
    -21.865  0.0000E+00  0.2000E+01
    -21.763  0.0000E+00  0.2000E+01
    -21.662  0.0000E+00  0.2000E+01
    -21.560  0.0000E+00  0.2000E+01
    -21.458  0.0000E+00  0.2000E+01
    -21.357  0.0000E+00  0.2000E+01
    -21.255  0.0000E+00  0.2000E+01
    -21.153  0.0000E+00  0.2000E+01
    -21.051  0.0000E+00  0.2000E+01
    -20.950  0.0000E+00  0.2000E+01
    -20.848  0.0000E+00  0.2000E+01
    -20.746  0.0000E+00  0.2000E+01
    -20.645  0.0000E+00  0.2000E+01
    -20.543  0.0000E+00  0.2000E+01
    -20.441  0.0000E+00  0.2000E+01
    -20.340  0.0000E+00  0.2000E+01
    -20.238  0.0000E+00  0.2000E+01
    -20.136  0.0000E+00  0.2000E+01
    -20.034  0.0000E+00  0.2000E+01
    -19.933  0.0000E+00  0.2000E+01
    -19.831  0.0000E+00  0.2000E+01
    -19.729  0.0000E+00  0.2000E+01
    -19.628  0.0000E+00  0.2000E+01
    -19.526  0.0000E+00  0.2000E+01
    -19.424  0.0000E+00  0.2000E+01
    -19.323  0.0000E+00  0.2000E+01
    -19.221  0.0000E+00  0.2000E+01
    -19.119  0.0000E+00  0.2000E+01
    -19.017  0.0000E+00  0.2000E+01
    -18.916  0.0000E+00  0.2000E+01
    -18.814  0.0000E+00  0.2000E+01
    -18.712  0.0000E+00  0.2000E+01
    -18.611  0.0000E+00  0.2000E+01
    -18.509  0.0000E+00  0.2000E+01
    -18.407  0.0000E+00  0.2000E+01
    -18.306  0.0000E+00  0.2000E+01
    -18.204  0.0000E+00  0.2000E+01
    -18.102  0.0000E+00  0.2000E+01
    -18.000  0.0000E+00  0.2000E+01
    -17.899  0.0000E+00  0.2000E+01
    -17.797  0.0000E+00  0.2000E+01
    -17.695  0.0000E+00  0.2000E+01
    -17.594  0.0000E+00  0.2000E+01
    -17.492  0.0000E+00  0.2000E+01
    -17.390  0.0000E+00  0.2000E+01
    -17.289  0.0000E+00  0.2000E+01
    -17.187  0.0000E+00  0.2000E+01
    -17.085  0.0000E+00  0.2000E+01
    -16.983  0.0000E+00  0.2000E+01
    -16.882  0.0000E+00  0.2000E+01
    -16.780  0.0000E+00  0.2000E+01
    -16.678  0.0000E+00  0.2000E+01
    -16.577  0.0000E+00  0.2000E+01
    -16.475  0.0000E+00  0.2000E+01
    -16.373  0.0000E+00  0.2000E+01
    -16.272  0.0000E+00  0.2000E+01
    -16.170  0.0000E+00  0.2000E+01
    -16.068  0.0000E+00  0.2000E+01
    -15.966  0.0000E+00  0.2000E+01
    -15.865  0.0000E+00  0.2000E+01
    -15.763  0.0000E+00  0.2000E+01
    -15.661  0.0000E+00  0.2000E+01
    -15.560  0.0000E+00  0.2000E+01
    -15.458  0.0000E+00  0.2000E+01
    -15.356  0.0000E+00  0.2000E+01
    -15.255  0.0000E+00  0.2000E+01
    -15.153  0.0000E+00  0.2000E+01
    -15.051  0.0000E+00  0.2000E+01
    -14.949  0.0000E+00  0.2000E+01
    -14.848  0.0000E+00  0.2000E+01
    -14.746  0.0000E+00  0.2000E+01
    -14.644  0.0000E+00  0.2000E+01
    -14.543  0.0000E+00  0.2000E+01
    -14.441  0.0000E+00  0.2000E+01
    -14.339  0.0000E+00  0.2000E+01
    -14.238  0.0000E+00  0.2000E+01
    -14.136  0.0000E+00  0.2000E+01
    -14.034  0.0000E+00  0.2000E+01
    -13.932  0.0000E+00  0.2000E+01
    -13.831  0.0000E+00  0.2000E+01
    -13.729  0.0000E+00  0.2000E+01
    -13.627  0.0000E+00  0.2000E+01
    -13.526  0.0000E+00  0.2000E+01
    -13.424  0.0000E+00  0.2000E+01
    -13.322  0.0000E+00  0.2000E+01
    -13.221  0.0000E+00  0.2000E+01
    -13.119  0.0000E+00  0.2000E+01
    -13.017  0.0000E+00  0.2000E+01
    -12.915  0.0000E+00  0.2000E+01
    -12.814  0.0000E+00  0.2000E+01
    -12.712  0.0000E+00  0.2000E+01
    -12.610  0.0000E+00  0.2000E+01
    -12.509  0.3359E-07  0.2000E+01
    -12.407  0.2375E-01  0.2002E+01
    -12.305  0.8581E+01  0.2875E+01
    -12.204  0.1100E+02  0.3993E+01
    -12.102  0.6433E-01  0.4000E+01
    -12.000  0.2159E-06  0.4000E+01
    -11.898  0.0000E+00  0.4000E+01
    -11.797  0.0000E+00  0.4000E+01
    -11.695  0.0000E+00  0.4000E+01
    -11.593  0.0000E+00  0.4000E+01
    -11.492  0.0000E+00  0.4000E+01
    -11.390  0.0000E+00  0.4000E+01
    -11.288  0.0000E+00  0.4000E+01
    -11.187  0.0000E+00  0.4000E+01
    -11.085  0.0000E+00  0.4000E+01
    -10.983  0.0000E+00  0.4000E+01
    -10.881  0.0000E+00  0.4000E+01
    -10.780  0.0000E+00  0.4000E+01
    -10.678  0.0000E+00  0.4000E+01
    -10.576  0.0000E+00  0.4000E+01
    -10.475  0.0000E+00  0.4000E+01
    -10.373  0.0000E+00  0.4000E+01
    -10.271  0.0000E+00  0.4000E+01
    -10.170  0.0000E+00  0.4000E+01
    -10.068  0.0000E+00  0.4000E+01
     -9.966  0.0000E+00  0.4000E+01
     -9.864  0.0000E+00  0.4000E+01
     -9.763  0.0000E+00  0.4000E+01
     -9.661  0.0000E+00  0.4000E+01
     -9.559  0.0000E+00  0.4000E+01
     -9.458  0.1092E-14  0.4000E+01
     -9.356  0.3763E-06  0.4000E+01
     -9.254  0.4345E-01  0.4004E+01
     -9.153  0.3364E+01  0.4347E+01
     -9.051  0.4167E+01  0.4770E+01
     -8.949  0.2501E+02  0.7313E+01
     -8.847  0.2746E+01  0.7593E+01
     -8.746  0.4465E+01  0.8047E+01
     -8.644  0.3877E+02  0.1199E+02
     -8.542  0.2382E+02  0.1441E+02
     -8.441  0.2437E+02  0.1689E+02
     -8.339  0.8917E+01  0.1780E+02
     -8.237  0.2158E+02  0.1999E+02
     -8.136  0.2349E+02  0.2238E+02
     -8.034  0.2758E+02  0.2519E+02
     -7.932  0.6966E+02  0.3227E+02
     -7.830  0.2257E+01  0.3250E+02
     -7.729  0.3853E+01  0.3289E+02
     -7.627  0.9390E+02  0.4244E+02
     -7.525  0.2655E+02  0.4514E+02
     -7.424  0.2274E+02  0.4745E+02
     -7.322  0.1908E+02  0.4940E+02
     -7.220  0.2187E+02  0.5162E+02
     -7.119  0.4975E+02  0.5668E+02
     -7.017  0.5190E+02  0.6196E+02
     -6.915  0.6947E+02  0.6902E+02
     -6.813  0.4292E+02  0.7339E+02
     -6.712  0.3035E+02  0.7647E+02
     -6.610  0.9835E+02  0.8648E+02
     -6.508  0.2456E+02  0.8897E+02
     -6.407  0.1008E+02  0.9000E+02
     -6.305  0.2186E+01  0.9022E+02
     -6.203  0.3470E+02  0.9375E+02
     -6.102  0.1109E+03  0.1050E+03
     -6.000  0.9368E+02  0.1146E+03
     -5.898  0.3259E+02  0.1179E+03
     -5.796  0.4321E+02  0.1223E+03
     -5.695  0.7347E+02  0.1297E+03
     -5.593  0.8459E+02  0.1383E+03
     -5.491  0.2668E+02  0.1411E+03
     -5.390  0.2349E+02  0.1434E+03
     -5.288  0.6844E+02  0.1504E+03
     -5.186  0.6542E+02  0.1571E+03
     -5.085  0.8372E+02  0.1656E+03
     -4.983  0.7744E+02  0.1734E+03
     -4.881  0.1022E+02  0.1745E+03
     -4.779  0.5662E+02  0.1802E+03
     -4.678  0.1259E+03  0.1930E+03
     -4.576  0.4538E+02  0.1977E+03
     -4.474  0.7576E+02  0.2054E+03
     -4.373  0.5672E+02  0.2111E+03
     -4.271  0.7047E+02  0.2183E+03
     -4.169  0.1375E+03  0.2323E+03
     -4.068  0.8302E+02  0.2407E+03
     -3.966  0.3563E+02  0.2444E+03
     -3.864  0.7570E+02  0.2521E+03
     -3.762  0.6751E+02  0.2589E+03
     -3.661  0.8560E+02  0.2676E+03
     -3.559  0.5844E+02  0.2736E+03
     -3.457  0.3712E+02  0.2773E+03
     -3.356  0.7134E+01  0.2781E+03
     -3.254  0.7627E+02  0.2858E+03
     -3.152  0.8259E+02  0.2942E+03
     -3.051  0.1154E+03  0.3060E+03
     -2.949  0.8049E+02  0.3142E+03
     -2.847  0.1551E+03  0.3299E+03
     -2.745  0.1761E+03  0.3478E+03
     -2.644  0.1628E+02  0.3495E+03
     -2.542  0.3201E+01  0.3498E+03
     -2.440  0.4844E+02  0.3548E+03
     -2.339  0.1124E+03  0.3662E+03
     -2.237  0.9825E+02  0.3762E+03
     -2.135  0.9238E+02  0.3856E+03
     -2.034  0.4417E+02  0.3901E+03
     -1.932  0.8181E+02  0.3984E+03
     -1.830  0.1301E+03  0.4116E+03
     -1.728  0.1014E+03  0.4219E+03
     -1.627  0.4312E+02  0.4263E+03
     -1.525  0.8177E+02  0.4346E+03
     -1.423  0.6173E+02  0.4409E+03
     -1.322  0.1895E+03  0.4602E+03
     -1.220  0.9885E+02  0.4702E+03
     -1.118  0.7821E+02  0.4782E+03
     -1.017  0.7468E+02  0.4858E+03
     -0.915  0.1055E+03  0.4965E+03
     -0.813  0.1121E+03  0.5079E+03
     -0.711  0.6871E+02  0.5149E+03
     -0.610  0.3138E+02  0.5181E+03
     -0.508  0.1140E+03  0.5297E+03
     -0.406  0.2024E+03  0.5503E+03
     -0.305  0.8499E+02  0.5589E+03
     -0.203  0.1171E+03  0.5708E+03
     -0.101  0.4127E+02  0.5750E+03
      0.000  0.5445E+02  0.5806E+03
      0.102  0.1029E+03  0.5910E+03
      0.204  0.9570E+02  0.6007E+03
      0.306  0.7735E+02  0.6086E+03
      0.407  0.8809E+02  0.6176E+03
      0.509  0.1385E+03  0.6317E+03
      0.611  0.6430E+02  0.6382E+03
      0.712  0.3765E+02  0.6420E+03
      0.814  0.5842E+02  0.6480E+03
      0.916  0.1581E+03  0.6640E+03
      1.017  0.2222E+03  0.6866E+03
      1.119  0.1056E+03  0.6974E+03
      1.221  0.7660E+02  0.7052E+03
      1.323  0.6343E+02  0.7116E+03
      1.424  0.8759E+02  0.7205E+03
      1.526  0.1379E+03  0.7345E+03
      1.628  0.1860E+03  0.7535E+03
      1.729  0.1261E+03  0.7663E+03
      1.831  0.5325E+02  0.7717E+03
      1.933  0.1352E+03  0.7855E+03
      2.034  0.1330E+03  0.7990E+03
      2.136  0.7071E+02  0.8062E+03
      2.238  0.7397E+02  0.8137E+03
      2.340  0.6260E+02  0.8201E+03
      2.441  0.1193E+03  0.8322E+03
      2.543  0.9729E+02  0.8421E+03
      2.645  0.1286E+03  0.8552E+03
      2.746  0.6625E+02  0.8619E+03
      2.848  0.1213E+03  0.8742E+03
      2.950  0.3134E+03  0.9061E+03
      3.051  0.1215E+03  0.9185E+03
      3.153  0.4585E+02  0.9231E+03
      3.255  0.1064E+03  0.9340E+03
      3.357  0.1357E+03  0.9478E+03
      3.458  0.1403E+03  0.9620E+03
      3.560  0.7024E+02  0.9692E+03
      3.662  0.1085E+03  0.9802E+03
      3.763  0.7973E+02  0.9883E+03
      3.865  0.9578E+02  0.9981E+03
      3.967  0.1702E+03  0.1015E+04
      4.068  0.7590E+02  0.1023E+04
      4.170  0.8801E+01  0.1024E+04
      4.272  0.2148E+00  0.1024E+04
      4.374  0.6670E-05  0.1024E+04
      4.475  0.8460E-13  0.1024E+04
      4.577  0.0000E+00  0.1024E+04
      4.679  0.0000E+00  0.1024E+04
      4.780  0.0000E+00  0.1024E+04
      4.882  0.0000E+00  0.1024E+04
      4.984  0.0000E+00  0.1024E+04
      5.085  0.0000E+00  0.1024E+04
      5.187  0.0000E+00  0.1024E+04
      5.289  0.0000E+00  0.1024E+04
      5.391  0.0000E+00  0.1024E+04
      5.492  0.0000E+00  0.1024E+04
