 256 256   0   0
  0.1137482E+02  0.1428000E-08  0.1428000E-08  0.1428000E-08  0.5000000E-15
   1.0000000000000000E-004
  CAR 
 NiAl                                    
     10.91572033     -5.30165972  301      4.00577814      1.00000000
     -5.302  0.0000E+00  0.0000E+00
     -5.248  0.0000E+00  0.0000E+00
     -5.194  0.0000E+00  0.0000E+00
     -5.139  0.0000E+00  0.0000E+00
     -5.085  0.0000E+00  0.0000E+00
     -5.031  0.0000E+00  0.0000E+00
     -4.977  0.0000E+00  0.0000E+00
     -4.923  0.0000E+00  0.0000E+00
     -4.869  0.0000E+00  0.0000E+00
     -4.815  0.3125E-11  0.1689E-12
     -4.761  0.6239E-07  0.3373E-08
     -4.707  0.1284E-03  0.6943E-05
     -4.653  0.2843E-01  0.1544E-02
     -4.599  0.7358E+00  0.4132E-01
     -4.545  0.2523E+01  0.1777E+00
     -4.491  0.1258E+01  0.2457E+00
     -4.437  0.7672E+00  0.2872E+00
     -4.383  0.8528E+01  0.7482E+00
     -4.329  0.1474E+02  0.1545E+01
     -4.275  0.3781E+01  0.1749E+01
     -4.221  0.4822E+01  0.2010E+01
     -4.166  0.2663E+02  0.3449E+01
     -4.112  0.2157E+02  0.4615E+01
     -4.058  0.2947E+01  0.4775E+01
     -4.004  0.8640E+01  0.5242E+01
     -3.950  0.2050E+02  0.6350E+01
     -3.896  0.7101E+01  0.6734E+01
     -3.842  0.2016E+01  0.6843E+01
     -3.788  0.1205E+02  0.7494E+01
     -3.734  0.1220E+02  0.8154E+01
     -3.680  0.3026E+01  0.8318E+01
     -3.626  0.2414E+02  0.9623E+01
     -3.572  0.6164E+02  0.1295E+02
     -3.518  0.2303E+02  0.1420E+02
     -3.464  0.1044E+02  0.1476E+02
     -3.410  0.5311E+02  0.1763E+02
     -3.356  0.4333E+02  0.1998E+02
     -3.302  0.4975E+01  0.2025E+02
     -3.247  0.7116E-01  0.2025E+02
     -3.193  0.1283E-02  0.2025E+02
     -3.139  0.2840E+00  0.2027E+02
     -3.085  0.8028E+01  0.2070E+02
     -3.031  0.2990E+02  0.2232E+02
     -2.977  0.1637E+02  0.2320E+02
     -2.923  0.1329E+02  0.2392E+02
     -2.869  0.6684E+02  0.2753E+02
     -2.815  0.5341E+02  0.3042E+02
     -2.761  0.9217E+01  0.3092E+02
     -2.707  0.3632E+02  0.3288E+02
     -2.653  0.5788E+02  0.3601E+02
     -2.599  0.1526E+02  0.3683E+02
     -2.545  0.2983E+02  0.3845E+02
     -2.491  0.6077E+02  0.4173E+02
     -2.437  0.2005E+02  0.4282E+02
     -2.383  0.1594E+02  0.4368E+02
     -2.328  0.1705E+02  0.4460E+02
     -2.274  0.3257E+01  0.4478E+02
     -2.220  0.1559E+02  0.4562E+02
     -2.166  0.5952E+02  0.4884E+02
     -2.112  0.3615E+02  0.5079E+02
     -2.058  0.5667E+02  0.5385E+02
     -2.004  0.1226E+03  0.6048E+02
     -1.950  0.4017E+02  0.6265E+02
     -1.896  0.1758E+01  0.6275E+02
     -1.842  0.2872E-01  0.6275E+02
     -1.788  0.1321E+01  0.6282E+02
     -1.734  0.1113E+02  0.6342E+02
     -1.680  0.1778E+02  0.6439E+02
     -1.626  0.5091E+02  0.6714E+02
     -1.572  0.1021E+03  0.7266E+02
     -1.518  0.5943E+02  0.7587E+02
     -1.464  0.2332E+02  0.7713E+02
     -1.409  0.7699E+02  0.8129E+02
     -1.355  0.6763E+02  0.8495E+02
     -1.301  0.4992E+02  0.8765E+02
     -1.247  0.5552E+02  0.9065E+02
     -1.193  0.1317E+02  0.9136E+02
     -1.139  0.3219E+02  0.9310E+02
     -1.085  0.6759E+02  0.9676E+02
     -1.031  0.1156E+03  0.1030E+03
     -0.977  0.1787E+03  0.1127E+03
     -0.923  0.4623E+02  0.1152E+03
     -0.869  0.1587E+01  0.1152E+03
     -0.815  0.8610E+00  0.1153E+03
     -0.761  0.1999E+02  0.1164E+03
     -0.707  0.6768E+02  0.1200E+03
     -0.653  0.5891E+02  0.1232E+03
     -0.599  0.2864E+02  0.1248E+03
     -0.545  0.4027E+02  0.1269E+03
     -0.491  0.9693E+02  0.1322E+03
     -0.436  0.1984E+03  0.1429E+03
     -0.382  0.2510E+03  0.1565E+03
     -0.328  0.1653E+03  0.1654E+03
     -0.274  0.8126E+02  0.1698E+03
     -0.220  0.5559E+02  0.1728E+03
     -0.166  0.7884E+02  0.1771E+03
     -0.112  0.1845E+03  0.1870E+03
     -0.058  0.1901E+03  0.1973E+03
     -0.004  0.1818E+03  0.2072E+03
      0.050  0.2189E+03  0.2190E+03
      0.104  0.3194E+03  0.2363E+03
      0.158  0.2785E+03  0.2513E+03
      0.212  0.2767E+03  0.2663E+03
      0.266  0.1950E+03  0.2768E+03
      0.320  0.2643E+03  0.2911E+03
      0.374  0.4492E+03  0.3154E+03
      0.428  0.3494E+03  0.3343E+03
      0.483  0.2944E+03  0.3502E+03
      0.537  0.1987E+03  0.3609E+03
      0.591  0.1376E+03  0.3684E+03
      0.645  0.3714E+03  0.3884E+03
      0.699  0.5050E+03  0.4157E+03
      0.753  0.4685E+03  0.4411E+03
      0.807  0.5518E+03  0.4709E+03
      0.861  0.5691E+03  0.5016E+03
      0.915  0.4639E+03  0.5267E+03
      0.969  0.3999E+03  0.5483E+03
      1.023  0.5318E+03  0.5771E+03
      1.077  0.4726E+03  0.6026E+03
      1.131  0.5114E+03  0.6303E+03
      1.185  0.5079E+03  0.6577E+03
      1.239  0.4020E+03  0.6795E+03
      1.293  0.4923E+03  0.7061E+03
      1.347  0.3392E+03  0.7244E+03
      1.402  0.4080E+03  0.7465E+03
      1.456  0.4612E+03  0.7714E+03
      1.510  0.4950E+03  0.7982E+03
      1.564  0.4450E+03  0.8222E+03
      1.618  0.4887E+03  0.8486E+03
      1.672  0.5280E+03  0.8772E+03
      1.726  0.6295E+03  0.9112E+03
      1.780  0.6543E+03  0.9466E+03
      1.834  0.5444E+03  0.9760E+03
      1.888  0.5977E+03  0.1008E+04
      1.942  0.6558E+03  0.1044E+04
      1.996  0.5015E+03  0.1071E+04
      2.050  0.6603E+03  0.1107E+04
      2.104  0.9231E+03  0.1156E+04
      2.158  0.8832E+03  0.1204E+04
      2.212  0.8016E+03  0.1248E+04
      2.266  0.6837E+03  0.1285E+04
      2.321  0.7025E+03  0.1322E+04
      2.375  0.7793E+03  0.1365E+04
      2.429  0.8855E+03  0.1412E+04
      2.483  0.1096E+04  0.1472E+04
      2.537  0.8253E+03  0.1516E+04
      2.591  0.5459E+03  0.1546E+04
      2.645  0.6361E+03  0.1580E+04
      2.699  0.6172E+03  0.1614E+04
      2.753  0.6017E+03  0.1646E+04
      2.807  0.5834E+03  0.1678E+04
      2.861  0.5483E+03  0.1707E+04
      2.915  0.5740E+03  0.1738E+04
      2.969  0.5014E+03  0.1765E+04
      3.023  0.4364E+03  0.1789E+04
      3.077  0.7204E+03  0.1828E+04
      3.131  0.8402E+03  0.1873E+04
      3.185  0.8965E+03  0.1922E+04
      3.239  0.7751E+03  0.1964E+04
      3.294  0.5137E+03  0.1992E+04
      3.348  0.5970E+03  0.2024E+04
      3.402  0.7058E+03  0.2062E+04
      3.456  0.8496E+03  0.2108E+04
      3.510  0.8461E+03  0.2154E+04
      3.564  0.6710E+03  0.2190E+04
      3.618  0.4214E+03  0.2213E+04
      3.672  0.5267E+03  0.2241E+04
      3.726  0.7949E+03  0.2284E+04
      3.780  0.8605E+03  0.2331E+04
      3.834  0.8253E+03  0.2375E+04
      3.888  0.9359E+03  0.2426E+04
      3.942  0.1109E+04  0.2486E+04
      3.996  0.1155E+04  0.2548E+04
      4.050  0.1291E+04  0.2618E+04
      4.104  0.9854E+03  0.2671E+04
      4.158  0.3839E+03  0.2692E+04
      4.213  0.1256E+03  0.2699E+04
      4.267  0.5876E+02  0.2702E+04
      4.321  0.5160E+02  0.2705E+04
      4.375  0.2660E+02  0.2706E+04
      4.429  0.1062E+03  0.2712E+04
      4.483  0.8724E+02  0.2717E+04
      4.537  0.2835E+02  0.2718E+04
      4.591  0.1153E+03  0.2724E+04
      4.645  0.1768E+03  0.2734E+04
      4.699  0.2353E+03  0.2747E+04
      4.753  0.1922E+03  0.2757E+04
      4.807  0.7477E+02  0.2761E+04
      4.861  0.6034E+02  0.2764E+04
      4.915  0.2374E+02  0.2766E+04
      4.969  0.5366E+02  0.2769E+04
      5.023  0.4362E+02  0.2771E+04
      5.077  0.1867E+02  0.2772E+04
      5.132  0.6561E+02  0.2776E+04
      5.186  0.8550E+02  0.2780E+04
      5.240  0.5203E+02  0.2783E+04
      5.294  0.3517E+02  0.2785E+04
      5.348  0.7593E+02  0.2789E+04
      5.402  0.5454E+02  0.2792E+04
      5.456  0.1053E+03  0.2798E+04
      5.510  0.3125E+03  0.2815E+04
      5.564  0.2533E+03  0.2828E+04
      5.618  0.1073E+03  0.2834E+04
      5.672  0.2767E+02  0.2836E+04
      5.726  0.7307E+01  0.2836E+04
      5.780  0.3660E+02  0.2838E+04
      5.834  0.5773E+02  0.2841E+04
      5.888  0.1378E+02  0.2842E+04
      5.942  0.2363E+02  0.2843E+04
      5.996  0.1124E+03  0.2849E+04
      6.051  0.7808E+02  0.2853E+04
      6.105  0.7588E+01  0.2854E+04
      6.159  0.2635E+01  0.2854E+04
      6.213  0.5788E+02  0.2857E+04
      6.267  0.1815E+03  0.2867E+04
      6.321  0.8541E+02  0.2871E+04
      6.375  0.1473E+02  0.2872E+04
      6.429  0.1023E+03  0.2878E+04
      6.483  0.2007E+03  0.2889E+04
      6.537  0.1131E+03  0.2895E+04
      6.591  0.2908E+02  0.2896E+04
      6.645  0.9087E+01  0.2897E+04
      6.699  0.4527E+02  0.2899E+04
      6.753  0.5186E+02  0.2902E+04
      6.807  0.1885E+02  0.2903E+04
      6.861  0.5545E+02  0.2906E+04
      6.915  0.6529E+02  0.2910E+04
      6.969  0.1498E+03  0.2918E+04
      7.024  0.1402E+03  0.2925E+04
      7.078  0.2415E+02  0.2927E+04
      7.132  0.4742E+02  0.2929E+04
      7.186  0.1519E+03  0.2937E+04
      7.240  0.7201E+02  0.2941E+04
      7.294  0.4994E+01  0.2942E+04
      7.348  0.1049E+02  0.2942E+04
      7.402  0.5476E+02  0.2945E+04
      7.456  0.4146E+02  0.2947E+04
      7.510  0.1613E+02  0.2948E+04
      7.564  0.5658E+02  0.2951E+04
      7.618  0.4800E+02  0.2954E+04
      7.672  0.1109E+03  0.2960E+04
      7.726  0.2107E+03  0.2971E+04
      7.780  0.8972E+02  0.2976E+04
      7.834  0.2444E+02  0.2977E+04
      7.888  0.2525E+01  0.2977E+04
      7.943  0.1243E+00  0.2978E+04
      7.997  0.8696E+01  0.2978E+04
      8.051  0.1049E+03  0.2984E+04
      8.105  0.1755E+03  0.2993E+04
      8.159  0.4242E+02  0.2995E+04
      8.213  0.1344E+01  0.2995E+04
      8.267  0.5227E-02  0.2996E+04
      8.321  0.1440E+00  0.2996E+04
      8.375  0.8366E+01  0.2996E+04
      8.429  0.6507E+02  0.2999E+04
      8.483  0.7773E+02  0.3004E+04
      8.537  0.1477E+02  0.3004E+04
      8.591  0.5933E+00  0.3005E+04
      8.645  0.8646E+01  0.3005E+04
      8.699  0.5203E+02  0.3008E+04
      8.753  0.4729E+02  0.3010E+04
      8.807  0.4099E+02  0.3013E+04
      8.862  0.1036E+03  0.3018E+04
      8.916  0.1521E+03  0.3026E+04
      8.970  0.1474E+03  0.3034E+04
      9.024  0.9976E+02  0.3040E+04
      9.078  0.1380E+02  0.3040E+04
      9.132  0.2473E+00  0.3040E+04
      9.186  0.5004E-03  0.3040E+04
      9.240  0.1069E-06  0.3041E+04
      9.294  0.8088E-08  0.3041E+04
      9.348  0.5862E-04  0.3041E+04
      9.402  0.4449E-01  0.3041E+04
      9.456  0.3747E+01  0.3041E+04
      9.510  0.3888E+02  0.3043E+04
      9.564  0.5629E+02  0.3046E+04
      9.618  0.1172E+02  0.3046E+04
      9.672  0.6091E+00  0.3047E+04
      9.726  0.5647E+01  0.3047E+04
      9.781  0.3416E+02  0.3049E+04
      9.835  0.1076E+03  0.3054E+04
      9.889  0.1058E+03  0.3060E+04
      9.943  0.3155E+02  0.3062E+04
      9.997  0.3019E+02  0.3064E+04
     10.051  0.3376E+02  0.3065E+04
     10.105  0.3848E+02  0.3067E+04
     10.159  0.5874E+02  0.3071E+04
     10.213  0.2255E+02  0.3072E+04
     10.267  0.2835E+01  0.3072E+04
     10.321  0.8885E-01  0.3072E+04
     10.375  0.3876E-03  0.3072E+04
     10.429  0.1874E-06  0.3072E+04
     10.483  0.9374E-11  0.3072E+04
     10.537  0.0000E+00  0.3072E+04
     10.591  0.0000E+00  0.3072E+04
     10.645  0.0000E+00  0.3072E+04
     10.699  0.0000E+00  0.3072E+04
     10.754  0.0000E+00  0.3072E+04
     10.808  0.0000E+00  0.3072E+04
     10.862  0.0000E+00  0.3072E+04
     10.916  0.0000E+00  0.3072E+04
