 253 253   0   0
  0.3031145E+02  0.1718057E-08  0.1718057E-08  0.3000000E-08  0.2000000E-15
   1.0000000000000000E-004
  CAR 
 NiAl                                    
      5.22681013    -20.67230418  301      1.83201566      1.00000000
    -20.672  0.0000E+00  0.0000E+00
    -20.586  0.0000E+00  0.0000E+00
    -20.500  0.0000E+00  0.0000E+00
    -20.413  0.0000E+00  0.0000E+00
    -20.327  0.0000E+00  0.0000E+00
    -20.241  0.0000E+00  0.0000E+00
    -20.154  0.0000E+00  0.0000E+00
    -20.068  0.0000E+00  0.0000E+00
    -19.982  0.0000E+00  0.0000E+00
    -19.895  0.0000E+00  0.0000E+00
    -19.809  0.0000E+00  0.0000E+00
    -19.723  0.3440E-10  0.2970E-11
    -19.636  0.1841E-04  0.1590E-05
    -19.550  0.3456E-01  0.2985E-02
    -19.464  0.4356E+00  0.4059E-01
    -19.377  0.1088E+00  0.4998E-01
    -19.291  0.2549E-03  0.5000E-01
    -19.205  0.2322E-08  0.5000E-01
    -19.118  0.6430E-16  0.5000E-01
    -19.032  0.0000E+00  0.5000E-01
    -18.946  0.0000E+00  0.5000E-01
    -18.859  0.0000E+00  0.5000E-01
    -18.773  0.0000E+00  0.5000E-01
    -18.687  0.0000E+00  0.5000E-01
    -18.600  0.0000E+00  0.5000E-01
    -18.514  0.0000E+00  0.5000E-01
    -18.428  0.0000E+00  0.5000E-01
    -18.341  0.0000E+00  0.5000E-01
    -18.255  0.0000E+00  0.5000E-01
    -18.169  0.0000E+00  0.5000E-01
    -18.082  0.0000E+00  0.5000E-01
    -17.996  0.0000E+00  0.5000E-01
    -17.910  0.0000E+00  0.5000E-01
    -17.823  0.0000E+00  0.5000E-01
    -17.737  0.0000E+00  0.5000E-01
    -17.651  0.0000E+00  0.5000E-01
    -17.564  0.0000E+00  0.5000E-01
    -17.478  0.0000E+00  0.5000E-01
    -17.392  0.0000E+00  0.5000E-01
    -17.305  0.0000E+00  0.5000E-01
    -17.219  0.0000E+00  0.5000E-01
    -17.133  0.0000E+00  0.5000E-01
    -17.046  0.0000E+00  0.5000E-01
    -16.960  0.0000E+00  0.5000E-01
    -16.874  0.0000E+00  0.5000E-01
    -16.787  0.0000E+00  0.5000E-01
    -16.701  0.0000E+00  0.5000E-01
    -16.615  0.0000E+00  0.5000E-01
    -16.528  0.0000E+00  0.5000E-01
    -16.442  0.0000E+00  0.5000E-01
    -16.356  0.0000E+00  0.5000E-01
    -16.269  0.0000E+00  0.5000E-01
    -16.183  0.0000E+00  0.5000E-01
    -16.097  0.0000E+00  0.5000E-01
    -16.010  0.0000E+00  0.5000E-01
    -15.924  0.0000E+00  0.5000E-01
    -15.838  0.0000E+00  0.5000E-01
    -15.751  0.0000E+00  0.5000E-01
    -15.665  0.0000E+00  0.5000E-01
    -15.579  0.0000E+00  0.5000E-01
    -15.492  0.0000E+00  0.5000E-01
    -15.406  0.0000E+00  0.5000E-01
    -15.320  0.0000E+00  0.5000E-01
    -15.233  0.0000E+00  0.5000E-01
    -15.147  0.0000E+00  0.5000E-01
    -15.061  0.0000E+00  0.5000E-01
    -14.974  0.0000E+00  0.5000E-01
    -14.888  0.0000E+00  0.5000E-01
    -14.802  0.0000E+00  0.5000E-01
    -14.716  0.0000E+00  0.5000E-01
    -14.629  0.0000E+00  0.5000E-01
    -14.543  0.0000E+00  0.5000E-01
    -14.457  0.0000E+00  0.5000E-01
    -14.370  0.0000E+00  0.5000E-01
    -14.284  0.0000E+00  0.5000E-01
    -14.198  0.0000E+00  0.5000E-01
    -14.111  0.0000E+00  0.5000E-01
    -14.025  0.0000E+00  0.5000E-01
    -13.939  0.0000E+00  0.5000E-01
    -13.852  0.0000E+00  0.5000E-01
    -13.766  0.0000E+00  0.5000E-01
    -13.680  0.0000E+00  0.5000E-01
    -13.593  0.0000E+00  0.5000E-01
    -13.507  0.0000E+00  0.5000E-01
    -13.421  0.0000E+00  0.5000E-01
    -13.334  0.0000E+00  0.5000E-01
    -13.248  0.0000E+00  0.5000E-01
    -13.162  0.0000E+00  0.5000E-01
    -13.075  0.0000E+00  0.5000E-01
    -12.989  0.0000E+00  0.5000E-01
    -12.903  0.0000E+00  0.5000E-01
    -12.816  0.0000E+00  0.5000E-01
    -12.730  0.0000E+00  0.5000E-01
    -12.644  0.0000E+00  0.5000E-01
    -12.557  0.0000E+00  0.5000E-01
    -12.471  0.0000E+00  0.5000E-01
    -12.385  0.0000E+00  0.5000E-01
    -12.298  0.0000E+00  0.5000E-01
    -12.212  0.0000E+00  0.5000E-01
    -12.126  0.0000E+00  0.5000E-01
    -12.039  0.0000E+00  0.5000E-01
    -11.953  0.0000E+00  0.5000E-01
    -11.867  0.0000E+00  0.5000E-01
    -11.780  0.0000E+00  0.5000E-01
    -11.694  0.0000E+00  0.5000E-01
    -11.608  0.0000E+00  0.5000E-01
    -11.521  0.0000E+00  0.5000E-01
    -11.435  0.0000E+00  0.5000E-01
    -11.349  0.0000E+00  0.5000E-01
    -11.262  0.0000E+00  0.5000E-01
    -11.176  0.0000E+00  0.5000E-01
    -11.090  0.0000E+00  0.5000E-01
    -11.003  0.0000E+00  0.5000E-01
    -10.917  0.0000E+00  0.5000E-01
    -10.831  0.0000E+00  0.5000E-01
    -10.744  0.0000E+00  0.5000E-01
    -10.658  0.0000E+00  0.5000E-01
    -10.572  0.0000E+00  0.5000E-01
    -10.485  0.0000E+00  0.5000E-01
    -10.399  0.0000E+00  0.5000E-01
    -10.313  0.0000E+00  0.5000E-01
    -10.226  0.0000E+00  0.5000E-01
    -10.140  0.0000E+00  0.5000E-01
    -10.054  0.0000E+00  0.5000E-01
     -9.967  0.0000E+00  0.5000E-01
     -9.881  0.0000E+00  0.5000E-01
     -9.795  0.0000E+00  0.5000E-01
     -9.708  0.0000E+00  0.5000E-01
     -9.622  0.0000E+00  0.5000E-01
     -9.536  0.4019E-16  0.5000E-01
     -9.449  0.1061E-08  0.5000E-01
     -9.363  0.9159E-04  0.5001E-01
     -9.277  0.3135E-01  0.5271E-01
     -9.190  0.1084E+00  0.6207E-01
     -9.104  0.2678E+00  0.8519E-01
     -9.018  0.5723E+00  0.1346E+00
     -8.931  0.3597E-01  0.1377E+00
     -8.845  0.9507E-01  0.1459E+00
     -8.759  0.5337E+00  0.1920E+00
     -8.672  0.8707E+00  0.2672E+00
     -8.586  0.8383E+00  0.3395E+00
     -8.500  0.3886E+00  0.3731E+00
     -8.413  0.1080E+00  0.3824E+00
     -8.327  0.5604E+00  0.4308E+00
     -8.241  0.4321E+00  0.4681E+00
     -8.154  0.7441E+00  0.5323E+00
     -8.068  0.1440E+01  0.6566E+00
     -7.982  0.1087E+01  0.7505E+00
     -7.895  0.1398E+00  0.7625E+00
     -7.809  0.2089E+00  0.7806E+00
     -7.723  0.1680E+01  0.9256E+00
     -7.636  0.1169E+01  0.1027E+01
     -7.550  0.7669E+00  0.1093E+01
     -7.464  0.5569E+00  0.1141E+01
     -7.377  0.4562E+00  0.1180E+01
     -7.291  0.9231E+00  0.1260E+01
     -7.205  0.1103E+01  0.1355E+01
     -7.118  0.1237E+01  0.1462E+01
     -7.032  0.1771E+01  0.1615E+01
     -6.946  0.1034E+01  0.1704E+01
     -6.859  0.1144E+01  0.1803E+01
     -6.773  0.1076E+01  0.1896E+01
     -6.687  0.1869E+01  0.2057E+01
     -6.600  0.1150E+01  0.2156E+01
     -6.514  0.4790E+00  0.2198E+01
     -6.428  0.2926E+00  0.2223E+01
     -6.341  0.8968E+00  0.2301E+01
     -6.255  0.6978E+00  0.2361E+01
     -6.169  0.2292E+01  0.2559E+01
     -6.082  0.2308E+01  0.2758E+01
     -5.996  0.1645E+01  0.2900E+01
     -5.910  0.1054E+01  0.2991E+01
     -5.823  0.1088E+01  0.3085E+01
     -5.737  0.2405E+01  0.3292E+01
     -5.651  0.8732E+00  0.3368E+01
     -5.564  0.1643E+01  0.3510E+01
     -5.478  0.1023E+01  0.3598E+01
     -5.392  0.8887E+00  0.3675E+01
     -5.305  0.1259E+01  0.3783E+01
     -5.219  0.1318E+01  0.3897E+01
     -5.133  0.2127E+01  0.4081E+01
     -5.047  0.2006E+01  0.4254E+01
     -4.960  0.1032E+01  0.4343E+01
     -4.874  0.6915E+00  0.4403E+01
     -4.788  0.1664E+01  0.4546E+01
     -4.701  0.2758E+01  0.4785E+01
     -4.615  0.2120E+01  0.4968E+01
     -4.529  0.7677E+00  0.5034E+01
     -4.442  0.1007E+01  0.5121E+01
     -4.356  0.1135E+01  0.5219E+01
     -4.270  0.2665E+01  0.5449E+01
     -4.183  0.2868E+01  0.5696E+01
     -4.097  0.2144E+01  0.5882E+01
     -4.011  0.1329E+01  0.5996E+01
     -3.924  0.1164E+01  0.6097E+01
     -3.838  0.1555E+01  0.6231E+01
     -3.752  0.2683E+01  0.6463E+01
     -3.665  0.1166E+01  0.6563E+01
     -3.579  0.1738E+01  0.6713E+01
     -3.493  0.1064E+01  0.6805E+01
     -3.406  0.8241E+00  0.6876E+01
     -3.320  0.6391E+00  0.6932E+01
     -3.234  0.1834E+01  0.7090E+01
     -3.147  0.3442E+01  0.7387E+01
     -3.061  0.1950E+01  0.7555E+01
     -2.975  0.1459E+01  0.7681E+01
     -2.888  0.3071E+01  0.7946E+01
     -2.802  0.4728E+01  0.8355E+01
     -2.716  0.2245E+01  0.8548E+01
     -2.629  0.1319E+01  0.8662E+01
     -2.543  0.4253E+00  0.8699E+01
     -2.457  0.7280E+00  0.8762E+01
     -2.370  0.1971E+01  0.8932E+01
     -2.284  0.2381E+01  0.9138E+01
     -2.198  0.3573E+01  0.9446E+01
     -2.111  0.1896E+01  0.9610E+01
     -2.025  0.6094E+00  0.9662E+01
     -1.939  0.1200E+01  0.9766E+01
     -1.852  0.4010E+01  0.1011E+02
     -1.766  0.2370E+01  0.1032E+02
     -1.680  0.1714E+01  0.1046E+02
     -1.593  0.1321E+01  0.1058E+02
     -1.507  0.1585E+01  0.1072E+02
     -1.421  0.2841E+01  0.1096E+02
     -1.334  0.3565E+01  0.1127E+02
     -1.248  0.4536E+01  0.1166E+02
     -1.162  0.1749E+01  0.1181E+02
     -1.075  0.2115E+01  0.1199E+02
     -0.989  0.1772E+01  0.1215E+02
     -0.903  0.1632E+01  0.1229E+02
     -0.816  0.3274E+01  0.1257E+02
     -0.730  0.1872E+01  0.1273E+02
     -0.644  0.9042E+00  0.1281E+02
     -0.557  0.1868E+01  0.1297E+02
     -0.471  0.4308E+01  0.1334E+02
     -0.385  0.2926E+01  0.1360E+02
     -0.298  0.3043E+01  0.1386E+02
     -0.212  0.2553E+01  0.1408E+02
     -0.126  0.1248E+01  0.1419E+02
     -0.039  0.1668E+01  0.1433E+02
      0.047  0.1781E+01  0.1448E+02
      0.133  0.1961E+01  0.1465E+02
      0.220  0.3192E+01  0.1493E+02
      0.306  0.1667E+01  0.1507E+02
      0.392  0.2059E+01  0.1525E+02
      0.479  0.3099E+01  0.1552E+02
      0.565  0.2785E+01  0.1576E+02
      0.651  0.1921E+01  0.1592E+02
      0.738  0.7079E+00  0.1599E+02
      0.824  0.1669E+01  0.1613E+02
      0.910  0.3469E+01  0.1643E+02
      0.997  0.4510E+01  0.1682E+02
      1.083  0.4834E+01  0.1724E+02
      1.169  0.2255E+01  0.1743E+02
      1.256  0.8763E+00  0.1751E+02
      1.342  0.1329E+01  0.1762E+02
      1.428  0.3195E+01  0.1790E+02
      1.515  0.4080E+01  0.1825E+02
      1.601  0.2923E+01  0.1850E+02
      1.687  0.2222E+01  0.1869E+02
      1.774  0.2537E+01  0.1891E+02
      1.860  0.2369E+01  0.1912E+02
      1.946  0.3408E+01  0.1941E+02
      2.033  0.2638E+01  0.1964E+02
      2.119  0.2779E+01  0.1988E+02
      2.205  0.1503E+01  0.2001E+02
      2.292  0.9575E+00  0.2009E+02
      2.378  0.1786E+01  0.2025E+02
      2.464  0.3701E+01  0.2057E+02
      2.551  0.3297E+01  0.2085E+02
      2.637  0.2793E+01  0.2109E+02
      2.723  0.1718E+01  0.2124E+02
      2.810  0.1743E+01  0.2139E+02
      2.896  0.5251E+01  0.2184E+02
      2.982  0.6157E+01  0.2237E+02
      3.069  0.3343E+01  0.2266E+02
      3.155  0.1745E+01  0.2281E+02
      3.241  0.2274E+01  0.2301E+02
      3.328  0.2681E+01  0.2324E+02
      3.414  0.4125E+01  0.2360E+02
      3.500  0.2829E+01  0.2384E+02
      3.587  0.2529E+01  0.2406E+02
      3.673  0.2005E+01  0.2423E+02
      3.759  0.1567E+01  0.2437E+02
      3.846  0.2179E+01  0.2456E+02
      3.932  0.2515E+01  0.2477E+02
      4.018  0.5496E+01  0.2525E+02
      4.105  0.1727E+01  0.2540E+02
      4.191  0.3214E-01  0.2540E+02
      4.277  0.9355E-05  0.2540E+02
      4.364  0.1447E-10  0.2540E+02
      4.450  0.0000E+00  0.2540E+02
      4.536  0.0000E+00  0.2540E+02
      4.622  0.0000E+00  0.2540E+02
      4.709  0.0000E+00  0.2540E+02
      4.795  0.0000E+00  0.2540E+02
      4.881  0.0000E+00  0.2540E+02
      4.968  0.0000E+00  0.2540E+02
      5.054  0.0000E+00  0.2540E+02
      5.140  0.0000E+00  0.2540E+02
      5.227  0.0000E+00  0.2540E+02
