         261
 Energy:  -998.73541250000005     
 X   0.00000000       0.00000000       0.00000000    
 X   0.00000000      -17.1805725       0.00000000    
 X   0.00000000      -8.59028625      -14.8788128    
 X   30.0000000       0.00000000       0.00000000    
 X   0.00000000      -25.7708588      -14.8788128    
 X   30.0000000      -17.1805725       0.00000000    
 X   30.0000000      -8.59028625      -14.8788128    
 X   30.0000000      -25.7708588      -14.8788128    
 Al   2.36204004      -11.4537201      -6.61281013    
 Al   2.36204004      -14.3171396      -11.5724096    
 Al   2.36204004      -8.59029007      -1.65320003    
 Al   2.36204004      -17.1805706      -6.61281013    
 Al   2.36204004      -20.0440006      -11.5724096    
 Al   2.36204004      -14.3171396      -1.65320003    
 Al   2.36204004      -5.72686005      -6.61281013    
 Al   2.36204004      -8.59029007      -11.5724096    
 Al   2.36204004      -2.86343002      -1.65320003    
 Al   4.71078014      -14.3171396      -8.26601028    
 Al   4.71078014      -17.1805706      -13.2256098    
 Al   4.71078014      -11.4537201      -3.30640006    
 Al   4.71078014      -20.0440006      -8.26601028    
 Al   4.71078014      -22.9074306      -13.2256098    
 Al   4.71078014      -17.1805706      -3.30640006    
 Al   4.71078014      -8.59029007      -8.26601028    
 Al   4.71078014      -11.4537201      -13.2256098    
 Al   4.71078014      -5.72686005      -3.30640006    
 Al   7.01272011      -17.1805706      -9.91921043    
 Al   7.01272011      -11.4537201       0.00000000    
 Al   7.01272011      -14.3171396      -4.95959997    
 Al   7.01272011      -5.72686005      -9.91921043    
 Al   7.01272011       0.00000000       0.00000000    
 Al   7.01272011      -2.86343002      -4.95959997    
 Al   7.01272011      -11.4537201      -9.91921043    
 Al   7.01272011      -5.72686005       0.00000000    
 Al   7.01272011      -8.59029007      -4.95959997    
 Al   9.35192013      -20.0440006      -11.5724096    
 Al   9.35192013      -14.3171396      -1.65320003    
 Al   9.35192013      -17.1805706      -6.61281013    
 Al   9.35192013      -8.59029007      -11.5724096    
 Al   9.35192013      -2.86343002      -1.65320003    
 Al   9.35192013      -5.72686005      -6.61281013    
 Al   9.35192013      -14.3171396      -11.5724096    
 Al   9.35192013      -8.59029007      -1.65320003    
 Al   9.35192013      -11.4537201      -6.61281013    
 Al   11.6911201      -22.9074306      -13.2256098    
 Al   11.6911201      -17.1805706      -3.30640006    
 Al   11.6911201      -20.0440006      -8.26601028    
 Al   11.6911201      -11.4537201      -13.2256098    
 Al   11.6911201      -5.72686005      -3.30640006    
 Al   11.6911201      -8.59029007      -8.26601028    
 Al   11.6911201      -17.1805706      -13.2256098    
 Al   11.6911201      -11.4537201      -3.30640006    
 Al   11.6911201      -14.3171396      -8.26601028    
 Al   13.9930601       0.00000000       0.00000000    
 Al   13.9930601      -2.86343002      -4.95959997    
 Al   13.9930601      -5.72686005      -9.91921043    
 Al   13.9930601      -5.72686005       0.00000000    
 Al   13.9930601      -8.59029007      -4.95959997    
 Al   13.9930601      -11.4537201      -9.91921043    
 Al   13.9930601      -11.4537201       0.00000000    
 Al   13.9930601      -14.3171396      -4.95959997    
 Al   13.9930601      -17.1805706      -9.91921043    
 Al   16.3418007      -2.86343002      -1.65320003    
 Al   16.3418007      -5.72686005      -6.61281013    
 Al   16.3418007      -8.59029007      -11.5724096    
 Al   16.3418007      -8.59029007      -1.65320003    
 Al   16.3418007      -11.4537201      -6.61281013    
 Al   16.3418007      -14.3171396      -11.5724096    
 Al   16.3418007      -14.3171396      -1.65320003    
 Al   16.3418007      -17.1805706      -6.61281013    
 Al   16.3418007      -20.0440006      -11.5724096    
 Al   2.36204004      -7.15856981      -4.13299990    
 Al   2.36204004      -10.0220003      -9.09261036    
 Al   2.36204004      -12.8854303      -14.0522099    
 Al   2.36204004      -12.8854303      -4.13299990    
 Al   2.36204004      -15.7488604      -9.09261036    
 Al   2.36204004      -18.6122894      -14.0522099    
 Al   2.36204004      -18.6122894      -4.13299990    
 Al   2.36204004      -21.4757195      -9.09261036    
 Al   2.36204004      -24.3391495      -14.0522099    
 Al   4.71078014      -10.0220003      -5.78621006    
 Al   4.71078014      -12.8854303      -10.7458096    
 Al   4.71078014      -7.15856981     -0.826600015    
 Al   4.71078014      -15.7488604      -5.78621006    
 Al   4.71078014      -18.6122894      -10.7458096    
 Al   4.71078014      -12.8854303     -0.826600015    
 Al   4.71078014      -4.29513979      -5.78621006    
 Al   4.71078014      -7.15856981      -10.7458096    
 Al   4.71078014      -1.43171000     -0.826600015    
 Al   7.01272011      -12.8854303      -7.43941021    
 Al   7.01272011      -15.7488604      -12.3990097    
 Al   7.01272011      -10.0220003      -2.47979999    
 Al   7.01272011      -18.6122894      -7.43941021    
 Al   7.01272011      -21.4757195      -12.3990097    
 Al   7.01272011      -15.7488604      -2.47979999    
 Al   7.01272011      -7.15856981      -7.43941021    
 Al   7.01272011      -10.0220003      -12.3990097    
 Al   7.01272011      -4.29513979      -2.47979999    
 Al   9.35192013      -15.7488604      -9.09261036    
 Al   9.35192013      -18.6122894      -14.0522099    
 Al   9.35192013      -12.8854303      -4.13299990    
 Al   9.35192013      -21.4757195      -9.09261036    
 Al   9.35192013      -24.3391495      -14.0522099    
 Al   9.35192013      -18.6122894      -4.13299990    
 Al   9.35192013      -10.0220003      -9.09261036    
 Al   9.35192013      -12.8854303      -14.0522099    
 Al   9.35192013      -7.15856981      -4.13299990    
 Al   11.6911201      -18.6122894      -10.7458096    
 Al   11.6911201      -12.8854303     -0.826600015    
 Al   11.6911201      -15.7488604      -5.78621006    
 Al   11.6911201      -7.15856981      -10.7458096    
 Al   11.6911201      -1.43171000     -0.826600015    
 Al   11.6911201      -4.29513979      -5.78621006    
 Al   11.6911201      -12.8854303      -10.7458096    
 Al   11.6911201      -7.15856981     -0.826600015    
 Al   11.6911201      -10.0220003      -5.78621006    
 Al   13.9930601      -21.4757195      -12.3990097    
 Al   13.9930601      -15.7488604      -2.47979999    
 Al   13.9930601      -18.6122894      -7.43941021    
 Al   13.9930601      -10.0220003      -12.3990097    
 Al   13.9930601      -4.29513979      -2.47979999    
 Al   13.9930601      -7.15856981      -7.43941021    
 Al   13.9930601      -15.7488604      -12.3990097    
 Al   13.9930601      -10.0220003      -2.47979999    
 Al   13.9930601      -12.8854303      -7.43941021    
 Al   16.3418007      -24.3391495      -14.0522099    
 Al   16.3418007      -18.6122894      -4.13299990    
 Al   16.3418007      -21.4757195      -9.09261036    
 Al   16.3418007      -12.8854303      -14.0522099    
 Al   16.3418007      -7.15856981      -4.13299990    
 Al   16.3418007      -10.0220003      -9.09261036    
 Al   16.3418007      -18.6122894      -14.0522099    
 Al   16.3418007      -12.8854303      -4.13299990    
 Al   16.3418007      -15.7488604      -9.09261036    
 Al   2.36204004      -8.59029007      -6.61281013    
 Al   2.36204004      -11.4537201      -11.5724096    
 Al   2.36204004      -5.72686005      -1.65320003    
 Al   2.36204004      -14.3171396      -6.61281013    
 Al   2.36204004      -17.1805706      -11.5724096    
 Al   2.36204004      -11.4537201      -1.65320003    
 Al   2.36204004      -20.0440006      -6.61281013    
 Al   2.36204004      -22.9074306      -11.5724096    
 Al   2.36204004      -17.1805706      -1.65320003    
 Al   4.71078014      -11.4537201      -8.26601028    
 Al   4.71078014      -14.3171396      -13.2256098    
 Al   4.71078014      -8.59029007      -3.30640006    
 Al   4.71078014      -17.1805706      -8.26601028    
 Al   4.71078014      -20.0440006      -13.2256098    
 Al   4.71078014      -14.3171396      -3.30640006    
 Al   4.71078014      -5.72686005      -8.26601028    
 Al   4.71078014      -8.59029007      -13.2256098    
 Al   4.71078014      -2.86343002      -3.30640006    
 Al   7.01272011      -14.3171396      -9.91921043    
 Al   7.01272011      -8.59029007       0.00000000    
 Al   7.01272011      -11.4537201      -4.95959997    
 Al   7.01272011      -20.0440006      -9.91921043    
 Al   7.01272011      -14.3171396       0.00000000    
 Al   7.01272011      -17.1805706      -4.95959997    
 Al   7.01272011      -8.59029007      -9.91921043    
 Al   7.01272011      -2.86343002       0.00000000    
 Al   7.01272011      -5.72686005      -4.95959997    
 Al   9.35192013      -17.1805706      -11.5724096    
 Al   9.35192013      -11.4537201      -1.65320003    
 Al   9.35192013      -14.3171396      -6.61281013    
 Al   9.35192013      -22.9074306      -11.5724096    
 Al   9.35192013      -17.1805706      -1.65320003    
 Al   9.35192013      -20.0440006      -6.61281013    
 Al   9.35192013      -11.4537201      -11.5724096    
 Al   9.35192013      -5.72686005      -1.65320003    
 Al   9.35192013      -8.59029007      -6.61281013    
 Al   11.6911201      -20.0440006      -13.2256098    
 Al   11.6911201      -14.3171396      -3.30640006    
 Al   11.6911201      -17.1805706      -8.26601028    
 Al   11.6911201      -8.59029007      -13.2256098    
 Al   11.6911201      -2.86343002      -3.30640006    
 Al   11.6911201      -5.72686005      -8.26601028    
 Al   11.6911201      -14.3171396      -13.2256098    
 Al   11.6911201      -8.59029007      -3.30640006    
 Al   11.6911201      -11.4537201      -8.26601028    
 Al   13.9930601      -14.3171396       0.00000000    
 Al   13.9930601      -17.1805706      -4.95959997    
 Al   13.9930601      -20.0440006      -9.91921043    
 Al   13.9930601      -2.86343002       0.00000000    
 Al   13.9930601      -5.72686005      -4.95959997    
 Al   13.9930601      -8.59029007      -9.91921043    
 Al   13.9930601      -8.59029007       0.00000000    
 Al   13.9930601      -11.4537201      -4.95959997    
 Al   13.9930601      -14.3171396      -9.91921043    
 Al   16.3418007      -17.1805706      -1.65320003    
 Al   16.3418007      -20.0440006      -6.61281013    
 Al   16.3418007      -22.9074306      -11.5724096    
 Al   16.3418007      -5.72686005      -1.65320003    
 Al   16.3418007      -8.59029007      -6.61281013    
 Al   16.3418007      -11.4537201      -11.5724096    
 Al   16.3418007      -11.4537201      -1.65320003    
 Al   16.3418007      -14.3171396      -6.61281013    
 Al   16.3418007      -17.1805706      -11.5724096    
 Al   2.36204004      -10.0220003      -4.13299990    
 Al   2.36204004      -12.8854303      -9.09261036    
 Al   2.36204004      -15.7488604      -14.0522099    
 Al   2.36204004      -15.7488604      -4.13299990    
 Al   2.36204004      -18.6122894      -9.09261036    
 Al   2.36204004      -21.4757195      -14.0522099    
 Al   2.36204004      -4.29513979      -4.13299990    
 Al   2.36204004      -7.15856981      -9.09261036    
 Al   2.36204004      -10.0220003      -14.0522099    
 Al   4.71078014      -12.8854303      -5.78621006    
 Al   4.71078014      -15.7488604      -10.7458096    
 Al   4.71078014      -10.0220003     -0.826600015    
 Al   4.71078014      -18.6122894      -5.78621006    
 Al   4.71078014      -21.4757195      -10.7458096    
 Al   4.71078014      -15.7488604     -0.826600015    
 Al   4.71078014      -7.15856981      -5.78621006    
 Al   4.71078014      -10.0220003      -10.7458096    
 Al   4.71078014      -4.29513979     -0.826600015    
 Al   7.01272011      -15.7488604      -7.43941021    
 Al   7.01272011      -18.6122894      -12.3990097    
 Al   7.01272011      -12.8854303      -2.47979999    
 Al   7.01272011      -4.29513979      -7.43941021    
 Al   7.01272011      -7.15856981      -12.3990097    
 Al   7.01272011      -1.43171000      -2.47979999    
 Al   7.01272011      -10.0220003      -7.43941021    
 Al   7.01272011      -12.8854303      -12.3990097    
 Al   7.01272011      -7.15856981      -2.47979999    
 Al   9.35192013      -18.6122894      -9.09261036    
 Al   9.35192013      -21.4757195      -14.0522099    
 Al   9.35192013      -15.7488604      -4.13299990    
 Al   9.35192013      -7.15856981      -9.09261036    
 Al   9.35192013      -10.0220003      -14.0522099    
 Al   9.35192013      -4.29513979      -4.13299990    
 Al   9.35192013      -12.8854303      -9.09261036    
 Al   9.35192013      -15.7488604      -14.0522099    
 Al   9.35192013      -10.0220003      -4.13299990    
 Al   11.6911201      -21.4757195      -10.7458096    
 Al   11.6911201      -15.7488604     -0.826600015    
 Al   11.6911201      -18.6122894      -5.78621006    
 Al   11.6911201      -10.0220003      -10.7458096    
 Al   11.6911201      -4.29513979     -0.826600015    
 Al   11.6911201      -7.15856981      -5.78621006    
 Al   11.6911201      -15.7488604      -10.7458096    
 Al   11.6911201      -10.0220003     -0.826600015    
 Al   11.6911201      -12.8854303      -5.78621006    
 Al   13.9930601      -7.15856981      -12.3990097    
 Al   13.9930601      -1.43171000      -2.47979999    
 Al   13.9930601      -4.29513979      -7.43941021    
 Al   13.9930601      -12.8854303      -12.3990097    
 Al   13.9930601      -7.15856981      -2.47979999    
 Al   13.9930601      -10.0220003      -7.43941021    
 Al   13.9930601      -18.6122894      -12.3990097    
 Al   13.9930601      -12.8854303      -2.47979999    
 Al   13.9930601      -15.7488604      -7.43941021    
 Al   16.3418007      -10.0220003      -14.0522099    
 Al   16.3418007      -4.29513979      -4.13299990    
 Al   16.3418007      -7.15856981      -9.09261036    
 Al   16.3418007      -15.7488604      -14.0522099    
 Al   16.3418007      -10.0220003      -4.13299990    
 Al   16.3418007      -12.8854303      -9.09261036    
 Al   16.3418007      -21.4757195      -14.0522099    
 Al   16.3418007      -15.7488604      -4.13299990    
 Al   16.3418007      -18.6122894      -9.09261036    
 O    14.6999998      -11.4537201      -8.26601028    
         261
 Energy:  -999.06543080000006     
 X   0.00000000       0.00000000       0.00000000    
 X   0.00000000      -17.1805725       0.00000000    
 X   0.00000000      -8.59028625      -14.8788128    
 X   30.0000000       0.00000000       0.00000000    
 X   0.00000000      -25.7708588      -14.8788128    
 X   30.0000000      -17.1805725       0.00000000    
 X   30.0000000      -8.59028625      -14.8788128    
 X   30.0000000      -25.7708588      -14.8788128    
 Al   2.36336994      -11.4537201      -6.61267996    
 Al   2.36427999      -14.3168898      -11.5725603    
 Al   2.36400008      -8.59018040      -1.65349996    
 Al   2.36420012      -17.1806297      -6.61294985    
 Al   2.36417007      -20.0440006      -11.5725002    
 Al   2.36400008      -14.3172503      -1.65349996    
 Al   2.36420012      -5.72679996      -6.61294985    
 Al   2.36427999      -8.59053993      -11.5725603    
 Al   2.36405993      -2.86343002      -1.65298998    
 Al   4.71133995      -14.3172703      -8.26593971    
 Al   4.71173000      -17.1807499      -13.2254496    
 Al   4.71161985      -11.4537201      -3.30624008    
 Al   4.71150017      -20.0440006      -8.26583958    
 Al   4.71173000      -22.9072495      -13.2254496    
 Al   4.71169996      -17.1808491      -3.30659008    
 Al   4.71133995      -8.59016037      -8.26593971    
 Al   4.71157980      -11.4537201      -13.2256203    
 Al   4.71169996      -5.72658014      -3.30659008    
 Al   7.01296997      -17.1807594      -9.91911030    
 Al   7.01303005      -11.4537201       1.19999997E-04
 Al   7.01279020      -14.3169498      -4.95960999    
 Al   7.01296997      -5.72666979      -9.91911030    
 Al   7.01295996      -2.69999990E-04   1.69999999E-04
 Al   7.01282978      -2.86343002      -4.95922995    
 Al   7.01371002      -11.4537201      -9.91886997    
 Al   7.01295996      -5.72659016       1.69999999E-04
 Al   7.01279020      -8.59047985      -4.95960999    
 Al   9.35146999      -20.0440006      -11.5716295    
 Al   9.35208035      -14.3171597      -1.65321004    
 Al   9.35163975      -17.1805801      -6.61277008    
 Al   9.35198021      -8.59055042      -11.5722704    
 Al   9.35204029      -2.86343002      -1.65279996    
 Al   9.35163975      -5.72685003      -6.61277008    
 Al   9.35198021      -14.3168802      -11.5722704    
 Al   9.35208035      -8.59027004      -1.65321004    
 Al   9.35274029      -11.4537201      -6.61306000    
 Al   11.6911602      -22.9073792      -13.2252102    
 Al   11.6909599      -17.1806908      -3.30648994    
 Al   11.6906700      -20.0440006      -8.26609039    
 Al   11.6910696      -11.4537201      -13.2251101    
 Al   11.6909599      -5.72673988      -3.30648994    
 Al   11.6907196      -8.59076023      -8.26628017    
 Al   11.6911602      -17.1806202      -13.2252102    
 Al   11.6908302      -11.4537201      -3.30715990    
 Al   11.6907196      -14.3166704      -8.26628017    
 Al   13.9920998      -3.49999988E-04  -1.99999995E-05
 Al   13.9921799      -2.86343002      -4.95985985    
 Al   13.9919004      -5.72697020      -9.91866970    
 Al   13.9920998      -5.72650003      -1.99999995E-05
 Al   13.9922600      -8.58990002      -4.95910978    
 Al   13.9753904      -11.4537201      -9.96080017    
 Al   13.9922705      -11.4537201       3.39999999E-04
 Al   13.9922600      -14.3175297      -4.95910978    
 Al   13.9919004      -17.1804600      -9.91866970    
 Al   16.3399601      -2.86343002      -1.65338004    
 Al   16.3403091      -5.72674990      -6.61287022    
 Al   16.3403397      -8.58961964      -11.5734501    
 Al   16.3401909      -8.59035015      -1.65371001    
 Al   16.3555794      -11.4537201      -6.60163021    
 Al   16.3403397      -14.3178196      -11.5734501    
 Al   16.3401909      -14.3170795      -1.65371001    
 Al   16.3403091      -17.1806793      -6.61287022    
 Al   16.3395195      -20.0440006      -11.5723801    
 Al   2.36420012      -7.15866995      -4.13288021    
 Al   2.36336994      -10.0218897      -9.09267044    
 Al   2.36420012      -12.8855896      -14.0521898    
 Al   2.36427999      -12.8856897      -4.13315010    
 Al   2.36427999      -15.7488604      -9.09230995    
 Al   2.36417007      -18.6123695      -14.0521698    
 Al   2.36405993      -18.6121101      -4.13311005    
 Al   2.36400008      -21.4759293      -9.09237003    
 Al   2.36400008      -24.3394604      -14.0521498    
 Al   4.71133995      -10.0218801      -5.78612995    
 Al   4.71133995      -12.8854399      -10.7459497    
 Al   4.71150017      -7.15843010     -0.826680005    
 Al   4.71157980      -15.7488604      -5.78620005    
 Al   4.71173000      -18.6122398      -10.7460403    
 Al   4.71173000      -12.8851995     -0.826529980    
 Al   4.71169996      -4.29516983      -5.78587008    
 Al   4.71161985      -7.15843010      -10.7458897    
 Al   4.71169996      -1.43201995     -0.826749980    
 Al   7.01371002      -12.8851404      -7.43956995    
 Al   7.01296997      -15.7488699      -12.3992205    
 Al   7.01296997      -10.0218296      -2.47969007    
 Al   7.01295996      -18.6120090      -7.43926001    
 Al   7.01303005      -21.4756107      -12.3990698    
 Al   7.01295996      -15.7488499      -2.48011994    
 Al   7.01279020      -7.15866995      -7.43956995    
 Al   7.01279020      -10.0219097      -12.3988504    
 Al   7.01282978      -4.29481983      -2.47999001    
 Al   9.35198021      -15.7486095      -9.09245014    
 Al   9.35146999      -18.6116104      -14.0525999    
 Al   9.35198021      -12.8854399      -4.13329983    
 Al   9.35208035      -21.4757099      -9.09259033    
 Al   9.35208035      -24.3391609      -14.0522203    
 Al   9.35204029      -18.6119404      -4.13320017    
 Al   9.35274029      -10.0222197      -9.09247971    
 Al   9.35163975      -12.8853998      -14.0522299    
 Al   9.35163975      -7.15853977      -4.13301992    
 Al   11.6911602      -18.6119595      -10.7460499    
 Al   11.6911602      -12.8850498     -0.826759994    
 Al   11.6910696      -15.7484198      -5.78645992    
 Al   11.6908302      -7.15923023      -10.7454300    
 Al   11.6909599      -1.43184996     -0.826659977    
 Al   11.6909599      -4.29515982      -5.78605986    
 Al   11.6907196      -12.8854303      -10.7452698    
 Al   11.6906700      -7.15864992     -0.826560020    
 Al   11.6907196      -10.0224705      -5.78647995    
 Al   13.9922705      -21.4754200      -12.3991804    
 Al   13.9920998      -15.7490501      -2.48009992    
 Al   13.9920998      -18.6121292      -7.43908978    
 Al   13.9922600      -10.0217695      -12.3995895    
 Al   13.9921799      -4.29537010      -2.47967005    
 Al   13.9922600      -7.15794992      -7.43932009    
 Al   13.9919004      -15.7483301      -12.3991899    
 Al   13.9919004      -10.0215797      -2.48017001    
 Al   13.9753904      -12.9214497      -7.41861010    
 Al   16.3401909      -24.3395500      -14.0518999    
 Al   16.3399601      -18.6124401      -4.13291979    
 Al   16.3401909      -21.4761906      -9.09241009    
 Al   16.3403091      -12.8855400      -14.0522804    
 Al   16.3403091      -7.15856981      -4.13287020    
 Al   16.3555794      -10.0123196      -9.09819984    
 Al   16.3395195      -18.6122608      -14.0522299    
 Al   16.3403397      -12.8859997      -4.13189983    
 Al   16.3403397      -15.7501001      -9.09267044    
 Al   2.36399007      -8.59025955      -6.61279011    
 Al   2.36399007      -11.4537201      -11.5724401    
 Al   2.36396003      -5.72698021      -1.65313005    
 Al   2.36399007      -14.3171701      -6.61279011    
 Al   2.36385012      -17.1804295      -11.5723305    
 Al   2.36385012      -11.4537201      -1.65337002    
 Al   2.36396003      -20.0440006      -6.61293983    
 Al   2.36385012      -22.9075794      -11.5723305    
 Al   2.36396003      -17.1804504      -1.65313005    
 Al   4.71198988      -11.4537201      -8.26601028    
 Al   4.71178007      -14.3169098      -13.2253399    
 Al   4.71178007      -8.59039974      -3.30674005    
 Al   4.71178007      -17.1802197      -8.26593971    
 Al   4.71191978      -20.0440006      -13.2256098    
 Al   4.71178007      -14.3170300      -3.30674005    
 Al   4.71178007      -5.72721004      -8.26593971    
 Al   4.71178007      -8.59051991      -13.2253399    
 Al   4.71160984      -2.86343002      -3.30640006    
 Al   7.01292992      -14.3166399      -9.91891003    
 Al   7.01274014      -8.59060955       1.80000003E-04
 Al   7.01292992      -11.4537201      -4.96018982    
 Al   7.01274014      -20.0440006      -9.91958046    
 Al   7.01274014      -14.3168201       1.80000003E-04
 Al   7.01264000      -17.1807899      -4.95947981    
 Al   7.01292992      -8.59080029      -9.91891003    
 Al   7.01264000      -2.86343002      -2.50000012E-04
 Al   7.01264000      -5.72664022      -4.95947981    
 Al   9.35200024      -17.1807899      -11.5725403    
 Al   9.35200024      -11.4537201      -1.65295005    
 Al   9.35208988      -14.3166904      -6.61307001    
 Al   9.35200024      -22.9072094      -11.5725403    
 Al   9.35163021      -17.1805496      -1.65319002    
 Al   9.35163021      -20.0440006      -6.61284018    
 Al   9.35208988      -11.4537201      -11.5718899    
 Al   9.35163021      -5.72689009      -1.65319002    
 Al   9.35208988      -8.59074020      -6.61307001    
 Al   11.6910496      -20.0440006      -13.2256098    
 Al   11.6908197      -14.3168802      -3.30656004    
 Al   11.6908197      -17.1803093      -8.26616001    
 Al   11.6908197      -8.59029007      -13.2253103    
 Al   11.6907196      -2.86343002      -3.30640006    
 Al   11.6908197      -5.72711992      -8.26616001    
 Al   11.6908197      -14.3171396      -13.2253103    
 Al   11.6908197      -8.59055042      -3.30656004    
 Al   11.6762400      -11.4537201      -8.26601028    
 Al   13.9921598      -14.3167696       2.20000002E-04
 Al   13.9918804      -17.1806107      -4.95957994    
 Al   13.9921598      -20.0440006      -9.91963959    
 Al   13.9918804      -2.86343002      -3.99999990E-05
 Al   13.9918804      -5.72681999      -4.95957994    
 Al   13.9931402      -8.59014988      -9.91928959    
 Al   13.9921598      -8.59066010       2.20000002E-04
 Al   13.9931402      -11.4537201      -4.95944977    
 Al   13.9931402      -14.3172798      -9.91928959    
 Al   16.3396492      -17.1806297      -1.65322995    
 Al   16.3396492      -20.0440006      -6.61274004    
 Al   16.3397808      -22.9063396      -11.5730400    
 Al   16.3396492      -5.72679996      -1.65322995    
 Al   16.3377895      -8.59218979      -6.61390018    
 Al   16.3377895      -11.4537201      -11.5702200    
 Al   16.3397808      -11.4537201      -1.65193999    
 Al   16.3377895      -14.3152504      -6.61390018    
 Al   16.3397808      -17.1816692      -11.5730400    
 Al   2.36427999      -10.0217400      -4.13315010    
 Al   2.36336994      -12.8855400      -9.09267044    
 Al   2.36400008      -15.7485504      -14.0521498    
 Al   2.36420012      -15.7487602      -4.13288021    
 Al   2.36400008      -18.6120796      -9.09237003    
 Al   2.36417007      -21.4756393      -14.0521698    
 Al   2.36405993      -4.29533005      -4.13311005    
 Al   2.36427999      -7.15856981      -9.09230995    
 Al   2.36420012      -10.0218401      -14.0521898    
 Al   4.71133995      -12.8855495      -5.78612995    
 Al   4.71161985      -15.7489996      -10.7458897    
 Al   4.71173000      -10.0222301     -0.826529980    
 Al   4.71169996      -18.6122608      -5.78587008    
 Al   4.71173000      -21.4757710      -10.7460403    
 Al   4.71150017      -15.7489996     -0.826680005    
 Al   4.71157980      -7.15856981      -5.78620005    
 Al   4.71133995      -10.0219898      -10.7459497    
 Al   4.71169996      -4.29483986     -0.826749980    
 Al   7.01279020      -15.7487602      -7.43956995    
 Al   7.01303005      -18.6124001      -12.3990698    
 Al   7.01296997      -12.8856001      -2.47969007    
 Al   7.01295996      -4.29542017      -7.43926001    
 Al   7.01296997      -7.15855980      -12.3992205    
 Al   7.01282978      -1.43203998      -2.47999001    
 Al   7.01371002      -10.0222902      -7.43956995    
 Al   7.01279020      -12.8855200      -12.3988504    
 Al   7.01295996      -7.15857983      -2.48011994    
 Al   9.35208035      -18.6122894      -9.09259033    
 Al   9.35146999      -21.4763908      -14.0525999    
 Al   9.35163975      -15.7488899      -4.13301992    
 Al   9.35198021      -7.15882015      -9.09245014    
 Al   9.35163975      -10.0220299      -14.0522299    
 Al   9.35204029      -4.29548979      -4.13320017    
 Al   9.35274029      -12.8852100      -9.09247971    
 Al   9.35208035      -15.7488499      -14.0522203    
 Al   9.35198021      -10.0219898      -4.13329983    
 Al   11.6911602      -21.4760399      -10.7460499    
 Al   11.6906700      -15.7487803     -0.826560020    
 Al   11.6909599      -18.6122704      -5.78605986    
 Al   11.6907196      -10.0220003      -10.7452698    
 Al   11.6909599      -4.29501009     -0.826659977    
 Al   11.6910696      -7.15900993      -5.78645992    
 Al   11.6908302      -15.7482004      -10.7454300    
 Al   11.6911602      -10.0223799     -0.826759994    
 Al   11.6907196      -12.8849602      -5.78647995    
 Al   13.9919004      -7.15910006      -12.3991899    
 Al   13.9921799      -1.43148994      -2.47967005    
 Al   13.9920998      -4.29530001      -7.43908978    
 Al   13.9922600      -12.8856602      -12.3995895    
 Al   13.9920998      -7.15838003      -2.48009992    
 Al   13.9753904      -9.98598957      -7.41861010    
 Al   13.9922705      -18.6125908      -12.3991804    
 Al   13.9919004      -12.8858500      -2.48017001    
 Al   13.9922600      -15.7494802      -7.43932009    
 Al   16.3403091      -10.0218897      -14.0522804    
 Al   16.3399601      -4.29499006      -4.13291979    
 Al   16.3403397      -7.15734005      -9.09267044    
 Al   16.3401909      -15.7484503      -14.0518999    
 Al   16.3403397      -10.0214396      -4.13189983    
 Al   16.3555794      -12.8951101      -9.09819984    
 Al   16.3395195      -21.4757500      -14.0522299    
 Al   16.3403091      -15.7488604      -4.13287020    
 Al   16.3401909      -18.6118202      -9.09241009    
 O    14.7154598      -11.4537201      -8.26601028    
         261
 Energy:  -999.31734549999999     
 X   0.00000000       0.00000000       0.00000000    
 X   0.00000000      -17.1805725       0.00000000    
 X   0.00000000      -8.59028625      -14.8788128    
 X   30.0000000       0.00000000       0.00000000    
 X   0.00000000      -25.7708588      -14.8788128    
 X   30.0000000      -17.1805725       0.00000000    
 X   30.0000000      -8.59028625      -14.8788128    
 X   30.0000000      -25.7708588      -14.8788128    
 Al   2.36680007      -11.4537201      -6.61237001    
 Al   2.37001991      -14.3162298      -11.5729599    
 Al   2.36904001      -8.58990955      -1.65427995    
 Al   2.36976004      -17.1807899      -6.61333990    
 Al   2.36964011      -20.0440006      -11.5727396    
 Al   2.36904001      -14.3175201      -1.65427995    
 Al   2.36976004      -5.72664022      -6.61333990    
 Al   2.37001991      -8.59119987      -11.5729599    
 Al   2.36923003      -2.86343002      -1.65244997    
 Al   4.71279001      -14.3176003      -8.26578045    
 Al   4.71416998      -17.1812000      -13.2250404    
 Al   4.71378994      -11.4537201      -3.30581999    
 Al   4.71335983      -20.0440006      -8.26541996    