       N       E                     dE             d eps       ncg     rms          rms(c)
DAV:   1     0.236831937281E+04    0.23683E+04   -0.20219E+05  2032   0.852E+02
DAV:   2    -0.705850150447E+03   -0.30742E+04   -0.29135E+04  2784   0.201E+02
DAV:   3    -0.942707706337E+03   -0.23686E+03   -0.22701E+03  2992   0.443E+01
DAV:   4    -0.954781987259E+03   -0.12074E+02   -0.11825E+02  3064   0.101E+01
DAV:   5    -0.955200921384E+03   -0.41893E+00   -0.41645E+00  3048   0.199E+00    0.286E+01
DAV:   6    -0.968030547186E+03   -0.12830E+02   -0.20739E+02  2764   0.178E+01    0.234E+01
DAV:   7    -0.931120329521E+03    0.36910E+02   -0.16854E+02  2644   0.177E+01    0.134E+01
DAV:   8    -0.930326270769E+03    0.79406E+00   -0.60437E+01  2536   0.812E+00    0.621E+00
DAV:   9    -0.937560354296E+03   -0.72341E+01   -0.64280E+00  2744   0.948E+00    0.844E+00
DAV:  10    -0.926003914543E+03    0.11556E+02   -0.98979E+00  2840   0.702E+00    0.161E+00
DAV:  11    -0.926062598861E+03   -0.58684E-01   -0.44591E+00  2560   0.202E+00    0.889E-01
DAV:  12    -0.926013012248E+03    0.49587E-01   -0.32504E-01  2544   0.824E-01    0.663E-01
DAV:  13    -0.925968059344E+03    0.44953E-01   -0.89423E-02  2528   0.439E-01    0.499E-01
DAV:  14    -0.925939301024E+03    0.28758E-01   -0.44033E-02  2448   0.290E-01    0.273E-01
DAV:  15    -0.925938536116E+03    0.76491E-03   -0.17691E-02  2592   0.166E-01    0.164E-01
DAV:  16    -0.925948606751E+03   -0.10071E-01   -0.10998E-02  2384   0.112E-01    0.109E-01
DAV:  17    -0.925955745840E+03   -0.71391E-02   -0.35199E-03  2408   0.680E-02    0.632E-02
DAV:  18    -0.925959577120E+03   -0.38313E-02   -0.12926E-03  2376   0.482E-02    0.386E-02
DAV:  19    -0.925961670071E+03   -0.20930E-02   -0.45730E-04  2392   0.286E-02    0.307E-02
DAV:  20    -0.925963589109E+03   -0.19190E-02   -0.34098E-04  2192   0.222E-02    0.184E-02
DAV:  21    -0.925964865920E+03   -0.12768E-02   -0.26355E-04  2248   0.158E-02    0.155E-02
DAV:  22    -0.925965740291E+03   -0.87437E-03   -0.26923E-04  2168   0.140E-02    0.161E-02
DAV:  23    -0.925966717379E+03   -0.97709E-03   -0.64133E-05  2048   0.887E-03    0.779E-03
DAV:  24    -0.925968285438E+03   -0.15681E-02   -0.19453E-04  2080   0.845E-03    0.760E-03
DAV:  25    -0.925968528828E+03   -0.24339E-03   -0.14089E-05  1776   0.375E-03    0.713E-03
DAV:  26    -0.925968684573E+03   -0.15574E-03   -0.84475E-06  1664   0.298E-03    0.277E-03
DAV:  27    -0.925968783553E+03   -0.98980E-04   -0.80482E-06  1640   0.218E-03    0.210E-03
DAV:  28    -0.925968799221E+03   -0.15668E-04   -0.86438E-07  1360   0.115E-03    0.202E-03
DAV:  29    -0.925968810593E+03   -0.11372E-04   -0.62836E-07  1288   0.997E-04    0.140E-03
DAV:  30    -0.925968812564E+03   -0.19712E-05   -0.25683E-07  1208   0.635E-04
   1 F= -.99873541E+03 E0= -.99868713E+03  d E =-.998735E+03
       N       E                     dE             d eps       ncg     rms          rms(c)
DAV:   1    -0.926233535089E+03   -0.26472E+00   -0.27737E+00  2080   0.228E+00    0.117E+00
DAV:   2    -0.926300814925E+03   -0.67280E-01   -0.72517E-01  2496   0.704E-01    0.114E+00
DAV:   3    -0.926290880793E+03    0.99341E-02   -0.20127E-02  2624   0.388E-01    0.953E-01
DAV:   4    -0.926295418861E+03   -0.45381E-02   -0.27239E-02  2944   0.386E-01    0.694E-01
DAV:   5    -0.926285746681E+03    0.96722E-02   -0.29448E-02  2800   0.404E-01    0.262E-01
DAV:   6    -0.926289965479E+03   -0.42188E-02   -0.24343E-02  2528   0.251E-01    0.208E-01
DAV:   7    -0.926285149770E+03    0.48157E-02   -0.96178E-03  2480   0.167E-01    0.102E-01
DAV:   8    -0.926285302970E+03   -0.15320E-03   -0.13866E-03  2536   0.450E-02    0.574E-02
DAV:   9    -0.926285275536E+03    0.27434E-04   -0.12865E-04  2600   0.198E-02    0.387E-02
DAV:  10    -0.926285261653E+03    0.13883E-04   -0.14499E-04  2872   0.217E-02    0.110E-02
DAV:  11    -0.926285272524E+03   -0.10871E-04   -0.12102E-04  2296   0.978E-03    0.192E-02
DAV:  12    -0.926285270891E+03    0.16332E-05   -0.37811E-06  1256   0.537E-03
   2 F= -.99906543E+03 E0= -.99901803E+03  d E =-.330021E+00
       N       E                     dE             d eps       ncg     rms          rms(c)
DAV:   1    -0.926189496088E+03    0.95776E-01   -0.17684E+01  2088   0.579E+00    0.283E+00
DAV:   2    -0.926574094961E+03   -0.38460E+00   -0.42113E+00  2480   0.189E+00    0.259E+00
DAV:   3    -0.926517963543E+03    0.56131E-01   -0.89570E-02  2616   0.831E-01    0.210E+00
DAV:   4    -0.926612400657E+03   -0.94437E-01   -0.16711E-01  3024   0.107E+00    0.162E+00
DAV:   5    -0.926508136871E+03    0.10426E+00   -0.16842E-01  2696   0.997E-01    0.744E-01
DAV:   6    -0.926528932942E+03   -0.20796E-01   -0.10802E-01  2496   0.606E-01    0.463E-01
DAV:   7    -0.926502195042E+03    0.26738E-01   -0.74194E-02  2496   0.458E-01    0.157E-01
DAV:   8    -0.926502321407E+03   -0.12636E-03   -0.86753E-03  2472   0.166E-01    0.909E-02
DAV:   9    -0.926502606297E+03   -0.28489E-03   -0.31751E-03  2472   0.615E-02    0.166E-01
DAV:  10    -0.926502424179E+03    0.18212E-03   -0.31787E-04  2528   0.383E-02    0.103E-01
DAV:  11    -0.926502369277E+03    0.54902E-04   -0.72198E-04  2600   0.355E-02    0.403E-02
DAV:  12    -0.926502383706E+03   -0.14429E-04   -0.25203E-04  2512   0.161E-02    0.129E-02
DAV:  13    -0.926502385530E+03   -0.18241E-05   -0.20176E-05  2192   0.846E-03
   3 F= -.99931735E+03 E0= -.99927212E+03  d E =-.581936E+00
       N       E                     dE             d eps       ncg     rms          rms(c)
DAV:   1    -0.926509066129E+03   -0.66824E-02   -0.25826E-01  2064   0.702E-01    0.439E-01
DAV:   2    -0.926514715669E+03   -0.56495E-02   -0.65746E-02  2592   0.217E-01    0.315E-01
DAV:   3    -0.926513127148E+03    0.15885E-02   -0.20002E-03  2960   0.127E-01    0.211E-01
DAV:   4    -0.926513944309E+03   -0.81716E-03   -0.97327E-03  2704   0.140E-01    0.124E-01
DAV:   5    -0.926515045552E+03   -0.11012E-02   -0.28948E-03  2816   0.149E-01    0.142E-01
DAV:   6    -0.926513560780E+03    0.14848E-02   -0.19746E-03  2808   0.128E-01    0.606E-02
DAV:   7    -0.926513360563E+03    0.20022E-03   -0.16823E-03  2504   0.588E-02    0.411E-02
DAV:   8    -0.926513322839E+03    0.37725E-04   -0.22433E-04  2456   0.280E-02    0.290E-02
DAV:   9    -0.926513323724E+03   -0.88537E-06   -0.20423E-04  2800   0.201E-02    0.124E-02
DAV:  10    -0.926513327135E+03   -0.34108E-05   -0.53445E-05  2160   0.797E-03    0.212E-02
DAV:  11    -0.926513328400E+03   -0.12650E-05   -0.18671E-06  1192   0.230E-03
   4 F= -.99932404E+03 E0= -.99927857E+03  d E =-.588632E+00
       N       E                     dE             d eps       ncg     rms          rms(c)
DAV:   1    -0.926537265179E+03   -0.23938E-01   -0.14660E+00  2080   0.162E+00    0.591E-01
DAV:   2    -0.926547211882E+03   -0.99467E-02   -0.10902E-01  2368   0.319E-01    0.239E-01
DAV:   3    -0.926548481439E+03   -0.12696E-02   -0.24990E-03  2784   0.119E-01    0.216E-01
DAV:   4    -0.926547102142E+03    0.13793E-02   -0.70718E-04  2704   0.101E-01    0.174E-01
DAV:   5    -0.926547174845E+03   -0.72703E-04   -0.13518E-03  2568   0.687E-02    0.585E-02
DAV:   6    -0.926546991320E+03    0.18352E-03   -0.16145E-03  2440   0.564E-02    0.508E-02
DAV:   7    -0.926546931776E+03    0.59545E-04   -0.22660E-04  2472   0.256E-02    0.373E-02
DAV:   8    -0.926546930793E+03    0.98300E-06   -0.14539E-04  2432   0.147E-02    0.195E-02
DAV:   9    -0.926546926415E+03    0.43782E-05   -0.41752E-05  2568   0.863E-03
   5 F= -.99937774E+03 E0= -.99933254E+03  d E =-.536991E-01
       N       E                     dE             d eps       ncg     rms          rms(c)
DAV:   1    -0.926531177863E+03    0.15753E-01   -0.13167E+01  2092   0.487E+00    0.192E+00
DAV:   2    -0.926624934347E+03   -0.93756E-01   -0.10224E+00  2344   0.997E-01    0.868E-01
DAV:   3    -0.926635692602E+03   -0.10758E-01   -0.22882E-02  2816   0.368E-01    0.740E-01
DAV:   4    -0.926624181170E+03    0.11511E-01   -0.70651E-03  2744   0.304E-01    0.630E-01
DAV:   5    -0.926624253594E+03   -0.72423E-04   -0.98813E-03  2528   0.179E-01    0.256E-01
DAV:   6    -0.926622882220E+03    0.13714E-02   -0.12084E-02  2384   0.166E-01    0.113E-01
DAV:   7    -0.926622480991E+03    0.40123E-03   -0.26379E-03  2480   0.831E-02    0.817E-02
DAV:   8    -0.926622480213E+03    0.77796E-06   -0.85629E-04  2464   0.366E-02    0.654E-02
DAV:   9    -0.926622431184E+03    0.49030E-04   -0.30383E-04  2568   0.234E-02    0.275E-02
DAV:  10    -0.926622439388E+03   -0.82045E-05   -0.12051E-04  2272   0.132E-02    0.126E-02
DAV:  11    -0.926622443725E+03   -0.43372E-05   -0.23842E-05  2048   0.575E-03
   6 F= -.99951372E+03 E0= -.99946943E+03  d E =-.189680E+00
       N       E                     dE             d eps       ncg     rms          rms(c)
DAV:   1    -0.926280606460E+03    0.34183E+00   -0.52655E+01  2092   0.982E+00    0.463E+00
DAV:   2    -0.926679332319E+03   -0.39873E+00   -0.42880E+00  2392   0.208E+00    0.224E+00
DAV:   3    -0.926716279442E+03   -0.36947E-01   -0.95473E-02  2768   0.738E-01    0.177E+00
DAV:   4    -0.926675100505E+03    0.41179E-01   -0.27437E-02  2712   0.578E-01    0.160E+00
DAV:   5    -0.926673698611E+03    0.14019E-02   -0.35231E-02  2568   0.320E-01    0.750E-01
DAV:   6    -0.926668686201E+03    0.50124E-02   -0.36437E-02  2376   0.302E-01    0.315E-01
DAV:   7    -0.926667967394E+03    0.71881E-03   -0.11295E-02  2480   0.155E-01    0.184E-01
DAV:   8    -0.926667726766E+03    0.24063E-03   -0.18505E-03  2448   0.684E-02    0.123E-01
DAV:   9    -0.926667734991E+03   -0.82244E-05   -0.79598E-04  2680   0.548E-02    0.978E-02
DAV:  10    -0.926667685820E+03    0.49171E-04   -0.49735E-04  2408   0.345E-02    0.591E-02
DAV:  11    -0.926667687799E+03   -0.19792E-05   -0.12979E-04  2656   0.182E-02    0.287E-02
DAV:  12    -0.926667699392E+03   -0.11593E-04   -0.39222E-05  2160   0.744E-03    0.132E-02
DAV:  13    -0.926667712010E+03   -0.12618E-04   -0.11620E-05  1672   0.376E-03    0.313E-03
DAV:  14    -0.926667723391E+03   -0.11381E-04   -0.24499E-06  1320   0.220E-03    0.258E-03
DAV:  15    -0.926667738995E+03   -0.15605E-04   -0.17262E-06  1344   0.195E-03    0.255E-03
DAV:  16    -0.926667751587E+03   -0.12591E-04   -0.14635E-06  1320   0.136E-03    0.243E-03
DAV:  17    -0.926667763537E+03   -0.11950E-04   -0.11525E-06  1360   0.199E-03    0.179E-03
DAV:  18    -0.926667770918E+03   -0.73817E-05   -0.19234E-06  1312   0.148E-03    0.318E-03
DAV:  19    -0.926667773434E+03   -0.25154E-05   -0.48914E-07  1208   0.189E-03
   7 F= -.99968070E+03 E0= -.99963786E+03  d E =-.356653E+00
       N       E                     dE             d eps       ncg     rms          rms(c)
DAV:   1    -0.924786121412E+03    0.18816E+01   -0.21295E+02  2112   0.203E+01    0.123E+01
DAV:   2    -0.926334326912E+03   -0.15482E+01   -0.16512E+01  2448   0.415E+00    0.583E+00
DAV:   3    -0.926504278145E+03   -0.16995E+00   -0.53472E-01  2720   0.164E+00    0.447E+00
DAV:   4    -0.926305060919E+03    0.19922E+00   -0.11156E-01  2680   0.115E+00    0.418E+00
DAV:   5    -0.926288539359E+03    0.16522E-01   -0.96492E-02  2536   0.643E-01    0.276E+00
DAV:   6    -0.926281966672E+03    0.65727E-02   -0.15466E-01  2432   0.587E-01    0.149E+00
DAV:   7    -0.926275594575E+03    0.63721E-02   -0.37958E-02  2456   0.301E-01    0.139E+00
DAV:   8    -0.926275918883E+03   -0.32431E-03   -0.71674E-03  2552   0.100E-01    0.126E+00
DAV:   9    -0.926280270276E+03   -0.43514E-02   -0.45626E-03  2792   0.182E-01    0.508E-01
DAV:  10    -0.926278822409E+03    0.14479E-02   -0.53719E-03  2328   0.109E-01    0.468E-01
DAV:  11    -0.926277423034E+03    0.13994E-02   -0.16405E-03  2680   0.786E-02    0.359E-01
DAV:  12    -0.926276882501E+03    0.54053E-03   -0.31385E-03  2632   0.532E-02    0.232E-01
DAV:  13    -0.926276756081E+03    0.12642E-03   -0.22121E-04  2776   0.188E-02    0.209E-01
DAV:  14    -0.926276845365E+03   -0.89284E-04   -0.21420E-05  1944   0.841E-03    0.212E-01
DAV:  15    -0.926276291788E+03    0.55358E-03   -0.12164E-03  3088   0.837E-02    0.679E-02
DAV:  16    -0.926276549051E+03   -0.25726E-03   -0.27531E-03  2400   0.428E-02    0.669E-02
DAV:  17    -0.926276582725E+03   -0.33674E-04   -0.16687E-04  2704   0.136E-02    0.838E-02
DAV:  18    -0.926276571725E+03    0.10999E-04   -0.49282E-06  1464   0.674E-03    0.777E-02
DAV:  19    -0.926276530188E+03    0.41538E-04   -0.10919E-04  2696   0.183E-02    0.449E-02
DAV:  20    -0.926276538629E+03   -0.84410E-05   -0.10866E-04  2136   0.849E-03    0.244E-02
DAV:  21    -0.926276536101E+03    0.25277E-05   -0.24068E-05  2336   0.963E-03
   8 F= -.99953555E+03 E0= -.99949011E+03  d E =-.211507E+00
       N       E                     dE             d eps       ncg     rms          rms(c)
DAV:   1    -0.925866916495E+03    0.40962E+00   -0.10483E+02  2076   0.140E+01    0.674E+00
DAV:   2    -0.926648520966E+03   -0.78160E+00   -0.89389E+00  2480   0.310E+00    0.242E+00
DAV:   3    -0.926651658401E+03   -0.31374E-02   -0.30344E-01  2608   0.872E-01    0.164E+00
DAV:   4    -0.926635137847E+03    0.16521E-01   -0.42313E-02  2536   0.435E-01    0.146E+00
DAV:   5    -0.926631180756E+03    0.39571E-02   -0.66899E-02  2976   0.548E-01    0.872E-01
DAV:   6    -0.926626126684E+03    0.50541E-02   -0.62616E-02  2536   0.324E-01    0.647E-01
DAV:   7    -0.926625311380E+03    0.81530E-03   -0.15235E-02  2432   0.201E-01    0.561E-01
DAV:   8    -0.926623678943E+03    0.16324E-02   -0.54852E-03  2544   0.129E-01    0.344E-01
DAV:   9    -0.926622360235E+03    0.13187E-02   -0.53471E-03  2896   0.144E-01    0.119E-01
DAV:  10    -0.926623004904E+03   -0.64467E-03   -0.94851E-03  2456   0.884E-02    0.147E-01
DAV:  11    -0.926623049673E+03   -0.44770E-04   -0.69114E-04  2688   0.297E-02    0.153E-01
DAV:  12    -0.926622692520E+03    0.35715E-03   -0.62340E-04  3056   0.709E-02    0.406E-02
DAV:  13    -0.926622896807E+03   -0.20429E-03   -0.22357E-03  2200   0.350E-02    0.792E-02
DAV:  14    -0.926622834925E+03    0.61881E-04   -0.88182E-05  2328   0.222E-02    0.528E-02
DAV:  15    -0.926622835946E+03   -0.10203E-05   -0.35240E-04  2608   0.195E-02    0.143E-02
DAV:  16    -0.926622843029E+03   -0.70831E-05   -0.28642E-05  1832   0.909E-03    0.449E-03
DAV:  17    -0.926622853767E+03   -0.10738E-04   -0.35273E-06  1384   0.237E-03    0.462E-03
DAV:  18    -0.926622865243E+03   -0.11476E-04   -0.17446E-06  1320   0.315E-03    0.834E-03
DAV:  19    -0.926622871753E+03   -0.65101E-05   -0.10706E-06  1240   0.298E-03    0.523E-03
DAV:  20    -0.926622880414E+03   -0.86610E-05   -0.50503E-06  1480   0.553E-03    0.475E-03
DAV:  21    -0.926622884344E+03   -0.39306E-05   -0.31703E-06  1336   0.314E-03
   9 F= -.99970703E+03 E0= -.99966437E+03  d E =-.382986E+00
       N       E                     dE             d eps       ncg     rms          rms(c)
DAV:   1    -0.926540137456E+03    0.82743E-01   -0.18328E+01  2032   0.564E+00    0.244E+00
DAV:   2    -0.926666218842E+03   -0.12608E+00   -0.13503E+00  2344   0.114E+00    0.116E+00
DAV:   3    -0.926669095434E+03   -0.28766E-02   -0.29464E-02  2728   0.431E-01    0.841E-01
DAV:   4    -0.926663178074E+03    0.59174E-02   -0.12921E-02  2608   0.299E-01    0.743E-01
DAV:   5    -0.926661820915E+03    0.13572E-02   -0.69590E-03  2536   0.170E-01    0.558E-01
DAV:   6    -0.926660148968E+03    0.16719E-02   -0.58894E-03  2432   0.128E-01    0.408E-01
DAV:   7    -0.926660007713E+03    0.14125E-03   -0.22031E-03  2504   0.739E-02    0.195E-01
DAV:   8    -0.926659997120E+03    0.10593E-04   -0.17438E-03  2408   0.538E-02    0.491E-02
DAV:   9    -0.926659973740E+03    0.23380E-04   -0.37256E-04  2648   0.432E-02    0.422E-02
DAV:  10    -0.926659991605E+03   -0.17865E-04   -0.33947E-04  2432   0.183E-02    0.475E-02
DAV:  11    -0.926659979072E+03    0.12533E-04   -0.25550E-05  2136   0.918E-03    0.393E-02
DAV:  12    -0.926659971670E+03    0.74021E-05   -0.56322E-05  2472   0.102E-02    0.201E-02
DAV:  13    -0.926659975714E+03   -0.40436E-05   -0.32846E-05  1968   0.577E-03
  10 F= -.99979709E+03 E0= -.99975477E+03  d E =-.900613E-01
       N       E                     dE             d eps       ncg     rms          rms(c)
DAV:   1    -0.925493062889E+03    0.11669E+01   -0.16783E+02  2056   0.176E+01    0.109E+01
DAV:   2    -0.926744271753E+03   -0.12512E+01   -0.13269E+01  2328   0.355E+00    0.494E+00
DAV:   3    -0.926776898684E+03   -0.32627E-01   -0.39775E-01  2720   0.137E+00    0.357E+00
DAV:   4    -0.926703331424E+03    0.73567E-01   -0.12099E-01  2584   0.881E-01    0.334E+00
DAV:   5    -0.926694585430E+03    0.87460E-02   -0.70890E-02  2560   0.562E-01    0.244E+00
DAV:   6    -0.926678209545E+03    0.16376E-01   -0.80475E-02  2416   0.438E-01    0.170E+00
DAV:   7    -0.926678568755E+03   -0.35921E-03   -0.15444E-02  2472   0.212E-01    0.152E+00
DAV:   8    -0.926679600317E+03   -0.10316E-02   -0.88496E-03  2544   0.140E-01    0.114E+00
DAV:   9    -0.926677248043E+03    0.23523E-02   -0.63906E-03  2896   0.234E-01    0.578E-02
DAV:  10    -0.926678574433E+03   -0.13264E-02   -0.14945E-02  2288   0.115E-01    0.218E-01
DAV:  11    -0.926678158144E+03    0.41629E-03   -0.77644E-04  2504   0.550E-02    0.161E-01
DAV:  12    -0.926678044603E+03    0.11354E-03   -0.82301E-04  2360   0.305E-02    0.928E-02
DAV:  13    -0.926678004625E+03    0.39978E-04   -0.23331E-04  3080   0.200E-02    0.597E-02
DAV:  14    -0.926677993744E+03    0.10881E-04   -0.37449E-04  2720   0.251E-02    0.159E-02
DAV:  15    -0.926678010285E+03   -0.16541E-04   -0.12997E-04  2184   0.952E-03    0.257E-02
DAV:  16    -0.926678010703E+03   -0.41875E-06   -0.25692E-06  1352   0.210E-03
  11 F= -.99997452E+03 E0= -.99993203E+03  d E =-.267495E+00
       N       E                     dE             d eps       ncg     rms          rms(c)
DAV:   1    -0.921752507739E+03    0.49255E+01   -0.64713E+02  2112   0.352E+01    0.289E+01
DAV:   2    -0.926574738950E+03   -0.48222E+01   -0.51461E+01  2360   0.759E+00    0.127E+01
DAV:   3    -0.926820207314E+03   -0.24547E+00   -0.26904E+00  2648   0.315E+00    0.909E+00
DAV:   4    -0.926385324694E+03    0.43488E+00   -0.56297E-01  2576   0.184E+00    0.858E+00
DAV:   5    -0.926309178275E+03    0.76146E-01   -0.31666E-01  2584   0.136E+00    0.618E+00
DAV:   6    -0.926273958640E+03    0.35220E-01   -0.77903E-01  2496   0.121E+00    0.393E+00
DAV:   7    -0.926262497017E+03    0.11462E-01   -0.10520E-01  2480   0.618E-01    0.443E+00
DAV:   8    -0.926268871714E+03   -0.63747E-02   -0.72440E-02  2560   0.318E-01    0.423E+00
DAV:   9    -0.926267651728E+03    0.12200E-02   -0.52034E-02  2824   0.614E-01    0.995E-01
DAV:  10    -0.926273223427E+03   -0.55717E-02   -0.92550E-02  2280   0.302E-01    0.823E-01
DAV:  11    -0.926267242477E+03    0.59810E-02   -0.81068E-03  2520   0.175E-01    0.620E-01
DAV:  12    -0.926264815846E+03    0.24266E-02   -0.21962E-02  2584   0.152E-01    0.233E-01
DAV:  13    -0.926264524483E+03    0.29136E-03   -0.58471E-03  3032   0.958E-02    0.188E-01
DAV:  14    -0.926265665706E+03   -0.11412E-02   -0.66813E-03  2768   0.103E-01    0.267E-01
DAV:  15    -0.926265724216E+03   -0.58510E-04   -0.17911E-03  2368   0.471E-02    0.274E-01
DAV:  16    -0.926265219410E+03    0.50481E-03   -0.45670E-04  2760   0.430E-02    0.204E-01
DAV:  17    -0.926265072984E+03    0.14643E-03   -0.90468E-04  2368   0.258E-02    0.133E-01
DAV:  18    -0.926264964620E+03    0.10836E-03   -0.15890E-04  3136   0.174E-02    0.102E-01
DAV:  19    -0.926264929550E+03    0.35070E-04   -0.27187E-04  2864   0.214E-02    0.548E-02
DAV:  20    -0.926264918379E+03    0.11171E-04   -0.16729E-04  2568   0.151E-02    0.251E-02
DAV:  21    -0.926264932962E+03   -0.14583E-04   -0.10135E-04  2360   0.102E-02    0.165E-02
DAV:  22    -0.926264968390E+03   -0.35428E-04   -0.52517E-05  2384   0.985E-03    0.223E-02
DAV:  23    -0.926264983368E+03   -0.14978E-04   -0.23069E-05  1888   0.402E-03    0.291E-02
DAV:  24    -0.926264986484E+03   -0.31162E-05   -0.21219E-06  1416   0.414E-03
  12 F= -.99988222E+03 E0= -.99983129E+03  d E =-.175192E+00
       N       E                     dE             d eps       ncg     rms          rms(c)
DAV:   1    -0.924573893264E+03    0.16911E+01   -0.28124E+02  2112   0.228E+01    0.141E+01
DAV:   2    -0.926675364845E+03   -0.21015E+01   -0.22768E+01  2424   0.457E+00    0.607E+00
DAV:   3    -0.926676011130E+03   -0.64629E-03   -0.74774E-01  2680   0.127E+00    0.388E+00
DAV:   4    -0.926632978328E+03    0.43033E-01   -0.10591E-01  2568   0.666E-01    0.376E+00
DAV:   5    -0.926621589233E+03    0.11389E-01   -0.10668E-01  2696   0.665E-01    0.286E+00
DAV:   6    -0.926595212723E+03    0.26377E-01   -0.16648E-01  2584   0.724E-01    0.148E+00
DAV:   7    -0.926595914107E+03   -0.70138E-03   -0.77675E-02  2440   0.342E-01    0.159E+00
DAV:   8    -0.926594885012E+03    0.10291E-02   -0.11550E-02  2960   0.189E-01    0.146E+00
DAV:   9    -0.926592621808E+03    0.22632E-02   -0.14388E-02  2448   0.186E-01    0.325E-01
DAV:  10    -0.926593165211E+03   -0.54340E-03   -0.11557E-02  2648   0.137E-01    0.153E-01
DAV:  11    -0.926593308924E+03   -0.14371E-03   -0.29293E-03  2368   0.544E-02    0.203E-01
DAV:  12    -0.926592877212E+03    0.43171E-03   -0.82810E-04  2880   0.755E-02    0.683E-02
DAV:  13    -0.926593553962E+03   -0.67675E-03   -0.63107E-03  2904   0.933E-02    0.190E-01
DAV:  14    -0.926592923669E+03    0.63029E-03   -0.95578E-04  2376   0.949E-02    0.925E-02
DAV:  15    -0.926593056499E+03   -0.13283E-03   -0.23687E-03  2216   0.439E-02    0.187E-02
DAV:  16    -0.926593067750E+03   -0.11250E-04   -0.12091E-04  2392   0.283E-02    0.161E-02
DAV:  17    -0.926593087669E+03   -0.19919E-04   -0.68955E-05  2016   0.729E-03    0.177E-02
DAV:  18    -0.926593099152E+03   -0.11483E-04   -0.13171E-05  1744   0.102E-02    0.816E-03
DAV:  19    -0.926593115552E+03   -0.16401E-04   -0.25696E-05  1944   0.398E-03    0.802E-03
DAV:  20    -0.926593125343E+03   -0.97912E-05   -0.97939E-07  1296   0.153E-03    0.587E-03
DAV:  21    -0.926593139138E+03   -0.13795E-04   -0.24434E-06  1416   0.201E-03    0.727E-03
DAV:  22    -0.926593143702E+03   -0.45639E-05   -0.88810E-07  1240   0.271E-03
  13 F= -.10000017E+04 E0= -.99995751E+03  d E =-.294644E+00
       N       E                     dE             d eps       ncg     rms          rms(c)
DAV:   1    -0.926231538089E+03    0.36160E+00   -0.58120E+01  2072   0.100E+01    0.425E+00
DAV:   2    -0.926622493810E+03   -0.39096E+00   -0.41370E+00  2328   0.212E+00    0.244E+00
DAV:   3    -0.926623719553E+03   -0.12257E-02   -0.10380E-01  2776   0.381E-01    0.194E+00
DAV:   4    -0.926623417268E+03    0.30229E-03   -0.18842E-02  2496   0.270E-01    0.167E+00
DAV:   5    -0.926628404725E+03   -0.49875E-02   -0.77605E-03  2840   0.340E-01    0.127E+00
DAV:   6    -0.926614405217E+03    0.14000E-01   -0.18358E-02  2792   0.353E-01    0.379E-01
DAV:   7    -0.926615756485E+03   -0.13513E-02   -0.18868E-02  2400   0.148E-01    0.254E-01
DAV:   8    -0.926615840038E+03   -0.83552E-04   -0.24164E-03  2536   0.524E-02    0.250E-01
DAV:   9    -0.926615539197E+03    0.30084E-03   -0.22352E-04  2488   0.223E-02    0.199E-01
DAV:  10    -0.926615207274E+03    0.33192E-03   -0.10765E-03  2608   0.494E-02    0.147E-01
DAV:  11    -0.926615121328E+03    0.85946E-04   -0.97939E-04  2448   0.348E-02    0.138E-01
DAV:  12    -0.926615087136E+03    0.34192E-04   -0.21842E-04  2944   0.181E-02    0.125E-01
DAV:  13    -0.926615085028E+03    0.21075E-05   -0.39836E-05  2048   0.606E-03
  14 F= -.10001132E+04 E0= -.10000670E+04  d E =-.111544E+00
       N       E                     dE             d eps       ncg     rms          rms(c)
DAV:   1    -0.926547641887E+03    0.67445E-01   -0.76327E+00  2072   0.362E+00    0.105E+00
DAV:   2    -0.926593186657E+03   -0.45545E-01   -0.48470E-01  2328   0.708E-01    0.726E-01
DAV:   3    -0.926593049005E+03    0.13765E-03   -0.11234E-02  2648   0.148E-01    0.601E-01
DAV:   4    -0.926593585655E+03   -0.53665E-03   -0.29535E-03  2600   0.123E-01    0.528E-01
DAV:   5    -0.926594103799E+03   -0.51814E-03   -0.19241E-03  3008   0.150E-01    0.388E-01
DAV:   6    -0.926591620849E+03    0.24829E-02   -0.40038E-03  2872   0.127E-01    0.971E-02
DAV:   7    -0.926591812140E+03   -0.19129E-03   -0.19832E-03  2440   0.461E-02    0.435E-02
DAV:   8    -0.926591824624E+03   -0.12485E-04   -0.83531E-05  2680   0.155E-02    0.457E-02
DAV:   9    -0.926591817261E+03    0.73632E-05   -0.60777E-05  2280   0.127E-02    0.242E-02
DAV:  10    -0.926591817131E+03    0.12957E-06   -0.40813E-05  2168   0.823E-03
  15 F= -.10001226E+04 E0= -.10000754E+04  d E =-.120905E+00
       N       E                     dE             d eps       ncg     rms          rms(c)
DAV:   1    -0.926111282572E+03    0.48053E+00   -0.83462E+01  2080   0.121E+01    0.587E+00
DAV:   2    -0.926656837200E+03   -0.54555E+00   -0.59196E+00  2264   0.244E+00    0.274E+00
DAV:   3    -0.926641922748E+03    0.14914E-01   -0.15210E-01  2704   0.704E-01    0.190E+00
DAV:   4    -0.926642935598E+03   -0.10129E-02   -0.50667E-02  2616   0.467E-01    0.167E+00
DAV:   5    -0.926644039724E+03   -0.11041E-02   -0.50190E-02  2712   0.513E-01    0.113E+00
DAV:   6    -0.926628363557E+03    0.15676E-01   -0.31989E-02  2520   0.327E-01    0.768E-01
DAV:   7    -0.926628277884E+03    0.85673E-04   -0.56561E-03  2448   0.134E-01    0.792E-01
DAV:   8    -0.926628546154E+03   -0.26827E-03   -0.30788E-03  2568   0.804E-02    0.623E-01
DAV:   9    -0.926628501344E+03    0.44810E-04   -0.32550E-03  2464   0.987E-02    0.142E-01
DAV:  10    -0.926628400053E+03    0.10129E-03   -0.15509E-03  2392   0.695E-02    0.761E-02
DAV:  11    -0.926628483047E+03   -0.82994E-04   -0.86894E-04  2448   0.297E-02    0.903E-02
DAV:  12    -0.926628434436E+03    0.48611E-04   -0.74178E-05  2672   0.238E-02    0.510E-02
DAV:  13    -0.926628467459E+03   -0.33024E-04   -0.46674E-04  2672   0.305E-02    0.391E-02
DAV:  14    -0.926628446646E+03    0.20813E-04   -0.12599E-04  2224   0.291E-02    0.712E-03
DAV:  15    -0.926628463517E+03   -0.16871E-04   -0.14285E-04  2096   0.131E-02    0.187E-02
DAV:  16    -0.926628461216E+03    0.23013E-05   -0.11228E-05  1664   0.104E-02
  16 F= -.10002392E+04 E0= -.10001901E+04  d E =-.116631E+00
       N       E                     dE             d eps       ncg     rms          rms(c)
DAV:   1    -0.921906773589E+03    0.47217E+01   -0.70325E+02  2112   0.364E+01    0.306E+01
DAV:   2    -0.926828485915E+03   -0.49217E+01   -0.54779E+01  2380   0.744E+00    0.130E+01
DAV:   3    -0.926699245013E+03    0.12924E+00   -0.31195E+00  2560   0.249E+00    0.864E+00
DAV:   4    -0.926610300067E+03    0.88945E-01   -0.68016E-01  2496   0.114E+00    0.786E+00
DAV:   5    -0.926644954881E+03   -0.34655E-01   -0.36121E-01  3024   0.133E+00    0.509E+00
DAV:   6    -0.926571783950E+03    0.73171E-01   -0.27615E-01  2632   0.118E+00    0.471E+00
DAV:   7    -0.926547209605E+03    0.24574E-01   -0.68904E-02  2488   0.554E-01    0.430E+00
DAV:   8    -0.926546051404E+03    0.11582E-02   -0.61626E-02  2656   0.515E-01    0.213E+00
DAV:   9    -0.926551686004E+03   -0.56346E-02   -0.85512E-02  2536   0.337E-01    0.967E-01
DAV:  10    -0.926539864313E+03    0.11822E-01   -0.13271E-02  2760   0.299E-01    0.642E-01
DAV:  11    -0.926539755542E+03    0.10877E-03   -0.34525E-02  2296   0.174E-01    0.397E-01
DAV:  12    -0.926540348544E+03   -0.59300E-03   -0.22566E-03  2584   0.750E-02    0.340E-01
DAV:  13    -0.926540277040E+03    0.71504E-04   -0.56295E-04  2344   0.239E-02    0.327E-01
DAV:  14    -0.926540963015E+03   -0.68598E-03   -0.10769E-03  2576   0.558E-02    0.341E-01
DAV:  15    -0.926541316107E+03   -0.35309E-03   -0.11200E-03  2352   0.306E-02    0.382E-01
DAV:  16    -0.926540717539E+03    0.59857E-03   -0.12998E-04  2744   0.330E-02    0.313E-01
DAV:  17    -0.926540254972E+03    0.46257E-03   -0.10165E-03  2856   0.410E-02    0.214E-01
DAV:  18    -0.926540301518E+03   -0.46545E-04   -0.23993E-04  2408   0.163E-02    0.186E-01
DAV:  19    -0.926540131562E+03    0.16996E-03   -0.60034E-05  2544   0.196E-02    0.153E-01
DAV:  20    -0.926539912885E+03    0.21868E-03   -0.57588E-04  3104   0.380E-02    0.878E-02
DAV:  21    -0.926539913861E+03   -0.97623E-06   -0.60362E-04  2424   0.213E-02    0.441E-02
DAV:  22    -0.926539908971E+03    0.48894E-05   -0.62251E-05  2448   0.916E-03    0.343E-02
DAV:  23    -0.926539914539E+03   -0.55677E-05   -0.88388E-05  2672   0.109E-02    0.324E-02
DAV:  24    -0.926539924928E+03   -0.10389E-04   -0.20997E-05  2056   0.586E-03    0.373E-02
DAV:  25    -0.926539941148E+03   -0.16220E-04   -0.30942E-05  2200   0.710E-03    0.360E-02
DAV:  26    -0.926539943248E+03   -0.21000E-05   -0.96763E-06  1496   0.303E-03
  17 F= -.10003917E+04 E0= -.10003285E+04  d E =-.269126E+00
       N       E                     dE             d eps       ncg     rms          rms(c)
DAV:   1    -0.926292404642E+03    0.24754E+00   -0.47624E+01  2032   0.897E+00    0.390E+00
DAV:   2    -0.926594638198E+03   -0.30223E+00   -0.33074E+00  2280   0.182E+00    0.165E+00
DAV:   3    -0.926583977144E+03    0.10661E-01   -0.80503E-02  2712   0.506E-01    0.114E+00
DAV:   4    -0.926582910230E+03    0.10669E-02   -0.67061E-02  2480   0.382E-01    0.730E-01
DAV:   5    -0.926583003888E+03   -0.93659E-04   -0.29816E-02  2464   0.255E-01    0.529E-01
DAV:   6    -0.926582354569E+03    0.64932E-03   -0.42629E-03  2656   0.219E-01    0.491E-01
DAV:   7    -0.926580418741E+03    0.19358E-02   -0.20901E-03  2704   0.165E-01    0.449E-01
DAV:   8    -0.926580296143E+03    0.12260E-03   -0.27430E-03  2592   0.998E-02    0.213E-01
DAV:   9    -0.926580110594E+03    0.18555E-03   -0.24979E-03  2448   0.707E-02    0.114E-01
DAV:  10    -0.926579972266E+03    0.13833E-03   -0.80471E-04  2576   0.455E-02    0.652E-02
DAV:  11    -0.926579975440E+03   -0.31743E-05   -0.11463E-03  2656   0.415E-02    0.460E-02
DAV:  12    -0.926579995003E+03   -0.19563E-04   -0.34364E-04  2344   0.198E-02    0.595E-02
DAV:  13    -0.926579982332E+03    0.12672E-04   -0.42078E-05  2112   0.841E-03    0.437E-02
DAV:  14    -0.926579973553E+03    0.87788E-05   -0.31899E-05  2096   0.671E-03    0.232E-02
DAV:  15    -0.926579968021E+03    0.55318E-05   -0.26962E-05  2376   0.938E-03    0.680E-03
DAV:  16    -0.926579973167E+03   -0.51455E-05   -0.46306E-05  1904   0.556E-03    0.148E-02
DAV:  17    -0.926579972249E+03    0.91799E-06   -0.15824E-06  1168   0.311E-03
  18 F= -.10004814E+04 E0= -.10004141E+04  d E =-.897194E-01
       N       E                     dE             d eps       ncg     rms          rms(c)
DAV:   1    -0.923757881659E+03    0.28221E+01   -0.42924E+02  2112   0.278E+01    0.217E+01
DAV:   2    -0.926748197080E+03   -0.29903E+01   -0.32946E+01  2456   0.526E+00    0.888E+00
DAV:   3    -0.926582896562E+03    0.16530E+00   -0.11555E+00  2688   0.182E+00    0.565E+00
DAV:   4    -0.926577733093E+03    0.51635E-02   -0.87395E-01  2560   0.145E+00    0.397E+00
DAV:   5    -0.926657884305E+03   -0.80151E-01   -0.35205E-01  2768   0.142E+00    0.299E+00
DAV:   6    -0.926537366362E+03    0.12052E+00   -0.14495E-01  2680   0.968E-01    0.293E+00
DAV:   7    -0.926530896074E+03    0.64703E-02   -0.32723E-02  2552   0.347E-01    0.296E+00
DAV:   8    -0.926529096366E+03    0.17997E-02   -0.15872E-02  2576   0.167E-01    0.242E+00
DAV:   9    -0.926526672924E+03    0.24234E-02   -0.23103E-02  2360   0.267E-01    0.707E-01
DAV:  10    -0.926525417668E+03    0.12553E-02   -0.31641E-02  2720   0.271E-01    0.330E-01
DAV:  11    -0.926526086958E+03   -0.66929E-03   -0.10317E-02  2384   0.110E-01    0.351E-01
DAV:  12    -0.926525389460E+03    0.69750E-03   -0.22913E-03  2736   0.107E-01    0.837E-02
DAV:  13    -0.926525702413E+03   -0.31295E-03   -0.35031E-03  2232   0.463E-02    0.840E-02
DAV:  14    -0.926525656000E+03    0.46413E-04   -0.14599E-04  2560   0.312E-02    0.350E-02
DAV:  15    -0.926525694795E+03   -0.38795E-04   -0.43737E-04  2296   0.199E-02    0.417E-02
DAV:  16    -0.926525693501E+03    0.12933E-05   -0.28346E-05  1872   0.110E-02
  19 F= -.10005764E+04 E0= -.10004954E+04  d E =-.184724E+00
       N       E                     dE             d eps       ncg     rms          rms(c)
DAV:   1    -0.926047727006E+03    0.47797E+00   -0.87895E+01  2056   0.122E+01    0.574E+00
DAV:   2    -0.926634948237E+03   -0.58722E+00   -0.62275E+00  2280   0.248E+00    0.264E+00
DAV:   3    -0.926629170793E+03    0.57774E-02   -0.12270E-01  2792   0.543E-01    0.190E+00
DAV:   4    -0.926631985025E+03   -0.28142E-02   -0.31427E-02  2616   0.419E-01    0.165E+00
DAV:   5    -0.926620257579E+03    0.11727E-01   -0.40458E-02  2608   0.559E-01    0.682E-01
DAV:   6    -0.926616784852E+03    0.34727E-02   -0.80713E-02  2424   0.341E-01    0.608E-01
DAV:   7    -0.926615418944E+03    0.13659E-02   -0.77912E-03  2456   0.125E-01    0.583E-01
DAV:   8    -0.926616014303E+03   -0.59536E-03   -0.12314E-03  2560   0.402E-02    0.489E-01
DAV:   9    -0.926613012360E+03    0.30019E-02   -0.37022E-03  2464   0.144E-01    0.261E-01
DAV:  10    -0.926613517128E+03   -0.50477E-03   -0.17400E-02  2780   0.142E-01    0.167E-01
DAV:  11    -0.926613465854E+03    0.51274E-04   -0.19432E-03  2416   0.609E-02    0.184E-01
DAV:  12    -0.926613410268E+03    0.55586E-04   -0.42223E-04  2624   0.218E-02    0.114E-01
DAV:  13    -0.926613407359E+03    0.29089E-05   -0.58641E-05  2400   0.936E-03    0.771E-02
DAV:  14    -0.926613344598E+03    0.62761E-04   -0.63168E-05  2584   0.195E-02    0.480E-02
DAV:  15    -0.926613347335E+03   -0.27377E-05   -0.19288E-04  2264   0.115E-02    0.154E-02
DAV:  16    -0.926613349648E+03   -0.23123E-05   -0.61354E-06  1464   0.391E-03
  20 F= -.10005971E+04 E0= -.10005222E+04  d E =-.205366E+00
       N       E                     dE             d eps       ncg     rms          rms(c)
DAV:   1    -0.926557096475E+03    0.56251E-01   -0.78874E+00  2072   0.357E+00    0.135E+00
DAV:   2    -0.926602685439E+03   -0.45589E-01   -0.49305E-01  2352   0.657E-01    0.565E-01
DAV:   3    -0.926601232697E+03    0.14527E-02   -0.93802E-03  2704   0.178E-01    0.413E-01
DAV:   4    -0.926602104490E+03   -0.87179E-03   -0.74006E-03  2544   0.149E-01    0.277E-01
DAV:   5    -0.926601716157E+03    0.38833E-03   -0.35128E-03  2728   0.146E-01    0.185E-01
DAV:   6    -0.926600683198E+03    0.10330E-02   -0.15401E-03  2728   0.954E-02    0.132E-01
DAV:   7    -0.926600550150E+03    0.13305E-03   -0.53295E-04  2560   0.568E-02    0.116E-01
DAV:   8    -0.926600590115E+03   -0.39965E-04   -0.55394E-04  2504   0.342E-02    0.381E-02
DAV:   9    -0.926600570202E+03    0.19913E-04   -0.28711E-04  2464   0.230E-02    0.211E-02
DAV:  10    -0.926600560272E+03    0.99300E-05   -0.35809E-05  2304   0.102E-02    0.110E-02
DAV:  11    -0.926600562122E+03   -0.18505E-05   -0.32329E-05  1984   0.738E-03
  21 F= -.10006044E+04 E0= -.10005277E+04  d E =-.212732E+00
       N       E                     dE             d eps       ncg     rms          rms(c)
DAV:   1    -0.926706648895E+03   -0.10609E+00   -0.64347E-01  2368   0.106E+00    0.312E-01
DAV:   2    -0.926710892665E+03   -0.42438E-02   -0.72299E-02  2304   0.305E-01    0.274E-01
DAV:   3    -0.926709763475E+03    0.11292E-02   -0.44771E-03  2648   0.147E-01    0.248E-01
DAV:   4    -0.926709476568E+03    0.28691E-03   -0.22797E-03  2576   0.792E-02    0.184E-01
DAV:   5    -0.926710164320E+03   -0.68775E-03   -0.10832E-03  2808   0.919E-02    0.155E-01
DAV:   6    -0.926709247512E+03    0.91681E-03   -0.14731E-03  2592   0.919E-02    0.693E-02
DAV:   7    -0.926709152848E+03    0.94665E-04   -0.10024E-03  2488   0.406E-02    0.194E-02
DAV:   8    -0.926709163906E+03   -0.11058E-04   -0.14686E-04  2648   0.158E-02    0.185E-02
DAV:   9    -0.926709162245E+03    0.16613E-05   -0.21128E-05  2104   0.659E-03
  22 F= -.10007124E+04 E0= -.10006349E+04  d E =-.107977E+00
       N       E                     dE             d eps       ncg     rms          rms(c)
DAV:   1    -0.926835292724E+03   -0.12613E+00   -0.58229E+00  2372   0.319E+00    0.954E-01
DAV:   2    -0.926875559492E+03   -0.40267E-01   -0.67952E-01  2272   0.921E-01    0.844E-01
DAV:   3    -0.926866122313E+03    0.94372E-02   -0.43393E-02  2640   0.460E-01    0.776E-01
DAV:   4    -0.926862294885E+03    0.38274E-02   -0.19634E-02  2600   0.249E-01    0.587E-01
DAV:   5    -0.926866348447E+03   -0.40536E-02   -0.10191E-02  2720   0.254E-01    0.483E-01
DAV:   6    -0.926860070110E+03    0.62783E-02   -0.14731E-02  2512   0.266E-01    0.223E-01
DAV:   7    -0.926859123958E+03    0.94615E-03   -0.10090E-02  2456   0.128E-01    0.596E-02
DAV:   8    -0.926859246308E+03   -0.12235E-03   -0.14837E-03  2656   0.495E-02    0.615E-02
DAV:   9    -0.926859228302E+03    0.18006E-04   -0.21964E-04  2480   0.210E-02    0.283E-02
DAV:  10    -0.926859220818E+03    0.74835E-05   -0.58081E-05  2528   0.130E-02    0.136E-02
DAV:  11    -0.926859224810E+03   -0.39918E-05   -0.52298E-05  2216   0.748E-03    0.675E-03
DAV:  12    -0.926859225177E+03   -0.36707E-06   -0.32043E-06  1288   0.287E-03
  23 F= -.10008607E+04 E0= -.10007808E+04  d E =-.256312E+00
       N       E                     dE             d eps       ncg     rms          rms(c)
DAV:   1    -0.926905285923E+03   -0.46061E-01   -0.94162E-01  2196   0.138E+00    0.474E-01
DAV:   2    -0.926917627170E+03   -0.12341E-01   -0.12155E-01  2472   0.382E-01    0.373E-01
DAV:   3    -0.926923867391E+03   -0.62402E-02   -0.92992E-03  2680   0.351E-01    0.383E-01
DAV:   4    -0.926913666062E+03    0.10201E-01   -0.43459E-03  2656   0.238E-01    0.263E-01
DAV:   5    -0.926913547922E+03    0.11814E-03   -0.23853E-03  2584   0.830E-02    0.206E-01
DAV:   6    -0.926913364838E+03    0.18308E-03   -0.25335E-03  2568   0.828E-02    0.111E-01
DAV:   7    -0.926913325069E+03    0.39768E-04   -0.10281E-03  2448   0.469E-02    0.336E-02
DAV:   8    -0.926913266311E+03    0.58758E-04   -0.28918E-04  2456   0.273E-02    0.184E-02
DAV:   9    -0.926913266734E+03   -0.42275E-06   -0.97963E-05  2552   0.196E-02    0.119E-02
DAV:  10    -0.926913272653E+03   -0.59193E-05   -0.62906E-05  2224   0.800E-03    0.250E-02
DAV:  11    -0.926913268880E+03    0.37729E-05   -0.55122E-06  1312   0.584E-03
  24 F= -.10009082E+04 E0= -.10008275E+04  d E =-.474717E-01
       N       E                     dE             d eps       ncg     rms          rms(c)
DAV:   1    -0.926933595605E+03   -0.20323E-01   -0.23577E+00  2204   0.218E+00    0.743E-01
DAV:   2    -0.926964239982E+03   -0.30644E-01   -0.29852E-01  2488   0.609E-01    0.586E-01
DAV:   3    -0.926980204223E+03   -0.15964E-01   -0.23263E-02  2704   0.560E-01    0.605E-01
DAV:   4    -0.926954050414E+03    0.26154E-01   -0.10828E-02  2696   0.380E-01    0.414E-01
DAV:   5    -0.926953803207E+03    0.24721E-03   -0.61993E-03  2616   0.131E-01    0.324E-01
DAV:   6    -0.926953399208E+03    0.40400E-03   -0.60161E-03  2552   0.127E-01    0.177E-01
DAV:   7    -0.926953292830E+03    0.10638E-03   -0.24209E-03  2440   0.726E-02    0.540E-02
DAV:   8    -0.926953142868E+03    0.14996E-03   -0.73523E-04  2488   0.437E-02    0.286E-02
DAV:   9    -0.926953143433E+03   -0.56443E-06   -0.24544E-04  2608   0.308E-02    0.191E-02
DAV:  10    -0.926953157100E+03   -0.13667E-04   -0.15621E-04  2392   0.125E-02    0.399E-02
DAV:  11    -0.926953146706E+03    0.10394E-04   -0.12755E-05  1616   0.878E-03    0.220E-02
DAV:  12    -0.926953146814E+03   -0.10800E-06   -0.68572E-05  2576   0.101E-02    0.390E-03
DAV:  13    -0.926953147969E+03   -0.11548E-05   -0.11802E-05  1464   0.457E-03
  25 F= -.10009378E+04 E0= -.10008559E+04  d E =-.770416E-01
       N       E                     dE             d eps       ncg     rms          rms(c)
DAV:   1    -0.926993419736E+03   -0.40273E-01   -0.10513E+00  2236   0.146E+00    0.443E-01
DAV:   2    -0.927002790508E+03   -0.93708E-02   -0.88920E-02  2488   0.343E-01    0.288E-01
DAV:   3    -0.927010785349E+03   -0.79948E-02   -0.83174E-03  2736   0.332E-01    0.332E-01
DAV:   4    -0.926999578231E+03    0.11207E-01   -0.22912E-03  2832   0.241E-01    0.193E-01
DAV:   5    -0.926999554748E+03    0.23483E-04   -0.28429E-03  2712   0.814E-02    0.131E-01
DAV:   6    -0.926999407686E+03    0.14706E-03   -0.93778E-04  2560   0.476E-02    0.755E-02
DAV:   7    -0.926999424733E+03   -0.17046E-04   -0.25057E-04  2512   0.289E-02    0.374E-02
DAV:   8    -0.926999405119E+03    0.19614E-04   -0.15197E-04  2464   0.203E-02    0.236E-02
DAV:   9    -0.926999402857E+03    0.22617E-05   -0.13892E-04  2792   0.171E-02    0.136E-02
DAV:  10    -0.926999405718E+03   -0.28607E-05   -0.40828E-05  2040   0.656E-03
  26 F= -.10009693E+04 E0= -.10008878E+04  d E =-.314913E-01
       N       E                     dE             d eps       ncg     rms          rms(c)
DAV:   1    -0.927024804903E+03   -0.25402E-01   -0.21941E+00  2228   0.211E+00    0.655E-01
DAV:   2    -0.927044700106E+03   -0.19895E-01   -0.18917E-01  2472   0.498E-01    0.422E-01
DAV:   3    -0.927062433547E+03   -0.17733E-01   -0.18063E-02  2736   0.491E-01    0.487E-01
DAV:   4    -0.927037821610E+03    0.24612E-01   -0.50126E-03  2832   0.356E-01    0.280E-01
DAV:   5    -0.927037767164E+03    0.54446E-04   -0.61422E-03  2712   0.119E-01    0.190E-01
DAV:   6    -0.927037444045E+03    0.32312E-03   -0.20534E-03  2592   0.708E-02    0.109E-01
DAV:   7    -0.927037480427E+03   -0.36382E-04   -0.55033E-04  2504   0.428E-02    0.557E-02
DAV:   8    -0.927037435976E+03    0.44451E-04   -0.31864E-04  2464   0.293E-02    0.348E-02
DAV:   9    -0.927037430788E+03    0.51875E-05   -0.29508E-04  2864   0.254E-02    0.188E-02
DAV:  10    -0.927037437420E+03   -0.66319E-05   -0.94196E-05  2200   0.983E-03    0.264E-02
DAV:  11    -0.927037437431E+03   -0.10914E-07   -0.79829E-06  1448   0.402E-03
  27 F= -.10009861E+04 E0= -.10009053E+04  d E =-.482998E-01
       N       E                     dE             d eps       ncg     rms          rms(c)
DAV:   1    -0.927067789907E+03   -0.30352E-01   -0.10835E+00  2128   0.143E+00    0.473E-01
DAV:   2    -0.927074675333E+03   -0.68854E-02   -0.71531E-02  2424   0.279E-01    0.200E-01
DAV:   3    -0.927081557256E+03   -0.68819E-02   -0.33728E-03  2808   0.236E-01    0.245E-01
DAV:   4    -0.927074000055E+03    0.75572E-02   -0.13778E-03  2792   0.188E-01    0.132E-01
DAV:   5    -0.927073993426E+03    0.66295E-05   -0.92805E-04  2608   0.439E-02    0.909E-02
DAV:   6    -0.927073934832E+03    0.58594E-04   -0.47507E-04  2504   0.320E-02    0.351E-02
DAV:   7    -0.927073958787E+03   -0.23955E-04   -0.22840E-04  2456   0.197E-02    0.163E-02
DAV:   8    -0.927073946854E+03    0.11933E-04   -0.62252E-05  2344   0.132E-02    0.143E-02
DAV:   9    -0.927073945508E+03    0.13454E-05   -0.14749E-05  1928   0.805E-03
  28 F= -.10010013E+04 E0= -.10009235E+04  d E =-.152522E-01
       N       E                     dE             d eps       ncg     rms          rms(c)
DAV:   1    -0.927103523238E+03   -0.29576E-01   -0.35919E+00  2124   0.260E+00    0.887E-01
DAV:   2    -0.927126900376E+03   -0.23377E-01   -0.24220E-01  2440   0.517E-01    0.377E-01
DAV:   3    -0.927150341649E+03   -0.23441E-01   -0.11439E-02  2800   0.435E-01    0.452E-01
DAV:   4    -0.927124626643E+03    0.25715E-01   -0.47303E-03  2856   0.348E-01    0.247E-01
DAV:   5    -0.927124590469E+03    0.36173E-04   -0.31078E-03  2600   0.803E-02    0.169E-01
DAV:   6    -0.927124389481E+03    0.20099E-03   -0.15145E-03  2496   0.570E-02    0.688E-02
DAV:   7    -0.927124475809E+03   -0.86328E-04   -0.72088E-04  2480   0.350E-02    0.304E-02
DAV:   8    -0.927124439964E+03    0.35845E-04   -0.23077E-04  2416   0.255E-02    0.276E-02
DAV:   9    -0.927124430533E+03    0.94311E-05   -0.63921E-05  2512   0.165E-02    0.213E-02
DAV:  10    -0.927124435697E+03   -0.51637E-05   -0.68975E-05  2296   0.959E-03    0.196E-02
DAV:  11    -0.927124436016E+03   -0.31973E-06   -0.10277E-05  1544   0.576E-03
  29 F= -.10010132E+04 E0= -.10009406E+04  d E =-.271058E-01
       N       E                     dE             d eps       ncg     rms          rms(c)
DAV:   1    -0.927151723382E+03   -0.27288E-01   -0.68424E-01  2152   0.113E+00    0.410E-01
DAV:   2    -0.927156996596E+03   -0.52732E-02   -0.59328E-02  2400   0.235E-01    0.168E-01
DAV:   3    -0.927158622609E+03   -0.16260E-02   -0.17921E-03  2784   0.133E-01    0.159E-01
DAV:   4    -0.927156665933E+03    0.19567E-02   -0.84338E-04  2744   0.113E-01    0.106E-01
DAV:   5    -0.927156683550E+03   -0.17617E-04   -0.88650E-04  2600   0.512E-02    0.818E-02
DAV:   6    -0.927156465693E+03    0.21786E-03   -0.77369E-04  2504   0.444E-02    0.265E-02
DAV:   7    -0.927156488741E+03   -0.23048E-04   -0.30859E-04  2440   0.192E-02    0.162E-02
DAV:   8    -0.927156490202E+03   -0.14609E-05   -0.28568E-05  2224   0.798E-03
  30 F= -.10010205E+04 E0= -.10009514E+04  d E =-.732987E-02
       N       E                     dE             d eps       ncg     rms          rms(c)
DAV:   1    -0.927160219190E+03   -0.37304E-02   -0.15570E-02  2172   0.171E-01    0.663E-02
DAV:   2    -0.927160345101E+03   -0.12591E-03   -0.14255E-03  2384   0.359E-02    0.238E-02
DAV:   3    -0.927160368345E+03   -0.23244E-04   -0.39352E-05  2440   0.172E-02    0.215E-02
DAV:   4    -0.927160341034E+03    0.27311E-04   -0.15264E-05  2128   0.151E-02    0.153E-02
DAV:   5    -0.927160342605E+03   -0.15712E-05   -0.19216E-05  1936   0.795E-03    0.118E-02
DAV:   6    -0.927160340451E+03    0.21540E-05   -0.18604E-05  2040   0.701E-03
  31 F= -.10010207E+04 E0= -.10009521E+04  d E =-.746993E-02
       N       E                     dE             d eps       ncg     rms          rms(c)
DAV:   1    -0.927184432424E+03   -0.24090E-01   -0.84058E-01  2116   0.125E+00    0.419E-01
DAV:   2    -0.927189648484E+03   -0.52161E-02   -0.58098E-02  2400   0.238E-01    0.173E-01
DAV:   3    -0.927189496031E+03    0.15245E-03   -0.13004E-03  2760   0.622E-02    0.136E-01
DAV:   4    -0.927189766470E+03   -0.27044E-03   -0.68953E-04  2688   0.570E-02    0.106E-01
DAV:   5    -0.927189540980E+03    0.22549E-03   -0.26252E-04  2760   0.632E-02    0.650E-02
DAV:   6    -0.927189374195E+03    0.16678E-03   -0.53675E-04  2488   0.392E-02    0.371E-02
DAV:   7    -0.927189365861E+03    0.83343E-05   -0.12380E-04  2440   0.189E-02    0.271E-02
DAV:   8    -0.927189374687E+03   -0.88263E-05   -0.67636E-05  2288   0.926E-03    0.108E-02
DAV:   9    -0.927189375880E+03   -0.11928E-05   -0.20589E-05  2032   0.608E-03
  32 F= -.10010266E+04 E0= -.10009610E+04  d E =-.589979E-02
       N       E                     dE             d eps       ncg     rms          rms(c)
DAV:   1    -0.927203642943E+03   -0.14268E-01   -0.36429E-01  2120   0.824E-01    0.274E-01
DAV:   2    -0.927205906192E+03   -0.22632E-02   -0.25258E-02  2400   0.156E-01    0.112E-01
DAV:   3    -0.927205840677E+03    0.65514E-04   -0.56279E-04  2736   0.402E-02    0.888E-02
DAV:   4    -0.927205973290E+03   -0.13261E-03   -0.29016E-04  2688   0.384E-02    0.701E-02
DAV:   5    -0.927205858027E+03    0.11526E-03   -0.11691E-04  2728   0.418E-02    0.418E-02
DAV:   6    -0.927205790152E+03    0.67875E-04   -0.23490E-04  2440   0.254E-02    0.235E-02
DAV:   7    -0.927205787328E+03    0.28243E-05   -0.52673E-05  2400   0.125E-02    0.167E-02
DAV:   8    -0.927205791770E+03   -0.44418E-05   -0.30681E-05  1936   0.585E-03
  33 F= -.10010278E+04 E0= -.10009642E+04  d E =-.710403E-02
       N       E                     dE             d eps       ncg     rms          rms(c)
DAV:   1    -0.927224937735E+03   -0.19150E-01   -0.25050E-01  2160   0.723E-01    0.214E-01
DAV:   2    -0.927226605141E+03   -0.16674E-02   -0.17094E-02  2432   0.141E-01    0.108E-01
DAV:   3    -0.927228097228E+03   -0.14921E-02   -0.12559E-03  2848   0.117E-01    0.129E-01
DAV:   4    -0.927226393224E+03    0.17040E-02   -0.34414E-04  2784   0.907E-02    0.789E-02
DAV:   5    -0.927226391795E+03    0.14296E-05   -0.33157E-04  2640   0.280E-02    0.604E-02
DAV:   6    -0.927226358404E+03    0.33390E-04   -0.15163E-04  2512   0.209E-02    0.257E-02
DAV:   7    -0.927226364745E+03   -0.63413E-05   -0.56443E-05  2312   0.957E-03    0.983E-03
DAV:   8    -0.927226365088E+03   -0.34207E-06   -0.13940E-05  1856   0.518E-03
  34 F= -.10010317E+04 E0= -.10009698E+04  d E =-.397391E-02
       N       E                     dE             d eps       ncg     rms          rms(c)
DAV:   1    -0.927252364025E+03   -0.25999E-01   -0.68725E-01  2152   0.120E+00    0.354E-01
DAV:   2    -0.927256896550E+03   -0.45325E-02   -0.46218E-02  2448   0.233E-01    0.178E-01
DAV:   3    -0.927260929037E+03   -0.40325E-02   -0.33433E-03  2848   0.191E-01    0.211E-01
DAV:   4    -0.927256340708E+03    0.45883E-02   -0.92874E-04  2832   0.149E-01    0.130E-01
DAV:   5    -0.927256342945E+03   -0.22370E-05   -0.89105E-04  2704   0.457E-02    0.993E-02
DAV:   6    -0.927256248119E+03    0.94827E-04   -0.40814E-04  2520   0.342E-02    0.414E-02
DAV:   7    -0.927256262325E+03   -0.14207E-04   -0.14981E-04  2440   0.154E-02    0.156E-02
DAV:   8    -0.927256263028E+03   -0.70310E-06   -0.38440E-05  2240   0.816E-03
  35 F= -.10010341E+04 E0= -.10009747E+04  d E =-.635265E-02
       N       E                     dE             d eps       ncg     rms          rms(c)
DAV:   1    -0.927277461521E+03   -0.21199E-01   -0.15237E-01  2296   0.563E-01    0.149E-01
DAV:   2    -0.927278808120E+03   -0.13466E-02   -0.12680E-02  2464   0.140E-01    0.126E-01
DAV:   3    -0.927279044208E+03   -0.23609E-03   -0.16966E-03  2640   0.111E-01    0.122E-01
DAV:   4    -0.927278292659E+03    0.75155E-03   -0.51020E-04  2712   0.740E-02    0.884E-02
DAV:   5    -0.927278238873E+03    0.53786E-04   -0.30011E-04  2584   0.355E-02    0.706E-02
DAV:   6    -0.927278214476E+03    0.24397E-04   -0.51373E-04  2856   0.369E-02    0.323E-02
DAV:   7    -0.927278219605E+03   -0.51283E-05   -0.17035E-04  2456   0.191E-02    0.203E-02
DAV:   8    -0.927278212452E+03    0.71524E-05   -0.46974E-05  2336   0.123E-02    0.130E-02
DAV:   9    -0.927278213822E+03   -0.13698E-05   -0.15470E-05  1904   0.586E-03
  36 F= -.10010368E+04 E0= -.10009790E+04  d E =-.272123E-02
       N       E                     dE             d eps       ncg     rms          rms(c)
DAV:   1    -0.927283120752E+03   -0.49083E-02   -0.96389E-03  2320   0.142E-01    0.406E-02
DAV:   2    -0.927283209979E+03   -0.89227E-04   -0.87987E-04  2472   0.371E-02    0.315E-02
DAV:   3    -0.927283236177E+03   -0.26198E-04   -0.13003E-04  2576   0.304E-02    0.317E-02
DAV:   4    -0.927283177789E+03    0.58387E-04   -0.37373E-05  2384   0.206E-02    0.225E-02
DAV:   5    -0.927283172628E+03    0.51607E-05   -0.21097E-05  2184   0.940E-03    0.180E-02
DAV:   6    -0.927283172228E+03    0.40026E-06   -0.31140E-05  2416   0.895E-03
  37 F= -.10010370E+04 E0= -.10009796E+04  d E =-.285011E-02
       N       E                     dE             d eps       ncg     rms          rms(c)
DAV:   1    -0.927295431284E+03   -0.12259E-01   -0.35607E-01  2140   0.828E-01    0.283E-01
DAV:   2    -0.927297742470E+03   -0.23112E-02   -0.25340E-02  2280   0.167E-01    0.105E-01
DAV:   3    -0.927297798526E+03   -0.56056E-04   -0.15118E-03  2584   0.604E-02    0.901E-02
DAV:   4    -0.927297633829E+03    0.16470E-03   -0.48099E-04  2456   0.406E-02    0.665E-02
DAV:   5    -0.927297696686E+03   -0.62857E-04   -0.10214E-04  2736   0.349E-02    0.605E-02
DAV:   6    -0.927297559368E+03    0.13732E-03   -0.21344E-04  2568   0.309E-02    0.127E-02
DAV:   7    -0.927297569204E+03   -0.98361E-05   -0.13313E-04  2416   0.127E-02    0.107E-02
DAV:   8    -0.927297567839E+03    0.13646E-05   -0.10390E-05  1616   0.503E-03
  38 F= -.10010385E+04 E0= -.10009823E+04  d E =-.155951E-02
       N       E                     dE             d eps       ncg     rms          rms(c)
DAV:   1    -0.927298101417E+03   -0.53221E-03   -0.66593E-04  2184   0.358E-02    0.120E-02
DAV:   2    -0.927298106772E+03   -0.53552E-05   -0.59519E-05  2104   0.805E-03    0.657E-03
DAV:   3    -0.927298107501E+03   -0.72892E-06   -0.23324E-06  1400   0.346E-03    0.557E-03
DAV:   4    -0.927298106854E+03    0.64645E-06   -0.77319E-07  1216   0.288E-03    0.458E-03
DAV:   5    -0.927298106778E+03    0.76776E-07   -0.34345E-07  1136   0.170E-03    0.387E-03
DAV:   6    -0.927298107181E+03   -0.40322E-06   -0.73763E-07  1144   0.142E-03
  39 F= -.10010385E+04 E0= -.10009824E+04  d E =-.156570E-02
       N       E                     dE             d eps       ncg     rms          rms(c)
DAV:   1    -0.927304938105E+03   -0.68313E-02   -0.15872E-01  2116   0.553E-01    0.187E-01
DAV:   2    -0.927306186584E+03   -0.12485E-02   -0.13781E-02  2336   0.112E-01    0.102E-01
DAV:   3    -0.927306110791E+03    0.75793E-04   -0.40190E-04  2664   0.391E-02    0.818E-02
DAV:   4    -0.927306113395E+03   -0.26041E-05   -0.31144E-04  2384   0.264E-02    0.586E-02
DAV:   5    -0.927306213866E+03   -0.10047E-03   -0.61267E-05  2648   0.357E-02    0.455E-02
DAV:   6    -0.927306074471E+03    0.13939E-03   -0.11108E-04  2608   0.310E-02    0.246E-02
DAV:   7    -0.927306071418E+03    0.30532E-05   -0.42211E-05  2328   0.126E-02
  40 F= -.10010392E+04 E0= -.10009837E+04  d E =-.650211E-03
