NiAl                                    
            1
     0.000000  -17.180573    0.000000
     0.000000   -8.590287  -14.878813
    30.000000    0.000000    0.000000
   Al   O 
   252     1
Direct configuration=     1
   0.44444444  0.44444444  0.07873473
   0.44444444  0.77777778  0.07873473
   0.44444444  0.11111111  0.07873473
   0.77777778  0.44444444  0.07873473
   0.77777778  0.77777778  0.07873473
   0.77777778  0.11111111  0.07873473
   0.11111111  0.44444444  0.07873473
   0.11111111  0.77777778  0.07873473
   0.11111111  0.11111111  0.07873473
   0.55555556  0.55555556  0.15702584
   0.55555556  0.88888889  0.15702584
   0.55555556  0.22222222  0.15702584
   0.88888889  0.55555556  0.15702584
   0.88888889  0.88888889  0.15702584
   0.88888889  0.22222222  0.15702584
   0.22222222  0.55555556  0.15702584
   0.22222222  0.88888889  0.15702584
   0.22222222  0.22222222  0.15702584
   0.66666667  0.66666667  0.23375740
   0.66666667  0.00000000  0.23375740
   0.66666667  0.33333333  0.23375740
   0.00000000  0.66666667  0.23375740
   0.00000000  0.00000000  0.23375740
   0.00000000  0.33333333  0.23375740
   0.33333333  0.66666667  0.23375740
   0.33333333  0.00000000  0.23375740
   0.33333333  0.33333333  0.23375740
   0.77777778  0.77777778  0.31173066
   0.77777778  0.11111111  0.31173066
   0.77777778  0.44444444  0.31173066
   0.11111111  0.77777778  0.31173066
   0.11111111  0.11111111  0.31173066
   0.11111111  0.44444444  0.31173066
   0.44444444  0.77777778  0.31173066
   0.44444444  0.11111111  0.31173066
   0.44444444  0.44444444  0.31173066
   0.88888889  0.88888889  0.38970391
   0.88888889  0.22222222  0.38970391
   0.88888889  0.55555556  0.38970391
   0.22222222  0.88888889  0.38970391
   0.22222222  0.22222222  0.38970391
   0.22222222  0.55555556  0.38970391
   0.55555556  0.88888889  0.38970391
   0.55555556  0.22222222  0.38970391
   0.55555556  0.55555556  0.38970391
   0.00000000  0.00000000  0.46643547
   0.00000000  0.33333333  0.46643547
   0.00000000  0.66666667  0.46643547
   0.33333333  0.00000000  0.46643547
   0.33333333  0.33333333  0.46643547
   0.33333333  0.66666667  0.46643547
   0.66666667  0.00000000  0.46643547
   0.66666667  0.33333333  0.46643547
   0.66666667  0.66666667  0.46643547
   0.11111111  0.11111111  0.54472658
   0.11111111  0.44444444  0.54472658
   0.11111111  0.77777778  0.54472658
   0.44444444  0.11111111  0.54472658
   0.44444444  0.44444444  0.54472658
   0.44444444  0.77777778  0.54472658
   0.77777778  0.11111111  0.54472658
   0.77777778  0.44444444  0.54472658
   0.77777778  0.77777778  0.54472658
   0.27777778  0.27777778  0.07873473
   0.27777778  0.61111111  0.07873473
   0.27777778  0.94444444  0.07873473
   0.61111111  0.27777778  0.07873473
   0.61111111  0.61111111  0.07873473
   0.61111111  0.94444444  0.07873473
   0.94444444  0.27777778  0.07873473
   0.94444444  0.61111111  0.07873473
   0.94444444  0.94444444  0.07873473
   0.38888889  0.38888889  0.15702584
   0.38888889  0.72222222  0.15702584
   0.38888889  0.05555556  0.15702584
   0.72222222  0.38888889  0.15702584
   0.72222222  0.72222222  0.15702584
   0.72222222  0.05555556  0.15702584
   0.05555556  0.38888889  0.15702584
   0.05555556  0.72222222  0.15702584
   0.05555556  0.05555556  0.15702584
   0.50000000  0.50000000  0.23375740
   0.50000000  0.83333333  0.23375740
   0.50000000  0.16666667  0.23375740
   0.83333333  0.50000000  0.23375740
   0.83333333  0.83333333  0.23375740
   0.83333333  0.16666667  0.23375740
   0.16666667  0.50000000  0.23375740
   0.16666667  0.83333333  0.23375740
   0.16666667  0.16666667  0.23375740
   0.61111111  0.61111111  0.31173066
   0.61111111  0.94444444  0.31173066
   0.61111111  0.27777778  0.31173066
   0.94444444  0.61111111  0.31173066
   0.94444444  0.94444444  0.31173066
   0.94444444  0.27777778  0.31173066
   0.27777778  0.61111111  0.31173066
   0.27777778  0.94444444  0.31173066
   0.27777778  0.27777778  0.31173066
   0.72222222  0.72222222  0.38970391
   0.72222222  0.05555556  0.38970391
   0.72222222  0.38888889  0.38970391
   0.05555556  0.72222222  0.38970391
   0.05555556  0.05555556  0.38970391
   0.05555556  0.38888889  0.38970391
   0.38888889  0.72222222  0.38970391
   0.38888889  0.05555556  0.38970391
   0.38888889  0.38888889  0.38970391
   0.83333333  0.83333333  0.46643547
   0.83333333  0.16666667  0.46643547
   0.83333333  0.50000000  0.46643547
   0.16666667  0.83333333  0.46643547
   0.16666667  0.16666667  0.46643547
   0.16666667  0.50000000  0.46643547
   0.50000000  0.83333333  0.46643547
   0.50000000  0.16666667  0.46643547
   0.50000000  0.50000000  0.46643547
   0.94444444  0.94444444  0.54472658
   0.94444444  0.27777778  0.54472658
   0.94444444  0.61111111  0.54472658
   0.27777778  0.94444444  0.54472658
   0.27777778  0.27777778  0.54472658
   0.27777778  0.61111111  0.54472658
   0.61111111  0.94444444  0.54472658
   0.61111111  0.27777778  0.54472658
   0.61111111  0.61111111  0.54472658
   0.27777778  0.44444444  0.07873473
   0.27777778  0.77777778  0.07873473
   0.27777778  0.11111111  0.07873473
   0.61111111  0.44444444  0.07873473
   0.61111111  0.77777778  0.07873473
   0.61111111  0.11111111  0.07873473
   0.94444444  0.44444444  0.07873473
   0.94444444  0.77777778  0.07873473
   0.94444444  0.11111111  0.07873473
   0.38888889  0.55555556  0.15702584
   0.38888889  0.88888889  0.15702584
   0.38888889  0.22222222  0.15702584
   0.72222222  0.55555556  0.15702584
   0.72222222  0.88888889  0.15702584
   0.72222222  0.22222222  0.15702584
   0.05555556  0.55555556  0.15702584
   0.05555556  0.88888889  0.15702584
   0.05555556  0.22222222  0.15702584
   0.50000000  0.66666667  0.23375740
   0.50000000  0.00000000  0.23375740
   0.50000000  0.33333333  0.23375740
   0.83333333  0.66666667  0.23375740
   0.83333333  0.00000000  0.23375740
   0.83333333  0.33333333  0.23375740
   0.16666667  0.66666667  0.23375740
   0.16666667  0.00000000  0.23375740
   0.16666667  0.33333333  0.23375740
   0.61111111  0.77777778  0.31173066
   0.61111111  0.11111111  0.31173066
   0.61111111  0.44444444  0.31173066
   0.94444444  0.77777778  0.31173066
   0.94444444  0.11111111  0.31173066
   0.94444444  0.44444444  0.31173066
   0.27777778  0.77777778  0.31173066
   0.27777778  0.11111111  0.31173066
   0.27777778  0.44444444  0.31173066
   0.72222222  0.88888889  0.38970391
   0.72222222  0.22222222  0.38970391
   0.72222222  0.55555556  0.38970391
   0.05555556  0.88888889  0.38970391
   0.05555556  0.22222222  0.38970391
   0.05555556  0.55555556  0.38970391
   0.38888889  0.88888889  0.38970391
   0.38888889  0.22222222  0.38970391
   0.38888889  0.55555556  0.38970391
   0.83333333  0.00000000  0.46643547
   0.83333333  0.33333333  0.46643547
   0.83333333  0.66666667  0.46643547
   0.16666667  0.00000000  0.46643547
   0.16666667  0.33333333  0.46643547
   0.16666667  0.66666667  0.46643547
   0.50000000  0.00000000  0.46643547
   0.50000000  0.33333333  0.46643547
   0.50000000  0.66666667  0.46643547
   0.94444444  0.11111111  0.54472658
   0.94444444  0.44444444  0.54472658
   0.94444444  0.77777778  0.54472658
   0.27777778  0.11111111  0.54472658
   0.27777778  0.44444444  0.54472658
   0.27777778  0.77777778  0.54472658
   0.61111111  0.11111111  0.54472658
   0.61111111  0.44444444  0.54472658
   0.61111111  0.77777778  0.54472658
   0.44444444  0.27777778  0.07873473
   0.44444444  0.61111111  0.07873473
   0.44444444  0.94444444  0.07873473
   0.77777778  0.27777778  0.07873473
   0.77777778  0.61111111  0.07873473
   0.77777778  0.94444444  0.07873473
   0.11111111  0.27777778  0.07873473
   0.11111111  0.61111111  0.07873473
   0.11111111  0.94444444  0.07873473
   0.55555556  0.38888889  0.15702584
   0.55555556  0.72222222  0.15702584
   0.55555556  0.05555556  0.15702584
   0.88888889  0.38888889  0.15702584
   0.88888889  0.72222222  0.15702584
   0.88888889  0.05555556  0.15702584
   0.22222222  0.38888889  0.15702584
   0.22222222  0.72222222  0.15702584
   0.22222222  0.05555556  0.15702584
   0.66666667  0.50000000  0.23375740
   0.66666667  0.83333333  0.23375740
   0.66666667  0.16666667  0.23375740
   0.00000000  0.50000000  0.23375740
   0.00000000  0.83333333  0.23375740
   0.00000000  0.16666667  0.23375740
   0.33333333  0.50000000  0.23375740
   0.33333333  0.83333333  0.23375740
   0.33333333  0.16666667  0.23375740
   0.77777778  0.61111111  0.31173066
   0.77777778  0.94444444  0.31173066
   0.77777778  0.27777778  0.31173066
   0.11111111  0.61111111  0.31173066
   0.11111111  0.94444444  0.31173066
   0.11111111  0.27777778  0.31173066
   0.44444444  0.61111111  0.31173066
   0.44444444  0.94444444  0.31173066
   0.44444444  0.27777778  0.31173066
   0.88888889  0.72222222  0.38970391
   0.88888889  0.05555556  0.38970391
   0.88888889  0.38888889  0.38970391
   0.22222222  0.72222222  0.38970391
   0.22222222  0.05555556  0.38970391
   0.22222222  0.38888889  0.38970391
   0.55555556  0.72222222  0.38970391
   0.55555556  0.05555556  0.38970391
   0.55555556  0.38888889  0.38970391
   0.00000000  0.83333333  0.46643547
   0.00000000  0.16666667  0.46643547
   0.00000000  0.50000000  0.46643547
   0.33333333  0.83333333  0.46643547
   0.33333333  0.16666667  0.46643547
   0.33333333  0.50000000  0.46643547
   0.66666667  0.83333333  0.46643547
   0.66666667  0.16666667  0.46643547
   0.66666667  0.50000000  0.46643547
   0.11111111  0.94444444  0.54472658
   0.11111111  0.27777778  0.54472658
   0.11111111  0.61111111  0.54472658
   0.44444444  0.94444444  0.54472658
   0.44444444  0.27777778  0.54472658
   0.44444444  0.61111111  0.54472658
   0.77777778  0.94444444  0.54472658
   0.77777778  0.27777778  0.54472658
   0.77777778  0.61111111  0.54472658
   0.38888889  0.55555556  0.49000000
Direct configuration=     2
   0.44444859  0.44443615  0.07877915
   0.44442442  0.77778811  0.07880927
   0.44442818  0.11113138  0.07880004
   0.77777632  0.44445442  0.07880680
   0.77777466  0.77778401  0.07880573
   0.77777377  0.11113138  0.07880004
   0.11110259  0.44445442  0.07880680
   0.11112080  0.77778811  0.07880927
   0.11111816  0.11109701  0.07880186
   0.55556518  0.55555121  0.15704469
   0.55557119  0.88887819  0.15705758
   0.55556103  0.22221128  0.15705396
   0.88889439  0.55554455  0.15704994
   0.88888396  0.88887819  0.15705758
   0.88889860  0.22223506  0.15705673
   0.22221694  0.55555121  0.15704469
   0.22222208  0.88888917  0.15705264
   0.22219967  0.22223506  0.15705673
   0.66668062  0.66666030  0.23376556
   0.66667086 -0.00000840  0.23376768
   0.66665554  0.33333347  0.23375954
  -0.00000759  0.66666030  0.23376556
   0.00002125 -0.00001128  0.23376538
   0.00001251  0.33330832  0.23376108
   0.33334456  0.66664422  0.23379022
   0.33332336 -0.00001128  0.23376538
   0.33334432  0.33333347  0.23375954
   0.77780409  0.77772516  0.31171557
   0.77777854  0.11111154  0.31173615
   0.77777912  0.44444217  0.31172148
   0.11113090  0.77776843  0.31173274
   0.11112448  0.11108437  0.31173483
   0.11111204  0.44444217  0.31172148
   0.44443401  0.77776843  0.31173274
   0.44444326  0.11111154  0.31173615
   0.44443594  0.44446145  0.31175798
   0.88889971  0.88886162  0.38970526
   0.88889288  0.22222784  0.38969866
   0.88888600  0.55556134  0.38968915
   0.22223907  0.88885519  0.38970234
   0.22221261  0.22222784  0.38969866
   0.22224044  0.55557382  0.38969057
   0.55557201  0.88886162  0.38970526
   0.55553001  0.22227330  0.38969442
   0.55551908  0.55557382  0.38969057
   0.00001992  0.00000133  0.46640335
  -0.00000862  0.33335056  0.46640610
   0.00002458  0.66663013  0.46639679
   0.33331208  0.00000133  0.46640335
   0.33332753  0.33330021  0.46640869
   0.33193580  0.66946173  0.46584640
   0.66667820 -0.00002307  0.46640889
   0.66670559  0.33330021  0.46640869
   0.66667861  0.66663013  0.46639679
   0.11110517  0.11112299  0.54466538
   0.11110246  0.44444885  0.54467696
   0.11103711  0.77784767  0.54467811
   0.44443111  0.11114518  0.54467312
   0.44482007  0.44369319  0.54518601
   0.44444856  0.77784767  0.54467811
   0.77775704  0.11114518  0.54467312
   0.77778202  0.44444885  0.54467696
   0.77777888  0.77777557  0.54465063
   0.27778776  0.27776925  0.07880680
   0.27776948  0.61111526  0.07877915
   0.27778776  0.94444299  0.07880680
   0.61112145  0.27778747  0.07880927
   0.61112145  0.61109108  0.07880927
   0.61111735  0.94444133  0.07880573
   0.94443034  0.27778483  0.07880186
   0.94446471  0.61109485  0.07880004
   0.94446471  0.94444044  0.07880004
   0.38888454  0.38888361  0.15704469
   0.38888454  0.72223185  0.15704469
   0.38887788  0.05556106  0.15704994
   0.72222251  0.38888875  0.15705264
   0.72221152  0.72223786  0.15705758
   0.72221152  0.05555063  0.15705758
   0.05556839  0.38886634  0.15705673
   0.05554461  0.72222769  0.15705396
   0.05556839  0.05556527  0.15705673
   0.49997755  0.50001122  0.23379022
   0.49999364  0.83334728  0.23376556
   0.49999364  0.16665908  0.23376556
   0.83332205  0.49999003  0.23376538
   0.83332494  0.83333753  0.23376768
   0.83332205  0.16668792  0.23376538
   0.16666681  0.50001099  0.23375954
   0.16666681  0.83332220  0.23375954
   0.16664166  0.16667917  0.23376108
   0.61110176  0.61110067  0.31173274
   0.61105849  0.94447076  0.31171557
   0.61110176  0.27779756  0.31173274
   0.94444487  0.61110992  0.31173615
   0.94444487  0.94444521  0.31173615
   0.94441770  0.27779115  0.31173483
   0.27779478  0.61110261  0.31175798
   0.27777550  0.94444578  0.31172148
   0.27777550  0.27777871  0.31172148
   0.72219495  0.72223868  0.38970526
   0.72219495  0.05556638  0.38970526
   0.72218852  0.38890574  0.38970234
   0.05560664  0.72219668  0.38969442
   0.05556117  0.05555955  0.38969866
   0.05556117  0.38887928  0.38969866
   0.38890715  0.72218575  0.38969057
   0.38889467  0.05555267  0.38968915
   0.38890715  0.38890710  0.38969057
   0.83331026  0.83334487  0.46640889
   0.83333467  0.16668658  0.46640335
   0.83333467  0.49997875  0.46640335
   0.16663355  0.83337226  0.46640869
   0.16668390  0.16665805  0.46640610
   0.16663355  0.49999420  0.46640869
   0.49996347  0.83334528  0.46639679
   0.49996347  0.16669125  0.46639679
   0.50279507  0.49860247  0.46584640
   0.94447851  0.94442370  0.54467312
   0.94445632  0.27777184  0.54466538
   0.94447851  0.61109778  0.54467312
   0.27778218  0.94444869  0.54467696
   0.27778218  0.27776913  0.54467696
   0.27702652  0.61148674  0.54518601
   0.61110890  0.94444555  0.54465063
   0.61118100  0.27770377  0.54467811
   0.61118100  0.61111522  0.54467811
   0.27777679  0.44444346  0.07879954
   0.27777679  0.77777975  0.07879954
   0.27778705  0.11110648  0.07879878
   0.61111308  0.44444346  0.07879954
   0.61110543  0.77777210  0.07879492
   0.61110543  0.11112247  0.07879492
   0.94443981  0.44445371  0.07879878
   0.94445580  0.77777210  0.07879492
   0.94443981  0.11110648  0.07879878
   0.38888889  0.55555556  0.15706630
   0.38888428  0.88887070  0.15705938
   0.38888428  0.22224502  0.15705938
   0.72220403  0.55555094  0.15705938
   0.72222222  0.88888889  0.15706416
   0.72220403  0.22224502  0.15705938
   0.05557836  0.55555094  0.15705938
   0.05557836  0.88887070  0.15705938
   0.05555556  0.22222222  0.15705375
   0.49998026  0.66664693  0.23376421
   0.50002485 -0.00001243  0.23375811
   0.49998026  0.33337282  0.23376421
   0.83332091  0.66669152  0.23375811
   0.83332091 -0.00001243  0.23375811
   0.83335039  0.33332481  0.23375473
   0.16670615  0.66664693  0.23376421
   0.16665814  0.00001705  0.23375473
   0.16665814  0.33332481  0.23375473
   0.61111969  0.77778636  0.31173319
   0.61111969  0.11109395  0.31173319
   0.61107592  0.44446204  0.31173631
   0.94442729  0.77778636  0.31173319
   0.94444336  0.11111002  0.31172085
   0.94444336  0.44444662  0.31172085
   0.27779537  0.77774259  0.31173631
   0.27777995  0.11111002  0.31172085
   0.27779537  0.44446204  0.31173631
   0.72222222  0.88888889  0.38970158
   0.72220176  0.22223247  0.38969405
   0.72220176  0.55556577  0.38969405
   0.05556580  0.88886843  0.38969405
   0.05555556  0.22222222  0.38969069
   0.05556580  0.55556577  0.38969405
   0.38889910  0.88886843  0.38969405
   0.38889910  0.22223247  0.38969405
   0.38888889  0.55555556  0.38920787
   0.83331888 -0.00001445  0.46640527
   0.83333623  0.33333189  0.46639589
   0.83331888  0.66669557  0.46640527
   0.16666522  0.00000290  0.46639589
   0.16666522  0.33333189  0.46639589
   0.16665640  0.66667180  0.46643787
   0.50002890 -0.00001445  0.46640527
   0.50000513  0.33332307  0.46643787
   0.50000513  0.66667180  0.46643787
   0.94444667  0.11111333  0.54465490
   0.94444667  0.44444000  0.54465490
   0.94435966  0.77782017  0.54465924
   0.27777333  0.11111333  0.54465490
   0.27785147  0.44451814  0.54459301
   0.27785147  0.77763039  0.54459301
   0.61115350  0.11102633  0.54465924
   0.61096372  0.44451814  0.54459301
   0.61115350  0.77782017  0.54465924
   0.44442442  0.27778747  0.07880927
   0.44444859  0.61111526  0.07877915
   0.44442818  0.94444044  0.07880004
   0.77777632  0.27776925  0.07880680
   0.77777377  0.61109485  0.07880004
   0.77777466  0.94444133  0.07880573
   0.11111816  0.27778483  0.07880186
   0.11112080  0.61109108  0.07880927
   0.11110259  0.94444299  0.07880680
   0.55556518  0.38888361  0.15704469
   0.55556103  0.72222769  0.15705396
   0.55557119  0.05555063  0.15705758
   0.88889860  0.38886634  0.15705673
   0.88888396  0.72223786  0.15705758
   0.88889439  0.05556106  0.15704994
   0.22222208  0.38888875  0.15705264
   0.22221694  0.72223185  0.15704469
   0.22219967  0.05556527  0.15705673
   0.66665554  0.50001099  0.23375954
   0.66667086  0.83333753  0.23376768
   0.66668062  0.16665908  0.23376556
   0.00002125  0.49999003  0.23376538
  -0.00000759  0.83334728  0.23376556
   0.00001251  0.16667917  0.23376108
   0.33334456  0.50001122  0.23379022
   0.33334432  0.83332220  0.23375954
   0.33332336  0.16668792  0.23376538
   0.77777854  0.61110992  0.31173615
   0.77780409  0.94447076  0.31171557
   0.77777912  0.27777871  0.31172148
   0.11113090  0.61110067  0.31173274
   0.11111204  0.94444578  0.31172148
   0.11112448  0.27779115  0.31173483
   0.44443594  0.61110261  0.31175798
   0.44444326  0.94444521  0.31173615
   0.44443401  0.27779756  0.31173274
   0.88889971  0.72223868  0.38970526
   0.88888600  0.05555267  0.38968915
   0.88889288  0.38887928  0.38969866
   0.22224044  0.72218575  0.38969057
   0.22221261  0.05555955  0.38969866
   0.22223907  0.38890574  0.38970234
   0.55553001  0.72219668  0.38969442
   0.55557201  0.05556638  0.38970526
   0.55551908  0.38890710  0.38969057
   0.00002458  0.83334528  0.46639679
  -0.00000862  0.16665805  0.46640610
   0.00001992  0.49997875  0.46640335
   0.33332753  0.83337226  0.46640869
   0.33331208  0.16668658  0.46640335
   0.33193580  0.49860247  0.46584640
   0.66667820  0.83334487  0.46640889
   0.66667861  0.16669125  0.46639679
   0.66670559  0.49999420  0.46640869
   0.11110246  0.94444869  0.54467696
   0.11110517  0.27777184  0.54466538
   0.11103711  0.61111522  0.54467811
   0.44443111  0.94442370  0.54467312
   0.44444856  0.27770377  0.54467811
   0.44482007  0.61148674  0.54518601
   0.77777888  0.94444555  0.54465063
   0.77778202  0.27776913  0.54467696
   0.77775704  0.61109778  0.54467312
   0.38888889  0.55555556  0.49051518
Direct configuration=     3
   0.44445925  0.44441483  0.07889327
   0.44437296  0.77781467  0.07900078
   0.44438639  0.11118346  0.07896784
   0.77777258  0.44448007  0.07899197
   0.77776665  0.77780004  0.07898815
   0.77776348  0.11118346  0.07896784
   0.11108069  0.44448007  0.07899197
   0.11114570  0.77781467  0.07900078
   0.11113628  0.11106077  0.07897435
   0.55558991  0.55554005  0.15709312
   0.55561136  0.88885068  0.15713914
   0.55557508  0.22218317  0.15712622
   0.88890854  0.55551626  0.15711184
   0.88887129  0.88885068  0.15713914
   0.88892356  0.22226803  0.15713610
   0.22220337  0.55554005  0.15709312
   0.22222172  0.88888990  0.15712149
   0.22214174  0.22226803  0.15713610
   0.66671646  0.66664396  0.23378653
   0.66668165 -0.00002997  0.23379410
   0.66662694  0.33333383  0.23376504
  -0.00002709  0.66664396  0.23378653
   0.00007586 -0.00004027  0.23378588
   0.00004464  0.33324406  0.23377055
   0.33337340  0.66658654  0.23387456
   0.33329774 -0.00004027  0.23378588
   0.33337256  0.33333383  0.23376504
   0.77787169  0.77758995  0.31167679
   0.77778050  0.11111264  0.31175025
   0.77778256  0.44443633  0.31169789
   0.11118173  0.77774441  0.31173808
   0.11115884  0.11101566  0.31174554
   0.11111444  0.44443633  0.31169789
   0.44440719  0.77774441  0.31173808
   0.44444020  0.11111264  0.31175025
   0.44441410  0.44450514  0.31182819
   0.88892751  0.88879154  0.38970872
   0.88890315  0.22224226  0.38968516
   0.88887857  0.55557619  0.38965124
   0.22228236  0.88876860  0.38969831
   0.22218793  0.22224226  0.38968516
   0.22228724  0.55562073  0.38965631
   0.55561428  0.88879154  0.38970872
   0.55546439  0.22240455  0.38967004
   0.55542536  0.55562073  0.38965631
   0.00007109  0.00000476  0.46632082
  -0.00003075  0.33339484  0.46633064
   0.00008775  0.66653627  0.46629740
   0.33325749  0.00000476  0.46632082
   0.33331263  0.33321511  0.46633989
   0.32834502  0.67664330  0.46433285
   0.66670784 -0.00008235  0.46634061
   0.66680560  0.33321511  0.46633989
   0.66670931  0.66653627  0.46629740
   0.11108991  0.11115351  0.54450813
   0.11108025  0.44446016  0.54454947
   0.11084696  0.77802725  0.54455356
   0.44439686  0.11123272  0.54453574
   0.44578520  0.44176294  0.54636646
   0.44445912  0.77802725  0.54455356
   0.77770375  0.11123272  0.54453574
   0.77779293  0.44446016  0.54454947
   0.77778172  0.77776989  0.54445549
   0.27781340  0.27774735  0.07899197
   0.27774817  0.61112592  0.07889327
   0.27781340  0.94443925  0.07899197
   0.61114801  0.27781237  0.07900078
   0.61114801  0.61103963  0.07900078
   0.61113337  0.94443332  0.07898815
   0.94439410  0.27780295  0.07897435
   0.94451680  0.61105306  0.07896784
   0.94451680  0.94443014  0.07896784
   0.38887338  0.38887004  0.15709312
   0.38887338  0.72225658  0.15709312
   0.38884959  0.05557520  0.15711184
   0.72222323  0.38888838  0.15712149
   0.72218402  0.72227803  0.15713914
   0.72218402  0.05553796  0.15713914
   0.05560137  0.38880841  0.15713610
   0.05551650  0.72224175  0.15712622
   0.05560137  0.05559023  0.15713610
   0.49991988  0.50004006  0.23387456
   0.49997729  0.83338313  0.23378653
   0.49997729  0.16663958  0.23378653
   0.83329307  0.49996441  0.23378588
   0.83330336  0.83334832  0.23379410
   0.83329307  0.16674253  0.23378588
   0.16666717  0.50003923  0.23376504
   0.16666717  0.83329361  0.23376504
   0.16657739  0.16671130  0.23377055
   0.61107774  0.61107386  0.31173808
   0.61092328  0.94453836  0.31167679
   0.61107774  0.27784840  0.31173808
   0.94444597  0.61110687  0.31175025
   0.94444597  0.94444716  0.31175025
   0.94434900  0.27782550  0.31174554
   0.27783848  0.61108076  0.31182819
   0.27776966  0.94444923  0.31169789
   0.27776966  0.27778111  0.31169789
   0.72212487  0.72228095  0.38970872
   0.72212487  0.05559418  0.38970872
   0.72210194  0.38894903  0.38969831
   0.05573789  0.72213106  0.38967004
   0.05557559  0.05556982  0.38968516
   0.05557559  0.38885459  0.38968516
   0.38895407  0.72209203  0.38965631
   0.38890952  0.05554524  0.38965124
   0.38895407  0.38895390  0.38965631
   0.83325099  0.83337451  0.46634061
   0.83333809  0.16673776  0.46632082
   0.83333809  0.49992416  0.46632082
   0.16654844  0.83347226  0.46633989
   0.16672817  0.16663591  0.46633064
   0.16654844  0.49997929  0.46633989
   0.49986960  0.83337598  0.46629740
   0.49986960  0.16675442  0.46629740
   0.50997663  0.49501168  0.46433285
   0.94456605  0.94437042  0.54453574
   0.94448684  0.27775658  0.54450813
   0.94456605  0.61106353  0.54453574
   0.27779349  0.94445959  0.54454947
   0.27779349  0.27774691  0.54454947
   0.27509627  0.61245187  0.54636646
   0.61110323  0.94444839  0.54445549
   0.61136059  0.27751362  0.54455356
   0.61136059  0.61112579  0.54455356
   0.27777426  0.44444092  0.07896606
   0.27777426  0.77778482  0.07896606
   0.27781086  0.11109457  0.07896335
   0.61111815  0.44444092  0.07896606
   0.61109085  0.77775751  0.07894958
   0.61109085  0.11115164  0.07894958
   0.94442790  0.44447753  0.07896335
   0.94448497  0.77775751  0.07894958
   0.94442790  0.11109457  0.07896335
   0.38888889  0.55555556  0.15717025
   0.38887243  0.88882396  0.15714554
   0.38887243  0.22230361  0.15714554
   0.72215729  0.55553910  0.15714554
   0.72222222  0.88888889  0.15716262
   0.72215729  0.22230361  0.15714554
   0.05563694  0.55553910  0.15714554
   0.05563694  0.88882396  0.15714554
   0.05555556  0.22222222  0.15712546
   0.49992954  0.66659620  0.23378170
   0.50008871 -0.00004435  0.23375993
   0.49992954  0.33347426  0.23378170
   0.83328898  0.66675537  0.23375993
   0.83328898 -0.00004435  0.23375993
   0.83339420  0.33330290  0.23374788
   0.16680760  0.66659620  0.23378170
   0.16663623  0.00006087  0.23374788
   0.16663623  0.33330290  0.23374788
   0.61114173  0.77780840  0.31173971
   0.61114173  0.11104987  0.31173971
   0.61098552  0.44450724  0.31175083
   0.94438320  0.77780840  0.31173971
   0.94444056  0.11110723  0.31169564
   0.94444056  0.44445221  0.31169564
   0.27784057  0.77765218  0.31175083
   0.27778554  0.11110723  0.31169564
   0.27784057  0.44450724  0.31175083
   0.72222222  0.88888889  0.38969560
   0.72214920  0.22225879  0.38966871
   0.72214920  0.55559201  0.38966871
   0.05559212  0.88881586  0.38966871
   0.05555556  0.22222222  0.38965673
   0.05559212  0.55559201  0.38966871
   0.38892534  0.88881586  0.38966871
   0.38892534  0.22225879  0.38966871
   0.38888889  0.55555556  0.38793334
   0.83328175 -0.00005158  0.46632768
   0.83334367  0.33332817  0.46629421
   0.83328175  0.66676983  0.46632768
   0.16666150  0.00001034  0.46629421
   0.16666150  0.33332817  0.46629421
   0.16663003  0.66668498  0.46644404
   0.50010317 -0.00005158  0.46632768
   0.50001832  0.33329670  0.46644404
   0.50001832  0.66668498  0.46644404
   0.94445238  0.11111904  0.54447072
   0.94445238  0.44442858  0.54447072
   0.94414182  0.77792909  0.54448623
   0.27776191  0.11111904  0.54447072
   0.27804083  0.44470749  0.54424983
   0.27804083  0.77725168  0.54424983
   0.61126242  0.11080849  0.54448623
   0.61058501  0.44470749  0.54424983
   0.61126242  0.77792909  0.54448623
   0.44437296  0.27781237  0.07900078
   0.44445925  0.61112592  0.07889327
   0.44438639  0.94443014  0.07896784
   0.77777258  0.27774735  0.07899197
   0.77776348  0.61105306  0.07896784
   0.77776665  0.94443332  0.07898815
   0.11113628  0.27780295  0.07897435
   0.11114570  0.61103963  0.07900078
   0.11108069  0.94443925  0.07899197
   0.55558991  0.38887004  0.15709312
   0.55557508  0.72224175  0.15712622
   0.55561136  0.05553796  0.15713914
   0.88892356  0.38880841  0.15713610
   0.88887129  0.72227803  0.15713914
   0.88890854  0.05557520  0.15711184
   0.22222172  0.38888838  0.15712149
   0.22220337  0.72225658  0.15709312
   0.22214174  0.05559023  0.15713610
   0.66662694  0.50003923  0.23376504
   0.66668165  0.83334832  0.23379410
   0.66671646  0.16663958  0.23378653
   0.00007586  0.49996441  0.23378588
  -0.00002709  0.83338313  0.23378653
   0.00004464  0.16671130  0.23377055
   0.33337340  0.50004006  0.23387456
   0.33337256  0.83329361  0.23376504
   0.33329774  0.16674253  0.23378588
   0.77778050  0.61110687  0.31175025
   0.77787169  0.94453836  0.31167679
   0.77778256  0.27778111  0.31169789
   0.11118173  0.61107386  0.31173808
   0.11111444  0.94444923  0.31169789
   0.11115884  0.27782550  0.31174554
   0.44441410  0.61108076  0.31182819
   0.44444020  0.94444716  0.31175025
   0.44440719  0.27784840  0.31173808
   0.88892751  0.72228095  0.38970872
   0.88887857  0.05554524  0.38965124
   0.88890315  0.38885459  0.38968516
   0.22228724  0.72209203  0.38965631
   0.22218793  0.05556982  0.38968516
   0.22228236  0.38894903  0.38969831
   0.55546439  0.72213106  0.38967004
   0.55561428  0.05559418  0.38970872
   0.55542536  0.38895390  0.38965631
   0.00008775  0.83337598  0.46629740
  -0.00003075  0.16663591  0.46633064
   0.00007109  0.49992416  0.46632082
   0.33331263  0.83347226  0.46633989
   0.33325749  0.16673776  0.46632082
   0.32834502  0.49501168  0.46433285
   0.66670784  0.83337451  0.46634061
   0.66670931  0.16675442  0.46629740
   0.66680560  0.49997929  0.46633989
   0.11108025  0.94445959  0.54454947
   0.11108991  0.27775658  0.54450813
   0.11084696  0.61112579  0.54455356
   0.44439686  0.94437042  0.54453574
   0.44445912  0.27751362  0.54455356
   0.44578520  0.61245187  0.54636646
   0.77778172  0.94444839  0.54445549
   0.77779293  0.27774691  0.54454947
   0.77770375  0.61106353  0.54453574
   0.38888889  0.55555556  0.49183886
Direct configuration=     4
   0.44445795  0.44441744  0.07887933
   0.44437925  0.77781143  0.07897739
   0.44439150  0.11117710  0.07894734
   0.77777304  0.44447693  0.07896935
   0.77776763  0.77779808  0.07896586
   0.77776473  0.11117710  0.07894734
   0.11108336  0.44447693  0.07896935
   0.11114266  0.77781143  0.07897739
   0.11113407  0.11106520  0.07895328
   0.55558689  0.55554141  0.15708720
   0.55560645  0.88885404  0.15712917
   0.55557337  0.22218660  0.15711739
   0.88890681  0.55551972  0.15710428
   0.88887284  0.88885404  0.15712917
   0.88892051  0.22226401  0.15712641
   0.22220503  0.55554141  0.15708720
   0.22222176  0.88888981  0.15711308
   0.22214882  0.22226401  0.15712641
   0.66671208  0.66664596  0.23378397
   0.66668033 -0.00002733  0.23379088
   0.66663043  0.33333379  0.23376437
  -0.00002470  0.66664596  0.23378397