NiAl                                    
            1
    14.415084    0.000000    0.000000
    -7.207542   12.483828    0.000000
     0.000000    0.000000   13.116254
   Al   O 
   108   162
Direct configuration=     1
   0.00000000  0.00000000  0.14790400
   0.11111100  0.22222233  0.01876300
   0.11111100  0.22222233  0.31457100
   0.22222233  0.11111100  0.18542900
   0.22222233  0.11111100  0.48123700
   0.00000000  0.00000000  0.35209600
   0.00000000  0.00000000  0.64790400
   0.11111100  0.22222233  0.51876300
   0.11111100  0.22222233  0.81457100
   0.22222233  0.11111100  0.68542900
   0.22222233  0.11111100  0.98123700
   0.00000000  0.00000000  0.85209600
   0.00000000  0.33333333  0.14790400
   0.11111100  0.55555567  0.01876300
   0.11111100  0.55555567  0.31457100
   0.22222233  0.44444433  0.18542900
   0.22222233  0.44444433  0.48123700
   0.00000000  0.33333333  0.35209600
   0.00000000  0.33333333  0.64790400
   0.11111100  0.55555567  0.51876300
   0.11111100  0.55555567  0.81457100
   0.22222233  0.44444433  0.68542900
   0.22222233  0.44444433  0.98123700
   0.00000000  0.33333333  0.85209600
   0.00000000  0.66666667  0.14790400
   0.11111100  0.88888900  0.01876300
   0.11111100  0.88888900  0.31457100
   0.22222233  0.77777767  0.18542900
   0.22222233  0.77777767  0.48123700
   0.00000000  0.66666667  0.35209600
   0.00000000  0.66666667  0.64790400
   0.11111100  0.88888900  0.51876300
   0.11111100  0.88888900  0.81457100
   0.22222233  0.77777767  0.68542900
   0.22222233  0.77777767  0.98123700
   0.00000000  0.66666667  0.85209600
   0.33333333  0.00000000  0.14790400
   0.44444433  0.22222233  0.01876300
   0.44444433  0.22222233  0.31457100
   0.55555567  0.11111100  0.18542900
   0.55555567  0.11111100  0.48123700
   0.33333333  0.00000000  0.35209600
   0.33333333  0.00000000  0.64790400
   0.44444433  0.22222233  0.51876300
   0.44444433  0.22222233  0.81457100
   0.55555567  0.11111100  0.68542900
   0.55555567  0.11111100  0.98123700
   0.33333333  0.00000000  0.85209600
   0.33333333  0.33333333  0.14790400
   0.44444433  0.55555567  0.01876300
   0.44444433  0.55555567  0.31457100
   0.55555567  0.44444433  0.18542900
   0.55555567  0.44444433  0.48123700
   0.33333333  0.33333333  0.35209600
   0.33333333  0.33333333  0.64790400
   0.44444433  0.55555567  0.51876300
   0.44444433  0.55555567  0.81457100
   0.55555567  0.44444433  0.68542900
   0.55555567  0.44444433  0.98123700
   0.33333333  0.33333333  0.85209600
   0.33333333  0.66666667  0.14790400
   0.44444433  0.88888900  0.01876300
   0.44444433  0.88888900  0.31457100
   0.55555567  0.77777767  0.18542900
   0.55555567  0.77777767  0.48123700
   0.33333333  0.66666667  0.35209600
   0.33333333  0.66666667  0.64790400
   0.44444433  0.88888900  0.51876300
   0.44444433  0.88888900  0.81457100
   0.55555567  0.77777767  0.68542900
   0.55555567  0.77777767  0.98123700
   0.33333333  0.66666667  0.85209600
   0.66666667  0.00000000  0.14790400
   0.77777767  0.22222233  0.01876300
   0.77777767  0.22222233  0.31457100
   0.88888900  0.11111100  0.18542900
   0.88888900  0.11111100  0.48123700
   0.66666667  0.00000000  0.35209600
   0.66666667  0.00000000  0.64790400
   0.77777767  0.22222233  0.51876300
   0.77777767  0.22222233  0.81457100
   0.88888900  0.11111100  0.68542900
   0.88888900  0.11111100  0.98123700
   0.66666667  0.00000000  0.85209600
   0.66666667  0.33333333  0.14790400
   0.77777767  0.55555567  0.01876300
   0.77777767  0.55555567  0.31457100
   0.88888900  0.44444433  0.18542900
   0.88888900  0.44444433  0.48123700
   0.66666667  0.33333333  0.35209600
   0.66666667  0.33333333  0.64790400
   0.77777767  0.55555567  0.51876300
   0.77777767  0.55555567  0.81457100
   0.88888900  0.44444433  0.68542900
   0.88888900  0.44444433  0.98123700
   0.66666667  0.33333333  0.85209600
   0.66666667  0.66666667  0.14790400
   0.77777767  0.88888900  0.01876300
   0.77777767  0.88888900  0.31457100
   0.88888900  0.77777767  0.18542900
   0.88888900  0.77777767  0.48123700
   0.66666667  0.66666667  0.35209600
   0.66666667  0.66666667  0.64790400
   0.77777767  0.88888900  0.51876300
   0.77777767  0.88888900  0.81457100
   0.88888900  0.77777767  0.68542900
   0.88888900  0.77777767  0.98123700
   0.66666667  0.66666667  0.85209600
   0.10204867  0.00000000  0.25000000
   0.22222233  0.00906233  0.08333300
   0.00000000  0.10204867  0.25000000
   0.23128467  0.23128467  0.25000000
   0.32427100  0.21315967  0.08333300
   0.12017367  0.11111100  0.08333300
   0.32427100  0.11111100  0.58333300
   0.11111100  0.12017367  0.41666700
   0.22222233  0.21315967  0.58333300
   0.12017367  0.00906233  0.58333300
   0.21315967  0.32427100  0.41666700
   0.00906233  0.22222233  0.41666700
   0.21315967  0.22222233  0.91666700
   0.00000000  0.23128467  0.75000000
   0.11111100  0.32427100  0.91666700
   0.00906233  0.12017367  0.91666700
   0.10204867  0.10204867  0.75000000
   0.23128467  0.00000000  0.75000000
   0.10204867  0.33333333  0.25000000
   0.22222233  0.34239567  0.08333300
   0.00000000  0.43538200  0.25000000
   0.23128467  0.56461800  0.25000000
   0.32427100  0.54649300  0.08333300
   0.12017367  0.44444433  0.08333300
   0.32427100  0.44444433  0.58333300
   0.11111100  0.45350700  0.41666700
   0.22222233  0.54649300  0.58333300
   0.12017367  0.34239567  0.58333300
   0.21315967  0.65760433  0.41666700
   0.00906233  0.55555567  0.41666700
   0.21315967  0.55555567  0.91666700
   0.00000000  0.56461800  0.75000000
   0.11111100  0.65760433  0.91666700
   0.00906233  0.45350700  0.91666700
   0.10204867  0.43538200  0.75000000
   0.23128467  0.33333333  0.75000000
   0.10204867  0.66666667  0.25000000
   0.22222233  0.67572900  0.08333300
   0.00000000  0.76871533  0.25000000
   0.23128467  0.89795133  0.25000000
   0.32427100  0.87982633  0.08333300
   0.12017367  0.77777767  0.08333300
   0.32427100  0.77777767  0.58333300
   0.11111100  0.78684033  0.41666700
   0.22222233  0.87982633  0.58333300
   0.12017367  0.67572900  0.58333300
   0.21315967  0.99093767  0.41666700
   0.00906233  0.88888900  0.41666700
   0.21315967  0.88888900  0.91666700
   0.00000000  0.89795133  0.75000000
   0.11111100  0.99093767  0.91666700
   0.00906233  0.78684033  0.91666700
   0.10204867  0.76871533  0.75000000
   0.23128467  0.66666667  0.75000000
   0.43538200  0.00000000  0.25000000
   0.55555567  0.00906233  0.08333300
   0.33333333  0.10204867  0.25000000
   0.56461800  0.23128467  0.25000000
   0.65760433  0.21315967  0.08333300
   0.45350700  0.11111100  0.08333300
   0.65760433  0.11111100  0.58333300
   0.44444433  0.12017367  0.41666700
   0.55555567  0.21315967  0.58333300
   0.45350700  0.00906233  0.58333300
   0.54649300  0.32427100  0.41666700
   0.34239567  0.22222233  0.41666700
   0.54649300  0.22222233  0.91666700
   0.33333333  0.23128467  0.75000000
   0.44444433  0.32427100  0.91666700
   0.34239567  0.12017367  0.91666700
   0.43538200  0.10204867  0.75000000
   0.56461800  0.00000000  0.75000000
   0.43538200  0.33333333  0.25000000
   0.55555567  0.34239567  0.08333300
   0.33333333  0.43538200  0.25000000
   0.56461800  0.56461800  0.25000000
   0.65760433  0.54649300  0.08333300
   0.45350700  0.44444433  0.08333300
   0.65760433  0.44444433  0.58333300
   0.44444433  0.45350700  0.41666700
   0.55555567  0.54649300  0.58333300
   0.45350700  0.34239567  0.58333300
   0.54649300  0.65760433  0.41666700
   0.34239567  0.55555567  0.41666700
   0.54649300  0.55555567  0.91666700
   0.33333333  0.56461800  0.75000000
   0.44444433  0.65760433  0.91666700
   0.34239567  0.45350700  0.91666700
   0.43538200  0.43538200  0.75000000
   0.56461800  0.33333333  0.75000000
   0.43538200  0.66666667  0.25000000
   0.55555567  0.67572900  0.08333300
   0.33333333  0.76871533  0.25000000
   0.56461800  0.89795133  0.25000000
   0.65760433  0.87982633  0.08333300
   0.45350700  0.77777767  0.08333300
   0.65760433  0.77777767  0.58333300
   0.44444433  0.78684033  0.41666700
   0.55555567  0.87982633  0.58333300
   0.45350700  0.67572900  0.58333300
   0.54649300  0.99093767  0.41666700
   0.34239567  0.88888900  0.41666700
   0.54649300  0.88888900  0.91666700
   0.33333333  0.89795133  0.75000000
   0.44444433  0.99093767  0.91666700
   0.34239567  0.78684033  0.91666700
   0.43538200  0.76871533  0.75000000
   0.56461800  0.66666667  0.75000000
   0.76871533  0.00000000  0.25000000
   0.88888900  0.00906233  0.08333300
   0.66666667  0.10204867  0.25000000
   0.89795133  0.23128467  0.25000000
   0.99093767  0.21315967  0.08333300
   0.78684033  0.11111100  0.08333300
   0.99093767  0.11111100  0.58333300
   0.77777767  0.12017367  0.41666700
   0.88888900  0.21315967  0.58333300
   0.78684033  0.00906233  0.58333300
   0.87982633  0.32427100  0.41666700
   0.67572900  0.22222233  0.41666700
   0.87982633  0.22222233  0.91666700
   0.66666667  0.23128467  0.75000000
   0.77777767  0.32427100  0.91666700
   0.67572900  0.12017367  0.91666700
   0.76871533  0.10204867  0.75000000
   0.89795133  0.00000000  0.75000000
   0.76871533  0.33333333  0.25000000
   0.88888900  0.34239567  0.08333300
   0.66666667  0.43538200  0.25000000
   0.89795133  0.56461800  0.25000000
   0.99093767  0.54649300  0.08333300
   0.78684033  0.44444433  0.08333300
   0.99093767  0.44444433  0.58333300
   0.77777767  0.45350700  0.41666700
   0.88888900  0.54649300  0.58333300
   0.78684033  0.34239567  0.58333300
   0.87982633  0.65760433  0.41666700
   0.67572900  0.55555567  0.41666700
   0.87982633  0.55555567  0.91666700
   0.66666667  0.56461800  0.75000000
   0.77777767  0.65760433  0.91666700
   0.67572900  0.45350700  0.91666700
   0.76871533  0.43538200  0.75000000
   0.89795133  0.33333333  0.75000000
   0.76871533  0.66666667  0.25000000
   0.88888900  0.67572900  0.08333300
   0.66666667  0.76871533  0.25000000
   0.89795133  0.89795133  0.25000000
   0.99093767  0.87982633  0.08333300
   0.78684033  0.77777767  0.08333300
   0.99093767  0.77777767  0.58333300
   0.77777767  0.78684033  0.41666700
   0.88888900  0.87982633  0.58333300
   0.78684033  0.67572900  0.58333300
   0.87982633  0.99093767  0.41666700
   0.67572900  0.88888900  0.41666700
   0.87982633  0.88888900  0.91666700
   0.66666667  0.89795133  0.75000000
   0.77777767  0.99093767  0.91666700
   0.67572900  0.78684033  0.91666700
   0.76871533  0.76871533  0.75000000
   0.89795133  0.66666667  0.75000000
Direct configuration=     2
  -0.00000000 -0.00000000  0.14788783
   0.11111100  0.22222233  0.01877917
   0.11111100  0.22222233  0.31455483
   0.22222233  0.11111100  0.18544517
   0.22222233  0.11111100  0.48122083
  -0.00000000 -0.00000000  0.35211217
  -0.00000000 -0.00000000  0.64788783
   0.11111100  0.22222233  0.51877917
   0.11111100  0.22222233  0.81455483
   0.22222233  0.11111100  0.68544517
   0.22222233  0.11111100  0.98122083
  -0.00000000 -0.00000000  0.85211217
  -0.00000000  0.33333333  0.14788783
   0.11111100  0.55555567  0.01877917
   0.11111100  0.55555567  0.31455483
   0.22222233  0.44444433  0.18544517
   0.22222233  0.44444433  0.48122083
  -0.00000000  0.33333333  0.35211217
  -0.00000000  0.33333333  0.64788783
   0.11111100  0.55555567  0.51877917
   0.11111100  0.55555567  0.81455483
   0.22222233  0.44444433  0.68544517
   0.22222233  0.44444433  0.98122083
  -0.00000000  0.33333333  0.85211217
  -0.00000000  0.66666667  0.14788783
   0.11111100  0.88888900  0.01877917
   0.11111100  0.88888900  0.31455483
   0.22222233  0.77777767  0.18544517
   0.22222233  0.77777767  0.48122083
  -0.00000000  0.66666667  0.35211217
  -0.00000000  0.66666667  0.64788783
   0.11111100  0.88888900  0.51877917
   0.11111100  0.88888900  0.81455483
   0.22222233  0.77777767  0.68544517
   0.22222233  0.77777767  0.98122083
  -0.00000000  0.66666667  0.85211217
   0.33333333 -0.00000000  0.14788783
   0.44444433  0.22222233  0.01877917
   0.44444433  0.22222233  0.31455483
   0.55555567  0.11111100  0.18544517
   0.55555567  0.11111100  0.48122083
   0.33333333 -0.00000000  0.35211217
   0.33333333 -0.00000000  0.64788783
   0.44444433  0.22222233  0.51877917
   0.44444433  0.22222233  0.81455483
   0.55555567  0.11111100  0.68544517
   0.55555567  0.11111100  0.98122083
   0.33333333 -0.00000000  0.85211217
   0.33333333  0.33333333  0.14788783
   0.44444433  0.55555567  0.01877917
   0.44444433  0.55555567  0.31455483
   0.55555567  0.44444433  0.18544517
   0.55555567  0.44444433  0.48122083
   0.33333333  0.33333333  0.35211217
   0.33333333  0.33333333  0.64788783
   0.44444433  0.55555567  0.51877917
   0.44444433  0.55555567  0.81455483
   0.55555567  0.44444433  0.68544517
   0.55555567  0.44444433  0.98122083
   0.33333333  0.33333333  0.85211217
   0.33333333  0.66666667  0.14788783
   0.44444433  0.88888900  0.01877917
   0.44444433  0.88888900  0.31455483
   0.55555567  0.77777767  0.18544517
   0.55555567  0.77777767  0.48122083
   0.33333333  0.66666667  0.35211217
   0.33333333  0.66666667  0.64788783
   0.44444433  0.88888900  0.51877917
   0.44444433  0.88888900  0.81455483
   0.55555567  0.77777767  0.68544517
   0.55555567  0.77777767  0.98122083
   0.33333333  0.66666667  0.85211217
   0.66666667 -0.00000000  0.14788783
   0.77777767  0.22222233  0.01877917
   0.77777767  0.22222233  0.31455483
   0.88888900  0.11111100  0.18544517
   0.88888900  0.11111100  0.48122083
   0.66666667 -0.00000000  0.35211217
   0.66666667 -0.00000000  0.64788783
   0.77777767  0.22222233  0.51877917
   0.77777767  0.22222233  0.81455483
   0.88888900  0.11111100  0.68544517
   0.88888900  0.11111100  0.98122083
   0.66666667 -0.00000000  0.85211217
   0.66666667  0.33333333  0.14788783
   0.77777767  0.55555567  0.01877917
   0.77777767  0.55555567  0.31455483
   0.88888900  0.44444433  0.18544517
   0.88888900  0.44444433  0.48122083
   0.66666667  0.33333333  0.35211217
   0.66666667  0.33333333  0.64788783
   0.77777767  0.55555567  0.51877917
   0.77777767  0.55555567  0.81455483
   0.88888900  0.44444433  0.68544517
   0.88888900  0.44444433  0.98122083
   0.66666667  0.33333333  0.85211217
   0.66666667  0.66666667  0.14788783
   0.77777767  0.88888900  0.01877917
   0.77777767  0.88888900  0.31455483
   0.88888900  0.77777767  0.18544517
   0.88888900  0.77777767  0.48122083
   0.66666667  0.66666667  0.35211217
   0.66666667  0.66666667  0.64788783
   0.77777767  0.88888900  0.51877917
   0.77777767  0.88888900  0.81455483
   0.88888900  0.77777767  0.68544517
   0.88888900  0.77777767  0.98122083
   0.66666667  0.66666667  0.85211217
   0.10204372 -0.00000000  0.25000000
   0.22222233  0.00906728  0.08333300
  -0.00000000  0.10204372  0.25000000
   0.23128961  0.23128961  0.25000000
   0.32426606  0.21315472  0.08333300
   0.12017861  0.11111100  0.08333300
   0.32426606  0.11111100  0.58333300
   0.11111100  0.12017861  0.41666700
   0.22222233  0.21315472  0.58333300
   0.12017861  0.00906728  0.58333300
   0.21315472  0.32426606  0.41666700
   0.00906728  0.22222233  0.41666700
   0.21315472  0.22222233  0.91666700
   0.00000000  0.23128961  0.75000000
   0.11111100  0.32426606  0.91666700
   0.00906728  0.12017861  0.91666700
   0.10204372  0.10204372  0.75000000
   0.23128961 -0.00000000  0.75000000
   0.10204372  0.33333333  0.25000000
   0.22222233  0.34240061  0.08333300
  -0.00000000  0.43537706  0.25000000
   0.23128961  0.56462294  0.25000000
   0.32426606  0.54648806  0.08333300
   0.12017861  0.44444433  0.08333300
   0.32426606  0.44444433  0.58333300
   0.11111100  0.45351194  0.41666700
   0.22222233  0.54648806  0.58333300
   0.12017861  0.34240061  0.58333300
   0.21315472  0.65759939  0.41666700
   0.00906728  0.55555567  0.41666700
   0.21315472  0.55555567  0.91666700
   0.00000000  0.56462294  0.75000000
   0.11111100  0.65759939  0.91666700
   0.00906728  0.45351194  0.91666700
   0.10204372  0.43537706  0.75000000
   0.23128961  0.33333333  0.75000000
   0.10204372  0.66666667  0.25000000
   0.22222233  0.67573394  0.08333300
  -0.00000000  0.76871039  0.25000000
   0.23128961  0.89795628  0.25000000
   0.32426606  0.87982139  0.08333300
   0.12017861  0.77777767  0.08333300
   0.32426606  0.77777767  0.58333300
   0.11111100  0.78684528  0.41666700
   0.22222233  0.87982139  0.58333300
   0.12017861  0.67573394  0.58333300
   0.21315472  0.99093272  0.41666700
   0.00906728  0.88888900  0.41666700
   0.21315472  0.88888900  0.91666700
   0.00000000  0.89795628  0.75000000
   0.11111100  0.99093272  0.91666700
   0.00906728  0.78684528  0.91666700
   0.10204372  0.76871039  0.75000000
   0.23128961  0.66666667  0.75000000
   0.43537706 -0.00000000  0.25000000
   0.55555567  0.00906728  0.08333300
   0.33333333  0.10204372  0.25000000
   0.56462294  0.23128961  0.25000000
   0.65759939  0.21315472  0.08333300
   0.45351194  0.11111100  0.08333300
   0.65759939  0.11111100  0.58333300
   0.44444433  0.12017861  0.41666700
   0.55555567  0.21315472  0.58333300
   0.45351194  0.00906728  0.58333300
   0.54648806  0.32426606  0.41666700
   0.34240061  0.22222233  0.41666700
   0.54648806  0.22222233  0.91666700
   0.33333333  0.23128961  0.75000000
   0.44444433  0.32426606  0.91666700
   0.34240061  0.12017861  0.91666700
   0.43537706  0.10204372  0.75000000
   0.56462294 -0.00000000  0.75000000
   0.43537706  0.33333333  0.25000000
   0.55555567  0.34240061  0.08333300
   0.33333333  0.43537706  0.25000000
   0.56462294  0.56462294  0.25000000
   0.65759939  0.54648806  0.08333300
   0.45351194  0.44444433  0.08333300
   0.65759939  0.44444433  0.58333300
   0.44444433  0.45351194  0.41666700
   0.55555567  0.54648806  0.58333300
   0.45351194  0.34240061  0.58333300
   0.54648806  0.65759939  0.41666700
   0.34240061  0.55555567  0.41666700
   0.54648806  0.55555567  0.91666700
   0.33333333  0.56462294  0.75000000
   0.44444433  0.65759939  0.91666700
   0.34240061  0.45351194  0.91666700
   0.43537706  0.43537706  0.75000000
   0.56462294  0.33333333  0.75000000
   0.43537706  0.66666667  0.25000000
   0.55555567  0.67573394  0.08333300
   0.33333333  0.76871039  0.25000000
   0.56462294  0.89795628  0.25000000
   0.65759939  0.87982139  0.08333300
   0.45351194  0.77777767  0.08333300
   0.65759939  0.77777767  0.58333300
   0.44444433  0.78684528  0.41666700
   0.55555567  0.87982139  0.58333300
   0.45351194  0.67573394  0.58333300
   0.54648806  0.99093272  0.41666700
   0.34240061  0.88888900  0.41666700
   0.54648806  0.88888900  0.91666700
   0.33333333  0.89795628  0.75000000
   0.44444433  0.99093272  0.91666700
   0.34240061  0.78684528  0.91666700
   0.43537706  0.76871039  0.75000000
   0.56462294  0.66666667  0.75000000
   0.76871039 -0.00000000  0.25000000
   0.88888900  0.00906728  0.08333300
   0.66666667  0.10204372  0.25000000
   0.89795628  0.23128961  0.25000000
   0.99093272  0.21315472  0.08333300
   0.78684528  0.11111100  0.08333300
   0.99093272  0.11111100  0.58333300
   0.77777767  0.12017861  0.41666700
   0.88888900  0.21315472  0.58333300
   0.78684528  0.00906728  0.58333300
   0.87982139  0.32426606  0.41666700
   0.67573394  0.22222233  0.41666700
   0.87982139  0.22222233  0.91666700
   0.66666667  0.23128961  0.75000000
   0.77777767  0.32426606  0.91666700
   0.67573394  0.12017861  0.91666700
   0.76871039  0.10204372  0.75000000
   0.89795628 -0.00000000  0.75000000
   0.76871039  0.33333333  0.25000000
   0.88888900  0.34240061  0.08333300
   0.66666667  0.43537706  0.25000000
   0.89795628  0.56462294  0.25000000
   0.99093272  0.54648806  0.08333300
   0.78684528  0.44444433  0.08333300
   0.99093272  0.44444433  0.58333300
   0.77777767  0.45351194  0.41666700
   0.88888900  0.54648806  0.58333300
   0.78684528  0.34240061  0.58333300
   0.87982139  0.65759939  0.41666700
   0.67573394  0.55555567  0.41666700
   0.87982139  0.55555567  0.91666700
   0.66666667  0.56462294  0.75000000
   0.77777767  0.65759939  0.91666700
   0.67573394  0.45351194  0.91666700
   0.76871039  0.43537706  0.75000000
   0.89795628  0.33333333  0.75000000
   0.76871039  0.66666667  0.25000000
   0.88888900  0.67573394  0.08333300
   0.66666667  0.76871039  0.25000000
   0.89795628  0.89795628  0.25000000
   0.99093272  0.87982139  0.08333300
   0.78684528  0.77777767  0.08333300
   0.99093272  0.77777767  0.58333300
   0.77777767  0.78684528  0.41666700
   0.88888900  0.87982139  0.58333300
   0.78684528  0.67573394  0.58333300
   0.87982139  0.99093272  0.41666700
   0.67573394  0.88888900  0.41666700
   0.87982139  0.88888900  0.91666700
   0.66666667  0.89795628  0.75000000
   0.77777767  0.99093272  0.91666700
   0.67573394  0.78684528  0.91666700
   0.76871039  0.76871039  0.75000000
   0.89795628  0.66666667  0.75000000
Direct configuration=     3
  -0.00000000 -0.00000000  0.14784730
   0.11111100  0.22222233  0.01881970
   0.11111100  0.22222233  0.31451430
   0.22222233  0.11111100  0.18548570
   0.22222233  0.11111100  0.48118030
  -0.00000000 -0.00000000  0.35215270
  -0.00000000 -0.00000000  0.64784730
   0.11111100  0.22222233  0.51881970
   0.11111100  0.22222233  0.81451430
   0.22222233  0.11111100  0.68548570
   0.22222233  0.11111100  0.98118030
  -0.00000000 -0.00000000  0.85215270
  -0.00000000  0.33333333  0.14784730
   0.11111100  0.55555567  0.01881970
   0.11111100  0.55555567  0.31451430
   0.22222233  0.44444433  0.18548570
   0.22222233  0.44444433  0.48118030
  -0.00000000  0.33333333  0.35215270
  -0.00000000  0.33333333  0.64784730
   0.11111100  0.55555567  0.51881970
   0.11111100  0.55555567  0.81451430
   0.22222233  0.44444433  0.68548570
   0.22222233  0.44444433  0.98118030
  -0.00000000  0.33333333  0.85215270
  -0.00000000  0.66666667  0.14784730
   0.11111100  0.88888900  0.01881970
   0.11111100  0.88888900  0.31451430
   0.22222233  0.77777767  0.18548570
   0.22222233  0.77777767  0.48118030
  -0.00000000  0.66666667  0.35215270
  -0.00000000  0.66666667  0.64784730
   0.11111100  0.88888900  0.51881970
   0.11111100  0.88888900  0.81451430
   0.22222233  0.77777767  0.68548570
   0.22222233  0.77777767  0.98118030
  -0.00000000  0.66666667  0.85215270
   0.33333333 -0.00000000  0.14784730
   0.44444433  0.22222233  0.01881970
   0.44444433  0.22222233  0.31451430
   0.55555567  0.11111100  0.18548570
   0.55555567  0.11111100  0.48118030
   0.33333333 -0.00000000  0.35215270
   0.33333333 -0.00000000  0.64784730
   0.44444433  0.22222233  0.51881970
   0.44444433  0.22222233  0.81451430
   0.55555567  0.11111100  0.68548570
   0.55555567  0.11111100  0.98118030
   0.33333333 -0.00000000  0.85215270
   0.33333333  0.33333333  0.14784730
   0.44444433  0.55555567  0.01881970
   0.44444433  0.55555567  0.31451430
   0.55555567  0.44444433  0.18548570
   0.55555567  0.44444433  0.48118030
   0.33333333  0.33333333  0.35215270
   0.33333333  0.33333333  0.64784730
   0.44444433  0.55555567  0.51881970
   0.44444433  0.55555567  0.81451430
   0.55555567  0.44444433  0.68548570
   0.55555567  0.44444433  0.98118030
   0.33333333  0.33333333  0.85215270
   0.33333333  0.66666667  0.14784730
   0.44444433  0.88888900  0.01881970
   0.44444433  0.88888900  0.31451430
   0.55555567  0.77777767  0.18548570
   0.55555567  0.77777767  0.48118030
   0.33333333  0.66666667  0.35215270
   0.33333333  0.66666667  0.64784730
   0.44444433  0.88888900  0.51881970
   0.44444433  0.88888900  0.81451430
   0.55555567  0.77777767  0.68548570
   0.55555567  0.77777767  0.98118030
   0.33333333  0.66666667  0.85215270
   0.66666667 -0.00000000  0.14784730
   0.77777767  0.22222233  0.01881970
   0.77777767  0.22222233  0.31451430
   0.88888900  0.11111100  0.18548570
   0.88888900  0.11111100  0.48118030
   0.66666667 -0.00000000  0.35215270
   0.66666667 -0.00000000  0.64784730
   0.77777767  0.22222233  0.51881970
   0.77777767  0.22222233  0.81451430
   0.88888900  0.11111100  0.68548570
   0.88888900  0.11111100  0.98118030
   0.66666667 -0.00000000  0.85215270
   0.66666667  0.33333333  0.14784730
   0.77777767  0.55555567  0.01881970
   0.77777767  0.55555567  0.31451430
   0.88888900  0.44444433  0.18548570
   0.88888900  0.44444433  0.48118030
   0.66666667  0.33333333  0.35215270
   0.66666667  0.33333333  0.64784730
   0.77777767  0.55555567  0.51881970
   0.77777767  0.55555567  0.81451430
   0.88888900  0.44444433  0.68548570
   0.88888900  0.44444433  0.98118030
   0.66666667  0.33333333  0.85215270
   0.66666667  0.66666667  0.14784730
   0.77777767  0.88888900  0.01881970
   0.77777767  0.88888900  0.31451430
   0.88888900  0.77777767  0.18548570
   0.88888900  0.77777767  0.48118030
   0.66666667  0.66666667  0.35215270
   0.66666667  0.66666667  0.64784730
   0.77777767  0.88888900  0.51881970
   0.77777767  0.88888900  0.81451430
   0.88888900  0.77777767  0.68548570
   0.88888900  0.77777767  0.98118030
   0.66666667  0.66666667  0.85215270
   0.10203133 -0.00000000  0.25000000
   0.22222233  0.00907967  0.08333300
  -0.00000000  0.10203133  0.25000000
   0.23130200  0.23130200  0.25000000
   0.32425367  0.21314233  0.08333300
   0.12019100  0.11111100  0.08333300
   0.32425367  0.11111100  0.58333300
   0.11111100  0.12019100  0.41666700
   0.22222233  0.21314233  0.58333300
   0.12019100  0.00907967  0.58333300
   0.21314233  0.32425367  0.41666700
   0.00907967  0.22222233  0.41666700
   0.21314233  0.22222233  0.91666700
   0.00000000  0.23130200  0.75000000
   0.11111100  0.32425367  0.91666700
   0.00907967  0.12019100  0.91666700
   0.10203133  0.10203133  0.75000000
   0.23130200 -0.00000000  0.75000000
   0.10203133  0.33333333  0.25000000
   0.22222233  0.34241300  0.08333300
  -0.00000000  0.43536467  0.25000000
   0.23130200  0.56463533  0.25000000
   0.32425367  0.54647567  0.08333300
   0.12019100  0.44444433  0.08333300
   0.32425367  0.44444433  0.58333300
   0.11111100  0.45352433  0.41666700
   0.22222233  0.54647567  0.58333300
   0.12019100  0.34241300  0.58333300
   0.21314233  0.65758700  0.41666700
   0.00907967  0.55555567  0.41666700
   0.21314233  0.55555567  0.91666700
   0.00000000  0.56463533  0.75000000
   0.11111100  0.65758700  0.91666700
   0.00907967  0.45352433  0.91666700
   0.10203133  0.43536467  0.75000000
   0.23130200  0.33333333  0.75000000
   0.10203133  0.66666667  0.25000000
   0.22222233  0.67574633  0.08333300
  -0.00000000  0.76869800  0.25000000
   0.23130200  0.89796867  0.25000000
   0.32425367  0.87980900  0.08333300
   0.12019100  0.77777767  0.08333300
   0.32425367  0.77777767  0.58333300
   0.11111100  0.78685767  0.41666700
   0.22222233  0.87980900  0.58333300
   0.12019100  0.67574633  0.58333300
   0.21314233  0.99092033  0.41666700
   0.00907967  0.88888900  0.41666700
   0.21314233  0.88888900  0.91666700
   0.00000000  0.89796867  0.75000000
   0.11111100  0.99092033  0.91666700
   0.00907967  0.78685767  0.91666700
   0.10203133  0.76869800  0.75000000
   0.23130200  0.66666667  0.75000000
   0.43536467 -0.00000000  0.25000000
   0.55555567  0.00907967  0.08333300
   0.33333333  0.10203133  0.25000000
   0.56463533  0.23130200  0.25000000
   0.65758700  0.21314233  0.08333300
   0.45352433  0.11111100  0.08333300
   0.65758700  0.11111100  0.58333300
   0.44444433  0.12019100  0.41666700
   0.55555567  0.21314233  0.58333300
   0.45352433  0.00907967  0.58333300
   0.54647567  0.32425367  0.41666700
   0.34241300  0.22222233  0.41666700
   0.54647567  0.22222233  0.91666700
   0.33333333  0.23130200  0.75000000
   0.44444433  0.32425367  0.91666700
   0.34241300  0.12019100  0.91666700
   0.43536467  0.10203133  0.75000000
   0.56463533 -0.00000000  0.75000000
   0.43536467  0.33333333  0.25000000
   0.55555567  0.34241300  0.08333300
   0.33333333  0.43536467  0.25000000
   0.56463533  0.56463533  0.25000000
   0.65758700  0.54647567  0.08333300
   0.45352433  0.44444433  0.08333300
   0.65758700  0.44444433  0.58333300
   0.44444433  0.45352433  0.41666700
   0.55555567  0.54647567  0.58333300
   0.45352433  0.34241300  0.58333300
   0.54647567  0.65758700  0.41666700
   0.34241300  0.55555567  0.41666700
   0.54647567  0.55555567  0.91666700
   0.33333333  0.56463533  0.75000000
   0.44444433  0.65758700  0.91666700
   0.34241300  0.45352433  0.91666700
   0.43536467  0.43536467  0.75000000
   0.56463533  0.33333333  0.75000000
   0.43536467  0.66666667  0.25000000
   0.55555567  0.67574633  0.08333300
   0.33333333  0.76869800  0.25000000
   0.56463533  0.89796867  0.25000000
   0.65758700  0.87980900  0.08333300
   0.45352433  0.77777767  0.08333300
   0.65758700  0.77777767  0.58333300
   0.44444433  0.78685767  0.41666700
   0.55555567  0.87980900  0.58333300
   0.45352433  0.67574633  0.58333300
   0.54647567  0.99092033  0.41666700
   0.34241300  0.88888900  0.41666700
   0.54647567  0.88888900  0.91666700
   0.33333333  0.89796867  0.75000000
   0.44444433  0.99092033  0.91666700
   0.34241300  0.78685767  0.91666700
   0.43536467  0.76869800  0.75000000
   0.56463533  0.66666667  0.75000000
   0.76869800 -0.00000000  0.25000000
   0.88888900  0.00907967  0.08333300
   0.66666667  0.10203133  0.25000000
   0.89796867  0.23130200  0.25000000
   0.99092033  0.21314233  0.08333300
   0.78685767  0.11111100  0.08333300
   0.99092033  0.11111100  0.58333300
   0.77777767  0.12019100  0.41666700
   0.88888900  0.21314233  0.58333300
   0.78685767  0.00907967  0.58333300
   0.87980900  0.32425367  0.41666700
   0.67574633  0.22222233  0.41666700
   0.87980900  0.22222233  0.91666700
   0.66666667  0.23130200  0.75000000
   0.77777767  0.32425367  0.91666700
   0.67574633  0.12019100  0.91666700
   0.76869800  0.10203133  0.75000000
   0.89796867 -0.00000000  0.75000000
   0.76869800  0.33333333  0.25000000
   0.88888900  0.34241300  0.08333300
   0.66666667  0.43536467  0.25000000
   0.89796867  0.56463533  0.25000000
   0.99092033  0.54647567  0.08333300
   0.78685767  0.44444433  0.08333300
   0.99092033  0.44444433  0.58333300
   0.77777767  0.45352433  0.41666700