  380  380   20    1
  0.1965819E+02  0.1514622E-08  0.1514622E-08  0.3760000E-08  0.2000000E-15
   1.0000000000000000E-004
  CAR 
 NiAl                                    
   3288      2   1972
 
  0.1262379E-14  0.1262379E-14  0.1262379E-14  0.2500000E+00
    1      -31.160364   1.000000
    2      -30.892438   1.000000
    3      -30.892438   1.000000
    4      -30.892399   1.000000
    5      -30.443142   1.000000
    6      -30.443045   1.000000
    7      -30.443045   1.000000
    8      -29.636055   1.000000
    9      -29.636055   1.000000
   10      -29.636022   1.000000
   11      -29.525790   1.000000
   12      -29.487772   1.000000
   13      -29.487698   1.000000
   14      -29.058134   1.000000
   15      -29.058134   1.000000
   16      -29.058069   1.000000
   17      -28.654886   1.000000
   18      -28.654787   1.000000
   19      -28.111233   1.000000
   20      -28.111188   1.000000
   21      -28.111188   1.000000
   22      -28.001219   1.000000
   23      -28.001219   1.000000
   24      -28.001216   1.000000
   25      -27.701010   1.000000
   26      -27.701010   1.000000
   27      -27.700982   1.000000
   28      -27.503654   1.000000
   29      -27.503617   1.000000
   30      -27.503617   1.000000
   31      -27.408717   1.000000
   32      -26.830185   1.000000
   33      -26.662249   1.000000
   34      -26.662249   1.000000
   35      -26.662244   1.000000
   36      -26.654769   1.000000
   37      -26.654721   1.000000
   38      -26.648083   1.000000
   39      -26.619688   1.000000
   40      -26.619631   1.000000
   41      -26.619631   1.000000
   42      -26.550075   1.000000
   43      -26.550075   1.000000
   44      -26.549992   1.000000
   45      -25.752831   1.000000
   46      -25.752777   1.000000
   47      -25.752777   1.000000
   48      -25.580312   1.000000
   49      -25.410869   1.000000
   50      -25.410869   1.000000
   51      -25.410711   1.000000
   52      -25.353204   1.000000
   53      -25.353088   1.000000
   54      -25.189543   1.000000
   55      -25.189468   1.000000
   56      -25.189468   1.000000
   57      -20.964539   1.000000
   58      -20.902543   1.000000
   59      -20.902535   1.000000
   60      -20.902535   1.000000
   61      -19.556327   1.000000
   62      -19.556327   1.000000
   63      -19.556306   1.000000
   64      -19.177287   1.000000
   65      -19.177287   1.000000
   66      -19.177275   1.000000
   67      -19.127468   1.000000
   68      -19.127457   1.000000
   69      -19.095400   1.000000
   70      -18.520543   1.000000
   71      -18.520491   1.000000
   72      -18.520491   1.000000
   73      -18.321874   1.000000
   74      -18.321852   1.000000
   75      -18.321852   1.000000
   76      -17.954638   1.000000
   77      -17.954638   1.000000
   78      -17.954496   1.000000
   79      -17.934221   1.000000
   80      -17.934015   1.000000
   81      -17.842312   1.000000
   82      -17.842145   1.000000
   83      -17.842145   1.000000
   84      -17.457026   1.000000
   85      -17.456988   1.000000
   86      -17.398404   1.000000
   87      -17.320361   1.000000
   88      -17.320361   1.000000
   89      -17.320318   1.000000
   90      -17.020027   1.000000
   91      -17.020027   1.000000
   92      -17.019971   1.000000
   93      -16.576622   1.000000
   94      -16.576581   1.000000
   95      -16.118566   1.000000
   96      -16.118538   1.000000
   97      -16.118538   1.000000
   98      -15.870808   1.000000
   99      -15.870808   1.000000
  100      -15.870781   1.000000
  101      -15.622600   1.000000
  102      -15.622544   1.000000
  103      -15.622544   1.000000
  104      -15.507673   1.000000
  105      -15.498212   1.000000
  106      -15.498212   1.000000
  107      -15.498204   1.000000
  108      -14.792674   1.000000
  109      -14.792625   1.000000
  110      -14.792625   1.000000
  111      -14.384602   1.000000
  112      -14.384548   1.000000
  113      -14.207439   1.000000
  114      -13.792453   1.000000
  115      -13.699267   1.000000
  116      -13.699245   1.000000
  117      -13.699245   1.000000
  118      -13.674722   1.000000
  119      -13.674722   1.000000
  120      -13.674689   1.000000
  121      -13.671299   1.000000
  122      -13.671299   1.000000
  123      -13.671243   1.000000
  124      -13.663301   1.000000
  125      -13.349883   1.000000
  126      -13.349698   1.000000
  127      -13.281926   1.000000
  128      -13.281866   1.000000
  129      -13.233953   1.000000
  130      -13.233953   1.000000
  131      -13.233858   1.000000
  132      -13.087793   1.000000
  133      -13.087787   1.000000
  134      -13.087787   1.000000
  135      -12.937504   1.000000
  136      -12.937504   1.000000
  137      -12.937285   1.000000
  138      -12.357774   1.000000
  139      -12.357456   1.000000
  140      -12.357456   1.000000
  141      -11.979367   1.000000
  142      -11.979367   1.000000
  143      -11.979336   1.000000
  144      -11.898425   1.000000
  145      -11.898245   1.000000
  146      -11.817488   1.000000
  147      -11.817488   1.000000
  148      -11.817421   1.000000
  149      -11.741471   1.000000
  150      -11.741225   1.000000
  151      -11.741225   1.000000
  152      -11.293227   1.000000
  153      -11.293132   1.000000
  154      -11.293132   1.000000
  155      -11.250957   1.000000
  156      -11.244146   1.000000
  157      -11.243913   1.000000
  158      -11.243913   1.000000
  159      -10.813795   1.000000
  160      -10.813749   1.000000
  161      -10.813749   1.000000
  162      -10.762975   1.000000
  163      -10.762925   1.000000
  164      -10.762925   1.000000
  165      -10.664179   1.000000
  166      -10.664179   1.000000
  167      -10.664125   1.000000
  168      -10.632787   1.000000
  169      -10.605552   1.000000
  170      -10.562979   1.000000
  171      -10.562835   1.000000
  172      -10.267653   1.000000
  173      -10.267653   1.000000
  174      -10.267583   1.000000
  175      -10.213741   1.000000
  176      -10.213722   1.000000
  177      -10.213722   1.000000
  178      -10.212414   1.000000
  179      -10.208496   1.000000
  180      -10.208360   1.000000
  181       -9.266662   1.000000
  182       -9.266662   1.000000
  183       -9.266630   1.000000
  184       -9.228425   1.000000
  185       -9.228425   1.000000
  186       -9.228279   1.000000
  187       -9.103637   1.000000
  188       -9.103592   1.000000
  189       -8.751339   1.000000
  190       -8.667470   1.000000
  191       -8.667470   1.000000
  192       -8.667420   1.000000
  193       -8.581298   1.000000
  194       -8.408563   1.000000
  195       -8.408557   1.000000
  196       -8.408557   1.000000
  197       -8.337350   1.000000
  198       -8.144970   1.000000
  199       -8.144970   1.000000
  200       -8.144350   1.000000
  201       -7.945567   1.000000
  202       -7.862949   1.000000
  203       -7.862949   1.000000
  204       -7.862946   1.000000
  205       -7.679625   1.000000
  206       -7.679544   1.000000
  207       -7.679544   1.000000
  208       -7.662185   1.000000
  209       -7.662185   1.000000
  210       -7.662185   1.000000
  211       -7.651560   1.000000
  212       -7.651554   1.000000
  213       -7.651554   1.000000
  214       -7.610253   1.000000
  215       -7.610090   1.000000
  216       -7.610090   1.000000
  217       -7.380943   1.000000
  218       -7.337399   1.000000
  219       -7.337324   1.000000
  220       -7.263326   1.000000
  221       -7.244582   1.000000
  222       -7.244174   1.000000
  223       -7.211777   1.000000
  224       -7.211605   1.000000
  225       -7.211605   1.000000
  226       -7.172187   1.000000
  227       -7.171906   1.000000
  228       -7.171906   1.000000
  229       -7.126864   1.000000
  230       -7.126864   1.000000
  231       -7.126504   1.000000
  232       -7.098815   1.000000
  233       -7.098772   1.000000
  234       -7.098772   1.000000
  235       -7.071846   1.000000
  236       -7.069203   1.000000
  237       -7.068799   1.000000
  238       -7.050253   1.000000
  239       -7.050228   1.000000
  240       -7.050228   1.000000
  241       -7.029185   1.000000
  242       -7.029185   1.000000
  243       -7.028777   1.000000
  244       -6.946321   1.000000
  245       -6.946286   1.000000
  246       -6.946286   1.000000
  247       -6.909138   1.000000
  248       -6.890681   1.000000
  249       -6.890387   1.000000
  250       -6.890387   1.000000
  251       -6.879343   1.000000
  252       -6.779550   1.000000
  253       -6.779428   1.000000
  254       -6.739472   1.000000
  255       -6.739309   1.000000
  256       -6.739309   1.000000
  257       -6.656830   1.000000
  258       -6.612020   1.000000
  259       -6.603386   1.000000
  260       -6.603386   1.000000
  261       -6.603360   1.000000
  262       -6.577556   1.000000
  263       -6.577095   1.000000
  264       -6.489387   1.000000
  265       -6.489209   1.000000
  266       -6.489209   1.000000
  267       -6.488139   1.000000
  268       -6.488139   1.000000
  269       -6.488130   1.000000
  270       -6.434001   1.000000
  271       -6.433973   1.000000
  272       -6.433973   1.000000
  273       -6.360670   1.000000
  274       -6.360635   1.000000
  275       -6.360635   1.000000
  276       -6.247657   1.000000
  277       -6.247353   1.000000
  278       -6.244951   1.000000
  279       -6.202543   1.000000
  280       -6.156170   1.000000
  281       -6.156170   1.000000
  282       -6.156062   1.000000
  283       -6.119018   1.000000
  284       -6.118823   1.000000
  285       -6.118823   1.000000
  286       -6.026526   1.000000
  287       -6.026526   1.000000
  288       -6.026491   1.000000
  289       -5.937883   1.000000
  290       -5.937680   1.000000
  291       -5.937680   1.000000
  292       -5.837816   1.000000
  293       -5.837160   1.000000
  294       -5.784847   1.000000
  295       -5.784847   1.000000
  296       -5.784532   1.000000
  297       -5.676689   1.000000
  298       -5.676689   1.000000
  299       -5.676670   1.000000
  300       -5.646221   1.000000
  301       -5.645957   1.000000
  302       -5.614268   1.000000
  303       -5.614268   1.000000
  304       -5.614116   1.000000
  305       -5.577833   1.000000
  306       -5.479373   1.000000
  307       -5.479373   1.000000
  308       -5.479324   1.000000
  309       -5.465512   1.000000
  310       -5.465512   1.000000
  311       -5.465445   1.000000
  312       -5.463010   1.000000
  313       -5.463010   1.000000
  314       -5.462986   1.000000
  315       -5.443994   1.000000
  316       -5.443974   1.000000
  317       -5.437777   1.000000
  318       -5.411935   1.000000
  319       -5.411918   1.000000
  320       -5.411918   1.000000
  321       -5.396401   1.000000
  322       -5.338657   1.000000
  323       -5.338590   1.000000
  324       -5.338590   1.000000
  325       -5.310563   1.000000
  326       -5.310149   1.000000
  327       -5.263376   1.000000
  328       -5.095533   1.000000
  329       -5.095533   1.000000
  330       -5.095471   1.000000
  331       -5.087896   1.000000
  332       -5.087503   1.000000
  333       -5.002433   1.000000
  334       -5.002433   1.000000
  335       -5.002415   1.000000
  336       -4.942458   1.000000
  337       -4.942458   1.000000
  338       -4.942409   1.000000
  339       -4.930191   1.000000
  340       -4.927913   1.000000
  341       -4.927912   1.000000
  342       -4.924074   1.000000
  343       -4.901026   1.000000
  344       -4.900760   1.000000
  345       -4.900760   1.000000
  346       -4.893887   1.000000
  347       -4.893884   1.000000
  348       -4.883735   1.000000
  349       -4.883735   1.000000
  350       -4.883581   1.000000
  351       -4.818940   1.000000
  352       -4.818940   1.000000
  353       -4.818896   1.000000
  354       -4.803182   1.000000
  355       -4.725294   1.000000
  356       -4.724864   1.000000
  357       -4.724864   1.000000
  358       -4.677517   1.000000
  359       -4.677129   1.000000
  360       -4.673866   1.000000
  361       -4.673866   1.000000
  362       -4.673837   1.000000
  363       -4.664309   1.000000
  364       -4.664309   1.000000
  365       -4.664146   1.000000
  366       -4.653455   1.000000
  367       -4.634350   1.000000
  368       -4.624974   1.000000
  369       -4.624971   1.000000
  370       -4.613730   1.000000
  371       -4.613706   1.000000
  372       -4.580059   1.000000
  373       -4.580054   1.000000
  374       -4.580054   1.000000
  375       -4.565605   1.000000
  376       -4.518763   1.000000
  377       -4.518760   1.000000
  378       -4.518760   1.000000
  379       -4.451041   1.000000
  380       -4.451041   1.000000
  381       -4.450419   1.000000
  382       -4.390695   1.000000
  383       -4.390539   1.000000
  384       -4.390539   1.000000
  385       -4.291537   1.000000
  386       -4.272823   1.000000
  387       -4.272776   1.000000
  388       -4.272776   1.000000
  389       -4.268831   1.000000
  390       -4.268831   1.000000
  391       -4.268819   1.000000
  392       -4.262005   1.000000
  393       -4.262005   1.000000
  394       -4.262004   1.000000
  395       -4.225342   1.000000
  396       -4.225342   1.000000
  397       -4.225325   1.000000
  398       -4.214093   1.000000
  399       -4.213965   1.000000
  400       -4.213965   1.000000
  401       -4.179198   1.000000
  402       -4.179157   1.000000
  403       -4.144741   1.000000
  404       -4.144731   1.000000
  405       -4.143002   1.000000
  406       -4.142863   1.000000
  407       -4.142863   1.000000
  408       -4.138410   1.000000
  409       -4.117653   1.000000
  410       -4.116623   1.000000
  411       -4.116594   1.000000
  412       -4.116594   1.000000
  413       -4.095839   1.000000
  414       -4.095757   1.000000
  415       -4.095757   1.000000
  416       -4.082515   1.000000
  417       -4.058881   1.000000
  418       -4.058868   1.000000
  419       -4.058868   1.000000
  420       -4.050241   1.000000
  421       -4.050240   1.000000
  422       -4.033574   1.000000
  423       -4.033528   1.000000
  424       -4.033528   1.000000
  425       -4.025985   1.000000
  426       -4.025985   1.000000
  427       -4.025928   1.000000
  428       -3.952568   1.000000
  429       -3.952548   1.000000
  430       -3.952548   1.000000
  431       -3.941578   1.000000
  432       -3.941422   1.000000
  433       -3.941422   1.000000
  434       -3.903064   1.000000
  435       -3.903051   1.000000
  436       -3.903051   1.000000
  437       -3.888535   1.000000
  438       -3.888514   1.000000
  439       -3.886842   1.000000
  440       -3.886831   1.000000
  441       -3.886831   1.000000
  442       -3.872997   1.000000
  443       -3.872997   1.000000
  444       -3.872975   1.000000
  445       -3.827163   1.000000
  446       -3.826993   1.000000
  447       -3.826993   1.000000
  448       -3.801744   1.000000
  449       -3.801744   1.000000
  450       -3.801681   1.000000
  451       -3.794837   1.000000
  452       -3.794837   1.000000
  453       -3.794734   1.000000
  454       -3.762498   1.000000
  455       -3.762441   1.000000
  456       -3.748810   1.000000
  457       -3.748810   1.000000
  458       -3.748489   1.000000
  459       -3.739807   1.000000
  460       -3.727463   1.000000
  461       -3.727463   1.000000
  462       -3.727450   1.000000
  463       -3.693330   1.000000
  464       -3.693330   1.000000
  465       -3.693280   1.000000
  466       -3.687489   1.000000
  467       -3.686925   1.000000
  468       -3.686925   1.000000
  469       -3.686865   1.000000
  470       -3.683063   1.000000
  471       -3.683063   1.000000
  472       -3.682989   1.000000
  473       -3.660876   1.000000
  474       -3.660862   1.000000
  475       -3.660862   1.000000
  476       -3.642207   1.000000
  477       -3.642182   1.000000
  478       -3.642182   1.000000
  479       -3.640780   1.000000
  480       -3.640780   1.000000
  481       -3.640647   1.000000
  482       -3.639349   1.000000
  483       -3.639349   1.000000
  484       -3.639306   1.000000
  485       -3.637197   1.000000
  486       -3.637180   1.000000
  487       -3.637180   1.000000
  488       -3.634905   1.000000
  489       -3.634861   1.000000
  490       -3.604667   1.000000
  491       -3.604667   1.000000
  492       -3.604648   1.000000
  493       -3.597315   1.000000
  494       -3.597315   1.000000
  495       -3.597210   1.000000
  496       -3.575493   1.000000
  497       -3.575493   1.000000
  498       -3.575385   1.000000
  499       -3.569516   1.000000
  500       -3.569516   1.000000
  501       -3.569418   1.000000
  502       -3.559097   1.000000
  503       -3.559086   1.000000
  504       -3.559086   1.000000
  505       -3.557745   1.000000
  506       -3.557734   1.000000
  507       -3.557734   1.000000
  508       -3.532800   1.000000
  509       -3.532784   1.000000
  510       -3.532784   1.000000
  511       -3.499137   1.000000
  512       -3.499137   1.000000
  513       -3.499026   1.000000
  514       -3.474959   1.000000
  515       -3.474959   1.000000
  516       -3.474858   1.000000
  517       -3.467024   1.000000
  518       -3.446996   1.000000
  519       -3.446930   1.000000
  520       -3.446902   1.000000
  521       -3.446902   1.000000
  522       -3.446817   1.000000
  523       -3.434828   1.000000
  524       -3.431285   1.000000
  525       -3.431272   1.000000
  526       -3.431272   1.000000
  527       -3.427410   1.000000
  528       -3.427377   1.000000
  529       -3.427377   1.000000
  530       -3.408002   1.000000
  531       -3.407984   1.000000
  532       -3.407984   1.000000
  533       -3.403569   1.000000
  534       -3.403547   1.000000
  535       -3.403547   1.000000
  536       -3.401509   1.000000
  537       -3.385846   1.000000
  538       -3.385753   1.000000
  539       -3.370453   1.000000
  540       -3.370453   1.000000
  541       -3.370300   1.000000
  542       -3.362915   1.000000
  543       -3.351704   1.000000
  544       -3.351657   1.000000
  545       -3.351657   1.000000
  546       -3.337998   1.000000
  547       -3.337880   1.000000
  548       -3.337880   1.000000
  549       -3.312644   1.000000
  550       -3.312564   1.000000
  551       -3.301934   1.000000
  552       -3.301883   1.000000
  553       -3.301883   1.000000
  554       -3.290740   1.000000
  555       -3.290709   1.000000
  556       -3.290709   1.000000
  557       -3.285460   1.000000
  558       -3.285245   1.000000
  559       -3.285245   1.000000
  560       -3.274391   1.000000
  561       -3.270405   1.000000
  562       -3.270360   1.000000
  563       -3.251302   1.000000
  564       -3.251302   1.000000
  565       -3.251226   1.000000
  566       -3.242986   1.000000
  567       -3.239052   1.000000
  568       -3.238896   1.000000
  569       -3.238896   1.000000
  570       -3.216283   1.000000
  571       -3.216194   1.000000
  572       -3.216194   1.000000
  573       -3.210384   1.000000
  574       -3.210379   1.000000
  575       -3.210379   1.000000
  576       -3.206564   1.000000
  577       -3.206536   1.000000
  578       -3.203036   1.000000
  579       -3.203012   1.000000
  580       -3.189137   1.000000
  581       -3.189055   1.000000
  582       -3.189055   1.000000
  583       -3.174600   1.000000
  584       -3.174583   1.000000
  585       -3.165901   1.000000
  586       -3.165901   1.000000
  587       -3.165889   1.000000
  588       -3.162804   1.000000
  589       -3.162690   1.000000
  590       -3.162690   1.000000
  591       -3.139315   1.000000
  592       -3.139311   1.000000
  593       -3.139311   1.000000
  594       -3.113366   1.000000
  595       -3.113214   1.000000
  596       -3.095505   1.000000
  597       -3.095340   1.000000
  598       -3.087539   1.000000
  599       -3.084849   1.000000
  600       -3.046339   1.000000
  601       -3.046290   1.000000
  602       -3.046290   1.000000
  603       -3.018556   1.000000
  604       -3.017066   1.000000
  605       -3.016976   1.000000
  606       -3.013619   1.000000
  607       -3.013554   1.000000
  608       -3.013554   1.000000
  609       -3.012757   1.000000
  610       -3.012691   1.000000
  611       -3.012691   1.000000
  612       -3.010105   1.000000
  613       -3.010045   1.000000
  614       -3.010045   1.000000
  615       -2.996404   1.000000
  616       -2.996331   1.000000
  617       -2.996331   1.000000
  618       -2.992898   1.000000
  619       -2.992820   1.000000
  620       -2.992820   1.000000
  621       -2.990325   1.000000
  622       -2.988315   1.000000
  623       -2.983785   1.000000
  624       -2.983701   1.000000
  625       -2.980593   1.000000
  626       -2.976322   1.000000
  627       -2.976235   1.000000
  628       -2.976235   1.000000
  629       -2.931607   1.000000
  630       -2.931562   1.000000
  631       -2.931562   1.000000
  632       -2.928998   1.000000
  633       -2.928989   1.000000
  634       -2.918935   1.000000
  635       -2.918872   1.000000
  636       -2.918872   1.000000
  637       -2.910394   1.000000
  638       -2.910358   1.000000
  639       -2.910358   1.000000
  640       -2.906998   1.000000
  641       -2.906937   1.000000
  642       -2.906937   1.000000
  643       -2.891701   1.000000
  644       -2.891618   1.000000
  645       -2.891618   1.000000
  646       -2.889398   1.000000
  647       -2.880534   1.000000
  648       -2.880451   1.000000
  649       -2.880451   1.000000
  650       -2.874222   1.000000
  651       -2.870698   1.000000
  652       -2.867822   1.000000
  653       -2.867730   1.000000
  654       -2.863102   1.000000
  655       -2.863026   1.000000
  656       -2.863026   1.000000
  657       -2.855956   1.000000
  658       -2.855928   1.000000
  659       -2.855928   1.000000
  660       -2.844636   1.000000
  661       -2.844567   1.000000
  662       -2.844567   1.000000
  663       -2.843100   1.000000
  664       -2.843100   1.000000
  665       -2.842401   1.000000
  666       -2.842354   1.000000
  667       -2.842354   1.000000
  668       -2.841474   1.000000
  669       -2.805076   1.000000
  670       -2.804825   1.000000
  671       -2.804825   1.000000
  672       -2.797636   1.000000
  673       -2.797567   1.000000
  674       -2.789474   1.000000
  675       -2.782282   1.000000
  676       -2.782129   1.000000
  677       -2.782129   1.000000
  678       -2.746349   1.000000
  679       -2.746269   1.000000
  680       -2.746269   1.000000
  681       -2.740006   1.000000
  682       -2.739938   1.000000
  683       -2.739938   1.000000
  684       -2.712880   1.000000
  685       -2.712820   1.000000
  686       -2.712820   1.000000
  687       -2.711305   1.000000
  688       -2.711277   1.000000
  689       -2.711092   1.000000
  690       -2.711089   1.000000
  691       -2.711089   1.000000
  692       -2.707499   1.000000
  693       -2.703656   1.000000
  694       -2.691352   1.000000
  695       -2.691269   1.000000
  696       -2.691269   1.000000
  697       -2.687103   1.000000
  698       -2.687101   1.000000
  699       -2.666988   1.000000
  700       -2.666932   1.000000
  701       -2.666932   1.000000
  702       -2.649096   1.000000
  703       -2.649069   1.000000
  704       -2.649069   1.000000
  705       -2.645743   1.000000
  706       -2.645743   1.000000
  707       -2.645729   1.000000
  708       -2.637584   1.000000
  709       -2.618922   1.000000
  710       -2.618859   1.000000
  711       -2.605844   1.000000
  712       -2.605815   1.000000
  713       -2.605815   1.000000
  714       -2.604966   1.000000
  715       -2.604965   1.000000
  716       -2.596898   1.000000
  717       -2.596727   1.000000
  718       -2.593713   1.000000
  719       -2.585860   1.000000
  720       -2.585859   1.000000
  721       -2.583807   1.000000
  722       -2.583807   1.000000
  723       -2.583741   1.000000
  724       -2.555764   1.000000
  725       -2.555764   1.000000
  726       -2.555747   1.000000
  727       -2.554794   1.000000
  728       -2.543793   1.000000
  729       -2.543793   1.000000
  730       -2.543733   1.000000
  731       -2.524302   1.000000
  732       -2.524227   1.000000
  733       -2.524227   1.000000
  734       -2.522845   1.000000
  735       -2.522732   1.000000
  736       -2.522732   1.000000
  737       -2.514782   1.000000
  738       -2.514706   1.000000
  739       -2.514706   1.000000
  740       -2.488762   1.000000
  741       -2.488762   1.000000
  742       -2.488754   1.000000
  743       -2.485464   1.000000
  744       -2.485464   1.000000
  745       -2.485393   1.000000
  746       -2.480440   1.000000
  747       -2.480439   1.000000
  748       -2.470963   1.000000
  749       -2.470963   1.000000
  750       -2.470910   1.000000
  751       -2.469367   1.000000
  752       -2.469367   1.000000
  753       -2.469344   1.000000
  754       -2.463323   1.000000
  755       -2.463302   1.000000
  756       -2.463302   1.000000
  757       -2.427216   1.000000
  758       -2.427197   1.000000
  759       -2.427197   1.000000
  760       -2.396384   1.000000
  761       -2.396384   1.000000
  762       -2.396350   1.000000
  763       -2.374741   1.000000
  764       -2.374738   1.000000
  765       -2.374738   1.000000
  766       -2.370154   1.000000
  767       -2.362453   1.000000
  768       -2.362428   1.000000
  769       -2.358053   1.000000
  770       -2.358015   1.000000
  771       -2.358015   1.000000
  772       -2.357248   1.000000
  773       -2.344545   1.000000
  774       -2.344451   1.000000
  775       -2.344451   1.000000
  776       -2.343942   1.000000
  777       -2.343823   1.000000
  778       -2.343823   1.000000
  779       -2.340532   1.000000
  780       -2.340532   1.000000
  781       -2.340459   1.000000
  782       -2.334418   1.000000
  783       -2.326780   1.000000
  784       -2.319933   1.000000
  785       -2.319878   1.000000
  786       -2.299603   1.000000
  787       -2.299572   1.000000
  788       -2.299572   1.000000
  789       -2.296485   1.000000
  790       -2.296485   1.000000
  791       -2.296485   1.000000
  792       -2.287417   1.000000
  793       -2.287344   1.000000
  794       -2.287344   1.000000
  795       -2.285424   1.000000
  796       -2.285296   1.000000
  797       -2.285296   1.000000
  798       -2.268874   1.000000
  799       -2.268874   1.000000
  800       -2.268861   1.000000
  801       -2.255803   1.000000
  802       -2.255803   1.000000
  803       -2.255726   1.000000
  804       -2.251886   1.000000
  805       -2.251886   1.000000
  806       -2.251875   1.000000
  807       -2.249325   1.000000
  808       -2.249315   1.000000
  809       -2.239880   1.000000
  810       -2.239821   1.000000
  811       -2.239821   1.000000
  812       -2.238958   1.000000
  813       -2.238871   1.000000
  814       -2.238871   1.000000
  815       -2.226036   1.000000
  816       -2.226036   1.000000
  817       -2.226020   1.000000
  818       -2.220865   1.000000
  819       -2.220865   1.000000
  820       -2.220848   1.000000
  821       -2.206117   1.000000
  822       -2.206084   1.000000
  823       -2.206084   1.000000
  824       -2.205575   1.000000
  825       -2.205535   1.000000
  826       -2.182489   1.000000
  827       -2.167917   1.000000
  828       -2.167917   1.000000
  829       -2.167868   1.000000
  830       -2.165725   1.000000
  831       -2.165725   1.000000
  832       -2.165680   1.000000
  833       -2.160266   1.000000
  834       -2.160238   1.000000
  835       -2.145121   1.000000
  836       -2.145121   1.000000
  837       -2.145118   1.000000
  838       -2.141347   1.000000
  839       -2.141347   1.000000
  840       -2.141293   1.000000
  841       -2.138747   1.000000
  842       -2.127209   1.000000
  843       -2.127202   1.000000
  844       -2.113903   1.000000
  845       -2.113903   1.000000
  846       -2.113879   1.000000
  847       -2.100470   1.000000
  848       -2.090560   1.000000
  849       -2.090531   1.000000
  850       -2.090531   1.000000
  851       -2.087595   1.000000
  852       -2.087595   1.000000
  853       -2.087552   1.000000
  854       -2.073633   1.000000
  855       -2.073633   1.000000
  856       -2.073582   1.000000
  857       -2.067897   1.000000
  858       -2.067897   1.000000
  859       -2.067889   1.000000
  860       -2.063729   1.000000
  861       -2.063663   1.000000
  862       -2.063663   1.000000
  863       -2.059300   1.000000
  864       -2.051998   1.000000
  865       -2.051992   1.000000
  866       -2.046873   1.000000
  867       -2.046873   1.000000
  868       -2.046839   1.000000
  869       -2.043645   1.000000
  870       -2.040518   1.000000
  871       -2.039411   1.000000
  872       -2.039393   1.000000
  873       -2.039393   1.000000
  874       -2.038938   1.000000
  875       -2.032454   1.000000
  876       -2.032454   1.000000
  877       -2.032412   1.000000
  878       -2.021705   1.000000
  879       -2.021668   1.000000
  880       -2.015551   1.000000
  881       -2.010106   1.000000
  882       -2.010079   1.000000
  883       -2.010079   1.000000
  884       -2.005900   1.000000
  885       -2.005900   1.000000
  886       -2.005817   1.000000
  887       -2.004417   1.000000
  888       -2.004415   1.000000
  889       -1.999491   1.000000
  890       -1.999462   1.000000
  891       -1.999373   1.000000
  892       -1.999373   1.000000
  893       -1.999294   1.000000
  894       -1.984239   1.000000
  895       -1.984222   1.000000
  896       -1.984222   1.000000
  897       -1.968857   1.000000
  898       -1.968825   1.000000
  899       -1.968825   1.000000
  900       -1.968490   1.000000
  901       -1.968490   1.000000