         388
 Energy:  -1588.7010785000000      en  -1475.8984184999999      edisp  -112.80266000000000     
 X   0.00000000       0.00000000       0.00000000    
 X   15.1462221       0.00000000       0.00000000    
 X   7.57311106       13.1170130       0.00000000    
 X   0.00000000       0.00000000       37.5999985    
 X   22.7193336       13.1170130       0.00000000    
 X   15.1462221       0.00000000       37.5999985    
 X   7.57311106       13.1170130       37.5999985    
 X   22.7193336       13.1170130       37.5999985    
 Ni   10.0974798       5.82978010       2.25640011    
 Ni   12.6218500       10.2021198       2.25640011    
 Ni   7.57311010       1.45745003       2.25640011    
 Ni   15.1462202       5.82978010       2.25640011    
 Ni   17.6705894       10.2021198       2.25640011    
 Ni   12.6218500       1.45745003       2.25640011    
 Ni   5.04873991       5.82978010       2.25640011    
 Ni   7.57311010       10.2021198       2.25640011    
 Ni   2.52436996       1.45745003       2.25640011    
 Ni   12.6218500       7.28723001       4.54539013    
 Ni   15.1462202       11.6595697       4.54539013    
 Ni   10.0974798       2.91489005       4.54539013    
 Ni   17.6705894       7.28723001       4.54539013    
 Ni   20.1949596       11.6595697       4.54539013    
 Ni   15.1462202       2.91489005       4.54539013    
 Ni   7.57311010       7.28723001       4.54539013    
 Ni   10.0974798       11.6595697       4.54539013    
 Ni   5.04873991       2.91489005       4.54539013    
 Ni   15.1462202       8.74468040       6.76043987    
 Ni   10.0974798       0.00000000       6.76043987    
 Ni   12.6218500       4.37234020       6.76043987    
 Ni   5.04873991       8.74468040       6.76043987    
 Ni   0.00000000       0.00000000       6.76043987    
 Ni   2.52436996       4.37234020       6.76043987    
 Ni   10.0974798       8.74468040       6.76043987    
 Ni   5.04873991       0.00000000       6.76043987    
 Ni   7.57311010       4.37234020       6.76043987    
 Ni   17.6705894       10.2021198       9.04018974    
 Ni   12.6218500       1.45745003       9.04018974    
 Ni   15.1462202       5.82978010       9.04018974    
 Ni   7.57311010       10.2021198       9.04018974    
 Ni   2.52436996       1.45745003       9.04018974    
 Ni   5.04873991       5.82978010       9.04018974    
 Ni   12.6218500       10.2021198       9.04018974    
 Ni   7.57311010       1.45745003       9.04018974    
 Ni   10.0974798       5.82978010       9.04018974    
 Ni   20.1949596       11.6595697       11.3199396    
 Ni   15.1462202       2.91489005       11.3199396    
 Ni   17.6705894       7.28723001       11.3199396    
 Ni   10.0974798       11.6595697       11.3199396    
 Ni   5.04873991       2.91489005       11.3199396    
 Ni   7.57311010       7.28723001       11.3199396    
 Ni   15.1462202       11.6595697       11.3199396    
 Ni   10.0974798       2.91489005       11.3199396    
 Ni   12.6218500       7.28723001       11.3199396    
 Ni   0.00000000       0.00000000       13.5349903    
 Ni   2.52436996       4.37234020       13.5349903    
 Ni   5.04873991       8.74468040       13.5349903    
 Ni   5.04873991       0.00000000       13.5349903    
 Ni   7.57311010       4.37234020       13.5349903    
 Ni   10.0974798       8.74468040       13.5349903    
 Ni   10.0974798       0.00000000       13.5349903    
 Ni   12.6218500       4.37234020       13.5349903    
 Ni   15.1462202       8.74468040       13.5349903    
 Ni   2.52436996       1.45745003       15.8239803    
 Ni   5.04873991       5.82978010       15.8239803    
 Ni   7.57311010       10.2021198       15.8239803    
 Ni   7.57311010       1.45745003       15.8239803    
 Ni   10.0974798       5.82978010       15.8239803    
 Ni   12.6218500       10.2021198       15.8239803    
 Ni   12.6218500       1.45745003       15.8239803    
 Ni   15.1462202       5.82978010       15.8239803    
 Ni   17.6705894       10.2021198       15.8239803    
 Ni   6.31092978       3.64361000       2.25640011    
 Ni   8.83530045       8.01595020       2.25640011    
 Ni   11.3596697       12.3882904       2.25640011    
 Ni   11.3596697       3.64361000       2.25640011    
 Ni   13.8840399       8.01595020       2.25640011    
 Ni   16.4084091       12.3882904       2.25640011    
 Ni   16.4084091       3.64361000       2.25640011    
 Ni   18.9327793       8.01595020       2.25640011    
 Ni   21.4571495       12.3882904       2.25640011    
 Ni   8.83530045       5.10105991       4.54539013    
 Ni   11.3596697       9.47340012       4.54539013    
 Ni   6.31092978      0.728720009       4.54539013    
 Ni   13.8840399       5.10105991       4.54539013    
 Ni   16.4084091       9.47340012       4.54539013    
 Ni   11.3596697      0.728720009       4.54539013    
 Ni   3.78656006       5.10105991       4.54539013    
 Ni   6.31092978       9.47340012       4.54539013    
 Ni   1.26218998      0.728720009       4.54539013    
 Ni   11.3596697       6.55850983       6.76043987    
 Ni   13.8840399       10.9308395       6.76043987    
 Ni   8.83530045       2.18617010       6.76043987    
 Ni   16.4084091       6.55850983       6.76043987    
 Ni   18.9327793       10.9308395       6.76043987    
 Ni   13.8840399       2.18617010       6.76043987    
 Ni   6.31092978       6.55850983       6.76043987    
 Ni   8.83530045       10.9308395       6.76043987    
 Ni   3.78656006       2.18617010       6.76043987    
 Ni   13.8840399       8.01595020       9.04018974    
 Ni   16.4084091       12.3882904       9.04018974    
 Ni   11.3596697       3.64361000       9.04018974    
 Ni   18.9327793       8.01595020       9.04018974    
 Ni   21.4571495       12.3882904       9.04018974    
 Ni   16.4084091       3.64361000       9.04018974    
 Ni   8.83530045       8.01595020       9.04018974    
 Ni   11.3596697       12.3882904       9.04018974    
 Ni   6.31092978       3.64361000       9.04018974    
 Ni   16.4084091       9.47340012       11.3199396    
 Ni   11.3596697      0.728720009       11.3199396    
 Ni   13.8840399       5.10105991       11.3199396    
 Ni   6.31092978       9.47340012       11.3199396    
 Ni   1.26218998      0.728720009       11.3199396    
 Ni   3.78656006       5.10105991       11.3199396    
 Ni   11.3596697       9.47340012       11.3199396    
 Ni   6.31092978      0.728720009       11.3199396    
 Ni   8.83530045       5.10105991       11.3199396    
 Ni   18.9327793       10.9308395       13.5349903    
 Ni   13.8840399       2.18617010       13.5349903    
 Ni   16.4084091       6.55850983       13.5349903    
 Ni   8.83530045       10.9308395       13.5349903    
 Ni   3.78656006       2.18617010       13.5349903    
 Ni   6.31092978       6.55850983       13.5349903    
 Ni   13.8840399       10.9308395       13.5349903    
 Ni   8.83530045       2.18617010       13.5349903    
 Ni   11.3596697       6.55850983       13.5349903    
 Ni   21.4571495       12.3882904       15.8239803    
 Ni   16.4084091       3.64361000       15.8239803    
 Ni   18.9327793       8.01595020       15.8239803    
 Ni   11.3596697       12.3882904       15.8239803    
 Ni   6.31092978       3.64361000       15.8239803    
 Ni   8.83530045       8.01595020       15.8239803    
 Ni   16.4084091       12.3882904       15.8239803    
 Ni   11.3596697       3.64361000       15.8239803    
 Ni   13.8840399       8.01595020       15.8239803    
 Ni   7.57311010       5.82978010       2.25640011    
 Ni   10.0974798       10.2021198       2.25640011    
 Ni   5.04873991       1.45745003       2.25640011    
 Ni   12.6218500       5.82978010       2.25640011    
 Ni   15.1462202       10.2021198       2.25640011    
 Ni   10.0974798       1.45745003       2.25640011    
 Ni   17.6705894       5.82978010       2.25640011    
 Ni   20.1949596       10.2021198       2.25640011    
 Ni   15.1462202       1.45745003       2.25640011    
 Ni   10.0974798       7.28723001       4.54539013    
 Ni   12.6218500       11.6595697       4.54539013    
 Ni   7.57311010       2.91489005       4.54539013    
 Ni   15.1462202       7.28723001       4.54539013    
 Ni   17.6705894       11.6595697       4.54539013    
 Ni   12.6218500       2.91489005       4.54539013    
 Ni   5.04873991       7.28723001       4.54539013    
 Ni   7.57311010       11.6595697       4.54539013    
 Ni   2.52436996       2.91489005       4.54539013    
 Ni   12.6218500       8.74468040       6.76043987    
 Ni   7.57311010       0.00000000       6.76043987    
 Ni   10.0974798       4.37234020       6.76043987    
 Ni   17.6705894       8.74468040       6.76043987    
 Ni   12.6218500       0.00000000       6.76043987    
 Ni   15.1462202       4.37234020       6.76043987    
 Ni   7.57311010       8.74468040       6.76043987    
 Ni   2.52436996       0.00000000       6.76043987    
 Ni   5.04873991       4.37234020       6.76043987    
 Ni   15.1462202       10.2021198       9.04018974    
 Ni   10.0974798       1.45745003       9.04018974    
 Ni   12.6218500       5.82978010       9.04018974    
 Ni   20.1949596       10.2021198       9.04018974    
 Ni   15.1462202       1.45745003       9.04018974    
 Ni   17.6705894       5.82978010       9.04018974    
 Ni   10.0974798       10.2021198       9.04018974    
 Ni   5.04873991       1.45745003       9.04018974    
 Ni   7.57311010       5.82978010       9.04018974    
 Ni   17.6705894       11.6595697       11.3199396    
 Ni   12.6218500       2.91489005       11.3199396    
 Ni   15.1462202       7.28723001       11.3199396    
 Ni   7.57311010       11.6595697       11.3199396    
 Ni   2.52436996       2.91489005       11.3199396    
 Ni   5.04873991       7.28723001       11.3199396    
 Ni   12.6218500       11.6595697       11.3199396    
 Ni   7.57311010       2.91489005       11.3199396    
 Ni   10.0974798       7.28723001       11.3199396    
 Ni   12.6218500       0.00000000       13.5349903    
 Ni   15.1462202       4.37234020       13.5349903    
 Ni   17.6705894       8.74468040       13.5349903    
 Ni   2.52436996       0.00000000       13.5349903    
 Ni   5.04873991       4.37234020       13.5349903    
 Ni   7.57311010       8.74468040       13.5349903    
 Ni   7.57311010       0.00000000       13.5349903    
 Ni   10.0974798       4.37234020       13.5349903    
 Ni   12.6218500       8.74468040       13.5349903    
 Ni   15.1462202       1.45745003       15.8239803    
 Ni   17.6705894       5.82978010       15.8239803    
 Ni   20.1949596       10.2021198       15.8239803    
 Ni   5.04873991       1.45745003       15.8239803    
 Ni   7.57311010       5.82978010       15.8239803    
 Ni   10.0974798       10.2021198       15.8239803    
 Ni   10.0974798       1.45745003       15.8239803    
 Ni   12.6218500       5.82978010       15.8239803    
 Ni   15.1462202       10.2021198       15.8239803    
 Ni   8.83530045       3.64361000       2.25640011    
 Ni   11.3596697       8.01595020       2.25640011    
 Ni   13.8840399       12.3882904       2.25640011    
 Ni   13.8840399       3.64361000       2.25640011    
 Ni   16.4084091       8.01595020       2.25640011    
 Ni   18.9327793       12.3882904       2.25640011    
 Ni   3.78656006       3.64361000       2.25640011    
 Ni   6.31092978       8.01595020       2.25640011    
 Ni   8.83530045       12.3882904       2.25640011    
 Ni   11.3596697       5.10105991       4.54539013    
 Ni   13.8840399       9.47340012       4.54539013    
 Ni   8.83530045      0.728720009       4.54539013    
 Ni   16.4084091       5.10105991       4.54539013    
 Ni   18.9327793       9.47340012       4.54539013    
 Ni   13.8840399      0.728720009       4.54539013    
 Ni   6.31092978       5.10105991       4.54539013    
 Ni   8.83530045       9.47340012       4.54539013    
 Ni   3.78656006      0.728720009       4.54539013    
 Ni   13.8840399       6.55850983       6.76043987    
 Ni   16.4084091       10.9308395       6.76043987    
 Ni   11.3596697       2.18617010       6.76043987    
 Ni   3.78656006       6.55850983       6.76043987    
 Ni   6.31092978       10.9308395       6.76043987    
 Ni   1.26218998       2.18617010       6.76043987    
 Ni   8.83530045       6.55850983       6.76043987    
 Ni   11.3596697       10.9308395       6.76043987    
 Ni   6.31092978       2.18617010       6.76043987    
 Ni   16.4084091       8.01595020       9.04018974    
 Ni   18.9327793       12.3882904       9.04018974    
 Ni   13.8840399       3.64361000       9.04018974    
 Ni   6.31092978       8.01595020       9.04018974    
 Ni   8.83530045       12.3882904       9.04018974    
 Ni   3.78656006       3.64361000       9.04018974    
 Ni   11.3596697       8.01595020       9.04018974    
 Ni   13.8840399       12.3882904       9.04018974    
 Ni   8.83530045       3.64361000       9.04018974    
 Ni   18.9327793       9.47340012       11.3199396    
 Ni   13.8840399      0.728720009       11.3199396    
 Ni   16.4084091       5.10105991       11.3199396    
 Ni   8.83530045       9.47340012       11.3199396    
 Ni   3.78656006      0.728720009       11.3199396    
 Ni   6.31092978       5.10105991       11.3199396    
 Ni   13.8840399       9.47340012       11.3199396    
 Ni   8.83530045      0.728720009       11.3199396    
 Ni   11.3596697       5.10105991       11.3199396    
 Ni   6.31092978       10.9308395       13.5349903    
 Ni   1.26218998       2.18617010       13.5349903    
 Ni   3.78656006       6.55850983       13.5349903    
 Ni   11.3596697       10.9308395       13.5349903    
 Ni   6.31092978       2.18617010       13.5349903    
 Ni   8.83530045       6.55850983       13.5349903    
 Ni   16.4084091       10.9308395       13.5349903    
 Ni   11.3596697       2.18617010       13.5349903    
 Ni   13.8840399       6.55850983       13.5349903    
 Ni   8.83530045       12.3882904       15.8239803    
 Ni   3.78656006       3.64361000       15.8239803    
 Ni   6.31092978       8.01595020       15.8239803    
 Ni   13.8840399       12.3882904       15.8239803    
 Ni   8.83530045       3.64361000       15.8239803    
 Ni   11.3596697       8.01595020       15.8239803    
 Ni   18.9327793       12.3882904       15.8239803    
 Ni   13.8840399       3.64361000       15.8239803    
 Ni   16.4084091       8.01595020       15.8239803    
 O    0.00000000       0.00000000       17.2239799    
 O    0.00000000       0.00000000       18.4239807    
 O   0.946640015       1.63962996       17.2239799    
 O   0.946640015       1.63962996       18.4239807    
 O    1.89328003       3.27924991       17.2239799    
 O    1.89328003       3.27924991       18.4239807    
 O    2.83992004       4.91887999       17.2239799    
 O    2.83992004       4.91887999       18.4239807    
 O    3.78656006       6.55850983       17.2239799    
 O    3.78656006       6.55850983       18.4239807    
 O    4.73319006       8.19812965       17.2239799    
 O    4.73319006       8.19812965       18.4239807    
 O    5.67983007       9.83775997       17.2239799    
 O    5.67983007       9.83775997       18.4239807    
 O    6.62647009       11.4773903       17.2239799    
 O    6.62647009       11.4773903       18.4239807    
 O    1.89328003       0.00000000       17.2239799    
 O    1.89328003       0.00000000       18.4239807    
 O    2.83992004       1.63962996       17.2239799    
 O    2.83992004       1.63962996       18.4239807    
 O    3.78656006       3.27924991       17.2239799    
 O    3.78656006       3.27924991       18.4239807    
 O    4.73319006       4.91887999       17.2239799    
 O    4.73319006       4.91887999       18.4239807    
 O    5.67983007       6.55850983       17.2239799    
 O    5.67983007       6.55850983       18.4239807    
 O    6.62647009       8.19812965       17.2239799    
 O    6.62647009       8.19812965       18.4239807    
 O    7.57311010       9.83775997       17.2239799    
 O    7.57311010       9.83775997       18.4239807    
 O    8.51974964       11.4773903       17.2239799    
 O    8.51974964       11.4773903       18.4239807    
 O    3.78656006       0.00000000       17.2239799    
 O    3.78656006       0.00000000       18.4239807    
 O    4.73319006       1.63962996       17.2239799    
 O    4.73319006       1.63962996       18.4239807    
 O    5.67983007       3.27924991       17.2239799    
 O    5.67983007       3.27924991       18.4239807    
 O    6.62647009       4.91887999       17.2239799    
 O    6.62647009       4.91887999       18.4239807    
 O    7.57311010       6.55850983       17.2239799    
 O    7.57311010       6.55850983       18.4239807    
 O    8.51974964       8.19812965       17.2239799    
 O    8.51974964       8.19812965       18.4239807    
 O    9.46638966       9.83775997       17.2239799    
 O    9.46638966       9.83775997       18.4239807    
 O    10.4130297       11.4773903       17.2239799    
 O    10.4130297       11.4773903       18.4239807    
 O    5.67983007       0.00000000       17.2239799    
 O    5.67983007       0.00000000       18.4239807    
 O    6.62647009       1.63962996       17.2239799    
 O    6.62647009       1.63962996       18.4239807    
 O    7.57311010       3.27924991       17.2239799    
 O    7.57311010       3.27924991       18.4239807    
 O    8.51974964       4.91887999       17.2239799    
 O    8.51974964       4.91887999       18.4239807    
 O    9.46638966       6.55850983       17.2239799    
 O    9.46638966       6.55850983       18.4239807    
 O    10.4130297       8.19812965       17.2239799    
 O    10.4130297       8.19812965       18.4239807    
 O    11.3596697       9.83775997       17.2239799    
 O    11.3596697       9.83775997       18.4239807    
 O    12.3063097       11.4773903       17.2239799    
 O    12.3063097       11.4773903       18.4239807    
 O    7.57311010       0.00000000       17.2239799    
 O    7.57311010       0.00000000       18.4239807    
 O    8.51974964       1.63962996       17.2239799    
 O    8.51974964       1.63962996       18.4239807    
 O    9.46638966       3.27924991       17.2239799    
 O    9.46638966       3.27924991       18.4239807    
 O    10.4130297       4.91887999       17.2239799    
 O    10.4130297       4.91887999       18.4239807    
 O    11.3596697       6.55850983       17.2239799    
 O    11.3596697       6.55850983       18.4239807    
 O    12.3063097       8.19812965       17.2239799    
 O    12.3063097       8.19812965       18.4239807    
 O    13.2529402       9.83775997       17.2239799    
 O    13.2529402       9.83775997       18.4239807    
 O    14.1995802       11.4773903       17.2239799    
 O    14.1995802       11.4773903       18.4239807    
 O    9.46638966       0.00000000       17.2239799    
 O    9.46638966       0.00000000       18.4239807    
 O    10.4130297       1.63962996       17.2239799    
 O    10.4130297       1.63962996       18.4239807    
 O    11.3596697       3.27924991       17.2239799    
 O    11.3596697       3.27924991       18.4239807    
 O    12.3063097       4.91887999       17.2239799    
 O    12.3063097       4.91887999       18.4239807    
 O    13.2529402       6.55850983       17.2239799    
 O    13.2529402       6.55850983       18.4239807    
 O    14.1995802       8.19812965       17.2239799    
 O    14.1995802       8.19812965       18.4239807    
 O    15.1462202       9.83775997       17.2239799    
 O    15.1462202       9.83775997       18.4239807    
 O    16.0928593       11.4773903       17.2239799    
 O    16.0928593       11.4773903       18.4239807    
 O    11.3596697       0.00000000       17.2239799    
 O    11.3596697       0.00000000       18.4239807    
 O    12.3063097       1.63962996       17.2239799    
 O    12.3063097       1.63962996       18.4239807    
 O    13.2529402       3.27924991       17.2239799    
 O    13.2529402       3.27924991       18.4239807    
 O    14.1995802       4.91887999       17.2239799    
 O    14.1995802       4.91887999       18.4239807    
 O    15.1462202       6.55850983       17.2239799    
 O    15.1462202       6.55850983       18.4239807    
 O    16.0928593       8.19812965       17.2239799    
 O    16.0928593       8.19812965       18.4239807    
 O    17.0394993       9.83775997       17.2239799    
 O    17.0394993       9.83775997       18.4239807    
 O    17.9861393       11.4773903       17.2239799    
 O    17.9861393       11.4773903       18.4239807    
 O    13.2529402       0.00000000       17.2239799    
 O    13.2529402       0.00000000       18.4239807    
 O    14.1995802       1.63962996       17.2239799    
 O    14.1995802       1.63962996       18.4239807    
 O    15.1462202       3.27924991       17.2239799    
 O    15.1462202       3.27924991       18.4239807    
 O    16.0928593       4.91887999       17.2239799    
 O    16.0928593       4.91887999       18.4239807    
 O    17.0394993       6.55850983       17.2239799    
 O    17.0394993       6.55850983       18.4239807    
 O    17.9861393       8.19812965       17.2239799    
 O    17.9861393       8.19812965       18.4239807    
 O    18.9327793       9.83775997       17.2239799    
 O    18.9327793       9.83775997       18.4239807    
 O    19.8794193       11.4773903       17.2239799    
 O    19.8794193       11.4773903       18.4239807    
         388
 Energy:  -1675.2713047000000      en  -1562.9711247000000      edisp  -112.30018000000000     
 X   0.00000000       0.00000000       0.00000000    
 X   15.1462221       0.00000000       0.00000000    
 X   7.57311106       13.1170130       0.00000000    
 X   0.00000000       0.00000000       37.5999985    
 X   22.7193336       13.1170130       0.00000000    
 X   15.1462221       0.00000000       37.5999985    
 X   7.57311106       13.1170130       37.5999985    
 X   22.7193336       13.1170130       37.5999985    
 Ni   10.0974503       5.82976007       2.27750993    
 Ni   12.6218500       10.2021198       2.27770996    
 Ni   7.57311010       1.45747995       2.27750993    
 Ni   15.1462202       5.82978010       2.27770996    
 Ni   17.6705894       10.2021198       2.27770996    
 Ni   12.6218395       1.45745003       2.27774000    
 Ni   5.04876995       5.82976007       2.27750993    
 Ni   7.57311010       10.2020998       2.27774000    
 Ni   2.52437997       1.45745003       2.27774000    
 Ni   12.6219397       7.28728008       4.54266024    
 Ni   15.1462202       11.6594696       4.54266024    
 Ni   10.0974903       2.91489005       4.54287004    
 Ni   17.6704998       7.28728008       4.54266024    
 Ni   20.1949501       11.6595602       4.54279995    
 Ni   15.1462202       2.91491008       4.54279995    
 Ni   7.57311010       7.28724003       4.54287004    
 Ni   10.0974903       11.6595602       4.54279995    
 Ni   5.04872990       2.91489005       4.54287004    
 Ni   15.1462202       8.74468040       6.76300001    
 Ni   10.0976200      -3.99999990E-05   6.76327991    
 Ni   12.6219501       4.37224007       6.76327991    
 Ni   5.04877996       8.74481010       6.76327991    
 Ni  -0.00000000       0.00000000       6.76348019    
 Ni   2.52427006       4.37224007       6.76327991    
 Ni   10.0974503       8.74481010       6.76327991    
 Ni   5.04860020      -3.99999990E-05   6.76327991    
 Ni   7.57311010       4.37234020       6.76281977    
 Ni   17.6706409       10.2021503       9.03985023    
 Ni   12.6219301       1.45739996       9.03987980    
 Ni   15.1462202       5.82973003       9.03985023    
 Ni   7.57311010       10.2022104       9.03987980    
 Ni   2.52429008       1.45739996       9.03987980    
 Ni   5.04875994       5.82977009       9.04002953    
 Ni   12.6218100       10.2021503       9.03985023    
 Ni   7.57311010       1.45747006       9.04002953    
 Ni   10.0974598       5.82977009       9.04002953    
 Ni   20.1949196       11.6595402       11.3181200    
 Ni   15.1462202       2.91494012       11.3181200    
 Ni   17.6706905       7.28716993       11.3178997    
 Ni   10.0975304       11.6595402       11.3181200    
 Ni   5.04858017       2.91479993       11.3179398    
 Ni   7.57311010       7.28740978       11.3179398    
 Ni   15.1462202       11.6596899       11.3178997    
 Ni   10.0976400       2.91479993       11.3179398    
 Ni   12.6217499       7.28716993       11.3178997    
 Ni  -0.00000000       0.00000000       13.5374498    
 Ni   2.52488995       4.37256002       13.5376396    
 Ni   5.04881001       8.74411964       13.5376396    
 Ni   5.04919004       3.39999999E-04   13.5376396    
 Ni   7.57311010       4.37234020       13.5394897    
 Ni   10.0974102       8.74411964       13.5376396    
 Ni   10.0970297       3.39999999E-04   13.5376396    
 Ni   12.6213303       4.37256002       13.5376396    
 Ni   15.1462202       8.74468040       13.5353098    
 Ni   2.46904993       1.42551005       15.4204903    
 Ni   5.04253006       5.83337021       15.6290398    
 Ni   7.57311010       10.2659903       15.4204903    
 Ni   7.57311010       1.45027006       15.6290398    
 Ni   10.1036901       5.83337021       15.6290398    
 Ni   12.5803003       10.2261105       15.5905199    
 Ni   12.6771698       1.42551005       15.4204903    
 Ni   15.1462202       5.78179979       15.5905199    
 Ni   17.7121391       10.2261105       15.5905199    
 Ni   6.31092978       3.64362001       2.27770996    
 Ni   8.83528042       8.01595974       2.27774000    
 Ni   11.3596697       12.3882904       2.27770996    
 Ni   11.3596697       3.64359999       2.27774000    
 Ni   13.8840504       8.01595974       2.27774000    
 Ni   16.4084396       12.3882704       2.27750993    
 Ni   16.4084091       3.64362001       2.27770996    
 Ni   18.9327793       8.01599026       2.27750993    
 Ni   21.4571209       12.3882704       2.27750993    
 Ni   8.83528042       5.10104990       4.54279995    
 Ni   11.3596697       9.47340965       4.54279995    
 Ni   6.31084013      0.728770018       4.54266024    
 Ni   13.8840504       5.10104990       4.54279995    
 Ni   16.4083996       9.47338963       4.54287004    
 Ni   11.3596697      0.728730023       4.54287004    
 Ni   3.78656006       5.10095978       4.54266024    
 Ni   6.31092978       9.47338963       4.54287004    
 Ni   1.26226997      0.728770018       4.54266024    
 Ni   11.3596697       6.55850983       6.76348019    
 Ni   13.8839397       10.9307404       6.76327991    
 Ni   8.83533001       2.18631005       6.76327991    
 Ni   16.4082699       6.55846977       6.76327991    
 Ni   18.9327793       10.9308395       6.76281977    
 Ni   13.8839998       2.18631005       6.76327991    
 Ni   6.31105995       6.55846977       6.76327991    
 Ni   8.83539963       10.9307404       6.76327991    
 Ni   3.78656006       2.18617010       6.76300001    
 Ni   13.8839598       8.01591015       9.03987980    
 Ni   16.4084206       12.3882799       9.04002953    
 Ni   11.3596697       3.64370990       9.03987980    
 Ni   18.9327793       8.01597023       9.04002953    
 Ni   21.4571304       12.3882799       9.04002953    
 Ni   16.4083595       3.64364004       9.03985023    
 Ni   8.83537960       8.01591015       9.03987980    
 Ni   11.3596697       12.3882399       9.03985023    
 Ni   6.31096983       3.64364004       9.03985023    
 Ni   16.4082508       9.47331047       11.3179398    
 Ni   11.3596697      0.728900015       11.3179398    
 Ni   13.8840799       5.10102987       11.3181200    
 Ni   6.31107998       9.47331047       11.3179398    
 Ni   1.26207995      0.728659987       11.3178997    
 Ni   3.78656006       5.10118008       11.3178997    
 Ni   11.3596697       9.47344971       11.3181200    
 Ni   6.31102991      0.728659987       11.3178997    
 Ni   8.83524990       5.10102987       11.3181200    
 Ni   18.9327793       10.9308395       13.5394897    
 Ni   13.8839703       2.18561006       13.5376396    
 Ni   16.4088593       6.55884981       13.5376396    
 Ni   8.83477974       10.9310703       13.5376396    
 Ni   3.78656006       2.18617010       13.5353098    
 Ni   6.31047010       6.55884981       13.5376396    
 Ni   13.8845596       10.9310703       13.5376396    
 Ni   8.83535957       2.18561006       13.5376396    
 Ni   11.3596697       6.55850983       13.5374498    
 Ni   21.4633598       12.3918800       15.6290398    
 Ni   16.3668499       3.66759992       15.5905199    
 Ni   18.9327793       8.00877953       15.6290398    
 Ni   11.3596697       12.3403101       15.5905199    
 Ni   6.35247993       3.66759992       15.5905199    
 Ni   8.89060974       7.98402023       15.4204903    
 Ni   16.4021893       12.3918800       15.6290398    
 Ni   11.3596697       3.70748997       15.4204903    
 Ni   13.8287201       7.98402023       15.4204903    
 Ni   7.57311010       5.82978010       2.27770996    
 Ni   10.0974798       10.2021198       2.27770996    
 Ni   5.04872990       1.45745003       2.27774000    
 Ni   12.6218796       5.82976007       2.27750993    
 Ni   15.1462202       10.2020998       2.27774000    
 Ni   10.0974998       1.45745003       2.27774000    
 Ni   17.6705608       5.82976007       2.27750993    
 Ni   20.1949596       10.2021198       2.27770996    
 Ni   15.1462202       1.45747995       2.27750993    
 Ni   10.0973902       7.28728008       4.54266024    
 Ni   12.6218395       11.6595602       4.54279995    
 Ni   7.57311010       2.91491008       4.54279995    
 Ni   15.1462202       7.28724003       4.54287004    
 Ni   17.6706009       11.6595602       4.54279995    
 Ni   12.6218395       2.91489005       4.54287004    
 Ni   5.04883003       7.28728008       4.54266024    
 Ni   7.57311010       11.6594696       4.54266024    
 Ni   2.52437997       2.91489005       4.54287004    
 Ni   12.6218901       8.74481010       6.76327991    