         388
 Energy:  -1850.7318577999999      en  -1738.6895477999999      edisp  -112.04231000000000     
 X   0.00000000       0.00000000       0.00000000    
 X   15.1462221       0.00000000       0.00000000    
 X   7.57311106       13.1170130       0.00000000    
 X   0.00000000       0.00000000       37.5999985    
 X   22.7193336       13.1170130       0.00000000    
 X   15.1462221       0.00000000       37.5999985    
 X   7.57311106       13.1170130       37.5999985    
 X   22.7193336       13.1170130       37.5999985    
 Ni   10.0976105       5.82986021       2.58470988    
 Ni   12.6206598       10.2028103       2.58551002    
 Ni   7.57311010       1.45729995       2.58470988    
 Ni   15.1462202       5.82841015       2.58551002    
 Ni   17.6717892       10.2028103       2.58551002    
 Ni   12.6218395       1.45745003       2.58743000    
 Ni   5.04861021       5.82986021       2.58470988    
 Ni   7.57311010       10.2021103       2.58743000    
 Ni   2.52437997       1.45745003       2.58743000    
 Ni   12.6216698       7.28711987       4.62210989    
 Ni   15.1462202       11.6597795       4.62210989    
 Ni   10.0985203       2.91428995       4.62015009    
 Ni   17.6707706       7.28711987       4.62210989    
 Ni   20.1950893       11.6596403       4.62140989    
 Ni   15.1462202       2.91474009       4.62140989    
 Ni   7.57311010       7.28842020       4.62015009    
 Ni   10.0973501       11.6596403       4.62140989    
 Ni   5.04770994       2.91428995       4.62015009    
 Ni   15.1462202       8.74468040       6.79021978    
 Ni   10.1000404      -3.49999988E-04   6.79305983    
 Ni   12.6234303       4.37028980       6.79305983    
 Ni   5.04971981       8.74707031       6.79305983    
 Ni  -0.00000000       0.00000000       6.79380989    
 Ni   2.52278996       4.37028980       6.79305983    
 Ni   10.0965004       8.74707031       6.79305983    
 Ni   5.04617977      -3.49999988E-04   6.79305983    
 Ni   7.57311010       4.37234020       6.79088020    
 Ni   17.6689606       10.2011805       9.00317001    
 Ni   12.6227703       1.45691001       9.01821995    
 Ni   15.1462202       5.83166981       9.00317001    
 Ni   7.57311010       10.2031898       9.01821995    
 Ni   2.52344990       1.45691001       9.01821995    
 Ni   5.04752016       5.83049011       9.02352047    
 Ni   12.6234798       10.2011805       9.00317001    
 Ni   7.57311010       1.45604002       9.02352047    
 Ni   10.0986996       5.83049011       9.02352047    
 Ni   20.1793709       11.6505604       11.0055304    
 Ni   15.1462202       2.93289995       11.0055304    
 Ni   17.6769600       7.28354979       11.0902700    
 Ni   10.1130800       11.6505604       11.0055304    
 Ni   5.06308985       2.92317009       11.0489397    
 Ni   7.57311010       7.27065992       11.0489397    
 Ni   15.1462202       11.6669197       11.0902700    
 Ni   10.0831299       2.92317009       11.0489397    
 Ni   12.6154804       7.28354979       11.0902700    
 Ni  -0.00000000       0.00000000       13.0585203    
 Ni   2.52227998       4.36863995       13.0182800    
 Ni   5.05089998       8.74833965       13.0182800    
 Ni   5.04448986       3.99999990E-05   13.0182800    
 Ni   7.57311010       4.37234020       13.0127001    
 Ni   10.0953302       8.74833965       13.0182800    
 Ni   10.1017303       3.99999990E-05   13.0182800    
 Ni   12.6239405       4.36863995       13.0182800    
 Ni   15.1462202       8.74468040       12.9972095    
 Ni   2.39745998       1.38417006       14.7767801    
 Ni   5.06522989       5.82027006       14.9839897    
 Ni   7.57311010       10.3486700       14.7767801    
 Ni   7.57311010       1.47648001       14.9839897    
 Ni   10.0810003       5.82027006       14.9839897    
 Ni   12.6078997       10.2101698       14.9701996    
 Ni   12.7487602       1.38417006       14.7767801    
 Ni   15.1462202       5.81368017       14.9701996    
 Ni   17.6845398       10.2101698       14.9701996    
 Ni   6.31211996       3.64429998       2.58551002    
 Ni   8.83528996       8.01595974       2.58743000    
 Ni   11.3596697       12.3869104       2.58551002    
 Ni   11.3596697       3.64361000       2.58743000    
 Ni   13.8840399       8.01595974       2.58743000    
 Ni   16.4082794       12.3883600       2.58470988    
 Ni   16.4072094       3.64429998       2.58551002    
 Ni   18.9327793       8.01580048       2.58470988    
 Ni   21.4572792       12.3883600       2.58470988    
 Ni   8.83543015       5.10114002       4.62140989    
 Ni   11.3596697       9.47325039       4.62140989    
 Ni   6.31111002      0.728619993       4.62210989    
 Ni   13.8839102       5.10114002       4.62140989    
 Ni   16.4073696       9.47280025       4.62015009    
 Ni   11.3596697      0.729920030       4.62015009    
 Ni   3.78656006       5.10127020       4.62210989    
 Ni   6.31196022       9.47280025       4.62015009    
 Ni   1.26199996      0.728619993       4.62210989    
 Ni   11.3596697       6.55850983       6.79380989    
 Ni   13.8824596       10.9287996       6.79305983    
 Ni   8.83627987       2.18856001       6.79305983    
 Ni   16.4058495       6.55815983       6.79305983    
 Ni   18.9327793       10.9308395       6.79088020    
 Ni   13.8830605       2.18856001       6.79305983    
 Ni   6.31348991       6.55815983       6.79305983    
 Ni   8.83687973       10.9287996       6.79305983    
 Ni   3.78656006       2.18617010       6.79021978    
 Ni   13.8831100       8.01541996       9.01821995    
 Ni   16.4071903       12.3889904       9.02352047    
 Ni   11.3596697       3.64468002       9.01821995    
 Ni   18.9327793       8.01455021       9.02352047    
 Ni   21.4583702       12.3889904       9.02352047    
 Ni   16.4100399       3.64266992       9.00317001    
 Ni   8.83621979       8.01541996       9.01821995    
 Ni   11.3596697       12.3901701       9.00317001    
 Ni   6.30929995       3.64266992       9.00317001    
 Ni   16.4227505       9.48167992       11.0489397    
 Ni   11.3596697      0.712159991       11.0489397    
 Ni   13.8996296       5.09206009       11.0055304    
 Ni   6.29657984       9.48167992       11.0489397    
 Ni   1.25582004      0.725049973       11.0902700    
 Ni   3.78656006       5.10841990       11.0902700    
 Ni   11.3596697       9.49141026       11.0055304    
 Ni   6.31729984      0.725049973       11.0902700    
 Ni   8.81970024       5.09206009       11.0055304    
 Ni   18.9327793       10.9308395       13.0127001    
 Ni   13.8818798       2.18983006       13.0182800    
 Ni   16.4041595       6.55853987       13.0182800    
 Ni   8.83738995       10.9271498       13.0182800    
 Ni   3.78656006       2.18617010       12.9972095    
 Ni   6.31516981       6.55853987       13.0182800    
 Ni   13.8819399       10.9271498       13.0182800    
 Ni   8.83745003       2.18983006       13.0182800    
 Ni   11.3596697       6.55850983       13.0585203    
 Ni   21.4406605       12.3787699       14.9839897    
 Ni   16.3944607       3.65166998       14.9701996    
 Ni   18.9327793       8.03499031       14.9839897    
 Ni   11.3596697       12.3721800       14.9701996    
 Ni   6.32487011       3.65166998       14.9701996    
 Ni   8.96220970       7.94267988       14.7767801    
 Ni   16.4248905       12.3787699       14.9839897    
 Ni   11.3596697       3.79015994       14.7767801    
 Ni   13.7571201       7.94267988       14.7767801    
 Ni   7.57311010       5.82841015       2.58551002    
 Ni   10.0986700       10.2028103       2.58551002    
 Ni   5.04872990       1.45745003       2.58743000    
 Ni   12.6217203       5.82986021       2.58470988    
 Ni   15.1462202       10.2021103       2.58743000    
 Ni   10.0974903       1.45745003       2.58743000    
 Ni   17.6707191       5.82986021       2.58470988    
 Ni   20.1937695       10.2028103       2.58551002    
 Ni   15.1462202       1.45729995       2.58470988    
 Ni   10.0976601       7.28711987       4.62210989    
 Ni   12.6219797       11.6596403       4.62140989    
 Ni   7.57311010       2.91474009       4.62140989    
 Ni   15.1462202       7.28842020       4.62015009    
 Ni   17.6704597       11.6596403       4.62140989    
 Ni   12.6208200       2.91428995       4.62015009    
 Ni   5.04856014       7.28711987       4.62210989    
 Ni   7.57311010       11.6597795       4.62210989    
 Ni   2.52539992       2.91428995       4.62015009    
 Ni   12.6228304       8.74707031       6.79305983    
 Ni   7.57311010       0.00000000       6.79380989    
 Ni   10.0958996       4.37028980       6.79305983    
 Ni   17.6696091       8.74707031       6.79305983    
 Ni   12.6192904      -3.49999988E-04   6.79305983    
 Ni   15.1462202       4.37234020       6.79088020    
 Ni   7.57311010       8.74468040       6.79021978    
 Ni   2.52693009      -3.49999988E-04   6.79305983    
 Ni   5.05032015       4.37028980       6.79305983    
 Ni   15.1462202       10.2031898       9.01821995    
 Ni   10.0965595       1.45691001       9.01821995    
 Ni   12.6206303       5.83049011       9.02352047    
 Ni   20.1965904       10.2011805       9.00317001    
 Ni   15.1462202       1.45604002       9.02352047    
 Ni   17.6718102       5.83049011       9.02352047    
 Ni   10.0958500       10.2011805       9.00317001    
 Ni   5.04966021       1.45691001       9.01821995    
 Ni   7.57311010       5.83166981       9.00317001    
 Ni   17.6861897       11.6505604       11.0055304    
 Ni   12.6362000       2.92317009       11.0489397    
 Ni   15.1462202       7.27065992       11.0489397    
 Ni   7.57311010       11.6669197       11.0902700    
 Ni   2.51002002       2.92317009       11.0489397    
 Ni   5.04236984       7.28354979       11.0902700    
 Ni   12.6062603       11.6505604       11.0055304    
 Ni   7.57311010       2.93289995       11.0055304    
 Ni   10.1038504       7.28354979       11.0902700    
 Ni   12.6176004       3.99999990E-05   13.0182800    
 Ni   15.1462202       4.37234020       13.0127001    
 Ni   17.6684399       8.74833965       13.0182800    
 Ni   2.52862000       3.99999990E-05   13.0182800    
 Ni   5.05082989       4.36863995       13.0182800    
 Ni   7.57311010       8.74468040       12.9972095    
 Ni   7.57311010       0.00000000       13.0585203    
 Ni   10.0953903       4.36863995       13.0182800    
 Ni   12.6240101       8.74833965       13.0182800    
 Ni   15.1462202       1.47648001       14.9839897    
 Ni   17.6541100       5.82027006       14.9839897    
 Ni   20.1810093       10.2101698       14.9701996    
 Ni   5.17565012       1.38417006       14.7767801    
 Ni   7.57311010       5.81368017       14.9701996    
 Ni   10.1114302       10.2101698       14.9701996    
 Ni   9.97056961       1.38417006       14.7767801    
 Ni   12.6383400       5.82027006       14.9839897    
 Ni   15.1462202       10.3486700       14.7767801    
 Ni   8.83409977       3.64429998       2.58551002    
 Ni   11.3596697       8.01580048       2.58470988    
 Ni   13.8841696       12.3883600       2.58470988    
 Ni   13.8852301       3.64429998       2.58551002    
 Ni   16.4083996       8.01595974       2.58743000    
 Ni   18.9327793       12.3869104       2.58551002    
 Ni   3.78656006       3.64361000       2.58743000    
 Ni   6.31092978       8.01595974       2.58743000    
 Ni   8.83516979       12.3883600       2.58470988    
 Ni   11.3596697       5.10127020       4.62210989    
 Ni   13.8850698       9.47280025       4.62015009    
 Ni   8.83510971      0.728619993       4.62210989    
 Ni   16.4085407       5.10114002       4.62140989    
 Ni   18.9327793       9.47325039       4.62140989    
 Ni   13.8842201      0.728619993       4.62210989    
 Ni   6.31080008       5.10114002       4.62140989    
 Ni   8.83425999       9.47280025       4.62015009    
 Ni   3.78656006      0.729920030       4.62015009    
 Ni   13.8865995       6.55815983       6.79305983    
 Ni   16.4099903       10.9287996       6.79305983    
 Ni   11.3596697       2.18617010       6.79021978    
 Ni   3.78656006       6.55850983       6.79380989    
 Ni   6.30935001       10.9287996       6.79305983    
 Ni   1.26317000       2.18856001       6.79305983    
 Ni   8.83273029       6.55815983       6.79305983    
 Ni   11.3596697       10.9308395       6.79088020    
 Ni   6.30993986       2.18856001       6.79305983    
 Ni   16.4093304       8.01541996       9.01821995    
 Ni   18.9327793       12.3901701       9.00317001    
 Ni   13.8824100       3.64266992       9.00317001    
 Ni   6.30999994       8.01541996       9.01821995    
 Ni   8.83407974       12.3889904       9.02352047    
 Ni   3.78656006       3.64468002       9.01821995    
 Ni   11.3596697       8.01455021       9.02352047    
 Ni   13.8852501       12.3889904       9.02352047    
 Ni   8.83693027       3.64266992       9.00317001    
 Ni   18.9327793       9.49141026       11.0055304    
 Ni   13.8904104      0.725049973       11.0902700    
 Ni   16.3928108       5.09206009       11.0055304    
 Ni   8.84963989       9.48167992       11.0489397    
 Ni   3.78656006      0.712159991       11.0489397    
 Ni   6.32651997       5.09206009       11.0055304    
 Ni   13.8696899       9.48167992       11.0489397    
 Ni   8.82892990      0.725049973       11.0902700    
 Ni   11.3596697       5.10841990       11.0902700    
 Ni   6.30882978       10.9271498       13.0182800    
 Ni   1.26434004       2.18983006       13.0182800    
 Ni   3.78656006       6.55850983       13.0585203    
 Ni   11.3596697       10.9308395       13.0127001    
 Ni   6.30877018       2.18983006       13.0182800    
 Ni   8.83104992       6.55853987       13.0182800    
 Ni   16.4104996       10.9271498       13.0182800    
 Ni   11.3596697       2.18617010       12.9972095    
 Ni   13.8882799       6.55853987       13.0182800    
 Ni   8.85177994       12.3787699       14.9839897    
 Ni   3.78656006       3.79015994       14.7767801    
 Ni   6.18401003       7.94267988       14.7767801    
 Ni   13.8675499       12.3787699       14.9839897    
 Ni   8.82135010       3.65166998       14.9701996    
 Ni   11.3596697       8.03499031       14.9839897    
 Ni   18.9327793       12.3721800       14.9701996    
 Ni   13.8979797       3.65166998       14.9701996    
 Ni   16.5353203       7.94267988       14.7767801    
 O   -0.00000000       0.00000000       17.4552803    
 O   -0.00000000       0.00000000       18.6691399    
 O    1.03715003       1.66557002       17.5352497    
 O    1.01261997       1.65438998       18.7533398    
 O    2.18578005       3.11036992       17.5263500    
 O    2.17916012       3.11420012       18.8132896    
 O    2.86271000       4.82752991       17.5352497    
 O    2.86012006       4.85436010       18.7533398    
 O    3.78656006       6.55850983       17.4552803    
 O    3.78656006       6.55850983       18.6691399    
 O    4.82369995       8.22406960       17.5352497    
 O    4.79917002       8.21288967       18.7533398    
 O    5.97234011       9.66888046       17.5263500    
 O    5.96572018       9.67269993       18.8132896    
 O    6.64926004       11.3860302       17.5352497    
 O    6.64667988       11.4128704       18.7533398    
 O    1.96099997       6.54100031E-02   17.5352497    
 O    1.93904996       4.97599989E-02   18.7533398    
 O    2.76606989       1.59698999       16.3571301    
 O    3.03167009       1.75033998       20.4555798    
 O    3.78656006       3.36452007       16.3571301    
 O    3.78656006       3.05783010       20.4555798    
 O    4.71040010       4.82752991       17.5352497    
 O    4.71298981       4.85436010       18.7533398    
 O    5.74755001       6.62391996       17.5352497    
 O    5.72560978       6.60827017       18.7533398    
 O    6.55262995       8.15550041       16.3571301    
 O    6.81823015       8.30883980       20.4555798    
 O    7.57311010       9.92302990       16.3571301    
 O    7.57311010       9.61633968       20.4555798    
 O    8.49695969       11.3860302       17.5352497    
 O    8.49954033       11.4128704       18.7533398    
 O    3.78656006      0.337760001       17.5263500    
 O    3.78656006      0.330110013       18.8132896    
 O    4.80704021       1.59698999       16.3571301    
 O    4.54144001       1.75033998       20.4555798    
 O    5.38733006       3.11036992       17.5263500    
 O    5.39394999       3.11420012       18.8132896    
 O    6.61256981       4.92690992       17.5002308    
 O    6.62221003       4.92133999       18.7161198    
 O    7.57311010       6.89625978       17.5263500    
 O    7.57311010       6.88861990       18.8132896    
 O    8.59358978       8.15550041       16.3571301    
 O    8.32798958       8.30883980       20.4555798    
 O    9.17387962       9.66888046       17.5263500    
 O    9.18050003       9.67269993       18.8132896    
 O    10.3991203       11.4854097       17.5002308    
 O    10.4087696       11.4798403       18.7161198    
 O    5.61211014       6.54100031E-02   17.5352497    
 O    5.63405991       4.97599989E-02   18.7533398    
 O    6.53596020       1.66557002       17.5352497    
 O    6.56049013       1.65438998       18.7533398    
 O    7.57311010       3.26320004       17.5002308    
 O    7.57311010       3.27433991       18.7161198    
 O    8.53365993       4.92690992       17.5002308    
 O    8.52400970       4.92133999       18.7161198    
 O    9.39867020       6.62391996       17.5352497    
 O    9.42061996       6.60827017       18.7533398    
 O    10.3225203       8.22406960       17.5352497    
 O    10.3470497       8.21288967       18.7533398    
 O    11.3596697       9.82170010       17.5002308    
 O    11.3596697       9.83283997       18.7161198    
 O    12.3202105       11.4854097       17.5002308    
 O    12.3105602       11.4798403       18.7161198    
 O    7.57311010       0.00000000       17.4552803    
 O    7.57311010       0.00000000       18.6691399    
 O    8.61026001       1.66557002       17.5352497    
 O    8.58572960       1.65438998       18.7533398    
 O    9.75889015       3.11036992       17.5263500    
 O    9.75228024       3.11420012       18.8132896    
 O    10.4358196       4.82752991       17.5352497    
 O    10.4332304       4.85436010       18.7533398    
 O    11.3596697       6.55850983       17.4552803    
 O    11.3596697       6.55850983       18.6691399    
 O    12.3968096       8.22406960       17.5352497    
 O    12.3722801       8.21288967       18.7533398    
 O    13.5454502       9.66888046       17.5263500    
 O    13.5388298       9.67269993       18.8132896    
 O    14.2223701       11.3860302       17.5352497    
 O    14.2197905       11.4128704       18.7533398    
 O    9.53411007       6.54100031E-02   17.5352497    
 O    9.51216030       4.97599989E-02   18.7533398    
 O    10.3391800       1.59698999       16.3571301    
 O    10.6047802       1.75033998       20.4555798    
 O    11.3596697       3.36452007       16.3571301    
 O    11.3596697       3.05783010       20.4555798    
 O    12.2835197       4.82752991       17.5352497    
 O    12.2861004       4.85436010       18.7533398    
 O    13.3206596       6.62391996       17.5352497    
 O    13.2987204       6.60827017       18.7533398    
 O    14.1257401       8.15550041       16.3571301    
 O    14.3913403       8.30883980       20.4555798    
 O    15.1462202       9.92302990       16.3571301    
 O    15.1462202       9.61633968       20.4555798    
 O    16.0700703       11.3860302       17.5352497    
 O    16.0726509       11.4128704       18.7533398    
 O    11.3596697      0.337760001       17.5263500    
 O    11.3596697      0.330110013       18.8132896    
 O    12.3801498       1.59698999       16.3571301    
 O    12.1145496       1.75033998       20.4555798    
 O    12.9604397       3.11036992       17.5263500    
 O    12.9670601       3.11420012       18.8132896    
 O    14.1856804       4.92690992       17.5002308    
 O    14.1953297       4.92133999       18.7161198    
 O    15.1462202       6.89625978       17.5263500    
 O    15.1462202       6.88861990       18.8132896    
 O    16.1667099       8.15550041       16.3571301    
 O    15.9011002       8.30883980       20.4555798    
 O    16.7469902       9.66888046       17.5263500    
 O    16.7536106       9.67269993       18.8132896    
 O    17.9722309       11.4854097       17.5002308    
 O    17.9818802       11.4798403       18.7161198    
 O    13.1852303       6.54100031E-02   17.5352497    
 O    13.2071695       4.97599989E-02   18.7533398    
 O    14.1090698       1.66557002       17.5352497    
 O    14.1336002       1.65438998       18.7533398    
 O    15.1462202       3.26320004       17.5002308    
 O    15.1462202       3.27433991       18.7161198    
 O    16.1067696       4.92690992       17.5002308    
 O    16.0971203       4.92133999       18.7161198    
 O    16.9717808       6.62391996       17.5352497    
 O    16.9937305       6.60827017       18.7533398    
 O    17.8956299       8.22406960       17.5352497    
 O    17.9201603       8.21288967       18.7533398    
 O    18.9327793       9.82170010       17.5002308    
 O    18.9327793       9.83283997       18.7161198    
 O    19.8933201       11.4854097       17.5002308    
 O    19.8836708       11.4798403       18.7161198    
