/store/Terry_project/NiAlO_EDIP_fitting_DFT/Ni-slab-Olayer2/Ni_slab_Olayer2_iter_last_lmp.data (written by ASE) 

380 	 atoms 
2  atom types
0.0             15.14622176  xlo xhi
0.0             13.11701281  ylo yhi
0.0      37.600000000000001  zlo zhi
     7.5731108799999998                       0                       0  xy xz yz


Atoms 

     1   1      10.096614329818305      5.8292829987745751      2.5426259280000001
     2   1      12.620889555366391      10.202676346745609      2.5438678560000003
     3   1      7.5731108799999989      1.4584468124508501      2.5426259280000001
     4   1      15.146221684268893      5.8286727953386537      2.5438678560000003
     5   1      17.671553813171389      10.202676346745609      2.5438678560000003
     6   1       12.62088205798662      1.4580055561399217      2.5421032880000003
     7   1      5.0496074301816938      5.8292829987745751      2.5426259280000001
     8   1      7.5731108799999998      10.201001697720157      2.5421032880000003
     9   1      2.5253397020133788      1.4580055561399217      2.5421032880000003
    10   1      12.622298684107836      7.2874875399988248      4.5876790239999998
    11   1      15.146221760000001      11.659050540002351      4.5876790239999998
    12   1      10.099015687547244      2.9140057833614508      4.5852406640000005
    13   1      17.670144835892167      7.2874875399988248      4.5876790239999998
    14   1      20.196111288561973      11.660230284134483      4.5906780000000014
    15   1       15.14622183573111      2.9135651829011628      4.5906780000000014
    16   1      7.5731108800000007      7.2890012432770988      4.5852406640000005
    17   1      10.096332382900243      11.660230284134483      4.5906780000000014
    18   1       5.047206072452755      2.9140057833614508      4.5852406640000005
    19   1      15.146221835731112      8.7446752503900438      6.7839487920000012
    20   1      10.099834340833372  0.00052651689419339987      6.7881626239999999
    21   1      12.622572073410602      4.3700364420526991      6.7881626239999999
    22   1      5.0503731474227713       8.746449851053109      6.7881626239999999
    23   1                       0                       0      6.7909078000000003
    24   1       2.523649686589398      4.3700364420526991      6.7881626239999999
    25   1      10.095848612577228       8.746449851053109      6.7881626239999999
    26   1      5.0463874191666269  0.00052651689419339987      6.7881626239999999
    27   1      7.5731108042688922      4.3723375596099574      6.7874598800000001
    28   1      17.669848727256756      10.201691914934219      9.0194575439999998
    29   1      12.620943021529207      1.4579702713754628      9.0244271359999999
    30   1      15.146221760000001      5.8306417901315628      9.0194575439999998
    31   1      7.5731108042688913      10.201072136078947      9.0244271359999999
    32   1      2.5252785870085774      1.4579702713754628      9.0244271359999999
    33   1      5.0496471890138146       5.829260044002158      9.0331025839999999
    34   1      12.622594792743243      10.201691914934219      9.0194575439999998
    35   1      7.5731108800000007      1.4584927219956851      9.0331025839999999
    36   1      10.096574570986185       5.829260044002158      9.0331025839999999
    37   1      20.182257039518102      11.652231529722945      11.126294208000001
    38   1      15.146221684268891      2.9295624293839828      11.126294208000001
    39   1      17.673081233904782      7.2857922972632601      11.193108656000003
    40   1       10.11018632901968      11.652231529722945      11.126294208000001
    41   1      5.0578534876944925      2.9201530714148576             11.15544624
    42   1      7.5731108042688913      7.2767065360001579             11.15544624
    43   1      15.146221835731108      11.662441156643608      11.193108656000003
    44   1      10.088368120843294      2.9201530714148576             11.15544624
    45   1      12.619362437557442      7.2857922972632601      11.193108656000003
    46   1                       0                       0            13.181416208
    47   1      17.656547012382692      4.3791212851249046            13.114551376
    48   1      20.182064985426187      8.7534467280262191            13.114551376
    49   1      12.620703786956506      13.101457606848879            13.114551376
    50   1      7.5731108042688922      4.3723375596099574      13.102293400000001
    51   1      10.110378534573817      8.7534467280262191            13.114551376
    52   1      17.671739733043495      13.101457606848879            13.114551376
    53   1      12.635896507617309      4.3791212851249046            13.114551376
    54   1      15.146221835731112      8.7446752503900438      13.048100896000001
    55   1      2.4436059940676733      1.4108165778754345      14.930628368000002
    56   1      5.0656656059538641      5.8200118941204666      15.095246056000001
    57   1      7.5731108799999998       10.29537965424913      14.930628368000002
    58   1      7.5731109557311083      1.4769891529291943      15.095246056000001
    59   1      10.080556305508352      5.8200118941204666      15.095246056000001
    60   1      12.625897729322444      10.199784963611899      15.078345608000001
    61   1      12.702615765932325      1.4108165778754345      14.930628368000002
    62   1             15.14622176      5.8344556927761992      15.078345608000001
    63   1      17.666545790677553      10.199784963611899      15.078345608000001
    64   1      6.3118874931713904      3.6441699417456093      2.5438678560000003
    65   1      8.8343266179866191      8.0165119611399209      2.5421032880000003
    66   1      11.359666244268892      12.387179200338654      2.5438678560000003
    67   1      11.359666319999999      3.6424952927201564      2.5421032880000003
    68   1      13.885006022013378      8.0165119611399209      2.5421032880000003
    69   1      16.409273750181701      12.387789403774573      2.5426259280000001
    70   1      16.407444995366394      3.6441699417456093      2.5438678560000003
    71   1              18.9327772      8.0169532174508511      2.5426259280000001
    72   1      21.456280649818307      12.387789403774573      2.5426259280000001
    73   1      8.8364449685619739      5.1017238791344832      4.5906780000000014
    74   1      11.359666395731111      9.4720715879011639      4.5906780000000014
    75   1       6.310478515892167     0.72898113499882444      4.5876790239999998
    76   1      13.882887822900242      5.1017238791344832      4.5906780000000014
    77   1      16.406872392452755      9.4725121883614509      4.5852406640000005
    78   1      11.359666319999999     0.73049483827709827      4.5852406640000005
    79   1      3.7865554399999999      5.1005441350023517      4.5876790239999998
    80   1      6.3124602475472456      9.4725121883614509      4.5852406640000005
    81   1      1.2626323641078336     0.72898113499882444      4.5876790239999998
    82   1      11.359666319999999      6.5585064050000002      6.7909078000000003
    83   1      13.883316006589398        10.9285428470527      6.7881626239999999
    84   1      8.8369285874227703      2.1879434460531075      6.7881626239999999
    85   1      16.406053739166627      6.5590329218941932      6.7881626239999999
    86   1      18.932777124268888      10.930843964609958      6.7874598800000001
    87   1      13.882404052577229      2.1879434460531075      6.7881626239999999
    88   1      6.3132789008333727      6.5590329218941932      6.7881626239999999
    89   1      8.8360166334106012        10.9285428470527      6.7881626239999999
    90   1      3.7865555157311088      2.1861688453900427      6.7839487920000012
    91   1      13.884944907008579      8.0164766763754631      9.0244271359999999
    92   1      16.409313509013813      12.387766449002157      9.0331025839999999
    93   1       11.35966624426889      3.6425657310789461      9.0244271359999999
    94   1      18.932777199999997      8.0169991269956853      9.0331025839999999
    95   1      21.456240890986184      12.387766449002157      9.0331025839999999
    96   1       16.40915023274324      3.6431855099342187      9.0194575439999998
    97   1       8.834387581529203      8.0164766763754631      9.0244271359999999
    98   1      11.359666320000001      12.389148195131563      9.0194575439999998
    99   1      6.3101824072567592      3.6431855099342187      9.0194575439999998
   100   1      16.417519807694489      9.4786594764148582             11.15544624
   101   1       11.35966624426889     0.71820013100015734             11.15544624
   102   1      13.896741769019682      5.0937251247229449      11.126294208000001
   103   1       6.301812680843291      9.4786594764148582             11.15544624
   104   1      1.2596961175574402     0.72728589226326001      11.193108656000003
   105   1      3.7865555157311088      5.1039347516436084      11.193108656000003
   106   1      11.359666244268892      9.4880688343839825      11.126294208000001
   107   1      6.3134149139047775     0.72728589226326001      11.193108656000003
   108   1      8.8225907195181037      5.0937251247229449      11.126294208000001
   109   1      18.932777124268888      10.930843964609958      13.102293400000001
   110   1      13.896933974573814      2.1949403230262181            13.114551376
   111   1      16.407259226956505      6.5429512018488776            13.114551376
   112   1      8.8493410676173081      10.937627690124906            13.114551376
   113   1      3.7865555157311088      2.1861688453900427      13.048100896000001
   114   1      6.3120734130434943      6.5429512018488776            13.114551376
   115   1      13.869991572382693      10.937627690124906            13.114551376
   116   1       8.822398665426185      2.1949403230262181            13.114551376
   117   1      11.359666319999999      6.5585064050000002            13.181416208
   118   1      21.440222625508355      12.378518299120467      15.095246056000001
   119   1      16.412453169322443       3.641278558611901      15.078345608000001
   120   1      18.932777275731112      8.0354955579291936      15.095246056000001
   121   1      11.359666319999999      12.392962097776199      15.078345608000001
   122   1      6.3068794706775568       3.641278558611901      15.078345608000001
   123   1      8.9160603259323246      7.9693229828754344      14.930628368000002
   124   1      16.425331925953863      12.378518299120467      15.095246056000001
   125   1      11.359666319999999      3.7368732492491312      14.930628368000002
   126   1      13.803272314067671      7.9693229828754344      14.930628368000002
   127   1      7.5731108042688922      5.8286727953386537      2.5438678560000003
   128   1      10.098442933171391      10.202676346745609      2.5438678560000003
   129   1      5.0477711779866201      1.4580055561399217      2.5421032880000003
   130   1      12.622718310181696      5.8292829987745751      2.5426259280000001
   131   1      15.146221760000001      10.201001697720157      2.5421032880000003
   132   1      10.098450582013378      1.4580055561399217      2.5421032880000003
   133   1       17.66972520981831      5.8292829987745751      2.5426259280000001
   134   1      20.194000435366391      10.202676346745609      2.5438678560000003
   135   1      15.146221760000001      1.4584468124508501      2.5426259280000001
   136   1      10.097033955892167      7.2874875399988248      4.5876790239999998
   137   1      12.623000408561975      11.660230284134483      4.5906780000000014
   138   1        7.57311095573111      2.9135651829011628      4.5906780000000014
   139   1             15.14622176      7.2890012432770988      4.5852406640000005
   140   1      17.669443262900245      11.660230284134483      4.5906780000000014
   141   1      12.620316952452754      2.9140057833614508      4.5852406640000005
   142   1      5.0491878041078335      7.2874875399988248      4.5876790239999998
   143   1      7.5731108799999989      11.659050540002351      4.5876790239999998
   144   1      2.5259048075472448      2.9140057833614508      4.5852406640000005
   145   1      12.623484027422771       8.746449851053109      6.7881626239999999
   146   1      7.5731108799999998                       0      6.7909078000000003
   147   1      10.096760566589397      4.3700364420526991      6.7881626239999999
   148   1       17.66895949257723       8.746449851053109      6.7881626239999999
   149   1      12.619498299166626  0.00052651689419339987      6.7881626239999999
   150   1      15.146221684268889      4.3723375596099574      6.7874598800000001
   151   1      7.5731109557311083      8.7446752503900438      6.7839487920000012
   152   1      2.5267234608333728  0.00052651689419339987      6.7881626239999999
   153   1      5.0494611934106013      4.3700364420526991      6.7881626239999999
   154   1      15.146221684268891      10.201072136078947      9.0244271359999999
   155   1      10.098389467008577      1.4579702713754628      9.0244271359999999
   156   1      12.622758069013811       5.829260044002158      9.0331025839999999
   157   1      20.195705672743241      10.201691914934219      9.0194575439999998
   158   1      15.146221759999998      1.4584927219956851      9.0331025839999999
   159   1      17.669685450986183       5.829260044002158      9.0331025839999999
   160   1      10.096737847256758      10.201691914934219      9.0194575439999998
   161   1       5.047832141529204      1.4579702713754628      9.0244271359999999
   162   1      7.5731108800000007      5.8306417901315628      9.0194575439999998
   163   1      17.683297209019685      11.652231529722945      11.126294208000001
   164   1       12.63096436769449      2.9201530714148576             11.15544624
   165   1      15.146221684268891      7.2767065360001579             11.15544624
   166   1      7.5731109557311083      11.662441156643608      11.193108656000003
   167   1      2.5152572408432912      2.9201530714148576             11.15544624
   168   1        5.04625155755744      7.2857922972632601      11.193108656000003
   169   1      12.609146159518103      11.652231529722945      11.126294208000001
   170   1      7.5731108042688913      2.9295624293839828      11.126294208000001
   171   1      10.099970353904776      7.2857922972632601      11.193108656000003
   172   1      20.193814666956506      13.101457606848879            13.114551376
   173   1      15.146221684268889      4.3723375596099574      13.102293400000001
   174   1      17.683489414573813      8.7534467280262191            13.114551376
   175   1      10.098628853043495      13.101457606848879            13.114551376
   176   1      5.0627856276173091      4.3791212851249046            13.114551376
   177   1      7.5731109557311083      8.7446752503900438      13.048100896000001
   178   1      7.5731108799999998                       0            13.181416208
   179   1       10.08343613238269      4.3791212851249046            13.114551376
   180   1      12.608954105426188      8.7534467280262191            13.114551376
   181   1       15.14622183573111      1.4769891529291943      15.095246056000001
   182   1      17.653667185508354      5.8200118941204666      15.095246056000001
   183   1      20.199008609322448      10.199784963611899      15.078345608000001
   184   1      5.1295048859323265      1.4108165778754345      14.930628368000002
   185   1      7.5731108799999998      5.8344556927761992      15.078345608000001
   186   1      10.093434910677557      10.199784963611899      15.078345608000001
   187   1      10.016716874067672      1.4108165778754345      14.930628368000002
   188   1       12.63877648595386      5.8200118941204666      15.095246056000001
   189   1      15.146221759999998       10.29537965424913      14.930628368000002
   190   1      8.8343341153663921      3.6441699417456093      2.5438678560000003
   191   1      11.359666319999999      8.0169532174508511      2.5426259280000001
   192   1      13.883169769818306      12.387789403774573      2.5426259280000001
   193   1      13.884998373171392      3.6441699417456093      2.5438678560000003
   194   1      16.407437497986621      8.0165119611399209      2.5421032880000003
   195   1      18.932777124268892      12.387179200338654      2.5438678560000003
   196   1      3.7865554399999999      3.6424952927201564      2.5421032880000003
   197   1      6.3118951420133795      8.0165119611399209      2.5421032880000003
   198   1      8.8361628701816937      12.387789403774573      2.5426259280000001
   199   1      11.359666320000002      5.1005441350023517      4.5876790239999998
   200   1      13.885571127547244      9.4725121883614509      4.5852406640000005
   201   1      8.8357432441078352     0.72898113499882444      4.5876790239999998
   202   1      16.409555848561975      5.1017238791344832      4.5906780000000014
   203   1      18.932777275731112      9.4720715879011639      4.5906780000000014
   204   1      13.883589395892164     0.72898113499882444      4.5876790239999998
   205   1      6.3097769429002426      5.1017238791344832      4.5906780000000014
   206   1      8.8337615124527549      9.4725121883614509      4.5852406640000005
   207   1      3.7865554400000003     0.73049483827709827      4.5852406640000005
   208   1      13.886389780833372      6.5590329218941932      6.7881626239999999
   209   1      16.409127513410603        10.9285428470527      6.7881626239999999
   210   1      11.359666395731111      2.1861688453900427      6.7839487920000012
   211   1      3.7865554399999999      6.5585064050000002      6.7909078000000003
   212   1      6.3102051265893984        10.9285428470527      6.7881626239999999
   213   1      1.2638177074227712      2.1879434460531075      6.7881626239999999
   214   1      8.8329428591666268      6.5590329218941932      6.7881626239999999
   215   1      11.359666244268892      10.930843964609958      6.7874598800000001
   216   1      6.3092931725772283      2.1879434460531075      6.7881626239999999
   217   1      16.407498461529208      8.0164766763754631      9.0244271359999999
   218   1              18.9327772      12.389148195131563      9.0194575439999998
   219   1      13.883293287256759      3.6431855099342187      9.0194575439999998
   220   1      6.3118340270085769      8.0164766763754631      9.0244271359999999
   221   1      8.8362026290138136      12.387766449002157      9.0331025839999999
   222   1      3.7865553642688905      3.6425657310789461      9.0244271359999999
   223   1      11.359666320000001      8.0169991269956853      9.0331025839999999
   224   1      13.883130010986187      12.387766449002157      9.0331025839999999
   225   1      8.8360393527432421      3.6431855099342187      9.0194575439999998
   226   1      18.932777124268892      9.4880688343839825      11.126294208000001
   227   1      13.886525793904779     0.72728589226326001      11.193108656000003
   228   1      16.395701599518102      5.0937251247229449      11.126294208000001
   229   1      8.8444089276944915      9.4786594764148582             11.15544624
   230   1      3.7865553642688918     0.71820013100015734             11.15544624
   231   1      6.3236308890196806      5.0937251247229449      11.126294208000001
   232   1      13.874923560843294      9.4786594764148582             11.15544624
   233   1      8.8328069975574426     0.72728589226326001      11.193108656000003
   234   1      11.359666395731111      5.1039347516436084      11.193108656000003
   235   1      21.443102452382693      10.937627690124906            13.114551376
   236   1      16.395509545426187      2.1949403230262181            13.114551376
   237   1      3.7865554399999999      6.5585064050000002            13.181416208
   238   1      11.359666244268892      10.930843964609958      13.102293400000001
   239   1      6.3238230945738154      2.1949403230262181            13.114551376
   240   1       8.834148346956507      6.5429512018488776            13.114551376
   241   1      16.422451947617308      10.937627690124906            13.114551376
   242   1      11.359666395731111      2.1861688453900427      13.048100896000001
   243   1      13.885184293043494      6.5429512018488776            13.114551376
   244   1      8.8522210459538631      12.378518299120467      15.095246056000001
   245   1      3.7865554400000003      3.7368732492491312      14.930628368000002
   246   1      6.2301614340676741      7.9693229828754344      14.930628368000002
   247   1      13.867111745508353      12.378518299120467      15.095246056000001
   248   1      8.8393422893224454       3.641278558611901      15.078345608000001
   249   1      11.359666395731107      8.0354955579291936      15.095246056000001
   250   1      18.932777199999997      12.392962097776199      15.078345608000001
   251   1      13.879990350677554       3.641278558611901      15.078345608000001
   252   1      16.489171205932323      7.9693229828754344      14.930628368000002
   253   2                       0                       0      17.406640632000002
   254   2                       0                       0      18.633721144000003
   255   2      1.0323404236601728       1.656820643981604      17.456615920000001
   256   2      1.0230981234111118      1.6433858059512181      18.679195712000002
   257   2      2.0522183088628911      3.1874888107734178      17.451914040000002
   258   2      2.0448106704556195      3.1917656128001184      18.733109976000001
   259   2      2.8678768840245041      4.8360630511416316      17.456615920000001
   260   2      2.8748906449349074      4.8507845369585505      18.679195712000002
   261   2      3.7865554399999999      6.5585064050000002      17.406640632000002
   262   2      3.7865554399999999      6.5585064050000002      18.633721144000003
   263   2      4.8188958636601731      8.2153270489816048      17.456615920000001
   264   2      4.8096535634111115      8.2018922109512182      18.679195712000002
   265   2      5.8387737488628906      9.7459952157734175      17.451914040000002
   266   2      5.8313661104556198      9.7502720178001194      18.733109976000001
   267   2       6.654432324024504       11.39456945614163      17.456615920000001
   268   2      6.6614460849349069      11.409290941958551      18.679195712000002
   269   2      1.9510189796356685    0.065622709876764704      17.456615920000001
   270   2      1.9347629184762047    0.064336062090231808      18.679195712000002
   271   2      2.8797265306184401      1.6626108869463228             16.59487468
   272   2       3.025266802703606      1.7466386021773106            20.020555408
   273   2      3.7865554399999999      3.2332846311073551             16.59487468
   274   2      3.7865554399999999       3.065229200645379            20.020555408
   275   2      4.7052339959754956      4.8360630511416316      17.456615920000001
   276   2      4.6982202350650928      4.8507845369585505      18.679195712000002
   277   2      5.7375744196356679      6.6241291148767649      17.456615920000001
   278   2      5.7213183584762053      6.6228424670902326      18.679195712000002
   279   2      6.6662819706184404      8.2211172919463227             16.59487468
   280   2      6.8118222427036059      8.3051450071773107            20.020555408
   281   2      7.5731108799999998      9.7917910361073552             16.59487468
   282   2      7.5731108799999998      9.6237356056453791            20.020555408
   283   2      8.4917894359754946       11.39456945614163      17.456615920000001
   284   2      8.4847756750650927      11.409290941958551      18.679195712000002
   285   2      3.7865554400000003     0.18352878345316459      17.451914040000002
   286   2      3.7865554400000008     0.17497517939976362      18.733109976000001
   287   2       4.693384349381561      1.6626108869463228             16.59487468
   288   2      4.5478440772963928      1.7466386021773106            20.020555408
   289   2      5.5208925711371091      3.1874888107734178      17.451914040000002
   290   2      5.5283002095443816      3.1917656128001184      18.733109976000001
   291   2      6.6083103369498017      4.9293655437903139      17.449716695999999
   292   2      6.6133695536731851      4.9264445162076553      18.679430336000003
   293   2      7.5731108800000007      6.7420351884531646      17.451914040000002
   294   2      7.5731108800000007      6.7334815843997644      18.733109976000001
   295   2      8.4799397893815609      8.2211172919463227             16.59487468
   296   2      8.3343995172963936      8.3051450071773107            20.020555408
   297   2      9.3074480111371081      9.7459952157734175      17.451914040000002
   298   2      9.3148556495443806      9.7502720178001194      18.733109976000001
   299   2      10.394865776949802      11.487871948790314      17.449716695999999
   300   2      10.399924993673185      11.484950921207655      18.679430336000003
   301   2      5.6220919003643326    0.065622709876764704      17.456615920000001
   302   2      5.6383479615237952    0.064336062090231808      18.679195712000002
   303   2      6.5407704563398283       1.656820643981604      17.456615920000001
   304   2      6.5500127565888882      1.6433858059512181      18.679195712000002
   305   2        7.57311095573111      3.2582818535895002      17.449716695999999
   306   2      7.5731108799999989      3.2641237775846901      18.679430336000003
   307   2      8.5379115745124157      4.9293655437903139      17.449716695999999
   308   2      8.5328522063268135      4.9264445162076553      18.679430336000003
   309   2      9.4086473403643307      6.6241291148767649      17.456615920000001
   310   2       9.424903401523796      6.6228424670902326      18.679195712000002
   311   2      10.327325896339829      8.2153270489816048      17.456615920000001
   312   2      10.336568196588889      8.2018922109512182      18.679195712000002
   313   2      11.359666395731109      9.8167882585895008      17.449716695999999
   314   2      11.359666319999999      9.8226301825846907      18.679430336000003
   315   2      12.324467014512416      11.487871948790314      17.449716695999999
   316   2      12.319407646326814      11.484950921207655      18.679430336000003
   317   2      7.5731108799999998                       0      17.406640632000002
   318   2      7.5731108799999998                       0      18.633721144000003
   319   2      8.6054513036601712       1.656820643981604      17.456615920000001
   320   2      8.5962090034111132      1.6433858059512181      18.679195712000002
   321   2      9.6253291888628922      3.1874888107734178      17.451914040000002
   322   2      9.6179215504556215      3.1917656128001184      18.733109976000001
   323   2      10.440987764024506      4.8360630511416316      17.456615920000001
   324   2      10.448001524934908      4.8507845369585505      18.679195712000002
   325   2      11.359666319999999      6.5585064050000002      17.406640632000002
   326   2      11.359666319999999      6.5585064050000002      18.633721144000003
   327   2      12.392006743660172      8.2153270489816048      17.456615920000001
   328   2      12.382764443411112      8.2018922109512182      18.679195712000002
   329   2      13.411884628862889      9.7459952157734175      17.451914040000002
   330   2       13.40447699045562      9.7502720178001194      18.733109976000001
   331   2      14.227543204024503       11.39456945614163      17.456615920000001
   332   2      14.234556964934907      11.409290941958551      18.679195712000002
   333   2      9.5241298596356678    0.065622709876764704      17.456615920000001
   334   2      9.5078737984762061    0.064336062090231808      18.679195712000002
   335   2      10.452837410618441      1.6626108869463228             16.59487468
   336   2      10.598377682703608      1.7466386021773106            20.020555408
   337   2      11.359666320000001      3.2332846311073551             16.59487468
   338   2      11.359666320000001       3.065229200645379            20.020555408
   339   2      12.278344875975495      4.8360630511416316      17.456615920000001
   340   2      12.271331115065093      4.8507845369585505      18.679195712000002
   341   2      13.310685299635669      6.6241291148767649      17.456615920000001
   342   2      13.294429238476207      6.6228424670902326      18.679195712000002
   343   2       14.23939285061844      8.2211172919463227             16.59487468
   344   2      14.384933122703607      8.3051450071773107            20.020555408
   345   2             15.14622176      9.7917910361073552             16.59487468
   346   2      15.146221760000001      9.6237356056453791            20.020555408
   347   2      16.064900315975496       11.39456945614163      17.456615920000001
   348   2      16.057886555065092      11.409290941958551      18.679195712000002
   349   2      11.359666319999999     0.18352878345316459      17.451914040000002
   350   2      11.359666320000002     0.17497517939976362      18.733109976000001
   351   2      12.266495229381562      1.6626108869463228             16.59487468
   352   2      12.120954957296394      1.7466386021773106            20.020555408
   353   2      13.094003451137107      3.1874888107734178      17.451914040000002
   354   2      13.101411089544383      3.1917656128001184      18.733109976000001
   355   2      14.181421216949804      4.9293655437903139      17.449716695999999
   356   2      14.186480433673186      4.9264445162076553      18.679430336000003
   357   2      15.146221759999998      6.7420351884531646      17.451914040000002