<?xml version="1.0" encoding="ISO-8859-1"?>
<modeling>
 <generator>
  <i name="program" type="string">vasp </i>
  <i name="version" type="string">6.2.1  </i>
  <i name="subversion" type="string">16May21 (build May 12 2022 08:28:04) complex                          parallel </i>
  <i name="platform" type="string">LinuxPGI </i>
  <i name="date" type="string">2022 07 22 </i>
  <i name="time" type="string">12:45:04 </i>
 </generator>
 <incar>
  <i type="string" name="SYSTEM">NiAl</i>
  <i type="int" name="ISTART">     0</i>
  <i type="int" name="NELM">   120</i>
  <i type="int" name="NELMIN">     6</i>
  <i type="int" name="IBRION">     2</i>
  <i name="EDIFF">      0.00000500</i>
  <i type="int" name="NSW">    20</i>
  <i type="int" name="ISIF">     0</i>
  <i name="ENCUT">    360.00000000</i>
  <i name="POTIM">      0.20000000</i>
  <i type="string" name="LREAL">Auto</i>
  <i type="logical" name="LPLANE"> T  </i>
  <i type="int" name="ISMEAR">     0</i>
  <i name="SIGMA">      0.05000000</i>
  <i type="logical" name="LWAVE"> F  </i>
  <i type="logical" name="LCHARG"> F  </i>
  <i type="int" name="IVDW">    12</i>
 </incar>
 <primitive_cell>
  <structure name="primitive_cell" >
   <crystal>
    <varray name="basis" >
     <v>      -3.78655544      -6.55850641       0.00000000 </v>
     <v>       7.57311088       0.00000000       0.00000000 </v>
     <v>       0.00000000       0.00000000      37.60000000 </v>
    </varray>
    <i name="volume">   1867.52793807 </i>
    <varray name="rec_basis" >
     <v>       0.00000000      -0.15247374       0.00000000 </v>
     <v>       0.13204613      -0.07623687       0.00000000 </v>
     <v>      -0.00000000       0.00000000       0.02659574 </v>
    </varray>
   </crystal>
   <varray name="positions" >
    <v>       0.11111111       0.88888889       0.06001064 </v>
    <v>       0.44444444       0.88888889       0.06001064 </v>
    <v>       0.77777778       0.88888889       0.06001064 </v>
    <v>       0.11111111       0.55555556       0.06001064 </v>
    <v>       0.44444444       0.55555556       0.06001064 </v>
    <v>       0.77777778       0.55555556       0.06001064 </v>
    <v>       0.11111111       0.22222222       0.06001064 </v>
    <v>       0.44444444       0.22222222       0.06001064 </v>
    <v>       0.77777778       0.22222222       0.06001064 </v>
    <v>       0.88888889       0.11111111       0.12088808 </v>
    <v>       0.22222222       0.11111111       0.12088808 </v>
    <v>       0.55555556       0.11111111       0.12088808 </v>
    <v>       0.88888889       0.77777778       0.12088808 </v>
    <v>       0.22222222       0.77777778       0.12088808 </v>
    <v>       0.55555556       0.77777778       0.12088808 </v>
    <v>       0.88888889       0.44444444       0.12088808 </v>
    <v>       0.22222222       0.44444444       0.12088808 </v>
    <v>       0.55555556       0.44444444       0.12088808 </v>
    <v>       0.66666667       0.33333333       0.17979892 </v>
    <v>       0.00000000       0.33333333       0.17979892 </v>
    <v>       0.33333333       0.33333333       0.17979892 </v>
    <v>       0.66666667       0.00000000       0.17979892 </v>
    <v>       0.00000000       0.00000000       0.17979892 </v>
    <v>       0.33333333       0.00000000       0.17979892 </v>
    <v>       0.66666667       0.66666667       0.17979892 </v>
    <v>       0.00000000       0.66666667       0.17979892 </v>
    <v>       0.33333333       0.66666667       0.17979892 </v>
    <v>       0.44444444       0.55555556       0.24043056 </v>
    <v>       0.77777778       0.55555556       0.24043056 </v>
    <v>       0.11111111       0.55555556       0.24043056 </v>
    <v>       0.44444444       0.22222222       0.24043056 </v>
    <v>       0.77777778       0.22222222       0.24043056 </v>
    <v>       0.11111111       0.22222222       0.24043056 </v>
    <v>       0.44444444       0.88888889       0.24043056 </v>
    <v>       0.77777778       0.88888889       0.24043056 </v>
    <v>       0.11111111       0.88888889       0.24043056 </v>
    <v>       0.22222222       0.77777778       0.30106220 </v>
    <v>       0.55555556       0.77777778       0.30106220 </v>
    <v>       0.88888889       0.77777778       0.30106220 </v>
    <v>       0.22222222       0.44444444       0.30106220 </v>
    <v>       0.55555556       0.44444444       0.30106220 </v>
    <v>       0.88888889       0.44444444       0.30106220 </v>
    <v>       0.22222222       0.11111111       0.30106220 </v>
    <v>       0.55555556       0.11111111       0.30106220 </v>
    <v>       0.88888889       0.11111111       0.30106220 </v>
    <v>       0.00000000       0.00000000       0.35997303 </v>
    <v>       0.33333333       0.00000000       0.35997303 </v>
    <v>       0.66666667       0.00000000       0.35997303 </v>
    <v>       0.00000000       0.66666667       0.35997303 </v>
    <v>       0.33333333       0.66666667       0.35997303 </v>
    <v>       0.66666667       0.66666667       0.35997303 </v>
    <v>       0.00000000       0.33333333       0.35997303 </v>
    <v>       0.33333333       0.33333333       0.35997303 </v>
    <v>       0.66666667       0.33333333       0.35997303 </v>
    <v>       0.77777778       0.22222222       0.42085048 </v>
    <v>       0.11111111       0.22222222       0.42085048 </v>
    <v>       0.44444444       0.22222222       0.42085048 </v>
    <v>       0.77777778       0.88888889       0.42085048 </v>
    <v>       0.11111111       0.88888889       0.42085048 </v>
    <v>       0.44444444       0.88888889       0.42085048 </v>
    <v>       0.77777778       0.55555556       0.42085048 </v>
    <v>       0.11111111       0.55555556       0.42085048 </v>
    <v>       0.44444444       0.55555556       0.42085048 </v>
    <v>       0.00000000       0.00000000       0.45808452 </v>
    <v>       0.00000000       0.00000000       0.48999941 </v>
    <v>       0.75000000       0.00000000       0.45808452 </v>
    <v>       0.75000000       0.00000000       0.48999941 </v>
    <v>       0.50000000       0.00000000       0.45808452 </v>
    <v>       0.50000000       0.00000000       0.48999941 </v>
    <v>       0.25000000       0.00000000       0.45808452 </v>
    <v>       0.25000000       0.00000000       0.48999941 </v>
    <v>       0.00000000       0.25000000       0.45808452 </v>
    <v>       0.00000000       0.25000000       0.48999941 </v>
    <v>       0.75000000       0.25000000       0.45808452 </v>
    <v>       0.75000000       0.25000000       0.48999941 </v>
    <v>       0.50000000       0.25000000       0.45808452 </v>
    <v>       0.50000000       0.25000000       0.48999941 </v>
    <v>       0.25000000       0.25000000       0.45808452 </v>
    <v>       0.25000000       0.25000000       0.48999941 </v>
    <v>       0.00000000       0.50000000       0.45808452 </v>
    <v>       0.00000000       0.50000000       0.48999941 </v>
    <v>       0.75000000       0.50000000       0.45808452 </v>
    <v>       0.75000000       0.50000000       0.48999941 </v>
    <v>       0.50000000       0.50000000       0.45808452 </v>
    <v>       0.50000000       0.50000000       0.48999941 </v>
    <v>       0.25000000       0.50000000       0.45808452 </v>
    <v>       0.25000000       0.50000000       0.48999941 </v>
    <v>       0.00000000       0.75000000       0.45808452 </v>
    <v>       0.00000000       0.75000000       0.48999941 </v>
    <v>       0.75000000       0.75000000       0.45808452 </v>
    <v>       0.75000000       0.75000000       0.48999941 </v>
    <v>       0.50000000       0.75000000       0.45808452 </v>
    <v>       0.50000000       0.75000000       0.48999941 </v>
    <v>       0.25000000       0.75000000       0.45808452 </v>
    <v>       0.25000000       0.75000000       0.48999941 </v>
   </varray>
  </structure>
  <varray name="primitive_index" >
   <v type="int" >        1 </v>
   <v type="int" >      190 </v>
   <v type="int" >      191 </v>
   <v type="int" >      127 </v>
   <v type="int" >       64 </v>
   <v type="int" >       65 </v>
   <v type="int" >      130 </v>
   <v type="int" >       67 </v>
   <v type="int" >       68 </v>
   <v type="int" >       10 </v>
   <v type="int" >      199 </v>
   <v type="int" >       12 </v>
   <v type="int" >      136 </v>
   <v type="int" >       73 </v>
   <v type="int" >      138 </v>
   <v type="int" >       16 </v>
   <v type="int" >      205 </v>
   <v type="int" >       18 </v>
   <v type="int" >       19 </v>
   <v type="int" >      208 </v>
   <v type="int" >       21 </v>
   <v type="int" >      145 </v>
   <v type="int" >       82 </v>
   <v type="int" >      147 </v>
   <v type="int" >       25 </v>
   <v type="int" >      214 </v>
   <v type="int" >       27 </v>
   <v type="int" >       99 </v>
   <v type="int" >       97 </v>
   <v type="int" >      162 </v>
   <v type="int" >       93 </v>
   <v type="int" >       91 </v>
   <v type="int" >      156 </v>
   <v type="int" >      225 </v>
   <v type="int" >      223 </v>
   <v type="int" >       36 </v>
   <v type="int" >      108 </v>
   <v type="int" >      170 </v>
   <v type="int" >      171 </v>
   <v type="int" >      231 </v>
   <v type="int" >       41 </v>
   <v type="int" >       42 </v>
   <v type="int" >      234 </v>
   <v type="int" >       44 </v>
   <v type="int" >       45 </v>
   <v type="int" >      117 </v>
   <v type="int" >      179 </v>
   <v type="int" >      180 </v>
   <v type="int" >      240 </v>
   <v type="int" >       50 </v>
   <v type="int" >       51 </v>
   <v type="int" >      243 </v>
   <v type="int" >       53 </v>
   <v type="int" >       54 </v>
   <v type="int" >      126 </v>
   <v type="int" >      188 </v>
   <v type="int" >      125 </v>
   <v type="int" >      249 </v>
   <v type="int" >       59 </v>
   <v type="int" >      248 </v>
   <v type="int" >      123 </v>
   <v type="int" >      185 </v>
   <v type="int" >      122 </v>
   <v type="int" >      325 </v>
   <v type="int" >      326 </v>
   <v type="int" >      327 </v>
   <v type="int" >      328 </v>
   <v type="int" >      321 </v>
   <v type="int" >      322 </v>
   <v type="int" >      323 </v>
   <v type="int" >      324 </v>
   <v type="int" >      341 </v>
   <v type="int" >      342 </v>
   <v type="int" >      343 </v>
   <v type="int" >      344 </v>
   <v type="int" >      337 </v>
   <v type="int" >      338 </v>
   <v type="int" >      339 </v>
   <v type="int" >      340 </v>
   <v type="int" >      293 </v>
   <v type="int" >      294 </v>
   <v type="int" >      295 </v>
   <v type="int" >      296 </v>
   <v type="int" >      289 </v>
   <v type="int" >      290 </v>
   <v type="int" >      291 </v>
   <v type="int" >      292 </v>
   <v type="int" >      309 </v>
   <v type="int" >      310 </v>
   <v type="int" >      311 </v>
   <v type="int" >      312 </v>
   <v type="int" >      305 </v>
   <v type="int" >      306 </v>
   <v type="int" >      307 </v>
   <v type="int" >      308 </v>
  </varray>
 </primitive_cell>
 <kpoints>
  <generation param="Gamma">
   <v type="int" name="divisions">       2        2        1 </v>
   <v name="usershift">      0.00000000       0.00000000       0.00000000 </v>
   <v name="genvec1">      0.50000000       0.00000000       0.00000000 </v>
   <v name="genvec2">      0.00000000       0.50000000       0.00000000 </v>
   <v name="genvec3">      0.00000000       0.00000000       1.00000000 </v>
   <v name="shift">      0.00000000       0.00000000       0.00000000 </v>
  </generation>
  <varray name="kpointlist" >
   <v>       0.00000000       0.00000000       0.00000000 </v>
   <v>       0.50000000       0.00000000       0.00000000 </v>
  </varray>
  <varray name="weights" >
   <v>       0.25000000 </v>
   <v>       0.75000000 </v>
  </varray>
 </kpoints>
 <parameters>
  <separator name="general" >
   <i type="string" name="SYSTEM">NiAl</i>
   <i type="logical" name="LCOMPAT"> F  </i>
  </separator>
  <separator name="electronic" >
   <i type="string" name="PREC">normal</i>
   <i name="ENMAX">    360.00000000</i>
   <i name="ENAUG">   1139.60900000</i>
   <i name="EDIFF">      0.00000500</i>
   <i type="int" name="IALGO">    38</i>
   <i type="int" name="IWAVPR">    11</i>
   <i type="int" name="NBANDS">  1972</i>
   <i type="int" name="NBANDSLOW">    -1</i>
   <i type="int" name="NBANDSHIGH">    -1</i>
   <i name="NELECT">   3288.00000000</i>
   <i type="int" name="TURBO">     0</i>
   <i type="int" name="IRESTART">     0</i>
   <i type="int" name="NREBOOT">     0</i>
   <i type="int" name="NMIN">     0</i>
   <i name="EREF">      0.00000000</i>
   <separator name="electronic smearing" >
    <i type="int" name="ISMEAR">     0</i>
    <i name="SIGMA">      0.05000000</i>
    <i name="KSPACING">      0.50000000</i>
    <i type="logical" name="KGAMMA"> T  </i>
    <i type="logical" name="KBLOWUP"> T  </i>
   </separator>
   <separator name="electronic projectors" >
    <i type="logical" name="LREAL"> T  </i>
    <v name="ROPT">     -0.00050000     -0.00050000</v>
    <i type="int" name="LMAXPAW">  -100</i>
    <i type="int" name="LMAXMIX">     2</i>
    <i type="logical" name="NLSPLINE"> F  </i>
   </separator>
   <separator name="electronic startup" >
    <i type="int" name="ISTART">     0</i>
    <i type="int" name="ICHARG">     2</i>
    <i type="int" name="INIWAV">     1</i>
   </separator>
   <separator name="electronic spin" >
    <i type="int" name="ISPIN">     1</i>
    <i type="logical" name="LNONCOLLINEAR"> F  </i>
    <v name="MAGMOM">      1.00000000      1.00000000      1.00000000      1.00000000      1.00000000      1.00000000      1.00000000      1.00000000      1.00000000      1.00000000      1.00000000      1.00000000      1.00000000      1.00000000      1.00000000      1.00000000      1.00000000      1.00000000      1.00000000      1.00000000
      1.00000000      1.00000000      1.00000000      1.00000000      1.00000000      1.00000000      1.00000000      1.00000000      1.00000000      1.00000000      1.00000000      1.00000000      1.00000000      1.00000000      1.00000000      1.00000000      1.00000000      1.00000000      1.00000000      1.00000000
      1.00000000      1.00000000      1.00000000      1.00000000      1.00000000      1.00000000      1.00000000      1.00000000      1.00000000      1.00000000      1.00000000      1.00000000      1.00000000      1.00000000      1.00000000      1.00000000      1.00000000      1.00000000      1.00000000      1.00000000
      1.00000000      1.00000000      1.00000000      1.00000000      1.00000000      1.00000000      1.00000000      1.00000000      1.00000000      1.00000000      1.00000000      1.00000000      1.00000000      1.00000000      1.00000000      1.00000000      1.00000000      1.00000000      1.00000000      1.00000000
      1.00000000      1.00000000      1.00000000      1.00000000      1.00000000      1.00000000      1.00000000      1.00000000      1.00000000      1.00000000      1.00000000      1.00000000      1.00000000      1.00000000      1.00000000      1.00000000      1.00000000      1.00000000      1.00000000      1.00000000
      1.00000000      1.00000000      1.00000000      1.00000000      1.00000000      1.00000000      1.00000000      1.00000000      1.00000000      1.00000000      1.00000000      1.00000000      1.00000000      1.00000000      1.00000000      1.00000000      1.00000000      1.00000000      1.00000000      1.00000000
      1.00000000      1.00000000      1.00000000      1.00000000      1.00000000      1.00000000      1.00000000      1.00000000      1.00000000      1.00000000      1.00000000      1.00000000      1.00000000      1.00000000      1.00000000      1.00000000      1.00000000      1.00000000      1.00000000      1.00000000
      1.00000000      1.00000000      1.00000000      1.00000000      1.00000000      1.00000000      1.00000000      1.00000000      1.00000000      1.00000000      1.00000000      1.00000000      1.00000000      1.00000000      1.00000000      1.00000000      1.00000000      1.00000000      1.00000000      1.00000000
      1.00000000      1.00000000      1.00000000      1.00000000      1.00000000      1.00000000      1.00000000      1.00000000      1.00000000      1.00000000      1.00000000      1.00000000      1.00000000      1.00000000      1.00000000      1.00000000      1.00000000      1.00000000      1.00000000      1.00000000
      1.00000000      1.00000000      1.00000000      1.00000000      1.00000000      1.00000000      1.00000000      1.00000000      1.00000000      1.00000000      1.00000000      1.00000000      1.00000000      1.00000000      1.00000000      1.00000000      1.00000000      1.00000000      1.00000000      1.00000000
      1.00000000      1.00000000      1.00000000      1.00000000      1.00000000      1.00000000      1.00000000      1.00000000      1.00000000      1.00000000      1.00000000      1.00000000      1.00000000      1.00000000      1.00000000      1.00000000      1.00000000      1.00000000      1.00000000      1.00000000
      1.00000000      1.00000000      1.00000000      1.00000000      1.00000000      1.00000000      1.00000000      1.00000000      1.00000000      1.00000000      1.00000000      1.00000000      1.00000000      1.00000000      1.00000000      1.00000000      1.00000000      1.00000000      1.00000000      1.00000000
      1.00000000      1.00000000      1.00000000      1.00000000      1.00000000      1.00000000      1.00000000      1.00000000      1.00000000      1.00000000      1.00000000      1.00000000      1.00000000      1.00000000      1.00000000      1.00000000      1.00000000      1.00000000      1.00000000      1.00000000
      1.00000000      1.00000000      1.00000000      1.00000000      1.00000000      1.00000000      1.00000000      1.00000000      1.00000000      1.00000000      1.00000000      1.00000000      1.00000000      1.00000000      1.00000000      1.00000000      1.00000000      1.00000000      1.00000000      1.00000000
      1.00000000      1.00000000      1.00000000      1.00000000      1.00000000      1.00000000      1.00000000      1.00000000      1.00000000      1.00000000      1.00000000      1.00000000      1.00000000      1.00000000      1.00000000      1.00000000      1.00000000      1.00000000      1.00000000      1.00000000
      1.00000000      1.00000000      1.00000000      1.00000000      1.00000000      1.00000000      1.00000000      1.00000000      1.00000000      1.00000000      1.00000000      1.00000000      1.00000000      1.00000000      1.00000000      1.00000000      1.00000000      1.00000000      1.00000000      1.00000000
      1.00000000      1.00000000      1.00000000      1.00000000      1.00000000      1.00000000      1.00000000      1.00000000      1.00000000      1.00000000      1.00000000      1.00000000      1.00000000      1.00000000      1.00000000      1.00000000      1.00000000      1.00000000      1.00000000      1.00000000
      1.00000000      1.00000000      1.00000000      1.00000000      1.00000000      1.00000000      1.00000000      1.00000000      1.00000000      1.00000000      1.00000000      1.00000000      1.00000000      1.00000000      1.00000000      1.00000000      1.00000000      1.00000000      1.00000000      1.00000000
      1.00000000      1.00000000      1.00000000      1.00000000      1.00000000      1.00000000      1.00000000      1.00000000      1.00000000      1.00000000      1.00000000      1.00000000      1.00000000      1.00000000      1.00000000      1.00000000      1.00000000      1.00000000      1.00000000      1.00000000
</v>
    <i name="NUPDOWN">     -1.00000000</i>
    <i type="logical" name="LSORBIT"> F  </i>
    <v name="SAXIS">      0.00000000      0.00000000      1.00000000</v>
    <i type="logical" name="LSPIRAL"> F  </i>
    <v name="QSPIRAL">      0.00000000      0.00000000      0.00000000</v>
    <i type="logical" name="LZEROZ"> F  </i>
   </separator>
   <separator name="electronic exchange-correlation" >
    <i type="logical" name="LASPH"> F  </i>
    <i type="logical" name="LMETAGGA"> F  </i>
   </separator>
   <separator name="electronic convergence" >
    <i type="int" name="NELM">   120</i>
    <i type="int" name="NELMDL">    -5</i>
    <i type="int" name="NELMIN">     6</i>
    <i name="ENINI">    360.00000000</i>
    <separator name="electronic convergence detail" >
     <i type="logical" name="LDIAG"> T  </i>
     <i type="logical" name="LSUBROT"> F  </i>
     <i name="WEIMIN">      0.00100000</i>
     <i name="EBREAK">      0.00000000</i>
     <i name="DEPER">      0.30000000</i>
     <i type="int" name="NRMM">     4</i>
     <i name="TIME">      0.40000000</i>
    </separator>
   </separator>
   <separator name="electronic mixer" >
    <i name="AMIX">      0.40000000</i>
    <i name="BMIX">      1.00000000</i>
    <i name="AMIN">      0.10000000</i>
    <i name="AMIX_MAG">      1.60000000</i>
    <i name="BMIX_MAG">      1.00000000</i>
    <separator name="electronic mixer details" >
     <i type="int" name="IMIX">     4</i>
     <i type="logical" name="MIXFIRST"> F  </i>
     <i type="int" name="MAXMIX">   -45</i>
     <i name="WC">    100.00000000</i>
     <i type="int" name="INIMIX">     1</i>
     <i type="int" name="MIXPRE">     1</i>
     <i type="int" name="MREMOVE">     5</i>
    </separator>
   </separator>
   <separator name="electronic dipolcorrection" >
    <i type="logical" name="LDIPOL"> F  </i>
    <i type="logical" name="LMONO"> F  </i>
    <i type="int" name="IDIPOL">     0</i>
    <i name="EPSILON">      1.00000000</i>
    <v name="DIPOL">   -100.00000000   -100.00000000   -100.00000000</v>
    <i name="EFIELD">      0.00000000</i>
   </separator>
  </separator>
  <separator name="grids" >
   <i type="int" name="NGX">    70</i>
   <i type="int" name="NGY">    70</i>
   <i type="int" name="NGZ">   180</i>
   <i type="int" name="NGXF">   140</i>
   <i type="int" name="NGYF">   140</i>
   <i type="int" name="NGZF">   360</i>
   <i type="logical" name="ADDGRID"> F  </i>
  </separator>
  <separator name="ionic" >
   <i type="int" name="NSW">    20</i>
   <i type="int" name="IBRION">     2</i>
   <i type="int" name="MDALGO">     0</i>
   <i type="int" name="ISIF">     0</i>
   <i name="PSTRESS">      0.00000000</i>
   <i name="EDIFFG">      0.00005000</i>
   <i type="int" name="NFREE">     1</i>
   <i name="POTIM">      0.20000000</i>
   <i name="SMASS">     -3.00000000</i>
   <i name="SCALEE">      1.00000000</i>
  </separator>
  <separator name="ionic md" >
   <i name="TEBEG">      0.00010000</i>
   <i name="TEEND">      0.00010000</i>
   <i type="int" name="NBLOCK">     1</i>
   <i type="int" name="KBLOCK">    20</i>
   <i type="int" name="NPACO">   256</i>
   <i name="APACO">     16.00000000</i>
  </separator>
  <separator name="symmetry" >
   <i type="int" name="ISYM">     2</i>
   <i name="SYMPREC">      0.00001000</i>
  </separator>
  <separator name="dos" >
   <i type="int" name="LORBIT">     0</i>
   <v name="RWIGS">     -1.00000000     -1.00000000</v>
   <i type="int" name="NEDOS">   301</i>
   <i name="EMIN">     10.00000000</i>
   <i name="EMAX">    -10.00000000</i>
   <i name="EFERMI">      0.00000000</i>
  </separator>
  <separator name="writing" >
   <i type="int" name="NWRITE">     2</i>
   <i type="logical" name="LWAVE"> F  </i>
   <i type="logical" name="LDOWNSAMPLE"> F  </i>
   <i type="logical" name="LCHARG"> F  </i>
   <i type="logical" name="LPARD"> F  </i>
   <i type="logical" name="LVTOT"> F  </i>
   <i type="logical" name="LVHAR"> F  </i>
   <i type="logical" name="LELF"> F  </i>
   <i type="logical" name="LOPTICS"> F  </i>
   <v name="STM">      0.00000000      0.00000000      0.00000000      0.00000000      0.00000000      0.00000000      0.00000000</v>
  </separator>
  <separator name="performance" >
   <i type="int" name="NPAR">     1</i>
   <i type="int" name="NSIM">     4</i>
   <i type="int" name="NBLK">    -1</i>
   <i type="logical" name="LPLANE"> T  </i>
   <i type="logical" name="LSCALAPACK"> T  </i>
   <i type="logical" name="LSCAAWARE"> F  </i>
   <i type="logical" name="LSCALU"> F  </i>
   <i type="logical" name="LASYNC"> F  </i>
   <i type="logical" name="LORBITALREAL"> F  </i>
  </separator>
  <separator name="miscellaneous" >
   <i type="int" name="IDIOT">     3</i>
   <i type="int" name="PHON_NSTRUCT">    -1</i>
   <i type="logical" name="LMUSIC"> F  </i>
   <v name="POMASS">     58.69000000     16.00000000</v>
   <v name="DARWINR">      0.00000000      0.00000000</v>
   <v name="DARWINV">      1.00000000      1.00000000</v>
   <i type="logical" name="LCORR"> T  </i>
  </separator>
  <i type="logical" name="GGA_COMPAT"> T  </i>
  <i type="logical" name="LBERRY"> F  </i>
  <i type="int" name="ICORELEVEL">     0</i>
  <i type="logical" name="LDAU"> F  </i>
  <i type="int" name="I_CONSTRAINED_M">     0</i>
  <separator name="electronic exchange-correlation" >
   <i type="string" name="GGA">--</i>
   <i type="int" name="VOSKOWN">     0</i>
   <i type="logical" name="LHFCALC"> F  </i>
   <i type="string" name="PRECFOCK"></i>
   <i type="logical" name="LSYMGRAD"> F  </i>
   <i type="logical" name="LHFONE"> F  </i>
   <i type="logical" name="LRHFCALC"> F  </i>
   <i type="logical" name="LTHOMAS"> F  </i>
   <i type="logical" name="LMODELHF"> F  </i>
   <i type="logical" name="LFOCKACE"> F  </i>
   <i name="ENCUT4O">     -1.00000000</i>
   <i type="int" name="EXXOEP">     0</i>
   <i type="int" name="FOURORBIT">     0</i>
   <i name="AEXX">      0.00000000</i>
   <i name="HFALPHA">      0.00000000</i>
   <i name="MCALPHA">      0.00000000</i>
   <i name="ALDAX">      1.00000000</i>
   <i name="AGGAX">      1.00000000</i>
   <i name="ALDAC">      1.00000000</i>
   <i name="AGGAC">      1.00000000</i>
   <i type="int" name="NKREDX">     1</i>
   <i type="int" name="NKREDY">     1</i>
   <i type="int" name="NKREDZ">     1</i>
   <i type="logical" name="SHIFTRED"> F  </i>
   <i type="logical" name="ODDONLY"> F  </i>
   <i type="logical" name="EVENONLY"> F  </i>
   <i type="int" name="LMAXFOCK">     0</i>
   <i type="int" name="NMAXFOCKAE">     0</i>
   <i type="logical" name="LFOCKAEDFT"> F  </i>
   <i name="HFSCREEN">      0.00000000</i>
   <i name="HFSCREENC">      0.00000000</i>
   <i type="int" name="NBANDSGWLOW">     0</i>
  </separator>
  <separator name="vdW DFT" >
   <i type="logical" name="LUSE_VDW"> F  </i>
   <i name="Zab_VDW">     -0.84910000</i>
   <i name="PARAM1">      0.12340000</i>
   <i name="PARAM2">      1.00000000</i>
   <i name="PARAM3">      0.00000000</i>
  </separator>
  <separator name="model GW" >
   <i type="int" name="MODEL_GW">     0</i>
   <i name="MODEL_EPS0">     11.79491329</i>
   <i name="MODEL_ALPHA">      1.00000000</i>
  </separator>
  <separator name="linear response parameters" >
   <i type="logical" name="LEPSILON"> F  </i>
   <i type="logical" name="LRPA"> F  </i>
   <i type="logical" name="LNABLA"> F  </i>
   <i type="logical" name="LVEL"> F  </i>
   <i type="int" name="KINTER">     0</i>
   <i name="CSHIFT">      0.10000000</i>
   <i name="OMEGAMAX">     -1.00000000</i>
   <i name="DEG_THRESHOLD">      0.00200000</i>
   <i name="RTIME">     -0.10000000</i>
   <i name="WPLASMAI">      0.00000000</i>
   <v name="DFIELD">      0.00000000      0.00000000      0.00000000</v>
   <v name="WPLASMA">      0.00000000      0.00000000      0.00000000      0.00000000      0.00000000      0.00000000      0.00000000      0.00000000      0.00000000</v>
  </separator>
  <separator name="orbital magnetization" >
   <i type="logical" name="NUCIND"> F  </i>
   <v name="MAGPOS">      0.00000000      0.00000000      0.00000000</v>
   <i type="logical" name="LNICSALL"> T  </i>
   <i type="logical" name="ORBITALMAG"> F  </i>
   <i type="logical" name="LMAGBLOCH"> F  </i>
   <i type="logical" name="LCHIMAG"> F  </i>
   <i type="logical" name="LGAUGE"> T  </i>
   <i type="int" name="MAGATOM">     0</i>
   <v name="MAGDIPOL">      0.00000000      0.00000000      0.00000000</v>
   <v name="AVECCONST">      0.00000000      0.00000000      0.00000000</v>
  </separator>
  <separator name="response functions" >
   <i type="logical" name="LFINITE_TEMPERATURE"> F  </i>
   <i type="logical" name="LADDER"> F  </i>
   <i type="logical" name="LRPAFORCE"> F  </i>
   <i type="logical" name="LFXC"> F  </i>
   <i type="logical" name="LHARTREE"> T  </i>
   <i type="int" name="IBSE">     0</i>
   <v type="int" name="KPOINT">    -1     0     0     0</v>
   <i type="logical" name="LTCTC"> F  </i>
   <i type="logical" name="LTCTE"> F  </i>
   <i type="logical" name="LTETE"> F  </i>
   <i type="logical" name="LTRIPLET"> F  </i>
   <i type="logical" name="LFXCEPS"> F  </i>
   <i type="logical" name="LFXHEG"> F  </i>
   <i type="int" name="NATURALO">     2</i>
   <i type="logical" name="LHOLEGF"> F  </i>
   <i type="logical" name="L2ORDER"> F  </i>
   <i type="logical" name="LDMP1"> F  </i>
   <i type="logical" name="LMP2LT"> F  </i>
   <i type="logical" name="LSMP2LT"> F  </i>
   <i type="logical" name="LGWLF"> F  </i>
   <i name="ENCUTGW">     -2.00000000</i>
   <i name="ENCUTGWSOFT">     -2.00000000</i>
   <i name="ENCUTLF">     -1.00000000</i>
   <i type="logical" name="LESF_SPLINES"> F  </i>
   <i type="int" name="LMAXMP2">    -1</i>
   <i name="SCISSOR">      0.00000000</i>
   <i type="int" name="NOMEGA">     0</i>
   <i type="int" name="NOMEGAR">     0</i>
   <i type="int" name="NBANDSGW">    -1</i>
   <i type="int" name="NBANDSO">    -1</i>
   <i type="int" name="NBANDSV">    -1</i>
   <i type="int" name="NELM">   120</i>
   <i type="int" name="NELMHF">     1</i>
   <i type="int" name="DIM">     3</i>
   <i type="int" name="IESPILON">     4</i>
   <i type="int" name="ANTIRES">     0</i>
   <i name="OMEGAMAX">    -30.00000000</i>
   <i name="OMEGAMIN">    -30.00000000</i>
   <i name="OMEGATL">   -200.00000000</i>
   <i type="int" name="OMEGAGRID">     0</i>
   <i name="CSHIFT">     -0.10000000</i>
   <i type="logical" name="LSELFENERGY"> F  </i>
   <i type="logical" name="LSPECTRAL"> F  </i>
   <i type="logical" name="LSPECTRALGW"> F  </i>
   <i type="logical" name="LSINGLES"> F  </i>
   <i type="logical" name="LFERMIGW"> F  </i>
   <i type="logical" name="ODDONLYGW"> F  </i>
   <i type="logical" name="EVENONLYGW"> F  </i>
   <i type="int" name="NKREDLFX">     1</i>
   <i type="int" name="NKREDLFY">     1</i>
   <i type="int" name="NKREDLFZ">     1</i>
   <i type="int" name="MAXMEM">  2800</i>
   <i type="int" name="TELESCOPE">     0</i>
   <i type="int" name="NTAUPAR">    -1</i>
   <i type="int" name="NOMEGAPAR">    -1</i>
   <i name="DAMP_NEWTON">      0.80000001</i>
   <i name="LAMBDA">      1.00000000</i>
  </separator>
  <separator name="External order field" >
   <i name="OFIELD_KAPPA">      0.00000000</i>
   <v name="OFIELD_K">      0.00000000      0.00000000      0.00000000</v>
   <i name="OFIELD_Q6_NEAR">      0.00000000</i>
   <i name="OFIELD_Q6_FAR">      0.00000000</i>
   <i name="OFIELD_A">      0.00000000</i>
  </separator>
 </parameters>
 <atominfo>
  <atoms>     380 </atoms>
  <types>       2 </types>
  <array name="atoms" >
   <dimension dim="1">ion</dimension>
   <field type="string">element</field>
   <field type="int">atomtype</field>
   <set>
    <rc><c>Ni</c><c>   1</c></rc>
    <rc><c>Ni</c><c>   1</c></rc>
    <rc><c>Ni</c><c>   1</c></rc>
    <rc><c>Ni</c><c>   1</c></rc>
    <rc><c>Ni</c><c>   1</c></rc>
    <rc><c>Ni</c><c>   1</c></rc>
    <rc><c>Ni</c><c>   1</c></rc>
    <rc><c>Ni</c><c>   1</c></rc>
    <rc><c>Ni</c><c>   1</c></rc>
    <rc><c>Ni</c><c>   1</c></rc>
    <rc><c>Ni</c><c>   1</c></rc>
    <rc><c>Ni</c><c>   1</c></rc>
    <rc><c>Ni</c><c>   1</c></rc>
    <rc><c>Ni</c><c>   1</c></rc>
    <rc><c>Ni</c><c>   1</c></rc>
    <rc><c>Ni</c><c>   1</c></rc>
    <rc><c>Ni</c><c>   1</c></rc>
    <rc><c>Ni</c><c>   1</c></rc>
    <rc><c>Ni</c><c>   1</c></rc>
    <rc><c>Ni</c><c>   1</c></rc>
    <rc><c>Ni</c><c>   1</c></rc>
    <rc><c>Ni</c><c>   1</c></rc>
    <rc><c>Ni</c><c>   1</c></rc>
    <rc><c>Ni</c><c>   1</c></rc>
    <rc><c>Ni</c><c>   1</c></rc>
    <rc><c>Ni</c><c>   1</c></rc>
    <rc><c>Ni</c><c>   1</c></rc>
    <rc><c>Ni</c><c>   1</c></rc>
    <rc><c>Ni</c><c>   1</c></rc>
    <rc><c>Ni</c><c>   1</c></rc>
    <rc><c>Ni</c><c>   1</c></rc>
    <rc><c>Ni</c><c>   1</c></rc>
    <rc><c>Ni</c><c>   1</c></rc>
    <rc><c>Ni</c><c>   1</c></rc>
    <rc><c>Ni</c><c>   1</c></rc>
    <rc><c>Ni</c><c>   1</c></rc>
    <rc><c>Ni</c><c>   1</c></rc>
    <rc><c>Ni</c><c>   1</c></rc>
    <rc><c>Ni</c><c>   1</c></rc>
    <rc><c>Ni</c><c>   1</c></rc>
    <rc><c>Ni</c><c>   1</c></rc>
    <rc><c>Ni</c><c>   1</c></rc>
    <rc><c>Ni</c><c>   1</c></rc>
    <rc><c>Ni</c><c>   1</c></rc>
    <rc><c>Ni</c><c>   1</c></rc>
    <rc><c>Ni</c><c>   1</c></rc>
    <rc><c>Ni</c><c>   1</c></rc>
    <rc><c>Ni</c><c>   1</c></rc>
    <rc><c>Ni</c><c>   1</c></rc>
    <rc><c>Ni</c><c>   1</c></rc>
    <rc><c>Ni</c><c>   1</c></rc>
    <rc><c>Ni</c><c>   1</c></rc>
    <rc><c>Ni</c><c>   1</c></rc>
    <rc><c>Ni</c><c>   1</c></rc>
    <rc><c>Ni</c><c>   1</c></rc>
    <rc><c>Ni</c><c>   1</c></rc>
    <rc><c>Ni</c><c>   1</c></rc>
    <rc><c>Ni</c><c>   1</c></rc>
    <rc><c>Ni</c><c>   1</c></rc>
    <rc><c>Ni</c><c>   1</c></rc>
    <rc><c>Ni</c><c>   1</c></rc>
    <rc><c>Ni</c><c>   1</c></rc>
    <rc><c>Ni</c><c>   1</c></rc>
    <rc><c>Ni</c><c>   1</c></rc>
    <rc><c>Ni</c><c>   1</c></rc>
    <rc><c>Ni</c><c>   1</c></rc>
    <rc><c>Ni</c><c>   1</c></rc>
    <rc><c>Ni</c><c>   1</c></rc>
    <rc><c>Ni</c><c>   1</c></rc>
    <rc><c>Ni</c><c>   1</c></rc>
    <rc><c>Ni</c><c>   1</c></rc>
    <rc><c>Ni</c><c>   1</c></rc>
    <rc><c>Ni</c><c>   1</c></rc>
    <rc><c>Ni</c><c>   1</c></rc>
    <rc><c>Ni</c><c>   1</c></rc>
    <rc><c>Ni</c><c>   1</c></rc>
    <rc><c>Ni</c><c>   1</c></rc>
    <rc><c>Ni</c><c>   1</c></rc>
    <rc><c>Ni</c><c>   1</c></rc>
    <rc><c>Ni</c><c>   1</c></rc>
    <rc><c>Ni</c><c>   1</c></rc>
    <rc><c>Ni</c><c>   1</c></rc>
    <rc><c>Ni</c><c>   1</c></rc>
    <rc><c>Ni</c><c>   1</c></rc>
    <rc><c>Ni</c><c>   1</c></rc>
    <rc><c>Ni</c><c>   1</c></rc>
    <rc><c>Ni</c><c>   1</c></rc>
    <rc><c>Ni</c><c>   1</c></rc>
    <rc><c>Ni</c><c>   1</c></rc>
    <rc><c>Ni</c><c>   1</c></rc>
    <rc><c>Ni</c><c>   1</c></rc>
    <rc><c>Ni</c><c>   1</c></rc>
    <rc><c>Ni</c><c>   1</c></rc>
    <rc><c>Ni</c><c>   1</c></rc>
    <rc><c>Ni</c><c>   1</c></rc>
    <rc><c>Ni</c><c>   1</c></rc>
    <rc><c>Ni</c><c>   1</c></rc>
    <rc><c>Ni</c><c>   1</c></rc>
    <rc><c>Ni</c><c>   1</c></rc>
    <rc><c>Ni</c><c>   1</c></rc>
    <rc><c>Ni</c><c>   1</c></rc>
    <rc><c>Ni</c><c>   1</c></rc>
    <rc><c>Ni</c><c>   1</c></rc>
    <rc><c>Ni</c><c>   1</c></rc>
    <rc><c>Ni</c><c>   1</c></rc>
    <rc><c>Ni</c><c>   1</c></rc>
    <rc><c>Ni</c><c>   1</c></rc>
    <rc><c>Ni</c><c>   1</c></rc>
    <rc><c>Ni</c><c>   1</c></rc>
    <rc><c>Ni</c><c>   1</c></rc>
    <rc><c>Ni</c><c>   1</c></rc>
    <rc><c>Ni</c><c>   1</c></rc>
    <rc><c>Ni</c><c>   1</c></rc>
    <rc><c>Ni</c><c>   1</c></rc>
    <rc><c>Ni</c><c>   1</c></rc>
    <rc><c>Ni</c><c>   1</c></rc>
    <rc><c>Ni</c><c>   1</c></rc>
    <rc><c>Ni</c><c>   1</c></rc>
    <rc><c>Ni</c><c>   1</c></rc>
    <rc><c>Ni</c><c>   1</c></rc>
    <rc><c>Ni</c><c>   1</c></rc>
    <rc><c>Ni</c><c>   1</c></rc>
    <rc><c>Ni</c><c>   1</c></rc>
    <rc><c>Ni</c><c>   1</c></rc>
    <rc><c>Ni</c><c>   1</c></rc>
    <rc><c>Ni</c><c>   1</c></rc>
    <rc><c>Ni</c><c>   1</c></rc>
    <rc><c>Ni</c><c>   1</c></rc>
    <rc><c>Ni</c><c>   1</c></rc>
    <rc><c>Ni</c><c>   1</c></rc>
    <rc><c>Ni</c><c>   1</c></rc>
    <rc><c>Ni</c><c>   1</c></rc>
    <rc><c>Ni</c><c>   1</c></rc>
    <rc><c>Ni</c><c>   1</c></rc>
    <rc><c>Ni</c><c>   1</c></rc>
    <rc><c>Ni</c><c>   1</c></rc>
    <rc><c>Ni</c><c>   1</c></rc>
    <rc><c>Ni</c><c>   1</c></rc>
    <rc><c>Ni</c><c>   1</c></rc>
    <rc><c>Ni</c><c>   1</c></rc>
    <rc><c>Ni</c><c>   1</c></rc>
    <rc><c>Ni</c><c>   1</c></rc>
    <rc><c>Ni</c><c>   1</c></rc>
    <rc><c>Ni</c><c>   1</c></rc>
    <rc><c>Ni</c><c>   1</c></rc>
    <rc><c>Ni</c><c>   1</c></rc>
    <rc><c>Ni</c><c>   1</c></rc>
    <rc><c>Ni</c><c>   1</c></rc>
    <rc><c>Ni</c><c>   1</c></rc>
    <rc><c>Ni</c><c>   1</c></rc>
    <rc><c>Ni</c><c>   1</c></rc>
    <rc><c>Ni</c><c>   1</c></rc>
    <rc><c>Ni</c><c>   1</c></rc>
    <rc><c>Ni</c><c>   1</c></rc>
    <rc><c>Ni</c><c>   1</c></rc>
    <rc><c>Ni</c><c>   1</c></rc>
    <rc><c>Ni</c><c>   1</c></rc>
    <rc><c>Ni</c><c>   1</c></rc>
    <rc><c>Ni</c><c>   1</c></rc>
    <rc><c>Ni</c><c>   1</c></rc>
    <rc><c>Ni</c><c>   1</c></rc>
    <rc><c>Ni</c><c>   1</c></rc>
    <rc><c>Ni</c><c>   1</c></rc>
    <rc><c>Ni</c><c>   1</c></rc>
    <rc><c>Ni</c><c>   1</c></rc>
    <rc><c>Ni</c><c>   1</c></rc>
    <rc><c>Ni</c><c>   1</c></rc>
    <rc><c>Ni</c><c>   1</c></rc>
    <rc><c>Ni</c><c>   1</c></rc>
    <rc><c>Ni</c><c>   1</c></rc>
    <rc><c>Ni</c><c>   1</c></rc>
    <rc><c>Ni</c><c>   1</c></rc>
    <rc><c>Ni</c><c>   1</c></rc>
    <rc><c>Ni</c><c>   1</c></rc>
    <rc><c>Ni</c><c>   1</c></rc>
    <rc><c>Ni</c><c>   1</c></rc>
    <rc><c>Ni</c><c>   1</c></rc>
    <rc><c>Ni</c><c>   1</c></rc>
    <rc><c>Ni</c><c>   1</c></rc>
    <rc><c>Ni</c><c>   1</c></rc>
    <rc><c>Ni</c><c>   1</c></rc>
    <rc><c>Ni</c><c>   1</c></rc>
    <rc><c>Ni</c><c>   1</c></rc>
    <rc><c>Ni</c><c>   1</c></rc>
    <rc><c>Ni</c><c>   1</c></rc>
    <rc><c>Ni</c><c>   1</c></rc>
    <rc><c>Ni</c><c>   1</c></rc>
    <rc><c>Ni</c><c>   1</c></rc>
    <rc><c>Ni</c><c>   1</c></rc>
    <rc><c>Ni</c><c>   1</c></rc>
    <rc><c>Ni</c><c>   1</c></rc>
    <rc><c>Ni</c><c>   1</c></rc>
    <rc><c>Ni</c><c>   1</c></rc>
    <rc><c>Ni</c><c>   1</c></rc>
    <rc><c>Ni</c><c>   1</c></rc>
    <rc><c>Ni</c><c>   1</c></rc>
    <rc><c>Ni</c><c>   1</c></rc>
    <rc><c>Ni</c><c>   1</c></rc>
    <rc><c>Ni</c><c>   1</c></rc>
    <rc><c>Ni</c><c>   1</c></rc>
    <rc><c>Ni</c><c>   1</c></rc>
    <rc><c>Ni</c><c>   1</c></rc>
    <rc><c>Ni</c><c>   1</c></rc>
    <rc><c>Ni</c><c>   1</c></rc>
    <rc><c>Ni</c><c>   1</c></rc>
    <rc><c>Ni</c><c>   1</c></rc>
    <rc><c>Ni</c><c>   1</c></rc>
    <rc><c>Ni</c><c>   1</c></rc>
    <rc><c>Ni</c><c>   1</c></rc>
    <rc><c>Ni</c><c>   1</c></rc>
    <rc><c>Ni</c><c>   1</c></rc>
    <rc><c>Ni</c><c>   1</c></rc>
    <rc><c>Ni</c><c>   1</c></rc>
    <rc><c>Ni</c><c>   1</c></rc>
    <rc><c>Ni</c><c>   1</c></rc>
    <rc><c>Ni</c><c>   1</c></rc>
    <rc><c>Ni</c><c>   1</c></rc>
    <rc><c>Ni</c><c>   1</c></rc>
    <rc><c>Ni</c><c>   1</c></rc>
    <rc><c>Ni</c><c>   1</c></rc>
    <rc><c>Ni</c><c>   1</c></rc>
    <rc><c>Ni</c><c>   1</c></rc>
    <rc><c>Ni</c><c>   1</c></rc>
    <rc><c>Ni</c><c>   1</c></rc>
    <rc><c>Ni</c><c>   1</c></rc>
    <rc><c>Ni</c><c>   1</c></rc>
    <rc><c>Ni</c><c>   1</c></rc>
    <rc><c>Ni</c><c>   1</c></rc>
    <rc><c>Ni</c><c>   1</c></rc>
    <rc><c>Ni</c><c>   1</c></rc>
    <rc><c>Ni</c><c>   1</c></rc>
    <rc><c>Ni</c><c>   1</c></rc>
    <rc><c>Ni</c><c>   1</c></rc>
    <rc><c>Ni</c><c>   1</c></rc>
    <rc><c>Ni</c><c>   1</c></rc>
    <rc><c>Ni</c><c>   1</c></rc>
    <rc><c>Ni</c><c>   1</c></rc>
    <rc><c>Ni</c><c>   1</c></rc>
    <rc><c>Ni</c><c>   1</c></rc>
    <rc><c>Ni</c><c>   1</c></rc>
    <rc><c>Ni</c><c>   1</c></rc>
    <rc><c>Ni</c><c>   1</c></rc>
    <rc><c>Ni</c><c>   1</c></rc>
    <rc><c>Ni</c><c>   1</c></rc>
    <rc><c>Ni</c><c>   1</c></rc>
    <rc><c>Ni</c><c>   1</c></rc>
    <rc><c>Ni</c><c>   1</c></rc>
    <rc><c>Ni</c><c>   1</c></rc>
    <rc><c>Ni</c><c>   1</c></rc>
    <rc><c>Ni</c><c>   1</c></rc>
    <rc><c>Ni</c><c>   1</c></rc>
    <rc><c>Ni</c><c>   1</c></rc>
    <rc><c>O </c><c>   2</c></rc>
    <rc><c>O </c><c>   2</c></rc>
    <rc><c>O </c><c>   2</c></rc>
    <rc><c>O </c><c>   2</c></rc>
    <rc><c>O </c><c>   2</c></rc>
    <rc><c>O </c><c>   2</c></rc>
    <rc><c>O </c><c>   2</c></rc>
    <rc><c>O </c><c>   2</c></rc>
    <rc><c>O </c><c>   2</c></rc>
    <rc><c>O </c><c>   2</c></rc>
    <rc><c>O </c><c>   2</c></rc>
    <rc><c>O </c><c>   2</c></rc>
    <rc><c>O </c><c>   2</c></rc>
    <rc><c>O </c><c>   2</c></rc>
    <rc><c>O </c><c>   2</c></rc>
    <rc><c>O </c><c>   2</c></rc>
    <rc><c>O </c><c>   2</c></rc>
    <rc><c>O </c><c>   2</c></rc>
    <rc><c>O </c><c>   2</c></rc>
    <rc><c>O </c><c>   2</c></rc>
    <rc><c>O </c><c>   2</c></rc>
    <rc><c>O </c><c>   2</c></rc>
    <rc><c>O </c><c>   2</c></rc>
    <rc><c>O </c><c>   2</c></rc>
    <rc><c>O </c><c>   2</c></rc>
    <rc><c>O </c><c>   2</c></rc>
    <rc><c>O </c><c>   2</c></rc>
    <rc><c>O </c><c>   2</c></rc>
    <rc><c>O </c><c>   2</c></rc>
    <rc><c>O </c><c>   2</c></rc>
    <rc><c>O </c><c>   2</c></rc>
    <rc><c>O </c><c>   2</c></rc>
    <rc><c>O </c><c>   2</c></rc>
    <rc><c>O </c><c>   2</c></rc>
    <rc><c>O </c><c>   2</c></rc>
    <rc><c>O </c><c>   2</c></rc>
    <rc><c>O </c><c>   2</c></rc>
    <rc><c>O </c><c>   2</c></rc>
    <rc><c>O </c><c>   2</c></rc>
    <rc><c>O </c><c>   2</c></rc>
    <rc><c>O </c><c>   2</c></rc>
    <rc><c>O </c><c>   2</c></rc>
    <rc><c>O </c><c>   2</c></rc>
    <rc><c>O </c><c>   2</c></rc>
    <rc><c>O </c><c>   2</c></rc>
    <rc><c>O </c><c>   2</c></rc>
    <rc><c>O </c><c>   2</c></rc>
    <rc><c>O </c><c>   2</c></rc>
    <rc><c>O </c><c>   2</c></rc>
    <rc><c>O </c><c>   2</c></rc>
    <rc><c>O </c><c>   2</c></rc>
    <rc><c>O </c><c>   2</c></rc>
    <rc><c>O </c><c>   2</c></rc>
    <rc><c>O </c><c>   2</c></rc>
    <rc><c>O </c><c>   2</c></rc>
    <rc><c>O </c><c>   2</c></rc>
    <rc><c>O </c><c>   2</c></rc>
    <rc><c>O </c><c>   2</c></rc>
    <rc><c>O </c><c>   2</c></rc>
    <rc><c>O </c><c>   2</c></rc>
    <rc><c>O </c><c>   2</c></rc>
    <rc><c>O </c><c>   2</c></rc>
    <rc><c>O </c><c>   2</c></rc>
    <rc><c>O </c><c>   2</c></rc>
    <rc><c>O </c><c>   2</c></rc>
    <rc><c>O </c><c>   2</c></rc>
    <rc><c>O </c><c>   2</c></rc>
    <rc><c>O </c><c>   2</c></rc>
    <rc><c>O </c><c>   2</c></rc>
    <rc><c>O </c><c>   2</c></rc>
    <rc><c>O </c><c>   2</c></rc>
    <rc><c>O </c><c>   2</c></rc>
    <rc><c>O </c><c>   2</c></rc>
    <rc><c>O </c><c>   2</c></rc>
    <rc><c>O </c><c>   2</c></rc>
    <rc><c>O </c><c>   2</c></rc>
    <rc><c>O </c><c>   2</c></rc>
    <rc><c>O </c><c>   2</c></rc>
    <rc><c>O </c><c>   2</c></rc>
    <rc><c>O </c><c>   2</c></rc>
    <rc><c>O </c><c>   2</c></rc>
    <rc><c>O </c><c>   2</c></rc>
    <rc><c>O </c><c>   2</c></rc>
    <rc><c>O </c><c>   2</c></rc>
    <rc><c>O </c><c>   2</c></rc>
    <rc><c>O </c><c>   2</c></rc>
    <rc><c>O </c><c>   2</c></rc>
    <rc><c>O </c><c>   2</c></rc>
    <rc><c>O </c><c>   2</c></rc>
    <rc><c>O </c><c>   2</c></rc>
    <rc><c>O </c><c>   2</c></rc>
    <rc><c>O </c><c>   2</c></rc>
    <rc><c>O </c><c>   2</c></rc>
    <rc><c>O </c><c>   2</c></rc>
    <rc><c>O </c><c>   2</c></rc>
    <rc><c>O </c><c>   2</c></rc>
    <rc><c>O </c><c>   2</c></rc>
    <rc><c>O </c><c>   2</c></rc>
    <rc><c>O </c><c>   2</c></rc>
    <rc><c>O </c><c>   2</c></rc>
    <rc><c>O </c><c>   2</c></rc>
    <rc><c>O </c><c>   2</c></rc>
    <rc><c>O </c><c>   2</c></rc>
    <rc><c>O </c><c>   2</c></rc>
    <rc><c>O </c><c>   2</c></rc>
    <rc><c>O </c><c>   2</c></rc>
    <rc><c>O </c><c>   2</c></rc>
    <rc><c>O </c><c>   2</c></rc>
    <rc><c>O </c><c>   2</c></rc>
    <rc><c>O </c><c>   2</c></rc>
    <rc><c>O </c><c>   2</c></rc>
    <rc><c>O </c><c>   2</c></rc>
    <rc><c>O </c><c>   2</c></rc>
    <rc><c>O </c><c>   2</c></rc>
    <rc><c>O </c><c>   2</c></rc>
    <rc><c>O </c><c>   2</c></rc>
    <rc><c>O </c><c>   2</c></rc>
    <rc><c>O </c><c>   2</c></rc>
    <rc><c>O </c><c>   2</c></rc>
    <rc><c>O </c><c>   2</c></rc>
    <rc><c>O </c><c>   2</c></rc>
    <rc><c>O </c><c>   2</c></rc>
    <rc><c>O </c><c>   2</c></rc>
    <rc><c>O </c><c>   2</c></rc>
    <rc><c>O </c><c>   2</c></rc>
    <rc><c>O </c><c>   2</c></rc>
    <rc><c>O </c><c>   2</c></rc>
    <rc><c>O </c><c>   2</c></rc>
   </set>
  </array>
  <array name="atomtypes" >
   <dimension dim="1">type</dimension>
   <field type="int">atomspertype</field>
   <field type="string">element</field>
   <field>mass</field>
   <field>valence</field>
   <field type="string">pseudopotential</field>
   <set>
    <rc><c> 252</c><c>Ni</c><c>     58.69000000</c><c>     10.00000000</c><c>  PAW Ni_GW 31Mar2010                   </c></rc>
    <rc><c> 128</c><c>O </c><c>     16.00000000</c><c>      6.00000000</c><c>  PAW O_GW 19Mar2012                    </c></rc>
   </set>
  </array>
 </atominfo>
 <structure name="initialpos" >
  <crystal>
   <varray name="basis" >
    <v>      15.14622176       0.00000000       0.00000000 </v>
    <v>       7.57311088      13.11701281       0.00000000 </v>
    <v>       0.00000000       0.00000000      37.60000000 </v>
   </varray>
   <i name="volume">   7470.11175228 </i>
   <varray name="rec_basis" >
    <v>       0.06602307      -0.03811843       0.00000000 </v>
    <v>       0.00000000       0.07623687       0.00000000 </v>
    <v>       0.00000000       0.00000000       0.02659574 </v>
   </varray>
  </crystal>
  <varray name="positions" >
   <v>       0.44444444       0.44444444       0.06001064 </v>
   <v>       0.44444444       0.77777778       0.06001064 </v>
   <v>       0.44444444       0.11111111       0.06001064 </v>
   <v>       0.77777778       0.44444444       0.06001064 </v>
   <v>       0.77777778       0.77777778       0.06001064 </v>
   <v>       0.77777778       0.11111111       0.06001064 </v>
   <v>       0.11111111       0.44444444       0.06001064 </v>
   <v>       0.11111111       0.77777778       0.06001064 </v>
   <v>       0.11111111       0.11111111       0.06001064 </v>
   <v>       0.55555556       0.55555556       0.12088808 </v>
   <v>       0.55555556       0.88888889       0.12088808 </v>
   <v>       0.55555556       0.22222222       0.12088808 </v>
   <v>       0.88888889       0.55555556       0.12088808 </v>
   <v>       0.88888889       0.88888889       0.12088808 </v>
   <v>       0.88888889       0.22222222       0.12088808 </v>
   <v>       0.22222222       0.55555556       0.12088808 </v>
   <v>       0.22222222       0.88888889       0.12088808 </v>
   <v>       0.22222222       0.22222222       0.12088808 </v>
   <v>       0.66666667       0.66666667       0.17979892 </v>
   <v>       0.66666667       0.00000000       0.17979892 </v>
   <v>       0.66666667       0.33333333       0.17979892 </v>
   <v>       0.00000000       0.66666667       0.17979892 </v>
   <v>       0.00000000       0.00000000       0.17979892 </v>
   <v>       0.00000000       0.33333333       0.17979892 </v>
   <v>       0.33333333       0.66666667       0.17979892 </v>
   <v>       0.33333333       0.00000000       0.17979892 </v>
   <v>       0.33333333       0.33333333       0.17979892 </v>
   <v>       0.77777778       0.77777778       0.24043056 </v>
   <v>       0.77777778       0.11111111       0.24043056 </v>
   <v>       0.77777778       0.44444444       0.24043056 </v>
   <v>       0.11111111       0.77777778       0.24043056 </v>
   <v>       0.11111111       0.11111111       0.24043056 </v>
   <v>       0.11111111       0.44444444       0.24043056 </v>
   <v>       0.44444444       0.77777778       0.24043056 </v>
   <v>       0.44444444       0.11111111       0.24043056 </v>
   <v>       0.44444444       0.44444444       0.24043056 </v>
   <v>       0.88888889       0.88888889       0.30106220 </v>
   <v>       0.88888889       0.22222222       0.30106220 </v>
   <v>       0.88888889       0.55555556       0.30106220 </v>
   <v>       0.22222222       0.88888889       0.30106220 </v>
   <v>       0.22222222       0.22222222       0.30106220 </v>
   <v>       0.22222222       0.55555556       0.30106220 </v>
   <v>       0.55555556       0.88888889       0.30106220 </v>
   <v>       0.55555556       0.22222222       0.30106220 </v>
   <v>       0.55555556       0.55555556       0.30106220 </v>
   <v>       0.00000000       0.00000000       0.35997303 </v>
   <v>       0.00000000       0.33333333       0.35997303 </v>
   <v>       0.00000000       0.66666667       0.35997303 </v>
   <v>       0.33333333       0.00000000       0.35997303 </v>
   <v>       0.33333333       0.33333333       0.35997303 </v>
   <v>       0.33333333       0.66666667       0.35997303 </v>
   <v>       0.66666667       0.00000000       0.35997303 </v>
   <v>       0.66666667       0.33333333       0.35997303 </v>
   <v>       0.66666667       0.66666667       0.35997303 </v>
   <v>       0.11111111       0.11111111       0.42085048 </v>
   <v>       0.11111111       0.44444444       0.42085048 </v>
   <v>       0.11111111       0.77777778       0.42085048 </v>
   <v>       0.44444444       0.11111111       0.42085048 </v>
   <v>       0.44444444       0.44444444       0.42085048 </v>
   <v>       0.44444444       0.77777778       0.42085048 </v>
   <v>       0.77777778       0.11111111       0.42085048 </v>
   <v>       0.77777778       0.44444444       0.42085048 </v>
   <v>       0.77777778       0.77777778       0.42085048 </v>
   <v>       0.27777778       0.27777778       0.06001064 </v>
   <v>       0.27777778       0.61111111       0.06001064 </v>
   <v>       0.27777778       0.94444444       0.06001064 </v>
   <v>       0.61111111       0.27777778       0.06001064 </v>
   <v>       0.61111111       0.61111111       0.06001064 </v>
   <v>       0.61111111       0.94444444       0.06001064 </v>
   <v>       0.94444444       0.27777778       0.06001064 </v>
   <v>       0.94444444       0.61111111       0.06001064 </v>
   <v>       0.94444444       0.94444444       0.06001064 </v>
   <v>       0.38888889       0.38888889       0.12088808 </v>
   <v>       0.38888889       0.72222222       0.12088808 </v>
   <v>       0.38888889       0.05555556       0.12088808 </v>
   <v>       0.72222222       0.38888889       0.12088808 </v>
   <v>       0.72222222       0.72222222       0.12088808 </v>
   <v>       0.72222222       0.05555556       0.12088808 </v>
   <v>       0.05555556       0.38888889       0.12088808 </v>
   <v>       0.05555556       0.72222222       0.12088808 </v>
   <v>       0.05555556       0.05555556       0.12088808 </v>
   <v>       0.50000000       0.50000000       0.17979892 </v>
   <v>       0.50000000       0.83333333       0.17979892 </v>
   <v>       0.50000000       0.16666667       0.17979892 </v>
   <v>       0.83333333       0.50000000       0.17979892 </v>
   <v>       0.83333333       0.83333333       0.17979892 </v>
   <v>       0.83333333       0.16666667       0.17979892 </v>
   <v>       0.16666667       0.50000000       0.17979892 </v>
   <v>       0.16666667       0.83333333       0.17979892 </v>
   <v>       0.16666667       0.16666667       0.17979892 </v>
   <v>       0.61111111       0.61111111       0.24043056 </v>
   <v>       0.61111111       0.94444444       0.24043056 </v>
   <v>       0.61111111       0.27777778       0.24043056 </v>
   <v>       0.94444444       0.61111111       0.24043056 </v>
   <v>       0.94444444       0.94444444       0.24043056 </v>
   <v>       0.94444444       0.27777778       0.24043056 </v>
   <v>       0.27777778       0.61111111       0.24043056 </v>
   <v>       0.27777778       0.94444444       0.24043056 </v>
   <v>       0.27777778       0.27777778       0.24043056 </v>
   <v>       0.72222222       0.72222222       0.30106220 </v>
   <v>       0.72222222       0.05555556       0.30106220 </v>
   <v>       0.72222222       0.38888889       0.30106220 </v>
   <v>       0.05555556       0.72222222       0.30106220 </v>
   <v>       0.05555556       0.05555556       0.30106220 </v>
   <v>       0.05555556       0.38888889       0.30106220 </v>
   <v>       0.38888889       0.72222222       0.30106220 </v>
   <v>       0.38888889       0.05555556       0.30106220 </v>
   <v>       0.38888889       0.38888889       0.30106220 </v>
   <v>       0.83333333       0.83333333       0.35997303 </v>
   <v>       0.83333333       0.16666667       0.35997303 </v>
   <v>       0.83333333       0.50000000       0.35997303 </v>
   <v>       0.16666667       0.83333333       0.35997303 </v>
   <v>       0.16666667       0.16666667       0.35997303 </v>
   <v>       0.16666667       0.50000000       0.35997303 </v>
   <v>       0.50000000       0.83333333       0.35997303 </v>
   <v>       0.50000000       0.16666667       0.35997303 </v>
   <v>       0.50000000       0.50000000       0.35997303 </v>
   <v>       0.94444444       0.94444444       0.42085048 </v>
   <v>       0.94444444       0.27777778       0.42085048 </v>
   <v>       0.94444444       0.61111111       0.42085048 </v>
   <v>       0.27777778       0.94444444       0.42085048 </v>
   <v>       0.27777778       0.27777778       0.42085048 </v>
   <v>       0.27777778       0.61111111       0.42085048 </v>
   <v>       0.61111111       0.94444444       0.42085048 </v>
   <v>       0.61111111       0.27777778       0.42085048 </v>
   <v>       0.61111111       0.61111111       0.42085048 </v>
   <v>       0.27777778       0.44444444       0.06001064 </v>
   <v>       0.27777778       0.77777778       0.06001064 </v>
   <v>       0.27777778       0.11111111       0.06001064 </v>
   <v>       0.61111111       0.44444444       0.06001064 </v>
   <v>       0.61111111       0.77777778       0.06001064 </v>
   <v>       0.61111111       0.11111111       0.06001064 </v>
   <v>       0.94444444       0.44444444       0.06001064 </v>
   <v>       0.94444444       0.77777778       0.06001064 </v>
   <v>       0.94444444       0.11111111       0.06001064 </v>
   <v>       0.38888889       0.55555556       0.12088808 </v>
   <v>       0.38888889       0.88888889       0.12088808 </v>
   <v>       0.38888889       0.22222222       0.12088808 </v>
   <v>       0.72222222       0.55555556       0.12088808 </v>
   <v>       0.72222222       0.88888889       0.12088808 </v>
   <v>       0.72222222       0.22222222       0.12088808 </v>
   <v>       0.05555556       0.55555556       0.12088808 </v>
   <v>       0.05555556       0.88888889       0.12088808 </v>
   <v>       0.05555556       0.22222222       0.12088808 </v>
   <v>       0.50000000       0.66666667       0.17979892 </v>
   <v>       0.50000000       0.00000000       0.17979892 </v>
   <v>       0.50000000       0.33333333       0.17979892 </v>
   <v>       0.83333333       0.66666667       0.17979892 </v>
   <v>       0.83333333       0.00000000       0.17979892 </v>
   <v>       0.83333333       0.33333333       0.17979892 </v>
   <v>       0.16666667       0.66666667       0.17979892 </v>
   <v>       0.16666667       0.00000000       0.17979892 </v>
   <v>       0.16666667       0.33333333       0.17979892 </v>
   <v>       0.61111111       0.77777778       0.24043056 </v>
   <v>       0.61111111       0.11111111       0.24043056 </v>
   <v>       0.61111111       0.44444444       0.24043056 </v>
   <v>       0.94444444       0.77777778       0.24043056 </v>
   <v>       0.94444444       0.11111111       0.24043056 </v>
   <v>       0.94444444       0.44444444       0.24043056 </v>
   <v>       0.27777778       0.77777778       0.24043056 </v>
   <v>       0.27777778       0.11111111       0.24043056 </v>
   <v>       0.27777778       0.44444444       0.24043056 </v>
   <v>       0.72222222       0.88888889       0.30106220 </v>
   <v>       0.72222222       0.22222222       0.30106220 </v>
   <v>       0.72222222       0.55555556       0.30106220 </v>
   <v>       0.05555556       0.88888889       0.30106220 </v>
   <v>       0.05555556       0.22222222       0.30106220 </v>
   <v>       0.05555556       0.55555556       0.30106220 </v>
   <v>       0.38888889       0.88888889       0.30106220 </v>
   <v>       0.38888889       0.22222222       0.30106220 </v>
   <v>       0.38888889       0.55555556       0.30106220 </v>
   <v>       0.83333333       0.00000000       0.35997303 </v>
   <v>       0.83333333       0.33333333       0.35997303 </v>
   <v>       0.83333333       0.66666667       0.35997303 </v>
   <v>       0.16666667       0.00000000       0.35997303 </v>
   <v>       0.16666667       0.33333333       0.35997303 </v>
   <v>       0.16666667       0.66666667       0.35997303 </v>
   <v>       0.50000000       0.00000000       0.35997303 </v>
   <v>       0.50000000       0.33333333       0.35997303 </v>
   <v>       0.50000000       0.66666667       0.35997303 </v>
   <v>       0.94444444       0.11111111       0.42085048 </v>
   <v>       0.94444444       0.44444444       0.42085048 </v>
   <v>       0.94444444       0.77777778       0.42085048 </v>
   <v>       0.27777778       0.11111111       0.42085048 </v>
   <v>       0.27777778       0.44444444       0.42085048 </v>
   <v>       0.27777778       0.77777778       0.42085048 </v>
   <v>       0.61111111       0.11111111       0.42085048 </v>
   <v>       0.61111111       0.44444444       0.42085048 </v>
   <v>       0.61111111       0.77777778       0.42085048 </v>
   <v>       0.44444444       0.27777778       0.06001064 </v>
   <v>       0.44444444       0.61111111       0.06001064 </v>
   <v>       0.44444444       0.94444444       0.06001064 </v>
   <v>       0.77777778       0.27777778       0.06001064 </v>
   <v>       0.77777778       0.61111111       0.06001064 </v>
   <v>       0.77777778       0.94444444       0.06001064 </v>
   <v>       0.11111111       0.27777778       0.06001064 </v>
   <v>       0.11111111       0.61111111       0.06001064 </v>
   <v>       0.11111111       0.94444444       0.06001064 </v>
   <v>       0.55555556       0.38888889       0.12088808 </v>
   <v>       0.55555556       0.72222222       0.12088808 </v>
   <v>       0.55555556       0.05555556       0.12088808 </v>
   <v>       0.88888889       0.38888889       0.12088808 </v>
   <v>       0.88888889       0.72222222       0.12088808 </v>
   <v>       0.88888889       0.05555556       0.12088808 </v>
   <v>       0.22222222       0.38888889       0.12088808 </v>
   <v>       0.22222222       0.72222222       0.12088808 </v>
   <v>       0.22222222       0.05555556       0.12088808 </v>
   <v>       0.66666667       0.50000000       0.17979892 </v>
   <v>       0.66666667       0.83333333       0.17979892 </v>
   <v>       0.66666667       0.16666667       0.17979892 </v>
   <v>       0.00000000       0.50000000       0.17979892 </v>
   <v>       0.00000000       0.83333333       0.17979892 </v>
   <v>       0.00000000       0.16666667       0.17979892 </v>
   <v>       0.33333333       0.50000000       0.17979892 </v>
   <v>       0.33333333       0.83333333       0.17979892 </v>
   <v>       0.33333333       0.16666667       0.17979892 </v>
   <v>       0.77777778       0.61111111       0.24043056 </v>
   <v>       0.77777778       0.94444444       0.24043056 </v>
   <v>       0.77777778       0.27777778       0.24043056 </v>
   <v>       0.11111111       0.61111111       0.24043056 </v>
   <v>       0.11111111       0.94444444       0.24043056 </v>
   <v>       0.11111111       0.27777778       0.24043056 </v>
   <v>       0.44444444       0.61111111       0.24043056 </v>
   <v>       0.44444444       0.94444444       0.24043056 </v>
   <v>       0.44444444       0.27777778       0.24043056 </v>
   <v>       0.88888889       0.72222222       0.30106220 </v>
   <v>       0.88888889       0.05555556       0.30106220 </v>
   <v>       0.88888889       0.38888889       0.30106220 </v>
   <v>       0.22222222       0.72222222       0.30106220 </v>
   <v>       0.22222222       0.05555556       0.30106220 </v>
   <v>       0.22222222       0.38888889       0.30106220 </v>
   <v>       0.55555556       0.72222222       0.30106220 </v>
   <v>       0.55555556       0.05555556       0.30106220 </v>
   <v>       0.55555556       0.38888889       0.30106220 </v>
   <v>       0.00000000       0.83333333       0.35997303 </v>
   <v>       0.00000000       0.16666667       0.35997303 </v>
   <v>       0.00000000       0.50000000       0.35997303 </v>
   <v>       0.33333333       0.83333333       0.35997303 </v>
   <v>       0.33333333       0.16666667       0.35997303 </v>
   <v>       0.33333333       0.50000000       0.35997303 </v>
   <v>       0.66666667       0.83333333       0.35997303 </v>
   <v>       0.66666667       0.16666667       0.35997303 </v>
   <v>       0.66666667       0.50000000       0.35997303 </v>
   <v>       0.11111111       0.94444444       0.42085048 </v>
   <v>       0.11111111       0.27777778       0.42085048 </v>
   <v>       0.11111111       0.61111111       0.42085048 </v>
   <v>       0.44444444       0.94444444       0.42085048 </v>
   <v>       0.44444444       0.27777778       0.42085048 </v>
   <v>       0.44444444       0.61111111       0.42085048 </v>
   <v>       0.77777778       0.94444444       0.42085048 </v>
   <v>       0.77777778       0.27777778       0.42085048 </v>
   <v>       0.77777778       0.61111111       0.42085048 </v>
   <v>       0.00000000       0.00000000       0.45808452 </v>
   <v>       0.00000000       0.00000000       0.48999941 </v>
   <v>       0.00000000       0.12500000       0.45808452 </v>
   <v>       0.00000000       0.12500000       0.48999941 </v>
   <v>       0.00000000       0.25000000       0.45808452 </v>
   <v>       0.00000000       0.25000000       0.48999941 </v>
   <v>       0.00000000       0.37500000       0.45808452 </v>
   <v>       0.00000000       0.37500000       0.48999941 </v>
   <v>       0.00000000       0.50000000       0.45808452 </v>
   <v>       0.00000000       0.50000000       0.48999941 </v>
   <v>       0.00000000       0.62500000       0.45808452 </v>
   <v>       0.00000000       0.62500000       0.48999941 </v>
   <v>       0.00000000       0.75000000       0.45808452 </v>
   <v>       0.00000000       0.75000000       0.48999941 </v>
   <v>       0.00000000       0.87500000       0.45808452 </v>
   <v>       0.00000000       0.87500000       0.48999941 </v>
   <v>       0.12500000       0.00000000       0.45808452 </v>
   <v>       0.12500000       0.00000000       0.48999941 </v>
   <v>       0.12500000       0.12500000       0.45808452 </v>
   <v>       0.12500000       0.12500000       0.48999941 </v>
   <v>       0.12500000       0.25000000       0.45808452 </v>
   <v>       0.12500000       0.25000000       0.48999941 </v>
   <v>       0.12500000       0.37500000       0.45808452 </v>
   <v>       0.12500000       0.37500000       0.48999941 </v>
   <v>       0.12500000       0.50000000       0.45808452 </v>
   <v>       0.12500000       0.50000000       0.48999941 </v>
   <v>       0.12500000       0.62500000       0.45808452 </v>
   <v>       0.12500000       0.62500000       0.48999941 </v>
   <v>       0.12500000       0.75000000       0.45808452 </v>
   <v>       0.12500000       0.75000000       0.48999941 </v>
   <v>       0.12500000       0.87500000       0.45808452 </v>
   <v>       0.12500000       0.87500000       0.48999941 </v>
   <v>       0.25000000       0.00000000       0.45808452 </v>
   <v>       0.25000000       0.00000000       0.48999941 </v>
   <v>       0.25000000       0.12500000       0.45808452 </v>
   <v>       0.25000000       0.12500000       0.48999941 </v>
   <v>       0.25000000       0.25000000       0.45808452 </v>
   <v>       0.25000000       0.25000000       0.48999941 </v>
   <v>       0.25000000       0.37500000       0.45808452 </v>
   <v>       0.25000000       0.37500000       0.48999941 </v>
   <v>       0.25000000       0.50000000       0.45808452 </v>
   <v>       0.25000000       0.50000000       0.48999941 </v>
   <v>       0.25000000       0.62500000       0.45808452 </v>
   <v>       0.25000000       0.62500000       0.48999941 </v>
   <v>       0.25000000       0.75000000       0.45808452 </v>
   <v>       0.25000000       0.75000000       0.48999941 </v>
   <v>       0.25000000       0.87500000       0.45808452 </v>
   <v>       0.25000000       0.87500000       0.48999941 </v>
   <v>       0.37500000       0.00000000       0.45808452 </v>
   <v>       0.37500000       0.00000000       0.48999941 </v>
   <v>       0.37500000       0.12500000       0.45808452 </v>
   <v>       0.37500000       0.12500000       0.48999941 </v>
   <v>       0.37500000       0.25000000       0.45808452 </v>
   <v>       0.37500000       0.25000000       0.48999941 </v>
   <v>       0.37500000       0.37500000       0.45808452 </v>
   <v>       0.37500000       0.37500000       0.48999941 </v>
   <v>       0.37500000       0.50000000       0.45808452 </v>
   <v>       0.37500000       0.50000000       0.48999941 </v>
   <v>       0.37500000       0.62500000       0.45808452 </v>
   <v>       0.37500000       0.62500000       0.48999941 </v>
   <v>       0.37500000       0.75000000       0.45808452 </v>
   <v>       0.37500000       0.75000000       0.48999941 </v>
   <v>       0.37500000       0.87500000       0.45808452 </v>
   <v>       0.37500000       0.87500000       0.48999941 </v>
   <v>       0.50000000       0.00000000       0.45808452 </v>
   <v>       0.50000000       0.00000000       0.48999941 </v>
   <v>       0.50000000       0.12500000       0.45808452 </v>
   <v>       0.50000000       0.12500000       0.48999941 </v>
   <v>       0.50000000       0.25000000       0.45808452 </v>
   <v>       0.50000000       0.25000000       0.48999941 </v>
   <v>       0.50000000       0.37500000       0.45808452 </v>
   <v>       0.50000000       0.37500000       0.48999941 </v>
   <v>       0.50000000       0.50000000       0.45808452 </v>
   <v>       0.50000000       0.50000000       0.48999941 </v>
   <v>       0.50000000       0.62500000       0.45808452 </v>
   <v>       0.50000000       0.62500000       0.48999941 </v>
   <v>       0.50000000       0.75000000       0.45808452 </v>
   <v>       0.50000000       0.75000000       0.48999941 </v>
   <v>       0.50000000       0.87500000       0.45808452 </v>
   <v>       0.50000000       0.87500000       0.48999941 </v>
   <v>       0.62500000       0.00000000       0.45808452 </v>
   <v>       0.62500000       0.00000000       0.48999941 </v>
   <v>       0.62500000       0.12500000       0.45808452 </v>
   <v>       0.62500000       0.12500000       0.48999941 </v>
   <v>       0.62500000       0.25000000       0.45808452 </v>
   <v>       0.62500000       0.25000000       0.48999941 </v>
   <v>       0.62500000       0.37500000       0.45808452 </v>
   <v>       0.62500000       0.37500000       0.48999941 </v>
   <v>       0.62500000       0.50000000       0.45808452 </v>
   <v>       0.62500000       0.50000000       0.48999941 </v>
   <v>       0.62500000       0.62500000       0.45808452 </v>
   <v>       0.62500000       0.62500000       0.48999941 </v>
   <v>       0.62500000       0.75000000       0.45808452 </v>
   <v>       0.62500000       0.75000000       0.48999941 </v>
   <v>       0.62500000       0.87500000       0.45808452 </v>
   <v>       0.62500000       0.87500000       0.48999941 </v>
   <v>       0.75000000       0.00000000       0.45808452 </v>
   <v>       0.75000000       0.00000000       0.48999941 </v>
   <v>       0.75000000       0.12500000       0.45808452 </v>
   <v>       0.75000000       0.12500000       0.48999941 </v>
   <v>       0.75000000       0.25000000       0.45808452 </v>
   <v>       0.75000000       0.25000000       0.48999941 </v>
   <v>       0.75000000       0.37500000       0.45808452 </v>
   <v>       0.75000000       0.37500000       0.48999941 </v>
   <v>       0.75000000       0.50000000       0.45808452 </v>
   <v>       0.75000000       0.50000000       0.48999941 </v>
   <v>       0.75000000       0.62500000       0.45808452 </v>
   <v>       0.75000000       0.62500000       0.48999941 </v>
   <v>       0.75000000       0.75000000       0.45808452 </v>
   <v>       0.75000000       0.75000000       0.48999941 </v>
   <v>       0.75000000       0.87500000       0.45808452 </v>
   <v>       0.75000000       0.87500000       0.48999941 </v>
   <v>       0.87500000       0.00000000       0.45808452 </v>
   <v>       0.87500000       0.00000000       0.48999941 </v>
   <v>       0.87500000       0.12500000       0.45808452 </v>
   <v>       0.87500000       0.12500000       0.48999941 </v>
   <v>       0.87500000       0.25000000       0.45808452 </v>
   <v>       0.87500000       0.25000000       0.48999941 </v>
   <v>       0.87500000       0.37500000       0.45808452 </v>
   <v>       0.87500000       0.37500000       0.48999941 </v>
   <v>       0.87500000       0.50000000       0.45808452 </v>
   <v>       0.87500000       0.50000000       0.48999941 </v>
   <v>       0.87500000       0.62500000       0.45808452 </v>
   <v>       0.87500000       0.62500000       0.48999941 </v>
   <v>       0.87500000       0.75000000       0.45808452 </v>
   <v>       0.87500000       0.75000000       0.48999941 </v>
   <v>       0.87500000       0.87500000       0.45808452 </v>
   <v>       0.87500000       0.87500000       0.48999941 </v>
  </varray>
 </structure>
 <calculation>
  <scstep>
   <time name="dav">   31.30   31.46</time>
   <time name="total">   32.08   32.31</time>
   <energy>
    <i name="alphaZ">  12639.88831335 </i>
    <i name="ewald">3630337.48283520 </i>
    <i name="hartreedc">**************** </i>
    <i name="XCdc">   6378.14795952 </i>
    <i name="pawpsdc"> 284638.64213785 </i>
    <i name="pawaedc">-304097.01822600 </i>
    <i name="eentropy">     -0.16190027 </i>
    <i name="bandstr">  22791.85360182 </i>
    <i name="atom"> 326854.24091515 </i>
    <i name="e_fr_energy">  34495.82051734 </i>
    <i name="e_wo_entrp">  34495.98241761 </i>
    <i name="e_0_energy">  34495.90146747 </i>
   </energy>
  </scstep>
  <scstep>
   <time name="dav">   32.11   32.26</time>
   <time name="total">   32.12   32.26</time>
   <energy>
    <i name="e_fr_energy">   3480.19143085 </i>
    <i name="e_wo_entrp">   3480.32413302 </i>
    <i name="e_0_energy">   3480.25778193 </i>
   </energy>
  </scstep>
  <scstep>
   <time name="dav">   40.27   40.46</time>
   <time name="total">   40.27   40.47</time>
   <energy>
    <i name="e_fr_energy">   -808.92084215 </i>
    <i name="e_wo_entrp">   -808.47966615 </i>
    <i name="e_0_energy">   -808.70025415 </i>
   </energy>
  </scstep>
  <scstep>
   <time name="dav">   51.83   52.05</time>
   <time name="total">   51.84   52.05</time>
   <energy>
    <i name="e_fr_energy">  -1616.61894136 </i>
    <i name="e_wo_entrp">  -1615.56319711 </i>
    <i name="e_0_energy">  -1616.09106923 </i>
   </energy>
  </scstep>
  <scstep>
   <time name="dav">   51.99   52.19</time>
   <time name="total">   53.60   53.82</time>
   <energy>
    <i name="e_fr_energy">  -1734.80633307 </i>
    <i name="e_wo_entrp">  -1733.68782915 </i>
    <i name="e_0_energy">  -1734.24708111 </i>
   </energy>
  </scstep>
  <scstep>
   <time name="dav">   38.78   39.04</time>
   <time name="total">   41.14   41.42</time>
   <energy>
    <i name="e_fr_energy">  -2162.24058076 </i>
    <i name="e_wo_entrp">  -2161.72680650 </i>
    <i name="e_0_energy">  -2161.98369363 </i>
   </energy>
  </scstep>
  <scstep>
   <time name="dav">   43.06   43.25</time>
   <time name="total">   45.41   45.62</time>
   <energy>
    <i name="e_fr_energy"> -11052.39639515 </i>
    <i name="e_wo_entrp"> -11052.19116132 </i>
    <i name="e_0_energy"> -11052.29377823 </i>
   </energy>
  </scstep>
  <scstep>
   <time name="dav">   42.89   43.11</time>
   <time name="total">   45.26   45.50</time>
   <energy>
    <i name="e_fr_energy">  -4331.59853387 </i>
    <i name="e_wo_entrp">  -4331.34371840 </i>
    <i name="e_0_energy">  -4331.47112613 </i>
   </energy>
  </scstep>
  <scstep>
   <time name="dav">   48.55   48.76</time>
   <time name="total">   50.91   51.15</time>
   <energy>
    <i name="e_fr_energy">  -8145.74508509 </i>
    <i name="e_wo_entrp">  -8145.64299099 </i>
    <i name="e_0_energy">  -8145.69403804 </i>
   </energy>
  </scstep>
  <scstep>
   <time name="dav">   44.67   44.88</time>
   <time name="total">   47.03   47.28</time>
   <energy>
    <i name="e_fr_energy">  -8224.04507672 </i>
    <i name="e_wo_entrp">  -8223.86570707 </i>
    <i name="e_0_energy">  -8223.95539190 </i>
   </energy>
  </scstep>
  <scstep>
   <time name="dav">   52.98   53.18</time>
   <time name="total">   55.35   55.57</time>
   <energy>
    <i name="e_fr_energy"> -12277.13891409 </i>
    <i name="e_wo_entrp"> -12277.01430437 </i>
    <i name="e_0_energy"> -12277.07660923 </i>
   </energy>
  </scstep>
  <scstep>
   <time name="dav">   45.77   45.97</time>
   <time name="total">   48.16   48.39</time>
   <energy>
    <i name="e_fr_energy"> -14344.12285584 </i>
    <i name="e_wo_entrp"> -14343.95966336 </i>
    <i name="e_0_energy"> -14344.04125960 </i>
   </energy>
  </scstep>
  <scstep>
   <time name="dav">   43.48   43.67</time>
   <time name="total">   45.85   46.07</time>
   <energy>
    <i name="e_fr_energy">  -2412.42172542 </i>
    <i name="e_wo_entrp">  -2412.32525547 </i>
    <i name="e_0_energy">  -2412.37349044 </i>
   </energy>
  </scstep>
  <scstep>
   <time name="dav">   39.51   39.70</time>
   <time name="total">   41.93   42.14</time>
   <energy>
    <i name="e_fr_energy">  -5504.40523316 </i>
    <i name="e_wo_entrp">  -5504.30111192 </i>
    <i name="e_0_energy">  -5504.35317254 </i>
   </energy>
  </scstep>
  <scstep>
   <time name="dav">   36.28   36.45</time>
   <time name="total">   38.69   38.89</time>
   <energy>
    <i name="e_fr_energy">  -2673.90477938 </i>
    <i name="e_wo_entrp">  -2673.71057308 </i>
    <i name="e_0_energy">  -2673.80767623 </i>
   </energy>
  </scstep>
  <scstep>
   <time name="dav">   48.65   48.88</time>
   <time name="total">   51.10   51.36</time>
   <energy>
    <i name="e_fr_energy">  -2532.01964762 </i>
    <i name="e_wo_entrp">  -2531.71528620 </i>
    <i name="e_0_energy">  -2531.86746691 </i>
   </energy>
  </scstep>
  <scstep>
   <time name="dav">   38.71   38.88</time>
   <time name="total">   41.16   41.36</time>
   <energy>
    <i name="e_fr_energy">  -2284.38535756 </i>
    <i name="e_wo_entrp">  -2284.02856914 </i>
    <i name="e_0_energy">  -2284.20696335 </i>
   </energy>
  </scstep>
  <scstep>
   <time name="dav">   36.43   36.60</time>
   <time name="total">   38.90   39.10</time>
   <energy>
    <i name="e_fr_energy">  -2066.62074692 </i>
    <i name="e_wo_entrp">  -2066.16087394 </i>
    <i name="e_0_energy">  -2066.39081043 </i>
   </energy>
  </scstep>
  <scstep>
   <time name="dav">   40.11   40.29</time>
   <time name="total">   42.60   42.81</time>
   <energy>
    <i name="e_fr_energy">  -2140.08828756 </i>
    <i name="e_wo_entrp">  -2139.41480653 </i>
    <i name="e_0_energy">  -2139.75154704 </i>
   </energy>
  </scstep>
  <scstep>
   <time name="dav">   37.13   37.30</time>
   <time name="total">   39.62   39.81</time>
   <energy>
    <i name="e_fr_energy">  -1922.82549144 </i>
    <i name="e_wo_entrp">  -1922.45635668 </i>
    <i name="e_0_energy">  -1922.64092406 </i>
   </energy>
  </scstep>
  <scstep>
   <time name="dav">   36.73   36.91</time>
   <time name="total">   39.25   39.46</time>
   <energy>
    <i name="e_fr_energy">  -2016.49230758 </i>
    <i name="e_wo_entrp">  -2015.95378645 </i>
    <i name="e_0_energy">  -2016.22304702 </i>
   </energy>
  </scstep>
  <scstep>
   <time name="dav">   40.63   40.82</time>
   <time name="total">   43.16   43.38</time>
   <energy>
    <i name="e_fr_energy">  -1920.66087422 </i>
    <i name="e_wo_entrp">  -1919.86772240 </i>
    <i name="e_0_energy">  -1920.26429831 </i>
   </energy>
  </scstep>
  <scstep>
   <time name="dav">   36.38   36.56</time>
   <time name="total">   38.92   39.14</time>
   <energy>
    <i name="e_fr_energy">  -2021.66296571 </i>
    <i name="e_wo_entrp">  -2021.00855308 </i>
    <i name="e_0_energy">  -2021.33575939 </i>
   </energy>
  </scstep>
  <scstep>
   <time name="dav">   35.80   35.97</time>
   <time name="total">   38.37   38.57</time>
   <energy>
    <i name="e_fr_energy">  -1753.30345607 </i>
    <i name="e_wo_entrp">  -1752.90226513 </i>
    <i name="e_0_energy">  -1753.10286060 </i>
   </energy>
  </scstep>
  <scstep>
   <time name="dav">   36.16   36.32</time>
   <time name="total">   38.72   38.92</time>
   <energy>
    <i name="e_fr_energy">  -1755.77199448 </i>
    <i name="e_wo_entrp">  -1755.47039659 </i>
    <i name="e_0_energy">  -1755.62119554 </i>
   </energy>
  </scstep>
  <scstep>
   <time name="dav">   39.23   39.41</time>
   <time name="total">   41.83   42.03</time>
   <energy>
    <i name="e_fr_energy">  -1681.68452037 </i>
    <i name="e_wo_entrp">  -1681.05685241 </i>
    <i name="e_0_energy">  -1681.37068639 </i>
   </energy>
  </scstep>
  <scstep>
   <time name="dav">   33.92   34.08</time>
   <time name="total">   36.55   36.75</time>
   <energy>
    <i name="e_fr_energy">  -1626.03965982 </i>
    <i name="e_wo_entrp">  -1625.45778920 </i>
    <i name="e_0_energy">  -1625.74872451 </i>
   </energy>
  </scstep>
  <scstep>
   <time name="dav">   33.97   34.14</time>
   <time name="total">   36.61   36.81</time>
   <energy>
    <i name="e_fr_energy">  -1615.53118449 </i>
    <i name="e_wo_entrp">  -1614.95815712 </i>
    <i name="e_0_energy">  -1615.24467080 </i>
   </energy>
  </scstep>
  <scstep>
   <time name="dav">   36.12   36.27</time>
   <time name="total">   38.77   38.95</time>
   <energy>
    <i name="e_fr_energy">  -1603.25419948 </i>
    <i name="e_wo_entrp">  -1602.54005997 </i>
    <i name="e_0_energy">  -1602.89712973 </i>
   </energy>
  </scstep>
  <scstep>
   <time name="dav">   38.24   38.39</time>
   <time name="total">   40.92   41.11</time>
   <energy>
    <i name="e_fr_energy">  -1618.19454202 </i>
    <i name="e_wo_entrp">  -1617.47117577 </i>
    <i name="e_0_energy">  -1617.83285890 </i>
   </energy>
  </scstep>
  <scstep>
   <time name="dav">   36.28   36.47</time>
   <time name="total">   38.98   39.21</time>
   <energy>
    <i name="e_fr_energy">  -1610.65258784 </i>
    <i name="e_wo_entrp">  -1610.02919118 </i>
    <i name="e_0_energy">  -1610.34088951 </i>
   </energy>
  </scstep>
  <scstep>
   <time name="dav">   34.48   34.61</time>
   <time name="total">   37.21   37.39</time>
   <energy>
    <i name="e_fr_energy">  -1560.01253891 </i>
    <i name="e_wo_entrp">  -1559.31041000 </i>
    <i name="e_0_energy">  -1559.66147445 </i>
   </energy>
  </scstep>
  <scstep>
   <time name="dav">   38.05   38.30</time>
   <time name="total">   40.79   41.07</time>
   <energy>
    <i name="e_fr_energy">  -1543.43732208 </i>
    <i name="e_wo_entrp">  -1542.64114481 </i>
    <i name="e_0_energy">  -1543.03923344 </i>
   </energy>
  </scstep>
  <scstep>
   <time name="dav">   45.74   45.95</time>
   <time name="total">   48.51   48.74</time>
   <energy>
    <i name="e_fr_energy">  -1542.99032834 </i>
    <i name="e_wo_entrp">  -1542.13126304 </i>
    <i name="e_0_energy">  -1542.56079569 </i>
   </energy>
  </scstep>
  <scstep>
   <time name="dav">   45.39   45.58</time>
   <time name="total">   48.19   48.41</time>
   <energy>
    <i name="e_fr_energy">  -1530.95489650 </i>
    <i name="e_wo_entrp">  -1529.80271657 </i>
    <i name="e_0_energy">  -1530.37880654 </i>
   </energy>
  </scstep>
  <scstep>
   <time name="dav">   42.15   42.34</time>
   <time name="total">   44.97   45.20</time>
   <energy>
    <i name="e_fr_energy">  -1545.74605891 </i>
    <i name="e_wo_entrp">  -1545.16301538 </i>
    <i name="e_0_energy">  -1545.45453714 </i>
   </energy>
  </scstep>
  <scstep>
   <time name="dav">   46.20   46.40</time>
   <time name="total">   49.04   49.27</time>
   <energy>
[...]
   <v>       0.27777712       0.61111144       0.06881460 </v>
   <v>       0.27783029       0.94433943       0.06876350 </v>
   <v>       0.61111144       0.27777712       0.06881460 </v>
   <v>       0.61111144       0.61111144       0.06881460 </v>
   <v>       0.61109978       0.94445011       0.06874225 </v>
   <v>       0.94433943       0.27783029       0.06876350 </v>
   <v>       0.94445011       0.61109978       0.06874225 </v>
   <v>       0.94445011       0.94445011       0.06874225 </v>
   <v>       0.38889459       0.38889459       0.12290992 </v>
   <v>       0.38889459       0.72221083       0.12290992 </v>
   <v>       0.38890494       0.05554753       0.12292836 </v>
   <v>       0.72221083       0.38889459       0.12290992 </v>
   <v>       0.72217670       0.72217670       0.12287625 </v>
   <v>       0.72217670       0.05564660       0.12287625 </v>
   <v>       0.05554753       0.38890494       0.12292836 </v>
   <v>       0.05564660       0.72217670       0.12287625 </v>
   <v>       0.05554753       0.05554753       0.12292836 </v>
   <v>       0.50000000       0.50000000       0.18068638 </v>
   <v>       0.49997362       0.83317740       0.18066637 </v>
   <v>       0.49997362       0.16684898       0.18066637 </v>
   <v>       0.83317740       0.49997362       0.18066637 </v>
   <v>       0.83333333       0.83333333       0.18060860 </v>
   <v>       0.83317740       0.16684898       0.18066637 </v>
   <v>       0.16684898       0.49997362       0.18066637 </v>
   <v>       0.16684898       0.83317740       0.18066637 </v>
   <v>       0.16666667       0.16666667       0.18059100 </v>
   <v>       0.61107048       0.61107048       0.23984621 </v>
   <v>       0.61100389       0.94449805       0.23998727 </v>
   <v>       0.61107048       0.27785905       0.23984621 </v>
   <v>       0.94449805       0.61100389       0.23998727 </v>
   <v>       0.94449805       0.94449805       0.23998727 </v>
   <v>       0.94458800       0.27770600       0.23944613 </v>
   <v>       0.27785905       0.61107048       0.23984621 </v>
   <v>       0.27770600       0.94458800       0.23944613 </v>
   <v>       0.27770600       0.27770600       0.23944613 </v>
   <v>       0.72285370       0.72285370       0.29385477 </v>
   <v>       0.72285370       0.05429261       0.29385477 </v>
   <v>       0.72359518       0.38820241       0.29270029 </v>
   <v>       0.05429261       0.72285370       0.29385477 </v>
   <v>       0.05527520       0.05527520       0.29495393 </v>
   <v>       0.05527520       0.38944961       0.29495393 </v>
   <v>       0.38820241       0.72359518       0.29270029 </v>
   <v>       0.38944961       0.05527520       0.29495393 </v>
   <v>       0.38820241       0.38820241       0.29270029 </v>
   <v>       0.83333333       0.83333333       0.34608237 </v>
   <v>       0.83305150       0.16694579       0.34623095 </v>
   <v>       0.83305150       0.50000271       0.34623095 </v>
   <v>       0.16694579       0.83305150       0.34623095 </v>
   <v>       0.16666667       0.16666667       0.34567044 </v>
   <v>       0.16694579       0.50000271       0.34623095 </v>
   <v>       0.50000271       0.83305150       0.34623095 </v>
   <v>       0.50000271       0.16694579       0.34623095 </v>
   <v>       0.50000000       0.50000000       0.34730101 </v>
   <v>       0.94371885       0.94371885       0.39851030 </v>
   <v>       0.94321660       0.27839170       0.39814356 </v>
   <v>       0.94371885       0.61256231       0.39851030 </v>
   <v>       0.27839170       0.94321660       0.39814356 </v>
   <v>       0.27839170       0.27839170       0.39814356 </v>
   <v>       0.28894999       0.60552500       0.39299955 </v>
   <v>       0.61256231       0.94371885       0.39851030 </v>
   <v>       0.60552500       0.28894999       0.39299955 </v>
   <v>       0.60552500       0.60552500       0.39299955 </v>
   <v>       0.27783029       0.44433943       0.06876350 </v>
   <v>       0.27783029       0.77783029       0.06876350 </v>
   <v>       0.27777712       0.11111144       0.06881460 </v>
   <v>       0.61109978       0.44445011       0.06874225 </v>
   <v>       0.61111144       0.77777712       0.06881460 </v>
   <v>       0.61111144       0.11111144       0.06881460 </v>
   <v>       0.94445011       0.44445011       0.06874225 </v>
   <v>       0.94433943       0.77783029       0.06876350 </v>
   <v>       0.94445011       0.11109978       0.06874225 </v>
   <v>       0.38890494       0.55554753       0.12292836 </v>
   <v>       0.38889459       0.88889459       0.12290992 </v>
   <v>       0.38889459       0.22221083       0.12290992 </v>
   <v>       0.72217670       0.55564660       0.12287625 </v>
   <v>       0.72221083       0.88889459       0.12290992 </v>
   <v>       0.72217670       0.22217670       0.12287625 </v>
   <v>       0.05554753       0.55554753       0.12292836 </v>
   <v>       0.05554753       0.88890494       0.12292836 </v>
   <v>       0.05564660       0.22217670       0.12287625 </v>
   <v>       0.49997362       0.66684898       0.18066637 </v>
   <v>       0.50000000       0.00000000       0.18068638 </v>
   <v>       0.49997362       0.33317740       0.18066637 </v>
   <v>       0.83317740       0.66684898       0.18066637 </v>
   <v>       0.83317740      -0.00002638       0.18066637 </v>
   <v>       0.83333333       0.33333333       0.18060860 </v>
   <v>       0.16666667       0.66666667       0.18059100 </v>
   <v>       0.16684898      -0.00002638       0.18066637 </v>
   <v>       0.16684898       0.33317740       0.18066637 </v>
   <v>       0.61107048       0.77785905       0.23984621 </v>
   <v>       0.61107048       0.11107048       0.23984621 </v>
   <v>       0.61100389       0.44449805       0.23998727 </v>
   <v>       0.94458800       0.77770600       0.23944613 </v>
   <v>       0.94449805       0.11100389       0.23998727 </v>
   <v>       0.94449805       0.44449805       0.23998727 </v>
   <v>       0.27770600       0.77770600       0.23944613 </v>
   <v>       0.27785905       0.11107048       0.23984621 </v>
   <v>       0.27770600       0.44458800       0.23944613 </v>
   <v>       0.72359518       0.88820241       0.29270029 </v>
   <v>       0.72285370       0.22285370       0.29385477 </v>
   <v>       0.72285370       0.55429261       0.29385477 </v>
   <v>       0.05527520       0.88944961       0.29495393 </v>
   <v>       0.05429261       0.22285370       0.29385477 </v>
   <v>       0.05527520       0.55527520       0.29495393 </v>
   <v>       0.38820241       0.88820241       0.29270029 </v>
   <v>       0.38820241       0.22359518       0.29270029 </v>
   <v>       0.38944961       0.55527520       0.29495393 </v>
   <v>       0.83305150       0.00000271       0.34623095 </v>
   <v>       0.83333333       0.33333333       0.34608237 </v>
   <v>       0.83305150       0.66694579       0.34623095 </v>
   <v>       0.16694579       0.00000271       0.34623095 </v>
   <v>       0.16694579       0.33305150       0.34623095 </v>
   <v>       0.16666667       0.66666667       0.34567044 </v>
   <v>       0.50000000       0.00000000       0.34730101 </v>
   <v>       0.50000271       0.33305150       0.34623095 </v>
   <v>       0.50000271       0.66694579       0.34623095 </v>
   <v>       0.94371885       0.11256231       0.39851030 </v>
   <v>       0.94371885       0.44371885       0.39851030 </v>
   <v>       0.94321660       0.77839170       0.39814356 </v>
   <v>       0.28894999       0.10552500       0.39299955 </v>
   <v>       0.27839170       0.44321660       0.39814356 </v>
   <v>       0.27839170       0.77839170       0.39814356 </v>
   <v>       0.60552500       0.10552500       0.39299955 </v>
   <v>       0.61256231       0.44371885       0.39851030 </v>
   <v>       0.60552500       0.78894999       0.39299955 </v>
   <v>       0.44433943       0.27783029       0.06876350 </v>
   <v>       0.44445011       0.61109978       0.06874225 </v>
   <v>       0.44445011       0.94445011       0.06874225 </v>
   <v>       0.77783029       0.27783029       0.06876350 </v>
   <v>       0.77777712       0.61111144       0.06881460 </v>
   <v>       0.77783029       0.94433943       0.06876350 </v>
   <v>       0.11111144       0.27777712       0.06881460 </v>
   <v>       0.11111144       0.61111144       0.06881460 </v>
   <v>       0.11109978       0.94445011       0.06874225 </v>
   <v>       0.55554753       0.38890494       0.12292836 </v>
   <v>       0.55564660       0.72217670       0.12287625 </v>
   <v>       0.55554753       0.05554753       0.12292836 </v>
   <v>       0.88889459       0.38889459       0.12290992 </v>
   <v>       0.88889459       0.72221083       0.12290992 </v>
   <v>       0.88890494       0.05554753       0.12292836 </v>
   <v>       0.22221083       0.38889459       0.12290992 </v>
   <v>       0.22217670       0.72217670       0.12287625 </v>
   <v>       0.22217670       0.05564660       0.12287625 </v>
   <v>       0.66684898       0.49997362       0.18066637 </v>
   <v>       0.66684898       0.83317740       0.18066637 </v>
   <v>       0.66666667       0.16666667       0.18059100 </v>
   <v>      -0.00000000       0.50000000       0.18068638 </v>
   <v>      -0.00002638       0.83317740       0.18066637 </v>
   <v>      -0.00002638       0.16684898       0.18066637 </v>
   <v>       0.33317740       0.49997362       0.18066637 </v>
   <v>       0.33333333       0.83333333       0.18060860 </v>
   <v>       0.33317740       0.16684898       0.18066637 </v>
   <v>       0.77785905       0.61107048       0.23984621 </v>
   <v>       0.77770600       0.94458800       0.23944613 </v>
   <v>       0.77770600       0.27770600       0.23944613 </v>
   <v>       0.11107048       0.61107048       0.23984621 </v>
   <v>       0.11100389       0.94449805       0.23998727 </v>
   <v>       0.11107048       0.27785905       0.23984621 </v>
   <v>       0.44449805       0.61100389       0.23998727 </v>
   <v>       0.44449805       0.94449805       0.23998727 </v>
   <v>       0.44458800       0.27770600       0.23944613 </v>
   <v>       0.88820241       0.72359518       0.29270029 </v>
   <v>       0.88944961       0.05527520       0.29495393 </v>
   <v>       0.88820241       0.38820241       0.29270029 </v>
   <v>       0.22285370       0.72285370       0.29385477 </v>
   <v>       0.22285370       0.05429261       0.29385477 </v>
   <v>       0.22359518       0.38820241       0.29270029 </v>
   <v>       0.55429261       0.72285370       0.29385477 </v>
   <v>       0.55527520       0.05527520       0.29495393 </v>
   <v>       0.55527520       0.38944961       0.29495393 </v>
   <v>       0.00000271       0.83305150       0.34623095 </v>
   <v>       0.00000271       0.16694579       0.34623095 </v>
   <v>      -0.00000000       0.50000000       0.34730101 </v>
   <v>       0.33333333       0.83333333       0.34608237 </v>
   <v>       0.33305150       0.16694579       0.34623095 </v>
   <v>       0.33305150       0.50000271       0.34623095 </v>
   <v>       0.66694579       0.83305150       0.34623095 </v>
   <v>       0.66666667       0.16666667       0.34567044 </v>
   <v>       0.66694579       0.50000271       0.34623095 </v>
   <v>       0.11256231       0.94371885       0.39851030 </v>
   <v>       0.10552500       0.28894999       0.39299955 </v>
   <v>       0.10552500       0.60552500       0.39299955 </v>
   <v>       0.44371885       0.94371885       0.39851030 </v>
   <v>       0.44321660       0.27839170       0.39814356 </v>
   <v>       0.44371885       0.61256231       0.39851030 </v>
   <v>       0.77839170       0.94321660       0.39814356 </v>
   <v>       0.77839170       0.27839170       0.39814356 </v>
   <v>       0.78894999       0.60552500       0.39299955 </v>
   <v>      -0.00000000       0.00000000       0.46423608 </v>
   <v>      -0.00000000       0.00000000       0.49651964 </v>
   <v>       0.00498686       0.12697754       0.46636293 </v>
   <v>       0.00379350       0.12612527       0.49875915 </v>
   <v>       0.02574950       0.23712525       0.46612634 </v>
   <v>       0.02516682       0.23741659       0.50035335 </v>
   <v>       0.00498686       0.36803560       0.46636293 </v>
   <v>       0.00379350       0.37008123       0.49875915 </v>
   <v>      -0.00000000       0.50000000       0.46423608 </v>
   <v>      -0.00000000       0.50000000       0.49651964 </v>
   <v>       0.00498686       0.62697754       0.46636293 </v>
   <v>       0.00379350       0.62612527       0.49875915 </v>
   <v>       0.02574950       0.73712525       0.46612634 </v>
   <v>       0.02516682       0.73741659       0.50035335 </v>
   <v>       0.00498686       0.86803560       0.46636293 </v>
   <v>       0.00379350       0.87008123       0.49875915 </v>
   <v>       0.12697754       0.00498686       0.46636293 </v>
   <v>       0.12612527       0.00379350       0.49875915 </v>
   <v>       0.12174971       0.12174971       0.43502994 </v>
   <v>       0.13344020       0.13344020       0.54403145 </v>
   <v>       0.12174971       0.25650059       0.43502994 </v>
   <v>       0.13344020       0.23311959       0.54403145 </v>
   <v>       0.12697754       0.36803560       0.46636293 </v>
   <v>       0.12612527       0.37008123       0.49875915 </v>
   <v>       0.12697754       0.50498686       0.46636293 </v>
   <v>       0.12612527       0.50379350       0.49875915 </v>
   <v>       0.12174971       0.62174971       0.43502994 </v>
   <v>       0.13344020       0.63344020       0.54403145 </v>
   <v>       0.12174971       0.75650059       0.43502994 </v>
   <v>       0.13344020       0.73311959       0.54403145 </v>
   <v>       0.12697754       0.86803560       0.46636293 </v>
   <v>       0.12612527       0.87008123       0.49875915 </v>
   <v>       0.23712525       0.02574950       0.46612634 </v>
   <v>       0.23741659       0.02516682       0.50035335 </v>
   <v>       0.25650059       0.12174971       0.43502994 </v>
   <v>       0.23311959       0.13344020       0.54403145 </v>
   <v>       0.23712525       0.23712525       0.46612634 </v>
   <v>       0.23741659       0.23741659       0.50035335 </v>
   <v>       0.24877590       0.37561205       0.46543159 </v>
   <v>       0.24962524       0.37518738       0.49776913 </v>
   <v>       0.23712525       0.52574950       0.46612634 </v>
   <v>       0.23741659       0.52516682       0.50035335 </v>
   <v>       0.25650059       0.62174971       0.43502994 </v>
   <v>       0.23311959       0.63344020       0.54403145 </v>
   <v>       0.23712525       0.73712525       0.46612634 </v>
   <v>       0.23741659       0.73741659       0.50035335 </v>
   <v>       0.24877590       0.87561205       0.46543159 </v>
   <v>       0.24962524       0.87518738       0.49776913 </v>
   <v>       0.36803560       0.00498686       0.46636293 </v>
   <v>       0.37008123       0.00379350       0.49875915 </v>
   <v>       0.36803560       0.12697754       0.46636293 </v>
   <v>       0.37008123       0.12612527       0.49875915 </v>
   <v>       0.37561205       0.24877590       0.46543159 </v>
   <v>       0.37518738       0.24962524       0.49776913 </v>
   <v>       0.37561205       0.37561205       0.46543159 </v>
   <v>       0.37518738       0.37518738       0.49776913 </v>
   <v>       0.36803560       0.50498686       0.46636293 </v>
   <v>       0.37008123       0.50379350       0.49875915 </v>
   <v>       0.36803560       0.62697754       0.46636293 </v>
   <v>       0.37008123       0.62612527       0.49875915 </v>
   <v>       0.37561205       0.74877590       0.46543159 </v>
   <v>       0.37518738       0.74962524       0.49776913 </v>
   <v>       0.37561205       0.87561205       0.46543159 </v>
   <v>       0.37518738       0.87518738       0.49776913 </v>
   <v>       0.50000000       0.00000000       0.46423608 </v>
   <v>       0.50000000       0.00000000       0.49651964 </v>
   <v>       0.50498686       0.12697754       0.46636293 </v>
   <v>       0.50379350       0.12612527       0.49875915 </v>
   <v>       0.52574950       0.23712525       0.46612634 </v>
   <v>       0.52516682       0.23741659       0.50035335 </v>
   <v>       0.50498686       0.36803560       0.46636293 </v>
   <v>       0.50379350       0.37008123       0.49875915 </v>
   <v>       0.50000000       0.50000000       0.46423608 </v>
   <v>       0.50000000       0.50000000       0.49651964 </v>
   <v>       0.50498686       0.62697754       0.46636293 </v>
   <v>       0.50379350       0.62612527       0.49875915 </v>
   <v>       0.52574950       0.73712525       0.46612634 </v>
   <v>       0.52516682       0.73741659       0.50035335 </v>
   <v>       0.50498686       0.86803560       0.46636293 </v>
   <v>       0.50379350       0.87008123       0.49875915 </v>
   <v>       0.62697754       0.00498686       0.46636293 </v>
   <v>       0.62612527       0.00379350       0.49875915 </v>
   <v>       0.62174971       0.12174971       0.43502994 </v>
   <v>       0.63344020       0.13344020       0.54403145 </v>
   <v>       0.62174971       0.25650059       0.43502994 </v>
   <v>       0.63344020       0.23311959       0.54403145 </v>
   <v>       0.62697754       0.36803560       0.46636293 </v>
   <v>       0.62612527       0.37008123       0.49875915 </v>
   <v>       0.62697754       0.50498686       0.46636293 </v>
   <v>       0.62612527       0.50379350       0.49875915 </v>
   <v>       0.62174971       0.62174971       0.43502994 </v>
   <v>       0.63344020       0.63344020       0.54403145 </v>
   <v>       0.62174971       0.75650059       0.43502994 </v>
   <v>       0.63344020       0.73311959       0.54403145 </v>
   <v>       0.62697754       0.86803560       0.46636293 </v>
   <v>       0.62612527       0.87008123       0.49875915 </v>
   <v>       0.73712525       0.02574950       0.46612634 </v>
   <v>       0.73741659       0.02516682       0.50035335 </v>
   <v>       0.75650059       0.12174971       0.43502994 </v>
   <v>       0.73311959       0.13344020       0.54403145 </v>
   <v>       0.73712525       0.23712525       0.46612634 </v>
   <v>       0.73741659       0.23741659       0.50035335 </v>
   <v>       0.74877590       0.37561205       0.46543159 </v>
   <v>       0.74962524       0.37518738       0.49776913 </v>
   <v>       0.73712525       0.52574950       0.46612634 </v>
   <v>       0.73741659       0.52516682       0.50035335 </v>
   <v>       0.75650059       0.62174971       0.43502994 </v>
   <v>       0.73311959       0.63344020       0.54403145 </v>
   <v>       0.73712525       0.73712525       0.46612634 </v>
   <v>       0.73741659       0.73741659       0.50035335 </v>
   <v>       0.74877590       0.87561205       0.46543159 </v>
   <v>       0.74962524       0.87518738       0.49776913 </v>
   <v>       0.86803560       0.00498686       0.46636293 </v>
   <v>       0.87008123       0.00379350       0.49875915 </v>
   <v>       0.86803560       0.12697754       0.46636293 </v>
   <v>       0.87008123       0.12612527       0.49875915 </v>
   <v>       0.87561205       0.24877590       0.46543159 </v>
   <v>       0.87518738       0.24962524       0.49776913 </v>
   <v>       0.87561205       0.37561205       0.46543159 </v>
   <v>       0.87518738       0.37518738       0.49776913 </v>
   <v>       0.86803560       0.50498686       0.46636293 </v>
   <v>       0.87008123       0.50379350       0.49875915 </v>
   <v>       0.86803560       0.62697754       0.46636293 </v>
   <v>       0.87008123       0.62612527       0.49875915 </v>
   <v>       0.87561205       0.74877590       0.46543159 </v>
   <v>       0.87518738       0.74962524       0.49776913 </v>
   <v>       0.87561205       0.87561205       0.46543159 </v>
   <v>       0.87518738       0.87518738       0.49776913 </v>
  </varray>
 </structure>
</modeling>
