LAMMPS (24 Mar 2022)
OMP_NUM_THREADS environment is not set. Defaulting to 1 thread. (src/comm.cpp:98)
  using 1 OpenMP thread(s) per MPI task
Reading data file ...
  triclinic box = (0 0 0) to (10.5415 9.1292069 10.5415) with tilt (-5.27075 0 0)
  1 by 1 by 1 MPI processor grid
  reading atoms ...
  125 atoms
  read_data CPU = 0.000 seconds
WARNING: Using 'neigh_modify every 1 delay 0 check yes' setting during minimization (src/min.cpp:187)
Neighbor list info ...
  update every 1 steps, delay 0 steps, check yes
  max neighbors/atom: 2000, page size: 100000
  master list distance cutoff = 8.28721
  ghost atom cutoff = 8.28721
  binsize = 4.143605, bins = 4 3 3
  1 neighbor lists, perpetual/occasional/extra = 1 0 0
  (1) pair eam/alloy, perpetual
      attributes: half, newton on
      pair build: half/bin/newton/tri
      stencil: half/bin/3d/tri
      bin: standard
Setting up cg style minimization ...
  Unit style    : metal
  Current step  : 0
Per MPI rank memory allocation (min/avg/max) = 4.544 | 4.544 | 4.544 Mbytes
   Step          Temp          E_pair         E_mol          TotEng         Press     
         0   0             -391.47473      0             -391.47473      730286.51    
Loop time of 2.259e-06 on 1 procs for 0 steps with 125 atoms

132.8% CPU use with 1 MPI tasks x 1 OpenMP threads

Minimization stats:
  Stopping criterion = max iterations
  Energy initial, next-to-last, final = 
     -391.474727306659                  0  -391.474727306659
  Force two-norm initial, final = 1.5973371e-05 1.5973371e-05
  Force max component initial, final = 1.9946222e-06 1.9946222e-06
  Final line search alpha, max atom move = 0 0
  Iterations, force evaluations = 0 0

MPI task timing breakdown:
Section |  min time  |  avg time  |  max time  |%varavg| %total
---------------------------------------------------------------
Pair    | 0          | 0          | 0          |   0.0 |  0.00
Neigh   | 0          | 0          | 0          |   0.0 |  0.00
Comm    | 0          | 0          | 0          |   0.0 |  0.00
Output  | 0          | 0          | 0          |   0.0 |  0.00
Modify  | 0          | 0          | 0          |   0.0 |  0.00
Other   |            | 2.259e-06  |            |       |100.00

Nlocal:            125 ave         125 max         125 min
Histogram: 1 0 0 0 0 0 0 0 0 0
Nghost:           2227 ave        2227 max        2227 min
Histogram: 1 0 0 0 0 0 0 0 0 0
Neighs:          17250 ave       17250 max       17250 min
Histogram: 1 0 0 0 0 0 0 0 0 0

Total # of neighbors = 17250
Ave neighs/atom = 138
Neighbor list builds = 0
Dangerous builds = 0
Setting up Verlet run ...
  Unit style    : metal
  Current step  : 0
  Time step     : 0.01
Per MPI rank memory allocation (min/avg/max) = 4.424 | 4.424 | 4.424 Mbytes
   Step          Temp          E_pair         E_mol          TotEng         Press     
         0   300           -391.47473      0             -386.66625      735349.28    
       100   2335.0135     -424.55382      0             -387.12762      930077.37    
       200   2457.9323     -426.56746      0             -387.17109      931961.11    
       300   2465.3036     -426.8132       0             -387.29867      926893.45    
       400   2371.9081     -425.11044      0             -387.09289      925735.33    
       500   2572.2156     -428.55314      0             -387.32501      937477.59    
       600   2649.1401     -429.71854      0             -387.25744      935876.23    
       700   2516.1126     -427.66482      0             -387.33591      930817.11    
       800   2422.1628     -426.00495      0             -387.1819       930688.35    
       900   2663.3411     -430.27927      0             -387.59055      943794.68    
      1000   2506.2124     -427.44723      0             -387.27701      935043.28    
      1100   2327.0618     -424.43662      0             -387.13788      939299.19    
      1200   2461.1724     -426.67313      0             -387.22482      928751.27    
      1300   2567.2926     -428.69525      0             -387.54602      930729.54    
      1400   2676.3607     -430.40261      0             -387.50521      935115.58    
      1500   2279.8233     -423.60468      0             -387.06308      928411.58    
      1600   2328.2174     -424.42418      0             -387.10692      928565.17    
      1700   2699.9549     -430.74853      0             -387.47295      935222.21    
      1800   2825.2961     -432.71065      0             -387.42608      939815.7     
      1900   2682.3182     -430.53564      0             -387.54275      928283.02    
      2000   2449.3031     -426.48071      0             -387.22265      927011.36    
      2100   2468.7564     -426.91366      0             -387.3438       926378.7     
      2200   2313.8878     -424.0938       0             -387.00621      924213.12    
      2300   2667.2878     -430.12974      0             -387.37777      924677.39    
      2400   2704.3101     -431.00365      0             -387.65827      925777.28    
      2500   2314.7233     -424.18392      0             -387.08294      914908.56    
      2600   2355.8908     -424.74272      0             -386.98189      926921.25    
      2700   2481.1924     -426.99972      0             -387.23053      927653.43    
      2800   2493.0851     -427.2962       0             -387.33639      926476.78    
      2900   2332.2258     -424.47429      0             -387.09278      920687.29    
      3000   2468.8477     -427.15757      0             -387.58624      937074.87    
      3100   2672.2991     -430.26873      0             -387.43643      940478.06    
      3200   2482.9806     -426.99438      0             -387.19653      926738.54    
      3300   2557.0956     -428.32899      0             -387.3432       930314.5     
      3400   2511.3082     -427.5945       0             -387.3426       932116.28    
      3500   2592.2789     -428.87794      0             -387.32823      936043.76    
      3600   2508.6124     -427.56777      0             -387.35909      928244.83    
      3700   2345.7746     -424.79524      0             -387.19656      933574.47    
      3800   2411.1575     -425.60073      0             -386.95408      939759.21    
      3900   2718.474      -431.01864      0             -387.44624      935854.32    
      4000   2471.7658     -426.77675      0             -387.15865      931086.16    
      4100   2348.7387     -424.7119       0             -387.06571      924943.66    
      4200   2636.8634     -429.86127      0             -387.59695      931783.32    
      4300   2403.2522     -425.74568      0             -387.22573      934015.59    
      4400   2413.0482     -426.06234      0             -387.38538      923983.37    
      4500   2460.532      -426.57164      0             -387.1336       936883.94    
      4600   2414.7646     -425.8126       0             -387.10813      917265.54    
      4700   2330.6758     -424.63308      0             -387.27641      920260.88    
      4800   2652.9773     -429.72081      0             -387.1982       939462.42    
      4900   2242.4072     -422.98458      0             -387.0427       929068.36    
      5000   2356.609      -425.07086      0             -387.29852      915000.37    
      5100   2393.1787     -425.45175      0             -387.09326      937746.23    
      5200   2411.3945     -425.62993      0             -386.97948      928400.27    
      5300   2456.7657     -426.73548      0             -387.35781      932560.5     
      5400   2427.7356     -426.11524      0             -387.20286      936066.16    
      5500   2335.2239     -424.4892       0             -387.05963      936828.27    
      5600   2593.0516     -428.99744      0             -387.43534      930773.14    
      5700   2647.2671     -429.89802      0             -387.46694      939862.75    
      5800   2547.8197     -428.14381      0             -387.3067       930650.64    
      5900   2587.3636     -428.63348      0             -387.16255      936844.61    
      6000   2312.0435     -423.93616      0             -386.87813      917119.54    
      6100   2475.4013     -426.9316       0             -387.25523      934308.22    
      6200   2371.1971     -425.23874      0             -387.23258      937522.17    
      6300   2658.9831     -429.84434      0             -387.22547      945270.16    
      6400   2436.1744     -426.29437      0             -387.24673      928231.04    
      6500   2441.92       -426.37513      0             -387.2354       933914.91    
      6600   2352.2084     -424.77114      0             -387.06934      925911.97    
      6700   2263.2082     -423.42832      0             -387.15304      924619.78    
      6800   2406.2299     -425.87334      0             -387.30567      922664.91    
      6900   2444.1096     -426.28549      0             -387.11067      927468       
      7000   2557.5311     -428.38718      0             -387.39441      930885.7     
      7100   2467.7381     -426.93645      0             -387.38291      932372.7     
      7200   2708.16       -430.88431      0             -387.47722      933430.6     
      7300   2388.9755     -425.28354      0             -386.99243      935113.52    
      7400   2480.3548     -426.97011      0             -387.21435      934935.62    
      7500   2728.2925     -431.35796      0             -387.62819      936920.55    
      7600   2293.6944     -423.93186      0             -387.16793      930657.11    
      7700   2567.9604     -428.61017      0             -387.45024      937626.79    
      7800   2555.8126     -428.29751      0             -387.33229      932958.53    
      7900   2348.1517     -424.5407       0             -386.90392      930208.09    
      8000   2514.8692     -427.52537      0             -387.2164       933560.28    
      8100   2451.7288     -426.61578      0             -387.31883      949246.96    
      8200   2286.6908     -423.7943       0             -387.14263      928678.31    
      8300   2404.7493     -425.83841      0             -387.29447      931931.57    
      8400   2649.0827     -429.79047      0             -387.33029      939044.42    
      8500   2510.2866     -427.39513      0             -387.15961      929090.42    
      8600   2395.7427     -425.51562      0             -387.11604      935323.13    
      8700   2622.561      -429.45911      0             -387.42402      933119.1     
      8800   2547.4815     -428.1421       0             -387.31041      929700.42    
      8900   2311.2056     -424.28519      0             -387.24059      923543.73    
      9000   2571.7611     -428.50585      0             -387.285        930008.16    
      9100   2501.869      -427.38497      0             -387.28437      923851.48    
      9200   2448.1496     -426.49102      0             -387.25145      931050.34    
      9300   2480.2124     -427.01264      0             -387.25916      930767.71    
      9400   2284.0252     -423.54004      0             -386.9311       928068.74    
      9500   2453.411      -426.40598      0             -387.08208      924887.6     
      9600   2495.7495     -427.31888      0             -387.31636      920390.9     
      9700   2399.4298     -425.53125      0             -387.07258      931789.24    
      9800   2448.9496     -426.46738      0             -387.21498      930983.74    
      9900   2489.2398     -427.37357      0             -387.47539      938339.62    
     10000   2599.8963     -429.07899      0             -387.40718      936066.01    
Loop time of 7.46391 on 1 procs for 10000 steps with 125 atoms

Performance: 1157.570 ns/day, 0.021 hours/ns, 1339.781 timesteps/s
99.8% CPU use with 1 MPI tasks x 1 OpenMP threads

MPI task timing breakdown:
Section |  min time  |  avg time  |  max time  |%varavg| %total
---------------------------------------------------------------
Pair    | 6.3703     | 6.3703     | 6.3703     |   0.0 | 85.35
Neigh   | 0.83225    | 0.83225    | 0.83225    |   0.0 | 11.15
Comm    | 0.12368    | 0.12368    | 0.12368    |   0.0 |  1.66
Output  | 0.10231    | 0.10231    | 0.10231    |   0.0 |  1.37
Modify  | 0.012443   | 0.012443   | 0.012443   |   0.0 |  0.17
Other   |            | 0.02294    |            |       |  0.31

Nlocal:            125 ave         125 max         125 min
Histogram: 1 0 0 0 0 0 0 0 0 0
Nghost:           2387 ave        2387 max        2387 min
Histogram: 1 0 0 0 0 0 0 0 0 0
Neighs:          18535 ave       18535 max       18535 min
Histogram: 1 0 0 0 0 0 0 0 0 0

Total # of neighbors = 18535
Ave neighs/atom = 148.28
Neighbor list builds = 959
Dangerous builds = 803
System init for write_restart ...
Total wall time: 0:00:07
