<?xml version="1.0" encoding="ISO-8859-1"?>
<modeling>
 <generator>
  <i name="program" type="string">vasp </i>
  <i name="version" type="string">6.2.1  </i>
  <i name="subversion" type="string">16May21 (build Jun 16 2021 03:23:30) complex                          parallel </i>
  <i name="platform" type="string">LinuxPGI </i>
  <i name="date" type="string">2022 04 23 </i>
  <i name="time" type="string">22:55:51 </i>
 </generator>
 <incar>
  <i type="string" name="SYSTEM">NiAl</i>
  <i type="int" name="ISTART">     0</i>
  <i type="int" name="NELMIN">     6</i>
  <i type="int" name="IBRION">     2</i>
  <i name="EDIFF">      0.00000010</i>
  <i type="int" name="NSW">    40</i>
  <i type="int" name="ISIF">     1</i>
  <i name="ENCUT">    360.00000000</i>
  <i name="POTIM">      0.20000000</i>
  <i type="string" name="LREAL">Auto</i>
  <i type="logical" name="LPLANE"> T  </i>
  <i type="int" name="ISMEAR">     0</i>
  <i name="SIGMA">      0.05000000</i>
  <i type="logical" name="LWAVE"> F  </i>
  <i type="logical" name="LCHARG"> F  </i>
  <i type="int" name="IVDW">    12</i>
 </incar>
 <primitive_cell>
  <structure name="primitive_cell" >
   <crystal>
    <varray name="basis" >
     <v>      14.28000000       0.00000000       0.00000000 </v>
     <v>       0.00000000      14.28000000       0.00000000 </v>
     <v>       0.00000000       0.00000000      14.28000000 </v>
    </varray>
    <i name="volume">   2911.95475200 </i>
    <varray name="rec_basis" >
     <v>       0.07002801       0.00000000       0.00000000 </v>
     <v>       0.00000000       0.07002801       0.00000000 </v>
     <v>       0.00000000       0.00000000       0.07002801 </v>
    </varray>
   </crystal>
   <varray name="positions" >
    <v>       0.00000000       0.00000000       0.00000000 </v>
    <v>       0.00000000       0.12500000       0.12500000 </v>
    <v>       0.12500000       0.00000000       0.12500000 </v>
    <v>       0.12500000       0.12500000       0.00000000 </v>
    <v>       0.00000000       0.00000000       0.25000000 </v>
    <v>       0.00000000       0.12500000       0.37500000 </v>
    <v>       0.12500000       0.00000000       0.37500000 </v>
    <v>       0.12500000       0.12500000       0.25000000 </v>
    <v>       0.00000000       0.00000000       0.50000000 </v>
    <v>       0.00000000       0.12500000       0.62500000 </v>
    <v>       0.12500000       0.00000000       0.62500000 </v>
    <v>       0.12500000       0.12500000       0.50000000 </v>
    <v>       0.00000000       0.00000000       0.75000000 </v>
    <v>       0.00000000       0.12500000       0.87500000 </v>
    <v>       0.12500000       0.00000000       0.87500000 </v>
    <v>       0.12500000       0.12500000       0.75000000 </v>
    <v>       0.00000000       0.25000000       0.00000000 </v>
    <v>       0.00000000       0.37500000       0.12500000 </v>
    <v>       0.12500000       0.25000000       0.12500000 </v>
    <v>       0.12500000       0.37500000       0.00000000 </v>
    <v>       0.00000000       0.25000000       0.25000000 </v>
    <v>       0.00000000       0.37500000       0.37500000 </v>
    <v>       0.12500000       0.25000000       0.37500000 </v>
    <v>       0.12500000       0.37500000       0.25000000 </v>
    <v>       0.00000000       0.25000000       0.50000000 </v>
    <v>       0.00000000       0.37500000       0.62500000 </v>
    <v>       0.12500000       0.25000000       0.62500000 </v>
    <v>       0.12500000       0.37500000       0.50000000 </v>
    <v>       0.00000000       0.25000000       0.75000000 </v>
    <v>       0.00000000       0.37500000       0.87500000 </v>
    <v>       0.12500000       0.25000000       0.87500000 </v>
    <v>       0.12500000       0.37500000       0.75000000 </v>
    <v>       0.00000000       0.50000000       0.00000000 </v>
    <v>       0.00000000       0.62500000       0.12500000 </v>
    <v>       0.12500000       0.50000000       0.12500000 </v>
    <v>       0.12500000       0.62500000       0.00000000 </v>
    <v>       0.00000000       0.50000000       0.25000000 </v>
    <v>       0.00000000       0.62500000       0.37500000 </v>
    <v>       0.12500000       0.50000000       0.37500000 </v>
    <v>       0.12500000       0.62500000       0.25000000 </v>
    <v>       0.00000000       0.50000000       0.50000000 </v>
    <v>       0.00000000       0.62500000       0.62500000 </v>
    <v>       0.12500000       0.50000000       0.62500000 </v>
    <v>       0.12500000       0.62500000       0.50000000 </v>
    <v>       0.00000000       0.50000000       0.75000000 </v>
    <v>       0.00000000       0.62500000       0.87500000 </v>
    <v>       0.12500000       0.50000000       0.87500000 </v>
    <v>       0.12500000       0.62500000       0.75000000 </v>
    <v>       0.00000000       0.75000000       0.00000000 </v>
    <v>       0.00000000       0.87500000       0.12500000 </v>
    <v>       0.12500000       0.75000000       0.12500000 </v>
    <v>       0.12500000       0.87500000       0.00000000 </v>
    <v>       0.00000000       0.75000000       0.25000000 </v>
    <v>       0.00000000       0.87500000       0.37500000 </v>
    <v>       0.12500000       0.75000000       0.37500000 </v>
    <v>       0.12500000       0.87500000       0.25000000 </v>
    <v>       0.00000000       0.75000000       0.50000000 </v>
    <v>       0.00000000       0.87500000       0.62500000 </v>
    <v>       0.12500000       0.75000000       0.62500000 </v>
    <v>       0.12500000       0.87500000       0.50000000 </v>
    <v>       0.00000000       0.75000000       0.75000000 </v>
    <v>       0.00000000       0.87500000       0.87500000 </v>
    <v>       0.12500000       0.75000000       0.87500000 </v>
    <v>       0.12500000       0.87500000       0.75000000 </v>
    <v>       0.25000000       0.00000000       0.00000000 </v>
    <v>       0.25000000       0.12500000       0.12500000 </v>
    <v>       0.37500000       0.00000000       0.12500000 </v>
    <v>       0.37500000       0.12500000       0.00000000 </v>
    <v>       0.25000000       0.00000000       0.25000000 </v>
    <v>       0.25000000       0.12500000       0.37500000 </v>
    <v>       0.37500000       0.00000000       0.37500000 </v>
    <v>       0.37500000       0.12500000       0.25000000 </v>
    <v>       0.25000000       0.00000000       0.50000000 </v>
    <v>       0.25000000       0.12500000       0.62500000 </v>
    <v>       0.37500000       0.00000000       0.62500000 </v>
    <v>       0.37500000       0.12500000       0.50000000 </v>
    <v>       0.25000000       0.00000000       0.75000000 </v>
    <v>       0.25000000       0.12500000       0.87500000 </v>
    <v>       0.37500000       0.00000000       0.87500000 </v>
    <v>       0.37500000       0.12500000       0.75000000 </v>
    <v>       0.25000000       0.25000000       0.00000000 </v>
    <v>       0.25000000       0.37500000       0.12500000 </v>
    <v>       0.37500000       0.25000000       0.12500000 </v>
    <v>       0.37500000       0.37500000       0.00000000 </v>
    <v>       0.25000000       0.25000000       0.25000000 </v>
    <v>       0.25000000       0.37500000       0.37500000 </v>
    <v>       0.37500000       0.25000000       0.37500000 </v>
    <v>       0.37500000       0.37500000       0.25000000 </v>
    <v>       0.25000000       0.25000000       0.50000000 </v>
    <v>       0.25000000       0.37500000       0.62500000 </v>
    <v>       0.37500000       0.25000000       0.62500000 </v>
    <v>       0.37500000       0.37500000       0.50000000 </v>
    <v>       0.25000000       0.25000000       0.75000000 </v>
    <v>       0.25000000       0.37500000       0.87500000 </v>
    <v>       0.37500000       0.25000000       0.87500000 </v>
    <v>       0.37500000       0.37500000       0.75000000 </v>
    <v>       0.25000000       0.50000000       0.00000000 </v>
    <v>       0.25000000       0.62500000       0.12500000 </v>
    <v>       0.37500000       0.50000000       0.12500000 </v>
    <v>       0.37500000       0.62500000       0.00000000 </v>
    <v>       0.25000000       0.50000000       0.25000000 </v>
    <v>       0.25000000       0.62500000       0.37500000 </v>
    <v>       0.37500000       0.50000000       0.37500000 </v>
    <v>       0.37500000       0.62500000       0.25000000 </v>
    <v>       0.25000000       0.50000000       0.50000000 </v>
    <v>       0.25000000       0.62500000       0.62500000 </v>
    <v>       0.37500000       0.50000000       0.62500000 </v>
    <v>       0.37500000       0.62500000       0.50000000 </v>
    <v>       0.25000000       0.50000000       0.75000000 </v>
    <v>       0.25000000       0.62500000       0.87500000 </v>
    <v>       0.37500000       0.50000000       0.87500000 </v>
    <v>       0.37500000       0.62500000       0.75000000 </v>
    <v>       0.25000000       0.75000000       0.00000000 </v>
    <v>       0.25000000       0.87500000       0.12500000 </v>
    <v>       0.37500000       0.75000000       0.12500000 </v>
    <v>       0.37500000       0.87500000       0.00000000 </v>
    <v>       0.25000000       0.75000000       0.25000000 </v>
    <v>       0.25000000       0.87500000       0.37500000 </v>
    <v>       0.37500000       0.75000000       0.37500000 </v>
    <v>       0.37500000       0.87500000       0.25000000 </v>
    <v>       0.25000000       0.75000000       0.50000000 </v>
    <v>       0.25000000       0.87500000       0.62500000 </v>
    <v>       0.37500000       0.75000000       0.62500000 </v>
    <v>       0.37500000       0.87500000       0.50000000 </v>
    <v>       0.25000000       0.75000000       0.75000000 </v>
    <v>       0.25000000       0.87500000       0.87500000 </v>
    <v>       0.37500000       0.75000000       0.87500000 </v>
    <v>       0.37500000       0.87500000       0.75000000 </v>
    <v>       0.50000000       0.00000000       0.00000000 </v>
    <v>       0.50000000       0.12500000       0.12500000 </v>
    <v>       0.62500000       0.00000000       0.12500000 </v>
    <v>       0.62500000       0.12500000       0.00000000 </v>
    <v>       0.50000000       0.00000000       0.25000000 </v>
    <v>       0.50000000       0.12500000       0.37500000 </v>
    <v>       0.62500000       0.00000000       0.37500000 </v>
    <v>       0.62500000       0.12500000       0.25000000 </v>
    <v>       0.50000000       0.00000000       0.50000000 </v>
    <v>       0.50000000       0.12500000       0.62500000 </v>
    <v>       0.62500000       0.00000000       0.62500000 </v>
    <v>       0.62500000       0.12500000       0.50000000 </v>
    <v>       0.50000000       0.00000000       0.75000000 </v>
    <v>       0.50000000       0.12500000       0.87500000 </v>
    <v>       0.62500000       0.00000000       0.87500000 </v>
    <v>       0.62500000       0.12500000       0.75000000 </v>
    <v>       0.50000000       0.25000000       0.00000000 </v>
    <v>       0.50000000       0.37500000       0.12500000 </v>
    <v>       0.62500000       0.25000000       0.12500000 </v>
    <v>       0.62500000       0.37500000       0.00000000 </v>
    <v>       0.50000000       0.25000000       0.25000000 </v>
    <v>       0.50000000       0.37500000       0.37500000 </v>
    <v>       0.62500000       0.25000000       0.37500000 </v>
    <v>       0.62500000       0.37500000       0.25000000 </v>
    <v>       0.50000000       0.25000000       0.50000000 </v>
    <v>       0.50000000       0.37500000       0.62500000 </v>
    <v>       0.62500000       0.25000000       0.62500000 </v>
    <v>       0.62500000       0.37500000       0.50000000 </v>
    <v>       0.50000000       0.25000000       0.75000000 </v>
    <v>       0.50000000       0.37500000       0.87500000 </v>
    <v>       0.62500000       0.25000000       0.87500000 </v>
    <v>       0.62500000       0.37500000       0.75000000 </v>
    <v>       0.50000000       0.50000000       0.00000000 </v>
    <v>       0.50000000       0.62500000       0.12500000 </v>
    <v>       0.62500000       0.50000000       0.12500000 </v>
    <v>       0.62500000       0.62500000       0.00000000 </v>
    <v>       0.50000000       0.50000000       0.25000000 </v>
    <v>       0.50000000       0.62500000       0.37500000 </v>
    <v>       0.62500000       0.50000000       0.37500000 </v>
    <v>       0.62500000       0.62500000       0.25000000 </v>
    <v>       0.50000000       0.50000000       0.50000000 </v>
    <v>       0.50000000       0.62500000       0.62500000 </v>
    <v>       0.62500000       0.50000000       0.62500000 </v>
    <v>       0.62500000       0.62500000       0.50000000 </v>
    <v>       0.50000000       0.50000000       0.75000000 </v>
    <v>       0.50000000       0.62500000       0.87500000 </v>
    <v>       0.62500000       0.50000000       0.87500000 </v>
    <v>       0.62500000       0.62500000       0.75000000 </v>
    <v>       0.50000000       0.75000000       0.00000000 </v>
    <v>       0.50000000       0.87500000       0.12500000 </v>
    <v>       0.62500000       0.75000000       0.12500000 </v>
    <v>       0.62500000       0.87500000       0.00000000 </v>
    <v>       0.50000000       0.75000000       0.25000000 </v>
    <v>       0.50000000       0.87500000       0.37500000 </v>
    <v>       0.62500000       0.75000000       0.37500000 </v>
    <v>       0.62500000       0.87500000       0.25000000 </v>
    <v>       0.50000000       0.75000000       0.50000000 </v>
    <v>       0.50000000       0.87500000       0.62500000 </v>
    <v>       0.62500000       0.75000000       0.62500000 </v>
    <v>       0.62500000       0.87500000       0.50000000 </v>
    <v>       0.50000000       0.75000000       0.75000000 </v>
    <v>       0.50000000       0.87500000       0.87500000 </v>
    <v>       0.62500000       0.75000000       0.87500000 </v>
    <v>       0.62500000       0.87500000       0.75000000 </v>
    <v>       0.75000000       0.00000000       0.00000000 </v>
    <v>       0.75000000       0.12500000       0.12500000 </v>
    <v>       0.87500000       0.00000000       0.12500000 </v>
    <v>       0.87500000       0.12500000       0.00000000 </v>
    <v>       0.75000000       0.00000000       0.25000000 </v>
    <v>       0.75000000       0.12500000       0.37500000 </v>
    <v>       0.87500000       0.00000000       0.37500000 </v>
    <v>       0.87500000       0.12500000       0.25000000 </v>
    <v>       0.75000000       0.00000000       0.50000000 </v>
    <v>       0.75000000       0.12500000       0.62500000 </v>
    <v>       0.87500000       0.00000000       0.62500000 </v>
    <v>       0.87500000       0.12500000       0.50000000 </v>
    <v>       0.75000000       0.00000000       0.75000000 </v>
    <v>       0.75000000       0.12500000       0.87500000 </v>
    <v>       0.87500000       0.00000000       0.87500000 </v>
    <v>       0.87500000       0.12500000       0.75000000 </v>
    <v>       0.75000000       0.25000000       0.00000000 </v>
    <v>       0.75000000       0.37500000       0.12500000 </v>
    <v>       0.87500000       0.25000000       0.12500000 </v>
    <v>       0.87500000       0.37500000       0.00000000 </v>
    <v>       0.75000000       0.25000000       0.25000000 </v>
    <v>       0.75000000       0.37500000       0.37500000 </v>
    <v>       0.87500000       0.25000000       0.37500000 </v>
    <v>       0.87500000       0.37500000       0.25000000 </v>
    <v>       0.75000000       0.25000000       0.50000000 </v>
    <v>       0.75000000       0.37500000       0.62500000 </v>
    <v>       0.87500000       0.25000000       0.62500000 </v>
    <v>       0.87500000       0.37500000       0.50000000 </v>
    <v>       0.75000000       0.25000000       0.75000000 </v>
    <v>       0.75000000       0.37500000       0.87500000 </v>
    <v>       0.87500000       0.25000000       0.87500000 </v>
    <v>       0.87500000       0.37500000       0.75000000 </v>
    <v>       0.75000000       0.50000000       0.00000000 </v>
    <v>       0.75000000       0.62500000       0.12500000 </v>
    <v>       0.87500000       0.50000000       0.12500000 </v>
    <v>       0.87500000       0.62500000       0.00000000 </v>
    <v>       0.75000000       0.50000000       0.25000000 </v>
    <v>       0.75000000       0.62500000       0.37500000 </v>
    <v>       0.87500000       0.50000000       0.37500000 </v>
    <v>       0.87500000       0.62500000       0.25000000 </v>
    <v>       0.75000000       0.50000000       0.50000000 </v>
    <v>       0.75000000       0.62500000       0.62500000 </v>
    <v>       0.87500000       0.50000000       0.62500000 </v>
    <v>       0.87500000       0.62500000       0.50000000 </v>
    <v>       0.75000000       0.50000000       0.75000000 </v>
    <v>       0.75000000       0.62500000       0.87500000 </v>
    <v>       0.87500000       0.50000000       0.87500000 </v>
    <v>       0.87500000       0.62500000       0.75000000 </v>
    <v>       0.75000000       0.75000000       0.00000000 </v>
    <v>       0.75000000       0.87500000       0.12500000 </v>
    <v>       0.87500000       0.75000000       0.12500000 </v>
    <v>       0.87500000       0.87500000       0.00000000 </v>
    <v>       0.75000000       0.75000000       0.25000000 </v>
    <v>       0.75000000       0.87500000       0.37500000 </v>
    <v>       0.87500000       0.75000000       0.37500000 </v>
    <v>       0.87500000       0.87500000       0.25000000 </v>
    <v>       0.75000000       0.75000000       0.50000000 </v>
    <v>       0.75000000       0.87500000       0.62500000 </v>
    <v>       0.87500000       0.75000000       0.62500000 </v>
    <v>       0.87500000       0.87500000       0.50000000 </v>
    <v>       0.75000000       0.75000000       0.75000000 </v>
    <v>       0.75000000       0.87500000       0.87500000 </v>
    <v>       0.87500000       0.75000000       0.87500000 </v>
    <v>       0.87500000       0.87500000       0.75000000 </v>
    <v>       0.06250000       0.06250000       0.06250000 </v>
   </varray>
  </structure>
  <varray name="primitive_index" >
   <v type="int" >        1 </v>
   <v type="int" >        2 </v>
   <v type="int" >        3 </v>
   <v type="int" >        4 </v>
   <v type="int" >        5 </v>
   <v type="int" >        6 </v>
   <v type="int" >        7 </v>
   <v type="int" >        8 </v>
   <v type="int" >        9 </v>
   <v type="int" >       10 </v>
   <v type="int" >       11 </v>
   <v type="int" >       12 </v>
   <v type="int" >       13 </v>
   <v type="int" >       14 </v>
   <v type="int" >       15 </v>
   <v type="int" >       16 </v>
   <v type="int" >       17 </v>
   <v type="int" >       18 </v>
   <v type="int" >       19 </v>
   <v type="int" >       20 </v>
   <v type="int" >       21 </v>
   <v type="int" >       22 </v>
   <v type="int" >       23 </v>
   <v type="int" >       24 </v>
   <v type="int" >       25 </v>
   <v type="int" >       26 </v>
   <v type="int" >       27 </v>
   <v type="int" >       28 </v>
   <v type="int" >       29 </v>
   <v type="int" >       30 </v>
   <v type="int" >       31 </v>
   <v type="int" >       32 </v>
   <v type="int" >       33 </v>
   <v type="int" >       34 </v>
   <v type="int" >       35 </v>
   <v type="int" >       36 </v>
   <v type="int" >       37 </v>
   <v type="int" >       38 </v>
   <v type="int" >       39 </v>
   <v type="int" >       40 </v>
   <v type="int" >       41 </v>
   <v type="int" >       42 </v>
   <v type="int" >       43 </v>
   <v type="int" >       44 </v>
   <v type="int" >       45 </v>
   <v type="int" >       46 </v>
   <v type="int" >       47 </v>
   <v type="int" >       48 </v>
   <v type="int" >       49 </v>
   <v type="int" >       50 </v>
   <v type="int" >       51 </v>
   <v type="int" >       52 </v>
   <v type="int" >       53 </v>
   <v type="int" >       54 </v>
   <v type="int" >       55 </v>
   <v type="int" >       56 </v>
   <v type="int" >       57 </v>
   <v type="int" >       58 </v>
   <v type="int" >       59 </v>
   <v type="int" >       60 </v>
   <v type="int" >       61 </v>
   <v type="int" >       62 </v>
   <v type="int" >       63 </v>
   <v type="int" >       64 </v>
   <v type="int" >       65 </v>
   <v type="int" >       66 </v>
   <v type="int" >       67 </v>
   <v type="int" >       68 </v>
   <v type="int" >       69 </v>
   <v type="int" >       70 </v>
   <v type="int" >       71 </v>
   <v type="int" >       72 </v>
   <v type="int" >       73 </v>
   <v type="int" >       74 </v>
   <v type="int" >       75 </v>
   <v type="int" >       76 </v>
   <v type="int" >       77 </v>
   <v type="int" >       78 </v>
   <v type="int" >       79 </v>
   <v type="int" >       80 </v>
   <v type="int" >       81 </v>
   <v type="int" >       82 </v>
   <v type="int" >       83 </v>
   <v type="int" >       84 </v>
   <v type="int" >       85 </v>
   <v type="int" >       86 </v>
   <v type="int" >       87 </v>
   <v type="int" >       88 </v>
   <v type="int" >       89 </v>
   <v type="int" >       90 </v>
   <v type="int" >       91 </v>
   <v type="int" >       92 </v>
   <v type="int" >       93 </v>
   <v type="int" >       94 </v>
   <v type="int" >       95 </v>
   <v type="int" >       96 </v>
   <v type="int" >       97 </v>
   <v type="int" >       98 </v>
   <v type="int" >       99 </v>
   <v type="int" >      100 </v>
   <v type="int" >      101 </v>
   <v type="int" >      102 </v>
   <v type="int" >      103 </v>
   <v type="int" >      104 </v>
   <v type="int" >      105 </v>
   <v type="int" >      106 </v>
   <v type="int" >      107 </v>
   <v type="int" >      108 </v>
   <v type="int" >      109 </v>
   <v type="int" >      110 </v>
   <v type="int" >      111 </v>
   <v type="int" >      112 </v>
   <v type="int" >      113 </v>
   <v type="int" >      114 </v>
   <v type="int" >      115 </v>
   <v type="int" >      116 </v>
   <v type="int" >      117 </v>
   <v type="int" >      118 </v>
   <v type="int" >      119 </v>
   <v type="int" >      120 </v>
   <v type="int" >      121 </v>
   <v type="int" >      122 </v>
   <v type="int" >      123 </v>
   <v type="int" >      124 </v>
   <v type="int" >      125 </v>
   <v type="int" >      126 </v>
   <v type="int" >      127 </v>
   <v type="int" >      128 </v>
   <v type="int" >      129 </v>
   <v type="int" >      130 </v>
   <v type="int" >      131 </v>
   <v type="int" >      132 </v>
   <v type="int" >      133 </v>
   <v type="int" >      134 </v>
   <v type="int" >      135 </v>
   <v type="int" >      136 </v>
   <v type="int" >      137 </v>
   <v type="int" >      138 </v>
   <v type="int" >      139 </v>
   <v type="int" >      140 </v>
   <v type="int" >      141 </v>
   <v type="int" >      142 </v>
   <v type="int" >      143 </v>
   <v type="int" >      144 </v>
   <v type="int" >      145 </v>
   <v type="int" >      146 </v>
   <v type="int" >      147 </v>
   <v type="int" >      148 </v>
   <v type="int" >      149 </v>
   <v type="int" >      150 </v>
   <v type="int" >      151 </v>
   <v type="int" >      152 </v>
   <v type="int" >      153 </v>
   <v type="int" >      154 </v>
   <v type="int" >      155 </v>
   <v type="int" >      156 </v>
   <v type="int" >      157 </v>
   <v type="int" >      158 </v>
   <v type="int" >      159 </v>
   <v type="int" >      160 </v>
   <v type="int" >      161 </v>
   <v type="int" >      162 </v>
   <v type="int" >      163 </v>
   <v type="int" >      164 </v>
   <v type="int" >      165 </v>
   <v type="int" >      166 </v>
   <v type="int" >      167 </v>
   <v type="int" >      168 </v>
   <v type="int" >      169 </v>
   <v type="int" >      170 </v>
   <v type="int" >      171 </v>
   <v type="int" >      172 </v>
   <v type="int" >      173 </v>
   <v type="int" >      174 </v>
   <v type="int" >      175 </v>
   <v type="int" >      176 </v>
   <v type="int" >      177 </v>
   <v type="int" >      178 </v>
   <v type="int" >      179 </v>
   <v type="int" >      180 </v>
   <v type="int" >      181 </v>
   <v type="int" >      182 </v>
   <v type="int" >      183 </v>
   <v type="int" >      184 </v>
   <v type="int" >      185 </v>
   <v type="int" >      186 </v>
   <v type="int" >      187 </v>
   <v type="int" >      188 </v>
   <v type="int" >      189 </v>
   <v type="int" >      190 </v>
   <v type="int" >      191 </v>
   <v type="int" >      192 </v>
   <v type="int" >      193 </v>
   <v type="int" >      194 </v>
   <v type="int" >      195 </v>
   <v type="int" >      196 </v>
   <v type="int" >      197 </v>
   <v type="int" >      198 </v>
   <v type="int" >      199 </v>
   <v type="int" >      200 </v>
   <v type="int" >      201 </v>
   <v type="int" >      202 </v>
   <v type="int" >      203 </v>
   <v type="int" >      204 </v>
   <v type="int" >      205 </v>
   <v type="int" >      206 </v>
   <v type="int" >      207 </v>
   <v type="int" >      208 </v>
   <v type="int" >      209 </v>
   <v type="int" >      210 </v>
   <v type="int" >      211 </v>
   <v type="int" >      212 </v>
   <v type="int" >      213 </v>
   <v type="int" >      214 </v>
   <v type="int" >      215 </v>
   <v type="int" >      216 </v>
   <v type="int" >      217 </v>
   <v type="int" >      218 </v>
   <v type="int" >      219 </v>
   <v type="int" >      220 </v>
   <v type="int" >      221 </v>
   <v type="int" >      222 </v>
   <v type="int" >      223 </v>
   <v type="int" >      224 </v>
   <v type="int" >      225 </v>
   <v type="int" >      226 </v>
   <v type="int" >      227 </v>
   <v type="int" >      228 </v>
   <v type="int" >      229 </v>
   <v type="int" >      230 </v>
   <v type="int" >      231 </v>
   <v type="int" >      232 </v>
   <v type="int" >      233 </v>
   <v type="int" >      234 </v>
   <v type="int" >      235 </v>
   <v type="int" >      236 </v>
   <v type="int" >      237 </v>
   <v type="int" >      238 </v>
   <v type="int" >      239 </v>
   <v type="int" >      240 </v>
   <v type="int" >      241 </v>
   <v type="int" >      242 </v>
   <v type="int" >      243 </v>
   <v type="int" >      244 </v>
   <v type="int" >      245 </v>
   <v type="int" >      246 </v>
   <v type="int" >      247 </v>
   <v type="int" >      248 </v>
   <v type="int" >      249 </v>
   <v type="int" >      250 </v>
   <v type="int" >      251 </v>
   <v type="int" >      252 </v>
   <v type="int" >      253 </v>
   <v type="int" >      254 </v>
   <v type="int" >      255 </v>
   <v type="int" >      256 </v>
   <v type="int" >      257 </v>
  </varray>
 </primitive_cell>
 <kpoints>
  <generation param="Gamma">
   <v type="int" name="divisions">       2        2        2 </v>
   <v name="usershift">      0.00000000       0.00000000       0.00000000 </v>
   <v name="genvec1">      0.50000000       0.00000000       0.00000000 </v>
   <v name="genvec2">      0.00000000       0.50000000       0.00000000 </v>
   <v name="genvec3">      0.00000000       0.00000000       0.50000000 </v>
   <v name="shift">      0.00000000       0.00000000       0.00000000 </v>
  </generation>
  <varray name="kpointlist" >
   <v>       0.00000000       0.00000000       0.00000000 </v>
   <v>       0.50000000       0.00000000       0.00000000 </v>
   <v>       0.50000000       0.50000000       0.00000000 </v>
   <v>       0.50000000       0.50000000       0.50000000 </v>
  </varray>
  <varray name="weights" >
   <v>       0.12500000 </v>
   <v>       0.37500000 </v>
   <v>       0.37500000 </v>
   <v>       0.12500000 </v>
  </varray>
 </kpoints>
 <parameters>
  <separator name="general" >
   <i type="string" name="SYSTEM">NiAl</i>
   <i type="logical" name="LCOMPAT"> F  </i>
  </separator>
  <separator name="electronic" >
   <i type="string" name="PREC">normal</i>
   <i name="ENMAX">    360.00000000</i>
   <i name="ENAUG">   1139.60900000</i>
   <i name="EDIFF">      0.00000010</i>
   <i type="int" name="IALGO">    38</i>
   <i type="int" name="IWAVPR">    11</i>
   <i type="int" name="NBANDS">  1539</i>
   <i type="int" name="NBANDSLOW">    -1</i>
   <i type="int" name="NBANDSHIGH">    -1</i>
   <i name="NELECT">   2566.00000000</i>
   <i type="int" name="TURBO">     0</i>
   <i type="int" name="IRESTART">     0</i>
   <i type="int" name="NREBOOT">     0</i>
   <i type="int" name="NMIN">     0</i>
   <i name="EREF">      0.00000000</i>
   <separator name="electronic smearing" >
    <i type="int" name="ISMEAR">     0</i>
    <i name="SIGMA">      0.05000000</i>
    <i name="KSPACING">      0.50000000</i>
    <i type="logical" name="KGAMMA"> T  </i>
    <i type="logical" name="KBLOWUP"> T  </i>
   </separator>
   <separator name="electronic projectors" >
    <i type="logical" name="LREAL"> T  </i>
    <v name="ROPT">     -0.00050000     -0.00050000</v>
    <i type="int" name="LMAXPAW">  -100</i>
    <i type="int" name="LMAXMIX">     2</i>
    <i type="logical" name="NLSPLINE"> F  </i>
   </separator>
   <separator name="electronic startup" >
    <i type="int" name="ISTART">     0</i>
    <i type="int" name="ICHARG">     2</i>
    <i type="int" name="INIWAV">     1</i>
   </separator>
   <separator name="electronic spin" >
    <i type="int" name="ISPIN">     1</i>
    <i type="logical" name="LNONCOLLINEAR"> F  </i>
    <v name="MAGMOM">      1.00000000      1.00000000      1.00000000      1.00000000      1.00000000      1.00000000      1.00000000      1.00000000      1.00000000      1.00000000      1.00000000      1.00000000      1.00000000      1.00000000      1.00000000      1.00000000      1.00000000      1.00000000      1.00000000      1.00000000
      1.00000000      1.00000000      1.00000000      1.00000000      1.00000000      1.00000000      1.00000000      1.00000000      1.00000000      1.00000000      1.00000000      1.00000000      1.00000000      1.00000000      1.00000000      1.00000000      1.00000000      1.00000000      1.00000000      1.00000000
      1.00000000      1.00000000      1.00000000      1.00000000      1.00000000      1.00000000      1.00000000      1.00000000      1.00000000      1.00000000      1.00000000      1.00000000      1.00000000      1.00000000      1.00000000      1.00000000      1.00000000      1.00000000      1.00000000      1.00000000
      1.00000000      1.00000000      1.00000000      1.00000000      1.00000000      1.00000000      1.00000000      1.00000000      1.00000000      1.00000000      1.00000000      1.00000000      1.00000000      1.00000000      1.00000000      1.00000000      1.00000000      1.00000000      1.00000000      1.00000000
      1.00000000      1.00000000      1.00000000      1.00000000      1.00000000      1.00000000      1.00000000      1.00000000      1.00000000      1.00000000      1.00000000      1.00000000      1.00000000      1.00000000      1.00000000      1.00000000      1.00000000      1.00000000      1.00000000      1.00000000
      1.00000000      1.00000000      1.00000000      1.00000000      1.00000000      1.00000000      1.00000000      1.00000000      1.00000000      1.00000000      1.00000000      1.00000000      1.00000000      1.00000000      1.00000000      1.00000000      1.00000000      1.00000000      1.00000000      1.00000000
      1.00000000      1.00000000      1.00000000      1.00000000      1.00000000      1.00000000      1.00000000      1.00000000      1.00000000      1.00000000      1.00000000      1.00000000      1.00000000      1.00000000      1.00000000      1.00000000      1.00000000      1.00000000      1.00000000      1.00000000
      1.00000000      1.00000000      1.00000000      1.00000000      1.00000000      1.00000000      1.00000000      1.00000000      1.00000000      1.00000000      1.00000000      1.00000000      1.00000000      1.00000000      1.00000000      1.00000000      1.00000000      1.00000000      1.00000000      1.00000000
      1.00000000      1.00000000      1.00000000      1.00000000      1.00000000      1.00000000      1.00000000      1.00000000      1.00000000      1.00000000      1.00000000      1.00000000      1.00000000      1.00000000      1.00000000      1.00000000      1.00000000      1.00000000      1.00000000      1.00000000
      1.00000000      1.00000000      1.00000000      1.00000000      1.00000000      1.00000000      1.00000000      1.00000000      1.00000000      1.00000000      1.00000000      1.00000000      1.00000000      1.00000000      1.00000000      1.00000000      1.00000000      1.00000000      1.00000000      1.00000000
      1.00000000      1.00000000      1.00000000      1.00000000      1.00000000      1.00000000      1.00000000      1.00000000      1.00000000      1.00000000      1.00000000      1.00000000      1.00000000      1.00000000      1.00000000      1.00000000      1.00000000      1.00000000      1.00000000      1.00000000
      1.00000000      1.00000000      1.00000000      1.00000000      1.00000000      1.00000000      1.00000000      1.00000000      1.00000000      1.00000000      1.00000000      1.00000000      1.00000000      1.00000000      1.00000000      1.00000000      1.00000000      1.00000000      1.00000000      1.00000000
      1.00000000      1.00000000      1.00000000      1.00000000      1.00000000      1.00000000      1.00000000      1.00000000      1.00000000      1.00000000      1.00000000      1.00000000      1.00000000      1.00000000      1.00000000      1.00000000      1.00000000</v>
    <i name="NUPDOWN">     -1.00000000</i>
    <i type="logical" name="LSORBIT"> F  </i>
    <v name="SAXIS">      0.00000000      0.00000000      1.00000000</v>
    <i type="logical" name="LSPIRAL"> F  </i>
    <v name="QSPIRAL">      0.00000000      0.00000000      0.00000000</v>
    <i type="logical" name="LZEROZ"> F  </i>
   </separator>
   <separator name="electronic exchange-correlation" >
    <i type="logical" name="LASPH"> F  </i>
    <i type="logical" name="LMETAGGA"> F  </i>
   </separator>
   <separator name="electronic convergence" >
    <i type="int" name="NELM">    60</i>
    <i type="int" name="NELMDL">    -5</i>
    <i type="int" name="NELMIN">     6</i>
    <i name="ENINI">    360.00000000</i>
    <separator name="electronic convergence detail" >
     <i type="logical" name="LDIAG"> T  </i>
     <i type="logical" name="LSUBROT"> F  </i>
     <i name="WEIMIN">      0.00100000</i>
     <i name="EBREAK">      0.00000000</i>
     <i name="DEPER">      0.30000000</i>
     <i type="int" name="NRMM">     4</i>
     <i name="TIME">      0.40000000</i>
    </separator>
   </separator>
   <separator name="electronic mixer" >
    <i name="AMIX">      0.40000000</i>
    <i name="BMIX">      1.00000000</i>
    <i name="AMIN">      0.10000000</i>
    <i name="AMIX_MAG">      1.60000000</i>
    <i name="BMIX_MAG">      1.00000000</i>
    <separator name="electronic mixer details" >
     <i type="int" name="IMIX">     4</i>
     <i type="logical" name="MIXFIRST"> F  </i>
     <i type="int" name="MAXMIX">   -45</i>
     <i name="WC">    100.00000000</i>
     <i type="int" name="INIMIX">     1</i>
     <i type="int" name="MIXPRE">     1</i>
     <i type="int" name="MREMOVE">     5</i>
    </separator>
   </separator>
   <separator name="electronic dipolcorrection" >
    <i type="logical" name="LDIPOL"> F  </i>
    <i type="logical" name="LMONO"> F  </i>
    <i type="int" name="IDIPOL">     0</i>
    <i name="EPSILON">      1.00000000</i>
    <v name="DIPOL">   -100.00000000   -100.00000000   -100.00000000</v>
    <i name="EFIELD">      0.00000000</i>
   </separator>
  </separator>
  <separator name="grids" >
   <i type="int" name="NGX">    70</i>
   <i type="int" name="NGY">    70</i>
   <i type="int" name="NGZ">    70</i>
   <i type="int" name="NGXF">   140</i>
   <i type="int" name="NGYF">   140</i>
   <i type="int" name="NGZF">   140</i>
   <i type="logical" name="ADDGRID"> F  </i>
  </separator>
  <separator name="ionic" >
   <i type="int" name="NSW">    40</i>
   <i type="int" name="IBRION">     2</i>
   <i type="int" name="MDALGO">     0</i>
   <i type="int" name="ISIF">     1</i>
   <i name="PSTRESS">      0.00000000</i>
   <i name="EDIFFG">      0.00000100</i>
   <i type="int" name="NFREE">     1</i>
   <i name="POTIM">      0.20000000</i>
   <i name="SMASS">     -3.00000000</i>
   <i name="SCALEE">      1.00000000</i>
  </separator>
  <separator name="ionic md" >
   <i name="TEBEG">      0.00010000</i>
   <i name="TEEND">      0.00010000</i>
   <i type="int" name="NBLOCK">     1</i>
   <i type="int" name="KBLOCK">    40</i>
   <i type="int" name="NPACO">   256</i>
   <i name="APACO">     16.00000000</i>
  </separator>
  <separator name="symmetry" >
   <i type="int" name="ISYM">     2</i>
   <i name="SYMPREC">      0.00001000</i>
  </separator>
  <separator name="dos" >
   <i type="int" name="LORBIT">     0</i>
   <v name="RWIGS">     -1.00000000     -1.00000000</v>
   <i type="int" name="NEDOS">   301</i>
   <i name="EMIN">     10.00000000</i>
   <i name="EMAX">    -10.00000000</i>
   <i name="EFERMI">      0.00000000</i>
  </separator>
  <separator name="writing" >
   <i type="int" name="NWRITE">     2</i>
   <i type="logical" name="LWAVE"> F  </i>
   <i type="logical" name="LDOWNSAMPLE"> F  </i>
   <i type="logical" name="LCHARG"> F  </i>
   <i type="logical" name="LPARD"> F  </i>
   <i type="logical" name="LVTOT"> F  </i>
   <i type="logical" name="LVHAR"> F  </i>
   <i type="logical" name="LELF"> F  </i>
   <i type="logical" name="LOPTICS"> F  </i>
   <v name="STM">      0.00000000      0.00000000      0.00000000      0.00000000      0.00000000      0.00000000      0.00000000</v>
  </separator>
  <separator name="performance" >
   <i type="int" name="NPAR">     1</i>
   <i type="int" name="NSIM">     4</i>
   <i type="int" name="NBLK">    -1</i>
   <i type="logical" name="LPLANE"> T  </i>
   <i type="logical" name="LSCALAPACK"> T  </i>
   <i type="logical" name="LSCAAWARE"> F  </i>
   <i type="logical" name="LSCALU"> F  </i>
   <i type="logical" name="LASYNC"> F  </i>
   <i type="logical" name="LORBITALREAL"> F  </i>
  </separator>
  <separator name="miscellaneous" >
   <i type="int" name="IDIOT">     3</i>
   <i type="int" name="PHON_NSTRUCT">    -1</i>
   <i type="logical" name="LMUSIC"> F  </i>
   <v name="POMASS">     58.69000000     16.00000000</v>
   <v name="DARWINR">      0.00000000      0.00000000</v>
   <v name="DARWINV">      1.00000000      1.00000000</v>
   <i type="logical" name="LCORR"> T  </i>
  </separator>
  <i type="logical" name="GGA_COMPAT"> T  </i>
  <i type="logical" name="LBERRY"> F  </i>
  <i type="int" name="ICORELEVEL">     0</i>
  <i type="logical" name="LDAU"> F  </i>
  <i type="int" name="I_CONSTRAINED_M">     0</i>
  <separator name="electronic exchange-correlation" >
   <i type="string" name="GGA">--</i>
   <i type="int" name="VOSKOWN">     0</i>
   <i type="logical" name="LHFCALC"> F  </i>
   <i type="string" name="PRECFOCK"></i>
   <i type="logical" name="LSYMGRAD"> F  </i>
   <i type="logical" name="LHFONE"> F  </i>
   <i type="logical" name="LRHFCALC"> F  </i>
   <i type="logical" name="LTHOMAS"> F  </i>
   <i type="logical" name="LMODELHF"> F  </i>
   <i type="logical" name="LFOCKACE"> F  </i>
   <i name="ENCUT4O">     -1.00000000</i>
   <i type="int" name="EXXOEP">     0</i>
   <i type="int" name="FOURORBIT">     0</i>
   <i name="AEXX">      0.00000000</i>
   <i name="HFALPHA">      0.00000000</i>
   <i name="MCALPHA">      0.00000000</i>
   <i name="ALDAX">      1.00000000</i>
   <i name="AGGAX">      1.00000000</i>
   <i name="ALDAC">      1.00000000</i>
   <i name="AGGAC">      1.00000000</i>
   <i type="int" name="NKREDX">     1</i>
   <i type="int" name="NKREDY">     1</i>
   <i type="int" name="NKREDZ">     1</i>
   <i type="logical" name="SHIFTRED"> F  </i>
   <i type="logical" name="ODDONLY"> F  </i>
   <i type="logical" name="EVENONLY"> F  </i>
   <i type="int" name="LMAXFOCK">     0</i>
   <i type="int" name="NMAXFOCKAE">     0</i>
   <i type="logical" name="LFOCKAEDFT"> F  </i>
   <i name="HFSCREEN">      0.00000000</i>
   <i name="HFSCREENC">      0.00000000</i>
   <i type="int" name="NBANDSGWLOW">     0</i>
  </separator>
  <separator name="vdW DFT" >
   <i type="logical" name="LUSE_VDW"> F  </i>
   <i name="Zab_VDW">     -0.84910000</i>
   <i name="PARAM1">      0.12340000</i>
   <i name="PARAM2">      1.00000000</i>
   <i name="PARAM3">      0.00000000</i>
  </separator>
  <separator name="model GW" >
   <i type="int" name="MODEL_GW">     0</i>
   <i name="MODEL_EPS0">      6.79833794</i>
   <i name="MODEL_ALPHA">      1.00000000</i>
  </separator>
  <separator name="linear response parameters" >
   <i type="logical" name="LEPSILON"> F  </i>
   <i type="logical" name="LRPA"> F  </i>
   <i type="logical" name="LNABLA"> F  </i>
   <i type="logical" name="LVEL"> F  </i>
   <i type="int" name="KINTER">     0</i>
   <i name="CSHIFT">      0.10000000</i>
   <i name="OMEGAMAX">     -1.00000000</i>
   <i name="DEG_THRESHOLD">      0.00200000</i>
   <i name="RTIME">     -0.10000000</i>
   <i name="WPLASMAI">      0.00000000</i>
   <v name="DFIELD">      0.00000000      0.00000000      0.00000000</v>
   <v name="WPLASMA">      0.00000000      0.00000000      0.00000000      0.00000000      0.00000000      0.00000000      0.00000000      0.00000000      0.00000000</v>
  </separator>
  <separator name="orbital magnetization" >
   <i type="logical" name="NUCIND"> F  </i>
   <v name="MAGPOS">      0.00000000      0.00000000      0.00000000</v>
   <i type="logical" name="LNICSALL"> T  </i>
   <i type="logical" name="ORBITALMAG"> F  </i>
   <i type="logical" name="LMAGBLOCH"> F  </i>
   <i type="logical" name="LCHIMAG"> F  </i>
   <i type="logical" name="LGAUGE"> T  </i>
   <i type="int" name="MAGATOM">     0</i>
   <v name="MAGDIPOL">      0.00000000      0.00000000      0.00000000</v>
   <v name="AVECCONST">      0.00000000      0.00000000      0.00000000</v>
  </separator>
  <separator name="response functions" >
   <i type="logical" name="LFINITE_TEMPERATURE"> F  </i>
   <i type="logical" name="LADDER"> F  </i>
   <i type="logical" name="LRPAFORCE"> F  </i>
   <i type="logical" name="LFXC"> F  </i>
   <i type="logical" name="LHARTREE"> T  </i>
   <i type="int" name="IBSE">     0</i>
   <v type="int" name="KPOINT">    -1     0     0     0</v>
   <i type="logical" name="LTCTC"> F  </i>
   <i type="logical" name="LTCTE"> F  </i>
   <i type="logical" name="LTETE"> F  </i>
   <i type="logical" name="LTRIPLET"> F  </i>
   <i type="logical" name="LFXCEPS"> F  </i>
   <i type="logical" name="LFXHEG"> F  </i>
   <i type="int" name="NATURALO">     2</i>
   <i type="logical" name="LHOLEGF"> F  </i>
   <i type="logical" name="L2ORDER"> F  </i>
   <i type="logical" name="LDMP1"> F  </i>
   <i type="logical" name="LMP2LT"> F  </i>
   <i type="logical" name="LSMP2LT"> F  </i>
   <i type="logical" name="LGWLF"> F  </i>
   <i name="ENCUTGW">     -2.00000000</i>
   <i name="ENCUTGWSOFT">     -2.00000000</i>
   <i name="ENCUTLF">     -1.00000000</i>
   <i type="logical" name="LESF_SPLINES"> F  </i>
   <i type="int" name="LMAXMP2">    -1</i>
   <i name="SCISSOR">      0.00000000</i>
   <i type="int" name="NOMEGA">     0</i>
   <i type="int" name="NOMEGAR">     0</i>
   <i type="int" name="NBANDSGW">    -1</i>
   <i type="int" name="NBANDSO">    -1</i>
   <i type="int" name="NBANDSV">    -1</i>
   <i type="int" name="NELM">     1</i>
   <i type="int" name="NELMHF">     1</i>
   <i type="int" name="DIM">     3</i>
   <i type="int" name="IESPILON">     4</i>
   <i type="int" name="ANTIRES">     0</i>
   <i name="OMEGAMAX">    -30.00000000</i>
   <i name="OMEGAMIN">    -30.00000000</i>
   <i name="OMEGATL">   -200.00000000</i>
   <i type="int" name="OMEGAGRID">     0</i>
   <i name="CSHIFT">     -0.10000000</i>
   <i type="logical" name="LSELFENERGY"> F  </i>
   <i type="logical" name="LSPECTRAL"> F  </i>
   <i type="logical" name="LSPECTRALGW"> F  </i>
   <i type="logical" name="LSINGLES"> F  </i>
   <i type="logical" name="LFERMIGW"> F  </i>
   <i type="logical" name="ODDONLYGW"> F  </i>
   <i type="logical" name="EVENONLYGW"> F  </i>
   <i type="int" name="NKREDLFX">     1</i>
   <i type="int" name="NKREDLFY">     1</i>
   <i type="int" name="NKREDLFZ">     1</i>
   <i type="int" name="MAXMEM">  2800</i>
   <i type="int" name="TELESCOPE">     0</i>
   <i type="int" name="NTAUPAR">    -1</i>
   <i type="int" name="NOMEGAPAR">    -1</i>
   <i name="DAMP_NEWTON">      0.80000001</i>
   <i name="LAMBDA">      1.00000000</i>
  </separator>
  <separator name="External order field" >
   <i name="OFIELD_KAPPA">      0.00000000</i>
   <v name="OFIELD_K">      0.00000000      0.00000000      0.00000000</v>
   <i name="OFIELD_Q6_NEAR">      0.00000000</i>
   <i name="OFIELD_Q6_FAR">      0.00000000</i>
   <i name="OFIELD_A">      0.00000000</i>
  </separator>
  <separator name="solvation model" >
   <i type="logical" name="LSOL"> F  </i>
  </separator>
 </parameters>
 <atominfo>
  <atoms>     257 </atoms>
  <types>       2 </types>
  <array name="atoms" >
   <dimension dim="1">ion</dimension>
   <field type="string">element</field>
   <field type="int">atomtype</field>
   <set>
    <rc><c>Ni</c><c>   1</c></rc>
    <rc><c>Ni</c><c>   1</c></rc>
    <rc><c>Ni</c><c>   1</c></rc>
    <rc><c>Ni</c><c>   1</c></rc>
    <rc><c>Ni</c><c>   1</c></rc>
    <rc><c>Ni</c><c>   1</c></rc>
    <rc><c>Ni</c><c>   1</c></rc>
    <rc><c>Ni</c><c>   1</c></rc>
    <rc><c>Ni</c><c>   1</c></rc>
    <rc><c>Ni</c><c>   1</c></rc>
    <rc><c>Ni</c><c>   1</c></rc>
    <rc><c>Ni</c><c>   1</c></rc>
    <rc><c>Ni</c><c>   1</c></rc>
    <rc><c>Ni</c><c>   1</c></rc>
    <rc><c>Ni</c><c>   1</c></rc>
    <rc><c>Ni</c><c>   1</c></rc>
    <rc><c>Ni</c><c>   1</c></rc>
    <rc><c>Ni</c><c>   1</c></rc>
    <rc><c>Ni</c><c>   1</c></rc>
    <rc><c>Ni</c><c>   1</c></rc>
    <rc><c>Ni</c><c>   1</c></rc>
    <rc><c>Ni</c><c>   1</c></rc>
    <rc><c>Ni</c><c>   1</c></rc>
    <rc><c>Ni</c><c>   1</c></rc>
    <rc><c>Ni</c><c>   1</c></rc>
    <rc><c>Ni</c><c>   1</c></rc>
    <rc><c>Ni</c><c>   1</c></rc>
    <rc><c>Ni</c><c>   1</c></rc>
    <rc><c>Ni</c><c>   1</c></rc>
    <rc><c>Ni</c><c>   1</c></rc>
    <rc><c>Ni</c><c>   1</c></rc>
    <rc><c>Ni</c><c>   1</c></rc>
    <rc><c>Ni</c><c>   1</c></rc>
    <rc><c>Ni</c><c>   1</c></rc>
    <rc><c>Ni</c><c>   1</c></rc>
    <rc><c>Ni</c><c>   1</c></rc>
    <rc><c>Ni</c><c>   1</c></rc>
    <rc><c>Ni</c><c>   1</c></rc>
    <rc><c>Ni</c><c>   1</c></rc>
    <rc><c>Ni</c><c>   1</c></rc>
    <rc><c>Ni</c><c>   1</c></rc>
    <rc><c>Ni</c><c>   1</c></rc>
    <rc><c>Ni</c><c>   1</c></rc>
    <rc><c>Ni</c><c>   1</c></rc>
    <rc><c>Ni</c><c>   1</c></rc>
    <rc><c>Ni</c><c>   1</c></rc>
    <rc><c>Ni</c><c>   1</c></rc>
    <rc><c>Ni</c><c>   1</c></rc>
    <rc><c>Ni</c><c>   1</c></rc>
    <rc><c>Ni</c><c>   1</c></rc>
    <rc><c>Ni</c><c>   1</c></rc>
    <rc><c>Ni</c><c>   1</c></rc>
    <rc><c>Ni</c><c>   1</c></rc>
    <rc><c>Ni</c><c>   1</c></rc>
    <rc><c>Ni</c><c>   1</c></rc>
    <rc><c>Ni</c><c>   1</c></rc>
    <rc><c>Ni</c><c>   1</c></rc>
    <rc><c>Ni</c><c>   1</c></rc>
    <rc><c>Ni</c><c>   1</c></rc>
    <rc><c>Ni</c><c>   1</c></rc>
    <rc><c>Ni</c><c>   1</c></rc>
    <rc><c>Ni</c><c>   1</c></rc>
    <rc><c>Ni</c><c>   1</c></rc>
    <rc><c>Ni</c><c>   1</c></rc>
    <rc><c>Ni</c><c>   1</c></rc>
    <rc><c>Ni</c><c>   1</c></rc>
    <rc><c>Ni</c><c>   1</c></rc>
    <rc><c>Ni</c><c>   1</c></rc>
    <rc><c>Ni</c><c>   1</c></rc>
    <rc><c>Ni</c><c>   1</c></rc>
    <rc><c>Ni</c><c>   1</c></rc>
    <rc><c>Ni</c><c>   1</c></rc>
    <rc><c>Ni</c><c>   1</c></rc>
    <rc><c>Ni</c><c>   1</c></rc>
    <rc><c>Ni</c><c>   1</c></rc>
    <rc><c>Ni</c><c>   1</c></rc>
    <rc><c>Ni</c><c>   1</c></rc>
    <rc><c>Ni</c><c>   1</c></rc>
    <rc><c>Ni</c><c>   1</c></rc>
    <rc><c>Ni</c><c>   1</c></rc>
    <rc><c>Ni</c><c>   1</c></rc>
    <rc><c>Ni</c><c>   1</c></rc>
    <rc><c>Ni</c><c>   1</c></rc>
    <rc><c>Ni</c><c>   1</c></rc>
    <rc><c>Ni</c><c>   1</c></rc>
    <rc><c>Ni</c><c>   1</c></rc>
    <rc><c>Ni</c><c>   1</c></rc>
    <rc><c>Ni</c><c>   1</c></rc>
    <rc><c>Ni</c><c>   1</c></rc>
    <rc><c>Ni</c><c>   1</c></rc>
    <rc><c>Ni</c><c>   1</c></rc>
    <rc><c>Ni</c><c>   1</c></rc>
    <rc><c>Ni</c><c>   1</c></rc>
    <rc><c>Ni</c><c>   1</c></rc>
    <rc><c>Ni</c><c>   1</c></rc>
    <rc><c>Ni</c><c>   1</c></rc>
    <rc><c>Ni</c><c>   1</c></rc>
    <rc><c>Ni</c><c>   1</c></rc>
    <rc><c>Ni</c><c>   1</c></rc>
    <rc><c>Ni</c><c>   1</c></rc>
    <rc><c>Ni</c><c>   1</c></rc>
    <rc><c>Ni</c><c>   1</c></rc>
    <rc><c>Ni</c><c>   1</c></rc>
    <rc><c>Ni</c><c>   1</c></rc>
    <rc><c>Ni</c><c>   1</c></rc>
    <rc><c>Ni</c><c>   1</c></rc>
    <rc><c>Ni</c><c>   1</c></rc>
    <rc><c>Ni</c><c>   1</c></rc>
    <rc><c>Ni</c><c>   1</c></rc>
    <rc><c>Ni</c><c>   1</c></rc>
    <rc><c>Ni</c><c>   1</c></rc>
    <rc><c>Ni</c><c>   1</c></rc>
    <rc><c>Ni</c><c>   1</c></rc>
    <rc><c>Ni</c><c>   1</c></rc>
    <rc><c>Ni</c><c>   1</c></rc>
    <rc><c>Ni</c><c>   1</c></rc>
    <rc><c>Ni</c><c>   1</c></rc>
    <rc><c>Ni</c><c>   1</c></rc>
    <rc><c>Ni</c><c>   1</c></rc>
    <rc><c>Ni</c><c>   1</c></rc>
    <rc><c>Ni</c><c>   1</c></rc>
    <rc><c>Ni</c><c>   1</c></rc>
    <rc><c>Ni</c><c>   1</c></rc>
    <rc><c>Ni</c><c>   1</c></rc>
    <rc><c>Ni</c><c>   1</c></rc>
    <rc><c>Ni</c><c>   1</c></rc>
    <rc><c>Ni</c><c>   1</c></rc>
    <rc><c>Ni</c><c>   1</c></rc>
    <rc><c>Ni</c><c>   1</c></rc>
    <rc><c>Ni</c><c>   1</c></rc>
    <rc><c>Ni</c><c>   1</c></rc>
    <rc><c>Ni</c><c>   1</c></rc>
    <rc><c>Ni</c><c>   1</c></rc>
    <rc><c>Ni</c><c>   1</c></rc>
    <rc><c>Ni</c><c>   1</c></rc>
    <rc><c>Ni</c><c>   1</c></rc>
    <rc><c>Ni</c><c>   1</c></rc>
    <rc><c>Ni</c><c>   1</c></rc>
    <rc><c>Ni</c><c>   1</c></rc>
    <rc><c>Ni</c><c>   1</c></rc>
    <rc><c>Ni</c><c>   1</c></rc>
    <rc><c>Ni</c><c>   1</c></rc>
    <rc><c>Ni</c><c>   1</c></rc>
    <rc><c>Ni</c><c>   1</c></rc>
    <rc><c>Ni</c><c>   1</c></rc>
    <rc><c>Ni</c><c>   1</c></rc>
    <rc><c>Ni</c><c>   1</c></rc>
    <rc><c>Ni</c><c>   1</c></rc>
    <rc><c>Ni</c><c>   1</c></rc>
    <rc><c>Ni</c><c>   1</c></rc>
    <rc><c>Ni</c><c>   1</c></rc>
    <rc><c>Ni</c><c>   1</c></rc>
    <rc><c>Ni</c><c>   1</c></rc>
    <rc><c>Ni</c><c>   1</c></rc>
    <rc><c>Ni</c><c>   1</c></rc>
    <rc><c>Ni</c><c>   1</c></rc>
    <rc><c>Ni</c><c>   1</c></rc>
    <rc><c>Ni</c><c>   1</c></rc>
    <rc><c>Ni</c><c>   1</c></rc>
    <rc><c>Ni</c><c>   1</c></rc>
    <rc><c>Ni</c><c>   1</c></rc>
    <rc><c>Ni</c><c>   1</c></rc>
    <rc><c>Ni</c><c>   1</c></rc>
    <rc><c>Ni</c><c>   1</c></rc>
    <rc><c>Ni</c><c>   1</c></rc>
    <rc><c>Ni</c><c>   1</c></rc>
    <rc><c>Ni</c><c>   1</c></rc>
    <rc><c>Ni</c><c>   1</c></rc>
    <rc><c>Ni</c><c>   1</c></rc>
    <rc><c>Ni</c><c>   1</c></rc>
    <rc><c>Ni</c><c>   1</c></rc>
    <rc><c>Ni</c><c>   1</c></rc>
    <rc><c>Ni</c><c>   1</c></rc>
    <rc><c>Ni</c><c>   1</c></rc>
    <rc><c>Ni</c><c>   1</c></rc>
    <rc><c>Ni</c><c>   1</c></rc>
    <rc><c>Ni</c><c>   1</c></rc>
    <rc><c>Ni</c><c>   1</c></rc>
    <rc><c>Ni</c><c>   1</c></rc>
    <rc><c>Ni</c><c>   1</c></rc>
    <rc><c>Ni</c><c>   1</c></rc>
    <rc><c>Ni</c><c>   1</c></rc>
    <rc><c>Ni</c><c>   1</c></rc>
    <rc><c>Ni</c><c>   1</c></rc>
    <rc><c>Ni</c><c>   1</c></rc>
    <rc><c>Ni</c><c>   1</c></rc>
    <rc><c>Ni</c><c>   1</c></rc>
    <rc><c>Ni</c><c>   1</c></rc>
    <rc><c>Ni</c><c>   1</c></rc>
    <rc><c>Ni</c><c>   1</c></rc>
    <rc><c>Ni</c><c>   1</c></rc>
    <rc><c>Ni</c><c>   1</c></rc>
    <rc><c>Ni</c><c>   1</c></rc>
    <rc><c>Ni</c><c>   1</c></rc>
    <rc><c>Ni</c><c>   1</c></rc>
    <rc><c>Ni</c><c>   1</c></rc>
    <rc><c>Ni</c><c>   1</c></rc>
    <rc><c>Ni</c><c>   1</c></rc>
    <rc><c>Ni</c><c>   1</c></rc>
    <rc><c>Ni</c><c>   1</c></rc>
    <rc><c>Ni</c><c>   1</c></rc>
    <rc><c>Ni</c><c>   1</c></rc>
    <rc><c>Ni</c><c>   1</c></rc>
    <rc><c>Ni</c><c>   1</c></rc>
    <rc><c>Ni</c><c>   1</c></rc>
    <rc><c>Ni</c><c>   1</c></rc>
    <rc><c>Ni</c><c>   1</c></rc>
    <rc><c>Ni</c><c>   1</c></rc>
    <rc><c>Ni</c><c>   1</c></rc>
    <rc><c>Ni</c><c>   1</c></rc>
    <rc><c>Ni</c><c>   1</c></rc>
    <rc><c>Ni</c><c>   1</c></rc>
    <rc><c>Ni</c><c>   1</c></rc>
    <rc><c>Ni</c><c>   1</c></rc>
    <rc><c>Ni</c><c>   1</c></rc>
    <rc><c>Ni</c><c>   1</c></rc>
    <rc><c>Ni</c><c>   1</c></rc>
    <rc><c>Ni</c><c>   1</c></rc>
    <rc><c>Ni</c><c>   1</c></rc>
    <rc><c>Ni</c><c>   1</c></rc>
    <rc><c>Ni</c><c>   1</c></rc>
    <rc><c>Ni</c><c>   1</c></rc>
    <rc><c>Ni</c><c>   1</c></rc>
    <rc><c>Ni</c><c>   1</c></rc>
    <rc><c>Ni</c><c>   1</c></rc>
    <rc><c>Ni</c><c>   1</c></rc>
    <rc><c>Ni</c><c>   1</c></rc>
    <rc><c>Ni</c><c>   1</c></rc>
    <rc><c>Ni</c><c>   1</c></rc>
    <rc><c>Ni</c><c>   1</c></rc>
    <rc><c>Ni</c><c>   1</c></rc>
    <rc><c>Ni</c><c>   1</c></rc>
    <rc><c>Ni</c><c>   1</c></rc>
    <rc><c>Ni</c><c>   1</c></rc>
    <rc><c>Ni</c><c>   1</c></rc>
    <rc><c>Ni</c><c>   1</c></rc>
    <rc><c>Ni</c><c>   1</c></rc>
    <rc><c>Ni</c><c>   1</c></rc>
    <rc><c>Ni</c><c>   1</c></rc>
    <rc><c>Ni</c><c>   1</c></rc>
    <rc><c>Ni</c><c>   1</c></rc>
    <rc><c>Ni</c><c>   1</c></rc>
    <rc><c>Ni</c><c>   1</c></rc>
    <rc><c>Ni</c><c>   1</c></rc>
    <rc><c>Ni</c><c>   1</c></rc>
    <rc><c>Ni</c><c>   1</c></rc>
    <rc><c>Ni</c><c>   1</c></rc>
    <rc><c>Ni</c><c>   1</c></rc>
    <rc><c>Ni</c><c>   1</c></rc>
    <rc><c>Ni</c><c>   1</c></rc>
    <rc><c>Ni</c><c>   1</c></rc>
    <rc><c>Ni</c><c>   1</c></rc>
    <rc><c>Ni</c><c>   1</c></rc>
    <rc><c>Ni</c><c>   1</c></rc>
    <rc><c>Ni</c><c>   1</c></rc>
    <rc><c>Ni</c><c>   1</c></rc>
    <rc><c>O </c><c>   2</c></rc>
   </set>
  </array>
  <array name="atomtypes" >
   <dimension dim="1">type</dimension>
   <field type="int">atomspertype</field>
   <field type="string">element</field>
   <field>mass</field>
   <field>valence</field>
   <field type="string">pseudopotential</field>
   <set>
    <rc><c> 256</c><c>Ni</c><c>     58.69000000</c><c>     10.00000000</c><c>  PAW Ni_GW 31Mar2010                   </c></rc>
    <rc><c>   1</c><c>O </c><c>     16.00000000</c><c>      6.00000000</c><c>  PAW O_GW 19Mar2012                    </c></rc>
   </set>
  </array>
 </atominfo>
 <structure name="initialpos" >
  <crystal>
   <varray name="basis" >
    <v>      14.28000000       0.00000000       0.00000000 </v>
    <v>       0.00000000      14.28000000       0.00000000 </v>
    <v>       0.00000000       0.00000000      14.28000000 </v>
   </varray>
   <i name="volume">   2911.95475200 </i>
   <varray name="rec_basis" >
    <v>       0.07002801       0.00000000       0.00000000 </v>
    <v>       0.00000000       0.07002801       0.00000000 </v>
    <v>       0.00000000       0.00000000       0.07002801 </v>
   </varray>
  </crystal>
  <varray name="positions" >
   <v>       0.00000000       0.00000000       0.00000000 </v>
   <v>       0.00000000       0.12500000       0.12500000 </v>
   <v>       0.12500000       0.00000000       0.12500000 </v>
   <v>       0.12500000       0.12500000       0.00000000 </v>
   <v>       0.00000000       0.00000000       0.25000000 </v>
   <v>       0.00000000       0.12500000       0.37500000 </v>
   <v>       0.12500000       0.00000000       0.37500000 </v>
   <v>       0.12500000       0.12500000       0.25000000 </v>
   <v>       0.00000000       0.00000000       0.50000000 </v>
   <v>       0.00000000       0.12500000       0.62500000 </v>
   <v>       0.12500000       0.00000000       0.62500000 </v>
   <v>       0.12500000       0.12500000       0.50000000 </v>
   <v>       0.00000000       0.00000000       0.75000000 </v>
   <v>       0.00000000       0.12500000       0.87500000 </v>
   <v>       0.12500000       0.00000000       0.87500000 </v>
   <v>       0.12500000       0.12500000       0.75000000 </v>
   <v>       0.00000000       0.25000000       0.00000000 </v>
   <v>       0.00000000       0.37500000       0.12500000 </v>
   <v>       0.12500000       0.25000000       0.12500000 </v>
   <v>       0.12500000       0.37500000       0.00000000 </v>
   <v>       0.00000000       0.25000000       0.25000000 </v>
   <v>       0.00000000       0.37500000       0.37500000 </v>
   <v>       0.12500000       0.25000000       0.37500000 </v>
   <v>       0.12500000       0.37500000       0.25000000 </v>
   <v>       0.00000000       0.25000000       0.50000000 </v>
   <v>       0.00000000       0.37500000       0.62500000 </v>
   <v>       0.12500000       0.25000000       0.62500000 </v>
   <v>       0.12500000       0.37500000       0.50000000 </v>
   <v>       0.00000000       0.25000000       0.75000000 </v>
   <v>       0.00000000       0.37500000       0.87500000 </v>
   <v>       0.12500000       0.25000000       0.87500000 </v>
   <v>       0.12500000       0.37500000       0.75000000 </v>
   <v>       0.00000000       0.50000000       0.00000000 </v>
   <v>       0.00000000       0.62500000       0.12500000 </v>
   <v>       0.12500000       0.50000000       0.12500000 </v>
   <v>       0.12500000       0.62500000       0.00000000 </v>
   <v>       0.00000000       0.50000000       0.25000000 </v>
   <v>       0.00000000       0.62500000       0.37500000 </v>
   <v>       0.12500000       0.50000000       0.37500000 </v>
   <v>       0.12500000       0.62500000       0.25000000 </v>
   <v>       0.00000000       0.50000000       0.50000000 </v>
   <v>       0.00000000       0.62500000       0.62500000 </v>
   <v>       0.12500000       0.50000000       0.62500000 </v>
   <v>       0.12500000       0.62500000       0.50000000 </v>
   <v>       0.00000000       0.50000000       0.75000000 </v>
   <v>       0.00000000       0.62500000       0.87500000 </v>
   <v>       0.12500000       0.50000000       0.87500000 </v>
   <v>       0.12500000       0.62500000       0.75000000 </v>
   <v>       0.00000000       0.75000000       0.00000000 </v>
   <v>       0.00000000       0.87500000       0.12500000 </v>
   <v>       0.12500000       0.75000000       0.12500000 </v>
   <v>       0.12500000       0.87500000       0.00000000 </v>
   <v>       0.00000000       0.75000000       0.25000000 </v>
   <v>       0.00000000       0.87500000       0.37500000 </v>
   <v>       0.12500000       0.75000000       0.37500000 </v>
   <v>       0.12500000       0.87500000       0.25000000 </v>
   <v>       0.00000000       0.75000000       0.50000000 </v>
   <v>       0.00000000       0.87500000       0.62500000 </v>
   <v>       0.12500000       0.75000000       0.62500000 </v>
   <v>       0.12500000       0.87500000       0.50000000 </v>
   <v>       0.00000000       0.75000000       0.75000000 </v>
   <v>       0.00000000       0.87500000       0.87500000 </v>
   <v>       0.12500000       0.75000000       0.87500000 </v>
   <v>       0.12500000       0.87500000       0.75000000 </v>
   <v>       0.25000000       0.00000000       0.00000000 </v>
   <v>       0.25000000       0.12500000       0.12500000 </v>
   <v>       0.37500000       0.00000000       0.12500000 </v>
   <v>       0.37500000       0.12500000       0.00000000 </v>
   <v>       0.25000000       0.00000000       0.25000000 </v>
   <v>       0.25000000       0.12500000       0.37500000 </v>
   <v>       0.37500000       0.00000000       0.37500000 </v>
   <v>       0.37500000       0.12500000       0.25000000 </v>
   <v>       0.25000000       0.00000000       0.50000000 </v>
   <v>       0.25000000       0.12500000       0.62500000 </v>
   <v>       0.37500000       0.00000000       0.62500000 </v>
   <v>       0.37500000       0.12500000       0.50000000 </v>
   <v>       0.25000000       0.00000000       0.75000000 </v>
   <v>       0.25000000       0.12500000       0.87500000 </v>
   <v>       0.37500000       0.00000000       0.87500000 </v>
   <v>       0.37500000       0.12500000       0.75000000 </v>
   <v>       0.25000000       0.25000000       0.00000000 </v>
   <v>       0.25000000       0.37500000       0.12500000 </v>
   <v>       0.37500000       0.25000000       0.12500000 </v>
   <v>       0.37500000       0.37500000       0.00000000 </v>
   <v>       0.25000000       0.25000000       0.25000000 </v>
   <v>       0.25000000       0.37500000       0.37500000 </v>
   <v>       0.37500000       0.25000000       0.37500000 </v>
   <v>       0.37500000       0.37500000       0.25000000 </v>
   <v>       0.25000000       0.25000000       0.50000000 </v>
   <v>       0.25000000       0.37500000       0.62500000 </v>
   <v>       0.37500000       0.25000000       0.62500000 </v>
   <v>       0.37500000       0.37500000       0.50000000 </v>
   <v>       0.25000000       0.25000000       0.75000000 </v>
   <v>       0.25000000       0.37500000       0.87500000 </v>
   <v>       0.37500000       0.25000000       0.87500000 </v>
   <v>       0.37500000       0.37500000       0.75000000 </v>
   <v>       0.25000000       0.50000000       0.00000000 </v>
   <v>       0.25000000       0.62500000       0.12500000 </v>
   <v>       0.37500000       0.50000000       0.12500000 </v>
   <v>       0.37500000       0.62500000       0.00000000 </v>
   <v>       0.25000000       0.50000000       0.25000000 </v>
   <v>       0.25000000       0.62500000       0.37500000 </v>
   <v>       0.37500000       0.50000000       0.37500000 </v>
   <v>       0.37500000       0.62500000       0.25000000 </v>
   <v>       0.25000000       0.50000000       0.50000000 </v>
   <v>       0.25000000       0.62500000       0.62500000 </v>
   <v>       0.37500000       0.50000000       0.62500000 </v>
   <v>       0.37500000       0.62500000       0.50000000 </v>
   <v>       0.25000000       0.50000000       0.75000000 </v>
   <v>       0.25000000       0.62500000       0.87500000 </v>
   <v>       0.37500000       0.50000000       0.87500000 </v>
   <v>       0.37500000       0.62500000       0.75000000 </v>
   <v>       0.25000000       0.75000000       0.00000000 </v>
   <v>       0.25000000       0.87500000       0.12500000 </v>
   <v>       0.37500000       0.75000000       0.12500000 </v>
   <v>       0.37500000       0.87500000       0.00000000 </v>
   <v>       0.25000000       0.75000000       0.25000000 </v>
   <v>       0.25000000       0.87500000       0.37500000 </v>
   <v>       0.37500000       0.75000000       0.37500000 </v>
   <v>       0.37500000       0.87500000       0.25000000 </v>
   <v>       0.25000000       0.75000000       0.50000000 </v>
   <v>       0.25000000       0.87500000       0.62500000 </v>
   <v>       0.37500000       0.75000000       0.62500000 </v>
   <v>       0.37500000       0.87500000       0.50000000 </v>
   <v>       0.25000000       0.75000000       0.75000000 </v>
   <v>       0.25000000       0.87500000       0.87500000 </v>
   <v>       0.37500000       0.75000000       0.87500000 </v>
   <v>       0.37500000       0.87500000       0.75000000 </v>
   <v>       0.50000000       0.00000000       0.00000000 </v>
   <v>       0.50000000       0.12500000       0.12500000 </v>
   <v>       0.62500000       0.00000000       0.12500000 </v>
   <v>       0.62500000       0.12500000       0.00000000 </v>
   <v>       0.50000000       0.00000000       0.25000000 </v>
   <v>       0.50000000       0.12500000       0.37500000 </v>
   <v>       0.62500000       0.00000000       0.37500000 </v>
   <v>       0.62500000       0.12500000       0.25000000 </v>
   <v>       0.50000000       0.00000000       0.50000000 </v>
   <v>       0.50000000       0.12500000       0.62500000 </v>
   <v>       0.62500000       0.00000000       0.62500000 </v>
   <v>       0.62500000       0.12500000       0.50000000 </v>
   <v>       0.50000000       0.00000000       0.75000000 </v>
   <v>       0.50000000       0.12500000       0.87500000 </v>
   <v>       0.62500000       0.00000000       0.87500000 </v>
   <v>       0.62500000       0.12500000       0.75000000 </v>
   <v>       0.50000000       0.25000000       0.00000000 </v>
   <v>       0.50000000       0.37500000       0.12500000 </v>
   <v>       0.62500000       0.25000000       0.12500000 </v>
   <v>       0.62500000       0.37500000       0.00000000 </v>
   <v>       0.50000000       0.25000000       0.25000000 </v>
   <v>       0.50000000       0.37500000       0.37500000 </v>
   <v>       0.62500000       0.25000000       0.37500000 </v>
   <v>       0.62500000       0.37500000       0.25000000 </v>
   <v>       0.50000000       0.25000000       0.50000000 </v>
   <v>       0.50000000       0.37500000       0.62500000 </v>
   <v>       0.62500000       0.25000000       0.62500000 </v>
   <v>       0.62500000       0.37500000       0.50000000 </v>
   <v>       0.50000000       0.25000000       0.75000000 </v>
   <v>       0.50000000       0.37500000       0.87500000 </v>
   <v>       0.62500000       0.25000000       0.87500000 </v>
   <v>       0.62500000       0.37500000       0.75000000 </v>
   <v>       0.50000000       0.50000000       0.00000000 </v>
   <v>       0.50000000       0.62500000       0.12500000 </v>
   <v>       0.62500000       0.50000000       0.12500000 </v>
   <v>       0.62500000       0.62500000       0.00000000 </v>
   <v>       0.50000000       0.50000000       0.25000000 </v>
   <v>       0.50000000       0.62500000       0.37500000 </v>
   <v>       0.62500000       0.50000000       0.37500000 </v>
   <v>       0.62500000       0.62500000       0.25000000 </v>
   <v>       0.50000000       0.50000000       0.50000000 </v>
   <v>       0.50000000       0.62500000       0.62500000 </v>
   <v>       0.62500000       0.50000000       0.62500000 </v>
   <v>       0.62500000       0.62500000       0.50000000 </v>
   <v>       0.50000000       0.50000000       0.75000000 </v>
   <v>       0.50000000       0.62500000       0.87500000 </v>
   <v>       0.62500000       0.50000000       0.87500000 </v>
   <v>       0.62500000       0.62500000       0.75000000 </v>
   <v>       0.50000000       0.75000000       0.00000000 </v>
   <v>       0.50000000       0.87500000       0.12500000 </v>
   <v>       0.62500000       0.75000000       0.12500000 </v>
   <v>       0.62500000       0.87500000       0.00000000 </v>
   <v>       0.50000000       0.75000000       0.25000000 </v>
   <v>       0.50000000       0.87500000       0.37500000 </v>
   <v>       0.62500000       0.75000000       0.37500000 </v>
   <v>       0.62500000       0.87500000       0.25000000 </v>
   <v>       0.50000000       0.75000000       0.50000000 </v>
   <v>       0.50000000       0.87500000       0.62500000 </v>
   <v>       0.62500000       0.75000000       0.62500000 </v>
   <v>       0.62500000       0.87500000       0.50000000 </v>
   <v>       0.50000000       0.75000000       0.75000000 </v>
   <v>       0.50000000       0.87500000       0.87500000 </v>
   <v>       0.62500000       0.75000000       0.87500000 </v>
   <v>       0.62500000       0.87500000       0.75000000 </v>
   <v>       0.75000000       0.00000000       0.00000000 </v>
   <v>       0.75000000       0.12500000       0.12500000 </v>
   <v>       0.87500000       0.00000000       0.12500000 </v>
   <v>       0.87500000       0.12500000       0.00000000 </v>
   <v>       0.75000000       0.00000000       0.25000000 </v>
   <v>       0.75000000       0.12500000       0.37500000 </v>
   <v>       0.87500000       0.00000000       0.37500000 </v>
   <v>       0.87500000       0.12500000       0.25000000 </v>
   <v>       0.75000000       0.00000000       0.50000000 </v>
   <v>       0.75000000       0.12500000       0.62500000 </v>
   <v>       0.87500000       0.00000000       0.62500000 </v>
   <v>       0.87500000       0.12500000       0.50000000 </v>
   <v>       0.75000000       0.00000000       0.75000000 </v>
   <v>       0.75000000       0.12500000       0.87500000 </v>
   <v>       0.87500000       0.00000000       0.87500000 </v>
   <v>       0.87500000       0.12500000       0.75000000 </v>
   <v>       0.75000000       0.25000000       0.00000000 </v>
   <v>       0.75000000       0.37500000       0.12500000 </v>
   <v>       0.87500000       0.25000000       0.12500000 </v>
   <v>       0.87500000       0.37500000       0.00000000 </v>
   <v>       0.75000000       0.25000000       0.25000000 </v>
   <v>       0.75000000       0.37500000       0.37500000 </v>
   <v>       0.87500000       0.25000000       0.37500000 </v>
   <v>       0.87500000       0.37500000       0.25000000 </v>
   <v>       0.75000000       0.25000000       0.50000000 </v>
   <v>       0.75000000       0.37500000       0.62500000 </v>
   <v>       0.87500000       0.25000000       0.62500000 </v>
   <v>       0.87500000       0.37500000       0.50000000 </v>
   <v>       0.75000000       0.25000000       0.75000000 </v>
   <v>       0.75000000       0.37500000       0.87500000 </v>
   <v>       0.87500000       0.25000000       0.87500000 </v>
   <v>       0.87500000       0.37500000       0.75000000 </v>
   <v>       0.75000000       0.50000000       0.00000000 </v>
   <v>       0.75000000       0.62500000       0.12500000 </v>
   <v>       0.87500000       0.50000000       0.12500000 </v>
   <v>       0.87500000       0.62500000       0.00000000 </v>
   <v>       0.75000000       0.50000000       0.25000000 </v>
   <v>       0.75000000       0.62500000       0.37500000 </v>
   <v>       0.87500000       0.50000000       0.37500000 </v>
   <v>       0.87500000       0.62500000       0.25000000 </v>
   <v>       0.75000000       0.50000000       0.50000000 </v>
   <v>       0.75000000       0.62500000       0.62500000 </v>
   <v>       0.87500000       0.50000000       0.62500000 </v>
   <v>       0.87500000       0.62500000       0.50000000 </v>
   <v>       0.75000000       0.50000000       0.75000000 </v>
   <v>       0.75000000       0.62500000       0.87500000 </v>
   <v>       0.87500000       0.50000000       0.87500000 </v>
   <v>       0.87500000       0.62500000       0.75000000 </v>
   <v>       0.75000000       0.75000000       0.00000000 </v>
   <v>       0.75000000       0.87500000       0.12500000 </v>
   <v>       0.87500000       0.75000000       0.12500000 </v>
   <v>       0.87500000       0.87500000       0.00000000 </v>
   <v>       0.75000000       0.75000000       0.25000000 </v>
   <v>       0.75000000       0.87500000       0.37500000 </v>
   <v>       0.87500000       0.75000000       0.37500000 </v>
   <v>       0.87500000       0.87500000       0.25000000 </v>
   <v>       0.75000000       0.75000000       0.50000000 </v>
   <v>       0.75000000       0.87500000       0.62500000 </v>
   <v>       0.87500000       0.75000000       0.62500000 </v>
   <v>       0.87500000       0.87500000       0.50000000 </v>
   <v>       0.75000000       0.75000000       0.75000000 </v>
   <v>       0.75000000       0.87500000       0.87500000 </v>
   <v>       0.87500000       0.75000000       0.87500000 </v>
   <v>       0.87500000       0.87500000       0.75000000 </v>
   <v>       0.06250000       0.06250000       0.06250000 </v>
  </varray>
 </structure>
 <calculation>
  <scstep>
   <time name="dav">   21.53   21.53</time>
   <time name="total">   22.09   22.10</time>
   <energy>
    <i name="alphaZ">  24412.04579882 </i>
    <i name="ewald">-236959.77436366 </i>
    <i name="hartreedc"> -57879.50225344 </i>
    <i name="XCdc">   2994.08280731 </i>
    <i name="pawpsdc"> 244105.08701996 </i>
    <i name="pawaedc">-263975.98553231 </i>
    <i name="eentropy">     -0.08964512 </i>
    <i name="bandstr">  35048.07423992 </i>
    <i name="atom"> 276302.30071629 </i>
    <i name="e_fr_energy">  24046.23878778 </i>
    <i name="e_wo_entrp">  24046.32843290 </i>
    <i name="e_0_energy">  24046.28361034 </i>
   </energy>
  </scstep>
  <scstep>
   <time name="dav">   21.30   21.30</time>
   <time name="total">   21.31   21.31</time>
   <energy>
    <i name="e_fr_energy">    348.42260981 </i>
    <i name="e_wo_entrp">    348.65762596 </i>
    <i name="e_0_energy">    348.54011789 </i>
   </energy>
  </scstep>
  <scstep>
   <time name="dav">   22.11   22.11</time>
   <time name="total">   22.12   22.12</time>
   <energy>
    <i name="e_fr_energy">  -1430.79244950 </i>
    <i name="e_wo_entrp">  -1429.92896231 </i>
    <i name="e_0_energy">  -1430.36070590 </i>
   </energy>
  </scstep>
  <scstep>
   <time name="dav">   33.99   33.99</time>
   <time name="total">   33.99   34.00</time>
   <energy>
    <i name="e_fr_energy">  -1636.18801883 </i>
    <i name="e_wo_entrp">  -1634.87486376 </i>
    <i name="e_0_energy">  -1635.53144130 </i>
   </energy>
  </scstep>
  <scstep>
   <time name="dav">   27.09   27.10</time>
   <time name="total">   28.18   28.18</time>
   <energy>
    <i name="e_fr_energy">  -1643.32570375 </i>
    <i name="e_wo_entrp">  -1641.99890023 </i>
    <i name="e_0_energy">  -1642.66230199 </i>
   </energy>
  </scstep>
  <scstep>
   <time name="dav">   22.29   22.29</time>
   <time name="total">   23.93   23.93</time>
   <energy>
    <i name="e_fr_energy">  -1500.50503268 </i>
    <i name="e_wo_entrp">  -1499.01548387 </i>
    <i name="e_0_energy">  -1499.76025827 </i>
   </energy>
  </scstep>
  <scstep>
   <time name="dav">   22.45   22.45</time>
   <time name="total">   24.09   24.10</time>
   <energy>
    <i name="e_fr_energy">  -1472.90645847 </i>
    <i name="e_wo_entrp">  -1472.07278444 </i>
    <i name="e_0_energy">  -1472.48962146 </i>
   </energy>
  </scstep>
  <scstep>
   <time name="dav">   22.88   22.88</time>
   <time name="total">   24.52   24.53</time>
   <energy>
    <i name="e_fr_energy">  -1511.96363708 </i>
    <i name="e_wo_entrp">  -1511.38213139 </i>
    <i name="e_0_energy">  -1511.67288424 </i>
   </energy>
  </scstep>
  <scstep>
   <time name="dav">   24.41   24.41</time>
   <time name="total">   26.07   26.07</time>
   <energy>
    <i name="e_fr_energy">  -1566.44578701 </i>
    <i name="e_wo_entrp">  -1565.91665505 </i>
    <i name="e_0_energy">  -1566.18122103 </i>
   </energy>
  </scstep>
  <scstep>
   <time name="dav">   23.07   23.07</time>
   <time name="total">   24.73   24.73</time>
   <energy>
    <i name="e_fr_energy">  -1543.68437182 </i>
    <i name="e_wo_entrp">  -1543.02935084 </i>
    <i name="e_0_energy">  -1543.35686133 </i>
   </energy>
  </scstep>
  <scstep>
   <time name="dav">   22.78   22.78</time>
   <time name="total">   24.41   24.41</time>
   <energy>
    <i name="e_fr_energy">  -1492.34249830 </i>
    <i name="e_wo_entrp">  -1491.79052164 </i>
    <i name="e_0_energy">  -1492.06650997 </i>
   </energy>
  </scstep>
  <scstep>
   <time name="dav">   22.43   22.43</time>
   <time name="total">   24.08   24.08</time>
   <energy>
    <i name="e_fr_energy">  -1501.08702116 </i>
    <i name="e_wo_entrp">  -1500.46752210 </i>
    <i name="e_0_energy">  -1500.77727163 </i>
   </energy>
  </scstep>
  <scstep>
   <time name="dav">   22.41   22.41</time>
   <time name="total">   24.07   24.07</time>
   <energy>
    <i name="e_fr_energy">  -1416.22669143 </i>
    <i name="e_wo_entrp">  -1415.16449039 </i>
    <i name="e_0_energy">  -1415.69559091 </i>
   </energy>
  </scstep>
  <scstep>
   <time name="dav">   22.46   22.46</time>
   <time name="total">   24.14   24.14</time>
   <energy>
    <i name="e_fr_energy">  -1409.22801533 </i>
    <i name="e_wo_entrp">  -1408.23277813 </i>
    <i name="e_0_energy">  -1408.73039673 </i>
   </energy>
  </scstep>
  <scstep>
   <time name="dav">   23.23   23.23</time>
   <time name="total">   24.89   24.90</time>
   <energy>
    <i name="e_fr_energy">  -1411.03640230 </i>
    <i name="e_wo_entrp">  -1409.96412320 </i>
    <i name="e_0_energy">  -1410.50026275 </i>
   </energy>
  </scstep>
  <scstep>
   <time name="dav">   23.55   23.55</time>
   <time name="total">   25.22   25.22</time>
   <energy>
    <i name="e_fr_energy">  -1405.79331505 </i>
    <i name="e_wo_entrp">  -1404.66401387 </i>
    <i name="e_0_energy">  -1405.22866446 </i>
   </energy>
  </scstep>
  <scstep>
   <time name="dav">   22.59   22.59</time>
   <time name="total">   24.27   24.27</time>
   <energy>
    <i name="e_fr_energy">  -1393.25370236 </i>
    <i name="e_wo_entrp">  -1391.95954670 </i>
    <i name="e_0_energy">  -1392.60662453 </i>
   </energy>
  </scstep>
  <scstep>
   <time name="dav">   22.89   22.90</time>
   <time name="total">   24.58   24.59</time>
   <energy>
    <i name="e_fr_energy">  -1389.83955690 </i>
    <i name="e_wo_entrp">  -1388.50269300 </i>
    <i name="e_0_energy">  -1389.17112495 </i>
   </energy>
  </scstep>
  <scstep>
   <time name="dav">   24.43   24.43</time>
   <time name="total">   26.13   26.13</time>
   <energy>
    <i name="e_fr_energy">  -1389.56766546 </i>
    <i name="e_wo_entrp">  -1388.21547536 </i>
    <i name="e_0_energy">  -1388.89157041 </i>
   </energy>
  </scstep>
  <scstep>
   <time name="dav">   22.83   22.83</time>
   <time name="total">   24.53   24.54</time>
   <energy>
    <i name="e_fr_energy">  -1388.17065906 </i>
    <i name="e_wo_entrp">  -1386.71949361 </i>
    <i name="e_0_energy">  -1387.44507633 </i>
   </energy>
  </scstep>
  <scstep>
   <time name="dav">   32.51   32.52</time>
   <time name="total">   34.22   34.22</time>
   <energy>
    <i name="e_fr_energy">  -1387.84214335 </i>
    <i name="e_wo_entrp">  -1386.36940961 </i>
    <i name="e_0_energy">  -1387.10577648 </i>
   </energy>
  </scstep>
  <scstep>
   <time name="dav">   23.60   23.61</time>
   <time name="total">   25.31   25.32</time>
   <energy>
    <i name="e_fr_energy">  -1387.63820491 </i>
    <i name="e_wo_entrp">  -1386.18278407 </i>
    <i name="e_0_energy">  -1386.91049449 </i>
   </energy>
  </scstep>
  <scstep>
   <time name="dav">   23.69   23.69</time>
   <time name="total">   25.41   25.41</time>
   <energy>
    <i name="e_fr_energy">  -1387.09283844 </i>
    <i name="e_wo_entrp">  -1385.59346614 </i>
    <i name="e_0_energy">  -1386.34315229 </i>
   </energy>
  </scstep>
  <scstep>
   <time name="dav">   23.69   23.69</time>
   <time name="total">   25.40   25.41</time>
   <energy>
    <i name="e_fr_energy">  -1387.39405979 </i>
    <i name="e_wo_entrp">  -1385.90111878 </i>
    <i name="e_0_energy">  -1386.64758929 </i>
   </energy>
  </scstep>
  <scstep>
   <time name="dav">   24.41   24.42</time>
   <time name="total">   26.15   26.15</time>
   <energy>
    <i name="e_fr_energy">  -1386.76209388 </i>
    <i name="e_wo_entrp">  -1385.24839895 </i>
    <i name="e_0_energy">  -1386.00524642 </i>
   </energy>
  </scstep>
  <scstep>
   <time name="dav">   25.24   25.24</time>
   <time name="total">   26.99   26.99</time>
   <energy>
    <i name="e_fr_energy">  -1386.38663720 </i>
    <i name="e_wo_entrp">  -1384.86771847 </i>
    <i name="e_0_energy">  -1385.62717784 </i>
   </energy>
  </scstep>
  <scstep>
   <time name="dav">   25.55   25.56</time>
   <time name="total">   27.31   27.31</time>
   <energy>
    <i name="e_fr_energy">  -1386.18745769 </i>
    <i name="e_wo_entrp">  -1384.66377497 </i>
    <i name="e_0_energy">  -1385.42561633 </i>
   </energy>
  </scstep>
  <scstep>
   <time name="dav">   23.94   23.95</time>
   <time name="total">   25.71   25.71</time>
   <energy>
    <i name="e_fr_energy">  -1385.85105462 </i>
    <i name="e_wo_entrp">  -1384.31119498 </i>
    <i name="e_0_energy">  -1385.08112480 </i>
   </energy>
  </scstep>
  <scstep>
   <time name="dav">   22.89   22.90</time>
   <time name="total">   24.67   24.67</time>
   <energy>
    <i name="e_fr_energy">  -1385.83888990 </i>
    <i name="e_wo_entrp">  -1384.29838183 </i>
    <i name="e_0_energy">  -1385.06863586 </i>
   </energy>
  </scstep>
  <scstep>
   <time name="dav">   24.11   24.12</time>
[...]
       <r>     5.3244    48.3037  2791.8973 </r>
       <r>     5.4243    59.3789  2797.8324 </r>
       <r>     5.5243   181.5363  2815.9778 </r>
       <r>     5.6242   207.2663  2836.6949 </r>
       <r>     5.7242    36.2219  2840.3155 </r>
       <r>     5.8241    44.5894  2844.7724 </r>
       <r>     5.9241    33.7234  2848.1432 </r>
       <r>     6.0240    73.0063  2855.4405 </r>
       <r>     6.1240    50.2202  2860.4602 </r>
       <r>     6.2239    27.5867  2863.2176 </r>
       <r>     6.3239   115.8096  2874.7933 </r>
       <r>     6.4239    59.2577  2880.7163 </r>
       <r>     6.5238   130.7341  2893.7838 </r>
       <r>     6.6238    80.5657  2901.8366 </r>
       <r>     6.7237    47.2829  2906.5628 </r>
       <r>     6.8237    29.1234  2909.4738 </r>
       <r>     6.9236    47.2755  2914.1992 </r>
       <r>     7.0236   134.2997  2927.6230 </r>
       <r>     7.1235    50.8698  2932.7077 </r>
       <r>     7.2235   100.0128  2942.7044 </r>
       <r>     7.3234    59.6824  2948.6699 </r>
       <r>     7.4234    28.8024  2951.5488 </r>
       <r>     7.5234    29.3084  2954.4783 </r>
       <r>     7.6233    49.8350  2959.4595 </r>
       <r>     7.7233   107.6651  2970.2211 </r>
       <r>     7.8232   113.4883  2981.5647 </r>
       <r>     7.9232    25.1834  2984.0819 </r>
       <r>     8.0231     8.9989  2984.9814 </r>
       <r>     8.1231   116.3364  2996.6097 </r>
       <r>     8.2230    37.4058  3000.3486 </r>
       <r>     8.3230    28.6103  3003.2083 </r>
       <r>     8.4229    11.8462  3004.3924 </r>
       <r>     8.5229    58.4634  3010.2361 </r>
       <r>     8.6228    15.1337  3011.7487 </r>
       <r>     8.7228    26.2892  3014.3764 </r>
       <r>     8.8228    47.8204  3019.1563 </r>
       <r>     8.9227   106.3436  3029.7858 </r>
       <r>     9.0227   121.3069  3041.9109 </r>
       <r>     9.1226    42.5543  3046.1644 </r>
       <r>     9.2226    16.2659  3047.7903 </r>
       <r>     9.3225     4.5633  3048.2464 </r>
       <r>     9.4225     0.0459  3048.2510 </r>
       <r>     9.5224     7.9851  3049.0491 </r>
       <r>     9.6224    43.5668  3053.4038 </r>
       <r>     9.7223     8.7292  3054.2763 </r>
       <r>     9.8223    32.1496  3057.4898 </r>
       <r>     9.9223   100.4401  3067.5293 </r>
       <r>    10.0222    30.5969  3070.5875 </r>
       <r>    10.1222    35.4341  3074.1293 </r>
       <r>    10.2221    37.7732  3077.9049 </r>
       <r>    10.3221     0.9511  3078.0000 </r>
       <r>    10.4220     0.0000  3078.0000 </r>
       <r>    10.5220     0.0000  3078.0000 </r>
       <r>    10.6219     0.0000  3078.0000 </r>
       <r>    10.7219     0.0000  3078.0000 </r>
       <r>    10.8218     0.0000  3078.0000 </r>
       <r>    10.9218     0.0000  3078.0000 </r>
       <r>    11.0218     0.0000  3078.0000 </r>
       <r>    11.1217     0.0000  3078.0000 </r>
       <r>    11.2217     0.0000  3078.0000 </r>
       <r>    11.3216     0.0000  3078.0000 </r>
       <r>    11.4216     0.0000  3078.0000 </r>
       <r>    11.5215     0.0000  3078.0000 </r>
      </set>
     </set>
    </array>
   </total>
  </dos>
 </calculation>
 <structure name="finalpos" >
  <crystal>
   <varray name="basis" >
    <v>      14.28000000       0.00000000       0.00000000 </v>
    <v>       0.00000000      14.28000000       0.00000000 </v>
    <v>       0.00000000       0.00000000      14.28000000 </v>
   </varray>
   <i name="volume">   2911.95475200 </i>
   <varray name="rec_basis" >
    <v>       0.07002801       0.00000000       0.00000000 </v>
    <v>       0.00000000       0.07002801       0.00000000 </v>
    <v>       0.00000000       0.00000000       0.07002801 </v>
   </varray>
  </crystal>
  <varray name="positions" >
   <v>      -0.00980536      -0.00980536      -0.00980536 </v>
   <v>      -0.00980536       0.13480536       0.13480536 </v>
   <v>       0.13480536      -0.00980536       0.13480536 </v>
   <v>       0.13480536       0.13480536      -0.00980536 </v>
   <v>      -0.00126996      -0.00126996       0.25278225 </v>
   <v>      -0.00039817       0.12539817       0.37521594 </v>
   <v>       0.12539817      -0.00039817       0.37521594 </v>
   <v>       0.12626996       0.12626996       0.25278225 </v>
   <v>      -0.00003774      -0.00003774       0.49998076 </v>
   <v>      -0.00003774       0.12503774       0.62501924 </v>
   <v>       0.12503774      -0.00003774       0.62501924 </v>
   <v>       0.12503774       0.12503774       0.49998076 </v>
   <v>      -0.00039817      -0.00039817       0.74978406 </v>
   <v>      -0.00126996       0.12626996       0.87221775 </v>
   <v>       0.12626996      -0.00126996       0.87221775 </v>
   <v>       0.12539817       0.12539817       0.74978406 </v>
   <v>      -0.00126996       0.25278225      -0.00126996 </v>
   <v>      -0.00039817       0.37521594       0.12539817 </v>
   <v>       0.12626996       0.25278225       0.12626996 </v>
   <v>       0.12539817       0.37521594      -0.00039817 </v>
   <v>      -0.00148504       0.25375954       0.25375954 </v>
   <v>      -0.00026989       0.37641909       0.37641909 </v>
   <v>       0.12520273       0.25090888       0.37590132 </v>
   <v>       0.12520273       0.37590132       0.25090888 </v>
   <v>      -0.00011784       0.25025777       0.50022195 </v>
   <v>      -0.00011752       0.37540804       0.62473174 </v>
   <v>       0.12511784       0.25025777       0.62477805 </v>
   <v>       0.12511752       0.37540804       0.50026826 </v>
   <v>      -0.00020273       0.25090888       0.74909868 </v>
   <v>      -0.00020273       0.37590132       0.87409112 </v>
   <v>       0.12648504       0.25375954       0.87124046 </v>
   <v>       0.12526989       0.37641909       0.74858091 </v>
   <v>      -0.00003774       0.49998076      -0.00003774 </v>
   <v>      -0.00003774       0.62501924       0.12503774 </v>
   <v>       0.12503774       0.49998076       0.12503774 </v>
   <v>       0.12503774       0.62501924      -0.00003774 </v>
   <v>      -0.00011784       0.50022195       0.25025777 </v>
   <v>      -0.00011752       0.62473174       0.37540804 </v>
   <v>       0.12511752       0.50026826       0.37540804 </v>
   <v>       0.12511784       0.62477805       0.25025777 </v>
   <v>      -0.00016620       0.50039188       0.50039188 </v>
   <v>      -0.00016620       0.62460812       0.62460812 </v>
   <v>       0.12516620       0.50039188       0.62460812 </v>
   <v>       0.12516620       0.62460812       0.50039188 </v>
   <v>      -0.00011752       0.50026826       0.74959196 </v>
   <v>      -0.00011784       0.62477805       0.87474223 </v>
   <v>       0.12511784       0.50022195       0.87474223 </v>
   <v>       0.12511752       0.62473174       0.74959196 </v>
   <v>      -0.00039817       0.74978406      -0.00039817 </v>
   <v>      -0.00126996       0.87221775       0.12626996 </v>
   <v>       0.12539817       0.74978406       0.12539817 </v>
   <v>       0.12626996       0.87221775      -0.00126996 </v>
   <v>      -0.00020273       0.74909868       0.25090888 </v>
   <v>      -0.00020273       0.87409112       0.37590132 </v>
   <v>       0.12526989       0.74858091       0.37641909 </v>
   <v>       0.12648504       0.87124046       0.25375954 </v>
   <v>      -0.00011752       0.74959196       0.50026826 </v>
   <v>      -0.00011784       0.87474223       0.62477805 </v>
   <v>       0.12511752       0.74959196       0.62473174 </v>
   <v>       0.12511784       0.87474223       0.50022195 </v>
   <v>      -0.00026989       0.74858091       0.74858091 </v>
   <v>      -0.00148504       0.87124046       0.87124046 </v>
   <v>       0.12520273       0.74909868       0.87409112 </v>
   <v>       0.12520273       0.87409112       0.74909868 </v>
   <v>       0.25278225      -0.00126996      -0.00126996 </v>
   <v>       0.25278225       0.12626996       0.12626996 </v>
   <v>       0.37521594      -0.00039817       0.12539817 </v>
   <v>       0.37521594       0.12539817      -0.00039817 </v>
   <v>       0.25375954      -0.00148504       0.25375954 </v>
   <v>       0.25090888       0.12520273       0.37590132 </v>
   <v>       0.37641909      -0.00026989       0.37641909 </v>
   <v>       0.37590132       0.12520273       0.25090888 </v>
   <v>       0.25025777      -0.00011784       0.50022195 </v>
   <v>       0.25025777       0.12511784       0.62477805 </v>
   <v>       0.37540804      -0.00011752       0.62473174 </v>
   <v>       0.37540804       0.12511752       0.50026826 </v>
   <v>       0.25090888      -0.00020273       0.74909868 </v>
   <v>       0.25375954       0.12648504       0.87124046 </v>
   <v>       0.37590132      -0.00020273       0.87409112 </v>
   <v>       0.37641909       0.12526989       0.74858091 </v>
   <v>       0.25375954       0.25375954      -0.00148504 </v>
   <v>       0.25090888       0.37590132       0.12520273 </v>
   <v>       0.37590132       0.25090888       0.12520273 </v>
   <v>       0.37641909       0.37641909      -0.00026989 </v>
   <v>       0.25069393       0.25069393       0.25069393 </v>
   <v>       0.25038724       0.37542264       0.37542264 </v>
   <v>       0.37542264       0.25038724       0.37542264 </v>
   <v>       0.37542264       0.37542264       0.25038724 </v>
   <v>       0.25030058       0.25030058       0.50028859 </v>
   <v>       0.25039629       0.37555294       0.62451145 </v>
   <v>       0.37555294       0.25039629       0.62451145 </v>
   <v>       0.37532076       0.37532076       0.50004109 </v>
   <v>       0.25117143       0.25117143       0.74849549 </v>
   <v>       0.25117143       0.37650451       0.87382857 </v>
   <v>       0.37650451       0.25117143       0.87382857 </v>
   <v>       0.37578479       0.37578479       0.74921521 </v>
   <v>       0.25025777       0.50022195      -0.00011784 </v>
   <v>       0.25025777       0.62477805       0.12511784 </v>
   <v>       0.37540804       0.50026826       0.12511752 </v>
   <v>       0.37540804       0.62473174      -0.00011752 </v>
   <v>       0.25030058       0.50028859       0.25030058 </v>
   <v>       0.25039629       0.62451145       0.37555294 </v>
   <v>       0.37532076       0.50004109       0.37532076 </v>
   <v>       0.37555294       0.62451145       0.25039629 </v>
   <v>       0.25030953       0.50010107       0.50010107 </v>
   <v>       0.25030953       0.62489893       0.62489893 </v>
   <v>       0.37533138       0.50024270       0.62475730 </v>
   <v>       0.37533138       0.62475730       0.50024270 </v>
   <v>       0.25039629       0.50048855       0.74944706 </v>
   <v>       0.25030058       0.62471141       0.87469942 </v>
   <v>       0.37555294       0.50048855       0.87460371 </v>
   <v>       0.37532076       0.62495891       0.74967924 </v>
   <v>       0.25090888       0.74909868      -0.00020273 </v>
   <v>       0.25375954       0.87124046       0.12648504 </v>
   <v>       0.37641909       0.74858091       0.12526989 </v>
   <v>       0.37590132       0.87409112      -0.00020273 </v>
   <v>       0.25117143       0.74849549       0.25117143 </v>
   <v>       0.25117143       0.87382857       0.37650451 </v>
   <v>       0.37578479       0.74921521       0.37578479 </v>
   <v>       0.37650451       0.87382857       0.25117143 </v>
   <v>       0.25039629       0.74944706       0.50048855 </v>
   <v>       0.25030058       0.87469942       0.62471141 </v>
   <v>       0.37532076       0.74967924       0.62495891 </v>
   <v>       0.37555294       0.87460371       0.50048855 </v>
   <v>       0.25038724       0.74957736       0.74957736 </v>
   <v>       0.25069393       0.87430607       0.87430607 </v>
   <v>       0.37542264       0.74957736       0.87461276 </v>
   <v>       0.37542264       0.87461276       0.74957736 </v>
   <v>       0.49998076      -0.00003774      -0.00003774 </v>
   <v>       0.49998076       0.12503774       0.12503774 </v>
   <v>       0.62501924      -0.00003774       0.12503774 </v>
   <v>       0.62501924       0.12503774      -0.00003774 </v>
   <v>       0.50022195      -0.00011784       0.25025777 </v>
   <v>       0.50026826       0.12511752       0.37540804 </v>
   <v>       0.62473174      -0.00011752       0.37540804 </v>
   <v>       0.62477805       0.12511784       0.25025777 </v>
   <v>       0.50039188      -0.00016620       0.50039188 </v>
   <v>       0.50039188       0.12516620       0.62460812 </v>
   <v>       0.62460812      -0.00016620       0.62460812 </v>
   <v>       0.62460812       0.12516620       0.50039188 </v>
   <v>       0.50026826      -0.00011752       0.74959196 </v>
   <v>       0.50022195       0.12511784       0.87474223 </v>
   <v>       0.62477805      -0.00011784       0.87474223 </v>
   <v>       0.62473174       0.12511752       0.74959196 </v>
   <v>       0.50022195       0.25025777      -0.00011784 </v>
   <v>       0.50026826       0.37540804       0.12511752 </v>
   <v>       0.62477805       0.25025777       0.12511784 </v>
   <v>       0.62473174       0.37540804      -0.00011752 </v>
   <v>       0.50028859       0.25030058       0.25030058 </v>
   <v>       0.50004109       0.37532076       0.37532076 </v>
   <v>       0.62451145       0.25039629       0.37555294 </v>
   <v>       0.62451145       0.37555294       0.25039629 </v>
   <v>       0.50010107       0.25030953       0.50010107 </v>
   <v>       0.50024270       0.37533138       0.62475730 </v>
   <v>       0.62489893       0.25030953       0.62489893 </v>
   <v>       0.62475730       0.37533138       0.50024270 </v>
   <v>       0.50048855       0.25039629       0.74944706 </v>
   <v>       0.50048855       0.37555294       0.87460371 </v>
   <v>       0.62471141       0.25030058       0.87469942 </v>
   <v>       0.62495891       0.37532076       0.74967924 </v>
   <v>       0.50039188       0.50039188      -0.00016620 </v>
   <v>       0.50039188       0.62460812       0.12516620 </v>
   <v>       0.62460812       0.50039188       0.12516620 </v>
   <v>       0.62460812       0.62460812      -0.00016620 </v>
   <v>       0.50010107       0.50010107       0.25030953 </v>
   <v>       0.50024270       0.62475730       0.37533138 </v>
   <v>       0.62475730       0.50024270       0.37533138 </v>
   <v>       0.62489893       0.62489893       0.25030953 </v>
   <v>       0.50016293       0.50016293       0.50016293 </v>
   <v>       0.50016293       0.62483707       0.62483707 </v>
   <v>       0.62483707       0.50016293       0.62483707 </v>
   <v>       0.62483707       0.62483707       0.50016293 </v>
   <v>       0.50024270       0.50024270       0.74966862 </v>
   <v>       0.50010107       0.62489893       0.87469047 </v>
   <v>       0.62489893       0.50010107       0.87469047 </v>
   <v>       0.62475730       0.62475730       0.74966862 </v>
   <v>       0.50026826       0.74959196      -0.00011752 </v>
   <v>       0.50022195       0.87474223       0.12511784 </v>
   <v>       0.62473174       0.74959196       0.12511752 </v>
   <v>       0.62477805       0.87474223      -0.00011784 </v>
   <v>       0.50048855       0.74944706       0.25039629 </v>
   <v>       0.50048855       0.87460371       0.37555294 </v>
   <v>       0.62495891       0.74967924       0.37532076 </v>
   <v>       0.62471141       0.87469942       0.25030058 </v>
   <v>       0.50024270       0.74966862       0.50024270 </v>
   <v>       0.50010107       0.87469047       0.62489893 </v>
   <v>       0.62475730       0.74966862       0.62475730 </v>
   <v>       0.62489893       0.87469047       0.50010107 </v>
   <v>       0.50004109       0.74967924       0.74967924 </v>
   <v>       0.50028859       0.87469942       0.87469942 </v>
   <v>       0.62451145       0.74944706       0.87460371 </v>
   <v>       0.62451145       0.87460371       0.74944706 </v>
   <v>       0.74978406      -0.00039817      -0.00039817 </v>
   <v>       0.74978406       0.12539817       0.12539817 </v>
   <v>       0.87221775      -0.00126996       0.12626996 </v>
   <v>       0.87221775       0.12626996      -0.00126996 </v>
   <v>       0.74909868      -0.00020273       0.25090888 </v>
   <v>       0.74858091       0.12526989       0.37641909 </v>
   <v>       0.87409112      -0.00020273       0.37590132 </v>
   <v>       0.87124046       0.12648504       0.25375954 </v>
   <v>       0.74959196      -0.00011752       0.50026826 </v>
   <v>       0.74959196       0.12511752       0.62473174 </v>
   <v>       0.87474223      -0.00011784       0.62477805 </v>
   <v>       0.87474223       0.12511784       0.50022195 </v>
   <v>       0.74858091      -0.00026989       0.74858091 </v>
   <v>       0.74909868       0.12520273       0.87409112 </v>
   <v>       0.87124046      -0.00148504       0.87124046 </v>
   <v>       0.87409112       0.12520273       0.74909868 </v>
   <v>       0.74909868       0.25090888      -0.00020273 </v>
   <v>       0.74858091       0.37641909       0.12526989 </v>
   <v>       0.87124046       0.25375954       0.12648504 </v>
   <v>       0.87409112       0.37590132      -0.00020273 </v>
   <v>       0.74849549       0.25117143       0.25117143 </v>
   <v>       0.74921521       0.37578479       0.37578479 </v>
   <v>       0.87382857       0.25117143       0.37650451 </v>
   <v>       0.87382857       0.37650451       0.25117143 </v>
   <v>       0.74944706       0.25039629       0.50048855 </v>
   <v>       0.74967924       0.37532076       0.62495891 </v>
   <v>       0.87469942       0.25030058       0.62471141 </v>
   <v>       0.87460371       0.37555294       0.50048855 </v>
   <v>       0.74957736       0.25038724       0.74957736 </v>
   <v>       0.74957736       0.37542264       0.87461276 </v>
   <v>       0.87430607       0.25069393       0.87430607 </v>
   <v>       0.87461276       0.37542264       0.74957736 </v>
   <v>       0.74959196       0.50026826      -0.00011752 </v>
   <v>       0.74959196       0.62473174       0.12511752 </v>
   <v>       0.87474223       0.50022195       0.12511784 </v>
   <v>       0.87474223       0.62477805      -0.00011784 </v>
   <v>       0.74944706       0.50048855       0.25039629 </v>
   <v>       0.74967924       0.62495891       0.37532076 </v>
   <v>       0.87460371       0.50048855       0.37555294 </v>
   <v>       0.87469942       0.62471141       0.25030058 </v>
   <v>       0.74966862       0.50024270       0.50024270 </v>
   <v>       0.74966862       0.62475730       0.62475730 </v>
   <v>       0.87469047       0.50010107       0.62489893 </v>
   <v>       0.87469047       0.62489893       0.50010107 </v>
   <v>       0.74967924       0.50004109       0.74967924 </v>
   <v>       0.74944706       0.62451145       0.87460371 </v>
   <v>       0.87469942       0.50028859       0.87469942 </v>
   <v>       0.87460371       0.62451145       0.74944706 </v>
   <v>       0.74858091       0.74858091      -0.00026989 </v>
   <v>       0.74909868       0.87409112       0.12520273 </v>
   <v>       0.87409112       0.74909868       0.12520273 </v>
   <v>       0.87124046       0.87124046      -0.00148504 </v>
   <v>       0.74957736       0.74957736       0.25038724 </v>
   <v>       0.74957736       0.87461276       0.37542264 </v>
   <v>       0.87461276       0.74957736       0.37542264 </v>
   <v>       0.87430607       0.87430607       0.25069393 </v>
   <v>       0.74967924       0.74967924       0.50004109 </v>
   <v>       0.74944706       0.87460371       0.62451145 </v>
   <v>       0.87460371       0.74944706       0.62451145 </v>
   <v>       0.87469942       0.87469942       0.50028859 </v>
   <v>       0.74921521       0.74921521       0.74921521 </v>
   <v>       0.74849549       0.87382857       0.87382857 </v>
   <v>       0.87382857       0.74849549       0.87382857 </v>
   <v>       0.87382857       0.87382857       0.74849549 </v>
   <v>       0.06250000       0.06250000       0.06250000 </v>
  </varray>
 </structure>
</modeling>
