         280
 Energy:  -1979.6498646000000      en  -1927.8352445999999      edisp  -51.814619999999998     
 X   0.00000000       0.00000000       0.00000000    
 X   14.4150839       0.00000000       0.00000000    
 X  -7.20754194       12.4838276       0.00000000    
 X   0.00000000       0.00000000       31.1162548    
 X   7.20754194       12.4838276       0.00000000    
 X   14.4150839       0.00000000       31.1162548    
 X  -7.20754194       12.4838276       31.1162548    
 X   7.20754194       12.4838276       31.1162548    
 Al   0.00000000       0.00000000       1.93994999    
 Al  -0.00000000       2.77418995      0.246099994    
 Al  -0.00000000       2.77418995       4.12598991    
 Al   2.40251994       1.38708997       2.43213010    
 Al   2.40251994       1.38708997       6.31202984    
 Al   0.00000000       0.00000000       4.61817980    
 Al   0.00000000       0.00000000       8.49806976    
 Al  -0.00000000       2.77418995       6.80423021    
 Al  -0.00000000       2.77418995       10.6841202    
 Al   2.40251994       1.38708997       8.99026012    
 Al   2.40251994       1.38708997       12.8701496    
 Al   0.00000000       0.00000000       11.1763096    
 Al  -2.40250993       4.16128016       1.93994999    
 Al  -2.40251994       6.93546009      0.246099994    
 Al  -2.40251994       6.93546009       4.12598991    
 Al   0.00000000       5.54836988       2.43213010    
 Al   0.00000000       5.54836988       6.31202984    
 Al  -2.40250993       4.16128016       4.61817980    
 Al  -2.40250993       4.16128016       8.49806976    
 Al  -2.40251994       6.93546009       6.80423021    
 Al  -2.40251994       6.93546009       10.6841202    
 Al   0.00000000       5.54836988       8.99026012    
 Al   0.00000000       5.54836988       12.8701496    
 Al  -2.40250993       4.16128016       11.1763096    
 Al  -4.80502987       8.32254982       1.93994999    
 Al  -4.80502987       11.0967398      0.246099994    
 Al  -4.80502987       11.0967398       4.12598991    
 Al  -2.40250993       9.70963955       2.43213010    
 Al  -2.40250993       9.70963955       6.31202984    
 Al  -4.80502987       8.32254982       4.61817980    
 Al  -4.80502987       8.32254982       8.49806976    
 Al  -4.80502987       11.0967398       6.80423021    
 Al  -4.80502987       11.0967398       10.6841202    
 Al  -2.40250993       9.70963955       8.99026012    
 Al  -2.40250993       9.70963955       12.8701496    
 Al  -4.80502987       8.32254982       11.1763096    
 Al   4.80502987       0.00000000       1.93994999    
 Al   4.80502987       2.77418995      0.246099994    
 Al   4.80502987       2.77418995       4.12598991    
 Al   7.20754004       1.38708997       2.43213010    
 Al   7.20754004       1.38708997       6.31202984    
 Al   4.80502987       0.00000000       4.61817980    
 Al   4.80502987       0.00000000       8.49806976    
 Al   4.80502987       2.77418995       6.80423021    
 Al   4.80502987       2.77418995       10.6841202    
 Al   7.20754004       1.38708997       8.99026012    
 Al   7.20754004       1.38708997       12.8701496    
 Al   4.80502987       0.00000000       11.1763096    
 Al   2.40250993       4.16128016       1.93994999    
 Al   2.40250993       6.93546009      0.246099994    
 Al   2.40250993       6.93546009       4.12598991    
 Al   4.80502987       5.54836988       2.43213010    
 Al   4.80502987       5.54836988       6.31202984    
 Al   2.40250993       4.16128016       4.61817980    
 Al   2.40250993       4.16128016       8.49806976    
 Al   2.40250993       6.93546009       6.80423021    
 Al   2.40250993       6.93546009       10.6841202    
 Al   4.80502987       5.54836988       8.99026012    
 Al   4.80502987       5.54836988       12.8701496    
 Al   2.40250993       4.16128016       11.1763096    
 Al   0.00000000       8.32254982       1.93994999    
 Al  -0.00000000       11.0967398      0.246099994    
 Al  -0.00000000       11.0967398       4.12598991    
 Al   2.40251994       9.70963955       2.43213010    
 Al   2.40251994       9.70963955       6.31202984    
 Al   0.00000000       8.32254982       4.61817980    
 Al   0.00000000       8.32254982       8.49806976    
 Al  -0.00000000       11.0967398       6.80423021    
 Al  -0.00000000       11.0967398       10.6841202    
 Al   2.40251994       9.70963955       8.99026012    
 Al   2.40251994       9.70963955       12.8701496    
 Al   0.00000000       8.32254982       11.1763096    
 Al   9.61005974       0.00000000       1.93994999    
 Al   9.61005020       2.77418995      0.246099994    
 Al   9.61005020       2.77418995       4.12598991    
 Al   12.0125704       1.38708997       2.43213010    
 Al   12.0125704       1.38708997       6.31202984    
 Al   9.61005974       0.00000000       4.61817980    
 Al   9.61005974       0.00000000       8.49806976    
 Al   9.61005020       2.77418995       6.80423021    
 Al   9.61005020       2.77418995       10.6841202    
 Al   12.0125704       1.38708997       8.99026012    
 Al   12.0125704       1.38708997       12.8701496    
 Al   9.61005974       0.00000000       11.1763096    
 Al   7.20754004       4.16128016       1.93994999    
 Al   7.20754004       6.93546009      0.246099994    
 Al   7.20754004       6.93546009       4.12598991    
 Al   9.61005974       5.54836988       2.43213010    
 Al   9.61005974       5.54836988       6.31202984    
 Al   7.20754004       4.16128016       4.61817980    
 Al   7.20754004       4.16128016       8.49806976    
 Al   7.20754004       6.93546009       6.80423021    
 Al   7.20754004       6.93546009       10.6841202    
 Al   9.61005974       5.54836988       8.99026012    
 Al   9.61005974       5.54836988       12.8701496    
 Al   7.20754004       4.16128016       11.1763096    
 Al   4.80502987       8.32254982       1.93994999    
 Al   4.80502987       11.0967398      0.246099994    
 Al   4.80502987       11.0967398       4.12598991    
 Al   7.20754004       9.70963955       2.43213010    
 Al   7.20754004       9.70963955       6.31202984    
 Al   4.80502987       8.32254982       4.61817980    
 Al   4.80502987       8.32254982       8.49806976    
 Al   4.80502987       11.0967398       6.80423021    
 Al   4.80502987       11.0967398       10.6841202    
 Al   7.20754004       9.70963955       8.99026012    
 Al   7.20754004       9.70963955       12.8701496    
 Al   4.80502987       8.32254982       11.1763096    
 O    1.47104001       0.00000000       3.27905989    
 O    3.13804007      0.113130003       1.09301996    
 O  -0.735520005       1.27395999       3.27905989    
 O    1.66699004       2.88732004       3.27905989    
 O    3.13804007       2.66105008       1.09301996    
 O   0.931479990       1.38708997       1.09301996    
 O    3.87355995       1.38708997       7.65114021    
 O   0.735520005       1.50022995       5.46510983    
 O    1.66700006       2.66105008       7.65114021    
 O    1.66700006      0.113130003       7.65114021    
 O   0.735520005       4.04814005       5.46510983    
 O   -1.47104001       2.77418995       5.46510983    
 O    1.47104001       2.77418995       12.0232401    
 O   -1.66699004       2.88732004       9.83718967    
 O  -0.735520005       4.04814005       12.0232401    
 O  -0.735520005       1.50022995       12.0232401    
 O   0.735520005       1.27395999       9.83718967    
 O    3.33399010       0.00000000       9.83718967    
 O  -0.931469977       4.16128016       3.27905989    
 O   0.735520005       4.27440977       1.09301996    
 O   -3.13803005       5.43522978       3.27905989    
 O  -0.735520005       7.04859018       3.27905989    
 O   0.735520005       6.82231998       1.09301996    
 O   -1.47104001       5.54836988       1.09301996    
 O    1.47104001       5.54836988       7.65114021    
 O   -1.66700006       5.66149998       5.46510983    
 O  -0.735520005       6.82231998       7.65114021    
 O  -0.735520005       4.27440977       7.65114021    
 O   -1.66700006       8.20942020       5.46510983    
 O   -3.87355995       6.93546009       5.46510983    
 O  -0.931479990       6.93546009       12.0232401    
 O   -4.06950998       7.04859018       9.83718967    
 O   -3.13804007       8.20942020       12.0232401    
 O   -3.13804007       5.66149998       12.0232401    
 O   -1.66699004       5.43522978       9.83718967    
 O   0.931469977       4.16128016       9.83718967    
 O   -3.33399010       8.32254982       3.27905989    
 O   -1.66699004       8.43568039       1.09301996    
 O   -5.54055023       9.59650993       3.27905989    
 O   -3.13803005       11.2098703       3.27905989    
 O   -1.66699004       10.9835997       1.09301996    
 O   -3.87354994       9.70963955       1.09301996    
 O  -0.931469977       9.70963955       7.65114021    
 O   -4.06950998       9.82277966       5.46510983    
 O   -3.13803005       10.9835997       7.65114021    
 O   -3.13803005       8.43568039       7.65114021    
 O   -4.06950998       12.3706999       5.46510983    
 O   -6.27607012       11.0967398       5.46510983    
 O   -3.33399010       11.0967398       12.0232401    
 O   -6.47202015       11.2098703       9.83718967    
 O   -5.54055023       12.3706999       12.0232401    
 O   -5.54055023       9.82277966       12.0232401    
 O   -4.06950998       9.59650993       9.83718967    
 O   -1.47104001       8.32254982       9.83718967    
 O    6.27607012       0.00000000       3.27905989    
 O    7.94305992      0.113130003       1.09301996    
 O    4.06950998       1.27395999       3.27905989    
 O    6.47202015       2.88732004       3.27905989    
 O    7.94305992       2.66105008       1.09301996    
 O    5.73649979       1.38708997       1.09301996    
 O    8.67858028       1.38708997       7.65114021    
 O    5.54055023       1.50022995       5.46510983    
 O    6.47202015       2.66105008       7.65114021    
 O    6.47202015      0.113130003       7.65114021    
 O    5.54055023       4.04814005       5.46510983    
 O    3.33399010       2.77418995       5.46510983    
 O    6.27607012       2.77418995       12.0232401    
 O    3.13803005       2.88732004       9.83718967    
 O    4.06950998       4.04814005       12.0232401    
 O    4.06950998       1.50022995       12.0232401    
 O    5.54055023       1.27395999       9.83718967    
 O    8.13901997       0.00000000       9.83718967    
 O    3.87354994       4.16128016       3.27905989    
 O    5.54055023       4.27440977       1.09301996    
 O    1.66699004       5.43522978       3.27905989    
 O    4.06950998       7.04859018       3.27905989    
 O    5.54055023       6.82231998       1.09301996    
 O    3.33399010       5.54836988       1.09301996    
 O    6.27607012       5.54836988       7.65114021    
 O    3.13803005       5.66149998       5.46510983    
 O    4.06950998       6.82231998       7.65114021    
 O    4.06950998       4.27440977       7.65114021    
 O    3.13803005       8.20942020       5.46510983    
 O   0.931469977       6.93546009       5.46510983    
 O    3.87354994       6.93546009       12.0232401    
 O   0.735520005       7.04859018       9.83718967    
 O    1.66699004       8.20942020       12.0232401    
 O    1.66699004       5.66149998       12.0232401    
 O    3.13803005       5.43522978       9.83718967    
 O    5.73649979       4.16128016       9.83718967    
 O    1.47104001       8.32254982       3.27905989    
 O    3.13804007       8.43568039       1.09301996    
 O  -0.735520005       9.59650993       3.27905989    
 O    1.66699004       11.2098703       3.27905989    
 O    3.13804007       10.9835997       1.09301996    
 O   0.931479990       9.70963955       1.09301996    
 O    3.87355995       9.70963955       7.65114021    
 O   0.735520005       9.82277966       5.46510983    
 O    1.66700006       10.9835997       7.65114021    
 O    1.66700006       8.43568039       7.65114021    
 O   0.735520005       12.3706999       5.46510983    
 O   -1.47104001       11.0967398       5.46510983    
 O    1.47104001       11.0967398       12.0232401    
 O   -1.66699004       11.2098703       9.83718967    
 O  -0.735520005       12.3706999       12.0232401    
 O  -0.735520005       9.82277966       12.0232401    
 O   0.735520005       9.59650993       9.83718967    
 O    3.33399010       8.32254982       9.83718967    
 O    11.0811005       0.00000000       3.27905989    
 O    12.7480898      0.113130003       1.09301996    
 O    8.87454033       1.27395999       3.27905989    
 O    11.2770500       2.88732004       3.27905989    
 O    12.7480898       2.66105008       1.09301996    
 O    10.5415297       1.38708997       1.09301996    
 O    13.4836102       1.38708997       7.65114021    
 O    10.3455696       1.50022995       5.46510983    
 O    11.2770500       2.66105008       7.65114021    
 O    11.2770500      0.113130003       7.65114021    
 O    10.3455696       4.04814005       5.46510983    
 O    8.13901043       2.77418995       5.46510983    
 O    11.0810900       2.77418995       12.0232401    
 O    7.94305992       2.88732004       9.83718967    
 O    8.87452984       4.04814005       12.0232401    
 O    8.87452984       1.50022995       12.0232401    
 O    10.3455801       1.27395999       9.83718967    
 O    12.9440403       0.00000000       9.83718967    
 O    8.67858028       4.16128016       3.27905989    
 O    10.3455801       4.27440977       1.09301996    
 O    6.47202015       5.43522978       3.27905989    
 O    8.87454033       7.04859018       3.27905989    
 O    10.3455801       6.82231998       1.09301996    
 O    8.13901997       5.54836988       1.09301996    
 O    11.0811005       5.54836988       7.65114021    
 O    7.94305992       5.66149998       5.46510983    
 O    8.87454033       6.82231998       7.65114021    
 O    8.87454033       4.27440977       7.65114021    
 O    7.94305992       8.20942020       5.46510983    
 O    5.73649979       6.93546009       5.46510983    
 O    8.67858028       6.93546009       12.0232401    
 O    5.54055023       7.04859018       9.83718967    
 O    6.47202015       8.20942020       12.0232401    
 O    6.47202015       5.66149998       12.0232401    
 O    7.94305992       5.43522978       9.83718967    
 O    10.5415297       4.16128016       9.83718967    
 O    6.27607012       8.32254982       3.27905989    
 O    7.94305992       8.43568039       1.09301996    
 O    4.06950998       9.59650993       3.27905989    
 O    6.47202015       11.2098703       3.27905989    
 O    7.94305992       10.9835997       1.09301996    
 O    5.73649979       9.70963955       1.09301996    
 O    8.67858028       9.70963955       7.65114021    
 O    5.54055023       9.82277966       5.46510983    
 O    6.47202015       10.9835997       7.65114021    
 O    6.47202015       8.43568039       7.65114021    
 O    5.54055023       12.3706999       5.46510983    
 O    3.33399010       11.0967398       5.46510983    
 O    6.27607012       11.0967398       12.0232401    
 O    3.13803005       11.2098703       9.83718967    
 O    4.06950998       12.3706999       12.0232401    
 O    4.06950998       9.82277966       12.0232401    
 O    5.54055023       9.59650993       9.83718967    
 O    8.13901997       8.32254982       9.83718967    
 O    3.32901001       5.76601982       13.8701496    
 O    3.32901001       6.96602011       13.8701496    
         280
 Energy:  -1998.7420902000001      en  -1946.8022802000000      edisp  -51.939810000000001     
 X   0.00000000       0.00000000       0.00000000    
 X   14.4150839       0.00000000       0.00000000    
 X  -7.20754194       12.4838276       0.00000000    
 X   0.00000000       0.00000000       31.1162548    
 X   7.20754194       12.4838276       0.00000000    
 X   14.4150839       0.00000000       31.1162548    
 X  -7.20754194       12.4838276       31.1162548    
 X   7.20754194       12.4838276       31.1162548    
 Al   1.99999995E-05   1.99999995E-05   1.92499995    
 Al  -9.99999975E-06   2.77420998      0.376439989    
 Al   9.99999975E-06   2.77414989       4.12342978    
 Al   2.40256000       1.38710999       2.39566994    
 Al   2.40267992       1.38718998       6.31231022    
 Al   7.00000019E-05   1.10000001E-04   4.61766005    
 Al   4.40000003E-04   4.69999999E-04   8.49927044    
 Al   3.49999988E-04   2.77398992       6.80500984    
 Al   1.41999999E-03   2.77332997       10.7216902    
 Al   2.40340996       1.38857996       8.99446964    
 Al   2.40415001       1.38949001       12.7410803    
 Al   9.59999976E-04   7.20000011E-04   11.1918602    
 Al  -2.40251994       4.16128016       1.92499995    
 Al  -2.40254998       6.93547010      0.376489997    
 Al  -2.40250993       6.93550014       4.12343979    
 Al   9.99999975E-06   5.54832983       2.39562988    
 Al  -1.50000007E-04   5.54823017       6.31170988    
 Al  -2.40252995       4.16121006       4.61771011    
 Al  -2.40265012       4.16115999       8.49907970    
 Al  -2.40259004       6.93546009       6.80486012    
 Al  -2.40315008       6.93541002       10.7207098    
 Al  -2.50000012E-04   5.54817009       8.99308014    
 Al  -1.44000002E-03   5.54735994       12.7428102    
 Al  -2.40300012       4.16114998       11.1916199    
 Al  -4.80502987       8.32260036       1.92493999    
 Al  -4.80499983       11.0967503      0.376439989    
 Al  -4.80495024       11.0968304       4.12341976    
 Al  -2.40254998       9.70963955       2.39563990    
 Al  -2.40256000       9.70979023       6.31192017    
 Al  -4.80494022       8.32258987       4.61764002    
 Al  -4.80469990       8.32254982       8.49890995    
 Al  -4.80493021       11.0970497       6.80495977    
 Al  -4.80465984       11.0978403       10.7214003    
 Al  -2.40247989       9.71004009       8.99335957    
 Al  -2.40280008       9.71026039       12.7409897    
 Al  -4.80463982       8.32252979       11.1918602    
 Al   4.80503988       1.99999995E-05   1.92501998    
 Al   4.80497980       2.77413988      0.376489997    
 Al   4.80496979       2.77403998       4.12349987    
 Al   7.20754004       1.38704002       2.39563990    
 Al   7.20736980       1.38725996       6.31213999    
 Al   4.80496979       9.00000014E-05   4.61781979    
 Al   4.80488014       5.90000011E-04   8.49960995    
 Al   4.80501986       2.77380991       6.80539989    
 Al   4.79994011       2.78096008       10.7263899    
 Al   7.20692015       1.38747001       8.99384022    
 Al   7.20647001       1.38803995       12.7409601    
 Al   4.80464983       1.49000005E-03   11.1924496    
 Al   2.40248990       4.16121006       1.92496002    
 Al   2.40250993       6.93542004      0.376489997    
 Al   2.40242004       6.93541002       4.12332010    
 Al   4.80498981       5.54832983       2.39557004    
 Al   4.80510998       5.54785013       6.31157017    
 Al   2.40250993       4.16107988       4.61769009    
 Al   2.40267992       4.15833998       8.49905014    
 Al   2.40214992       6.93546009       6.80443001    
 Al   2.39140010       6.93729019       10.7105303    
 Al   4.80577993       5.54367018       8.99122047    
 Al   4.83228016       5.50668001       12.7589998    
 Al   2.41123009       4.15424013       11.1946001    
 Al  -9.99999975E-06   8.32256031       1.92499995    
 Al   1.99999995E-05   11.0967703      0.376489997    
 Al  -1.99999995E-05   11.0967598       4.12347984    
 Al   2.40247989       9.70969963       2.39560008    
 Al   2.40232992       9.70981026       6.31165981    
 Al  -7.00000019E-05   8.32260036       4.61760998    
 Al  -2.09999998E-04   8.32271004       8.49907017    
 Al  -1.80000003E-04   11.0969601       6.80495977    
 Al  -8.20000016E-04   11.0975103       10.7210503    
 Al   2.40177989       9.71020031       8.99273968    
 Al   2.39977002       9.71208954       12.7425699    
 Al  -7.99999980E-05   8.32343960       11.1907301    
 Al   9.61009026       1.99999995E-05   1.92496002    
 Al   9.61011028       2.77415991      0.376489997    
 Al   9.61005974       2.77416992       4.12346983    
 Al   12.0125399       1.38712001       2.39562988    
 Al   12.0125999       1.38720000       6.31191015    
 Al   9.60999966       9.00000014E-05   4.61767006    
 Al   9.60982037       3.80000012E-04   8.49901962    
 Al   9.60986042       2.77424002       6.80500984    
 Al   9.60943031       2.77414989       10.7212496    
 Al   12.0125504       1.38722003       8.99335003    
 Al   12.0128002       1.38739002       12.7410898    
 Al   9.60949993       1.01999997E-03   11.1917295    
 Al   7.20755005       4.16125011       1.92501998    
 Al   7.20753002       6.93552017      0.376489997    
 Al   7.20759010       6.93543005       4.12330008    
 Al   9.61009979       5.54836988       2.39560008    
 Al   9.60999966       5.54818010       6.31196022    
 Al   7.20758009       4.16115999       4.61770010    
 Al   7.20696020       4.16079998       8.50041962    
 Al   7.20804024       6.93502998       6.80435991    
 Al   7.21033001       6.93182993       10.7236300    
 Al   9.60943985       5.54803991       8.99357033    
 Al   9.60962963       5.54801989       12.7411604    
 Al   7.20491982       4.16191006       11.1921501    
 Al   4.80502987       8.32254028       1.92492998    
 Al   4.80500984       11.0967302      0.376450002    
 Al   4.80501986       11.0968103       4.12328005    
 Al   7.20757008       9.70963001       2.39559007    
 Al   7.20782995       9.71000957       6.31151009    
 Al   4.80504990       8.32258987       4.61747980    
 Al   4.80403996       8.32435989       8.49682045    
 Al   4.80506992       11.0970898       6.80466986    
 Al   4.80565977       11.0982904       10.7203102    
 Al   7.20839024       9.71051025       8.99312019    
 Al   7.20833015       9.71059036       12.7412100    
 Al   4.81162977       8.33833981       11.1821604    
 O    1.47169006       2.70000007E-03   3.28075004    
 O    3.14640999       7.64300004E-02   1.06681001    
 O  -0.738219976       1.27316999       3.28076005    
 O    1.66895998       2.88533998       3.28073001    
 O    3.16575003       2.68670011       1.06677997    
 O   0.895449996       1.39814997       1.06687999    
 O    3.87349010       1.38686001       7.64963007    
 O   0.735319972       1.50028002       5.46410990    
 O    1.66656995       2.66110992       7.64949989    
 O    1.66673994      0.113100000       7.65005016    
 O   0.735520005       4.04821014       5.46425009    
 O   -1.47098005       2.77428007       5.46416998    
 O    1.50489998       2.76312995       12.0499401    
 O   -1.66435003       2.88830996       9.83456993    
 O  -0.743149996       4.08606005       12.0514202    
 O  -0.763719976       1.47452998       12.0510702    
 O   0.732919991       1.27556002       9.83425045    
 O    3.33330011      -3.37000005E-03   9.83417034    
 O  -0.930819988       4.16399002       3.28074002    
 O   0.743979990       4.23759985       1.06681001    
 O   -3.14072990       5.43451977       3.28091002    
 O  -0.733529985       7.04664993       3.28077006    
 O   0.763199985       6.84794998       1.06678998    
 O   -1.50715005       5.55954981       1.06676996    
 O    1.47136998       5.54839993       7.65064001    
 O   -1.66701996       5.66155005       5.46425009    
 O  -0.735220015       6.82231998       7.65051985    
 O  -0.735580027       4.27470016       7.65025997    
 O   -1.66697001       8.20909977       5.46426010    
 O   -3.87337995       6.93552017       5.46428013    
 O  -0.894439995       6.92395020       12.0515699    
 O   -4.06689978       7.04960012       9.83446980    
 O   -3.14613008       8.24578953       12.0508699    
 O   -3.16525006       5.63616991       12.0508699    
 O   -1.66874003       5.43734980       9.83458042    
 O   0.930679977       4.15982008       9.83477020    
 O   -3.33329010       8.32524014       3.28074002    
 O   -1.65862000       8.39892006       1.06676996    
 O   -5.54325008       9.59576035       3.28078008    
 O   -3.13603997       11.2079201       3.28072000    
 O   -1.63923001       11.0093002       1.06675994    
 O   -3.90966010       9.72072029       1.06682003    
 O  -0.931469977       9.70934963       7.65042019    
 O   -4.06967020       9.82275009       5.46425009    
 O   -3.13789010       10.9833002       7.65008020    
 O   -3.13810992       8.43574047       7.65023994    
 O   -4.06949997       12.3704796       5.46401978    
 O   -6.27603006       11.0966501       5.46431017    
 O   -3.29801989       11.0848703       12.0509901    
 O   -6.46968985       11.2099800       9.83444023    
 O   -5.54949999       12.4067497       12.0506496    
 O   -5.56864023       9.79668045       12.0511398    
 O   -4.07186985       9.59825039       9.83456993    
 O   -1.47156000       8.31962013       9.83467007    
 O    6.27680016       2.70000007E-03   3.28085995    
 O    7.95135021       7.63500035E-02   1.06673002    
 O    4.06681013       1.27316999       3.28069997    
 O    6.47404003       2.88538003       3.28072000    
 O    7.97068977       2.68668008       1.06681001    
 O    5.70041990       1.39819002       1.06676996    
 O    8.67854977       1.38687003       7.65015984    
 O    5.54041004       1.50027001       5.46398020    
 O    6.47227001       2.66087008       7.64970016    
 O    6.47222996      0.113109998       7.65005016    
 O    5.54056978       4.04827023       5.46432018    
 O    3.33404994       2.77437997       5.46409988    
 O    6.31338978       2.76237011       12.0511503    
 O    3.13788009       2.88662004       9.83043957    
 O    4.06320000       4.07645988       12.0330696    
 O    4.04195023       1.47235000       12.0511303    
 O    5.53902006       1.27530003       9.83374977    
 O    8.13885975      -3.10999993E-03   9.83442974    
 O    3.87424994       4.16406012       3.28073001    
 O    5.54893017       4.23766994       1.06681001    
 O    1.66434002       5.43452978       3.28079009    
 O    4.07149982       7.04662991       3.28101993    
 O    5.56818008       6.84802008       1.06678998    
 O    3.29799008       5.55951977       1.06678998    
 O    6.27559996       5.54948997       7.65042019    
 O    3.13789010       5.66179991       5.46472979    
 O    4.07018995       6.82253981       7.65124989    
 O    4.06932020       4.27564001       7.65025997    
 O    3.13808990       8.20932961       5.46448994    
 O   0.931789994       6.93558979       5.46436024    
 O    3.90362000       6.95333004       12.0031796    
 O   0.738449991       7.04935980       9.83452034    
 O    1.66114998       8.24411011       12.0465698    
 O    1.63758004       5.64102983       12.0397902    
 O    3.13742995       5.44315004       9.83757019    
 O    5.73760986       4.15986013       9.83146000    
 O    1.47174001       8.32522964       3.28079009    
 O    3.14640999       8.39883041       1.06676996    
 O  -0.738160014       9.59574032       3.28076005    
 O    1.66899002       11.2079096       3.28074002    
 O    3.16568995       11.0093298       1.06682003    
 O   0.895460010       9.72076988       1.06680000    
 O    3.87358999       9.70919037       7.65061998    
 O   0.735319972       9.82285023       5.46428013    
 O    1.66738999       10.9833899       7.65029001    
 O    1.66717994       8.43574047       7.65063000    
 O   0.735530019       12.3704100       5.46420002    
 O   -1.47098005       11.0966902       5.46420002    
 O    1.50779998       11.0846500       12.0516500    
 O   -1.66422999       11.2100000       9.83428001    
 O  -0.743369997       12.4066095       12.0506201    
 O  -0.762419999       9.79650021       12.0510101    
 O   0.733789980       9.59829998       9.83442974    
 O    3.33439994       8.31908989       9.83555984    
 O    11.0818195       2.68999999E-03   3.28077006    
 O    12.7565203       7.63899982E-02   1.06686997    
 O    8.87185001       1.27319002       3.28073001    
 O    11.2790899       2.88537002       3.28074002    
 O    12.7756796       2.68666005       1.06683004    
 O    10.5054798       1.39826000       1.06678998    
 O    13.4832602       1.38685000       7.65017986    
 O    10.3455400       1.50020003       5.46423006    
 O    11.2772503       2.66097999       7.65026999    
 O    11.2770395      0.113169998       7.65021992    
 O    10.3456602       4.04806995       5.46412992    
 O    8.13912010       2.77427006       5.46415997    
 O    11.1171999       2.76309991       12.0510197    
 O    7.94630003       2.88795996       9.83423042    
 O    8.86658955       4.08519983       12.0511103    
 O    8.84755039       1.47423005       12.0506802    
 O    10.3440104       1.27565002       9.83448982    
 O    12.9429703      -3.13999993E-03   9.83469009    
 O    8.67926025       4.16404009       3.28072000    
 O    10.3540096       4.23760986       1.06675994    
 O    6.46932983       5.43451023       3.28079009    
 O    8.87652969       7.04664993       3.28078008    
 O    10.3732796       6.84787989       1.06675005    
 O    8.10299969       5.55947018       1.06682003    
 O    11.0810003       5.54832983       7.65028000    
 O    7.94289017       5.66162014       5.46429014    
 O    8.87462997       6.82248020       7.65016985    
 O    8.87471962       4.27458000       7.64991999    
 O    7.94291019       8.20938969       5.46443987    
 O    5.73652983       6.93560982       5.46437979    
 O    8.71436024       6.92459011       12.0508299    
 O    5.53813982       7.04943991       9.83967018    
 O    6.45987988       8.24454975       12.0504904    
 O    6.44325018       5.64166021       12.0494099    
 O    7.94188023       5.43782997       9.83355045    
 O    10.5410805       4.15853977       9.83438969    
 O    6.27672005       8.32528019       3.28081989    