         280
 Energy:  -2024.0644945000001     
 X   0.00000000       0.00000000       0.00000000    
 X   14.4150839       0.00000000       0.00000000    
 X  -7.20754194       12.4838276       0.00000000    
 X   0.00000000       0.00000000       31.1162548    
 X   7.20754194       12.4838276       0.00000000    
 X   14.4150839       0.00000000       31.1162548    
 X  -7.20754194       12.4838276       31.1162548    
 X   7.20754194       12.4838276       31.1162548    
 Al  -1.26000005E-03  -8.80000007E-04   1.97794998    
 Al  -2.36000004E-03   2.77225995       1.01226997    
 Al  -3.71000008E-03   2.77250004       4.15291023    
 Al   2.40178990       1.38683999       2.24603009    
 Al   2.39584994       1.38602996       6.27813005    
 Al  -4.37000021E-03  -2.88999989E-03   4.60564995    
 Al  -5.66999987E-03   2.58000009E-03   8.50938988    
 Al  -1.31099997E-02   2.77145004       6.80991983    
 Al  -4.82999999E-03   2.77581000       10.8438301    
 Al   2.39664006       1.38593996       8.94188023    
 Al   2.39401007       1.39884996       12.1044302    
 Al  -7.75999995E-03  -8.09999998E-04   11.1492996    
 Al  -2.40379000       4.16086006       1.97547996    
 Al  -2.40352011       6.93496990       1.01384997    
 Al  -2.40685010       6.93498993       4.15893984    
 Al  -1.24999997E-03   5.54793978       2.24469995    
 Al  -9.90999956E-03   5.54928017       6.27159023    
 Al  -2.41055989       4.15903997       4.60459995    
 Al  -2.41767001       4.15892982       8.51043034    
 Al  -2.42057991       6.93528986       6.82026005    
 Al  -2.41065001       6.93587017       10.8735704    
 Al  -2.05799993E-02   5.54036999       8.92963982    
 Al   6.01000013E-03   5.54252005       12.1105003    
 Al  -2.41057992       4.15863991       11.1480198    
 Al  -4.80513000       8.32164955       1.98088002    
 Al  -4.80685997       11.0958405       1.01452005    
 Al  -4.80800009       11.0967102       4.16032982    
 Al  -2.40461993       9.70987034       2.24905992    
 Al  -2.40797997       9.70987034       6.29247999    
 Al  -4.81058979       8.32151031       4.61062002    
 Al  -4.81311989       8.32059956       8.53201008    
 Al  -4.81102991       11.0931301       6.82422018    
 Al  -4.81010008       11.0979099       10.8820601    
 Al  -2.41554999       9.71047974       8.96236992    
 Al  -2.40611005       9.71619987       12.1267500    
 Al  -4.81699991       8.32063007       11.1714201    
 Al   4.80354023       9.59999976E-04   1.97361004    
 Al   4.80678988       2.77532005       1.00901997    
 Al   4.80254984       2.77388000       4.15433979    
 Al   7.20754004       1.38768005       2.24865007    
 Al   7.20147991       1.38680005       6.29360008    
 Al   4.80164003      -1.87000004E-03   4.60312986    
 Al   4.79713011      -3.30000010E-04   8.50314999    
 Al   4.80307007       2.77067995       6.81317997    
 Al   4.80028009       2.78903008       10.8356104    
 Al   7.20311022       1.38821995       8.96210003    
 Al   7.19245005       1.39143002       12.1288004    
 Al   4.79535007       8.08000006E-03   11.1351404    
 Al   2.40262008       4.16203022       1.96668005    
 Al   2.40205002       6.93797016       1.00799000    
 Al   2.39958000       6.93571997       4.14554977    
 Al   4.80533981       5.54780006       2.24820995    
 Al   4.79760981       5.54630995       6.29031992    
 Al   2.39850998       4.15927982       4.59439993    
 Al   2.38965988       4.16288996       8.46109009    
 Al   2.39562988       6.93182993       6.79752016    
 Al   2.37207007       6.92608976       10.7595997    
 Al   4.80670023       5.53843021       8.97006035    
 Al   4.81933022       5.47923994       12.5061903    
 Al   2.41243005       4.17597008       11.0783901    
 Al  -1.18999998E-03   8.32439041       1.96903002    
 Al  -2.76999990E-03   11.0985298       1.01154006    
 Al  -2.63000000E-03   11.0982904       4.15558004    
 Al   2.40104008       9.71162033       2.24653006    
 Al   2.39875007       9.70895004       6.27439022    
 Al  -8.50000046E-03   8.32390976       4.59672022    
 Al  -9.17000044E-03   8.31933022       8.47554016    
 Al  -7.13999989E-03   11.0995102       6.81541014    
 Al  -1.08700003E-02   11.0982904       10.8607702    
 Al   2.39385009       9.71572018       8.93867970    
 Al   2.38747001       9.70471001       12.0858603    
 Al  -9.42999963E-03   8.32402992       11.1057901    
 Al   9.60939980      -5.60000015E-04   1.97619998    
 Al   9.61028004       2.77470994       1.01107001    
 Al   9.60698032       2.77450991       4.16359997    
 Al   12.0108404       1.38585997       2.25043988    
 Al   12.0052099       1.38787997       6.29712009    
 Al   9.60585976       3.25999991E-03   4.60432005    
 Al   9.60095978       1.96000002E-03   8.51906013    
 Al   9.60052967       2.77701998       6.82752991    
 Al   9.59829044       2.77560997       10.8909197    
 Al   12.0010900       1.38481998       8.96695995    
 Al   12.0083399       1.38329005       12.1285601    
 Al   9.60264969      -2.12000008E-03   11.1588802    
 Al   7.20834017       4.16142988       1.97728002    
 Al   7.20936012       6.93435001       1.01472998    
 Al   7.20417976       6.93543005       4.16253996    
 Al   9.60875988       5.54811001       2.25418997    
 Al   9.60503006       5.54736996       6.30705976    
 Al   7.20544004       4.16168022       4.60768986    
 Al   7.19602013       4.15291023       8.51554966    
 Al   7.20544004       6.93255997       6.82480001    
 Al   7.18889999       6.92344999       10.9141598    
 Al   9.59698009       5.54815006       8.98027992    
 Al   9.60457993       5.54280996       12.1500301    
 Al   7.18605995       4.16533995       11.1583405    
 Al   4.80517006       8.32186031       1.97334003    
 Al   4.80553007       11.0949202       1.01220000    
 Al   4.80296993       11.0984602       4.15907001    
 Al   7.20789003       9.70835972       2.25255990    
 Al   7.20302010       9.70884991       6.29982996    
 Al   4.80484009       8.32336044       4.60279989    
 Al   4.79194021       8.32129002       8.47891045    
 Al   4.80215979       11.1021099       6.81984997    
 Al   4.79966021       11.0966902       10.8729000    
 Al   7.20327997       9.70967007       8.97299957    
 Al   7.20477009       9.71065044       12.1478004    
 Al   4.82122993       8.33627987       11.0955801    
 O    1.49423003      -3.75999999E-03   3.26571012    
 O    3.21427989      0.105389997       1.09644997    
 O  -0.749830008       1.29578996       3.26511002    
 O    1.64944994       2.86679006       3.25898004    
 O    3.10652995       2.73078990       1.09336996    
 O   0.885079980       1.32097006       1.09776998    
 O    3.86828995       1.37659001       7.63274002    
 O   0.724969983       1.49488997       5.45411015    
 O    1.66171002       2.65772009       7.61931992    
 O    1.65411997      0.112499997       7.64225006    
 O   0.730579972       4.04518986       5.44726992    
 O   -1.47955000       2.77573991       5.46108007    
 O    1.52049994       2.85087991       11.9593201    
 O   -1.66768003       2.86292005       9.85247040    
 O  -0.809040010       4.05530024       12.0096798    
 O  -0.706120014       1.43601000       12.0232601    
 O   0.739160001       1.28848004       9.83518982    
 O    3.30009007       5.22000017E-03   9.84759998    
 O  -0.909770012       4.15712976       3.26226997    
 O   0.811029971       4.26624012       1.09226000    
 O   -3.15281010       5.45827007       3.26768994    
 O  -0.754809976       7.02886009       3.26114011    
 O   0.702120006       6.89382982       1.09265995    
 O   -1.51739001       5.48429012       1.09767997    
 O    1.45339000       5.53964996       7.60610008    
 O   -1.68066001       5.65747023       5.45220995    
 O  -0.746930003       6.82521009       7.62562990    
 O  -0.759909987       4.27348995       7.63360023    
 O   -1.67228997       8.20864010       5.45764017    
 O   -3.88143992       6.93944979       5.47103024    
 O  -0.877300024       6.99624014       11.9925299    
 O   -4.07053995       7.02618980       9.87569046    
 O   -3.21635008       8.21829987       12.0401802    
 O   -3.10978007       5.58923006       12.0364399    
 O   -1.66525996       5.45117998       9.84383965    
 O   0.897449970       4.15900993       9.80160999    
 O   -3.31173992       8.31964970       3.26835990    
 O   -1.59224999       8.42938995       1.09575999    
 O   -5.55346012       9.61868954       3.27200007    
 O   -3.15655994       11.1885405       3.26551008    
 O   -1.70229006       11.0541601       1.09742999    
 O   -3.92115998       9.64465046       1.10104001    
 O  -0.941649973       9.70551014       7.63528013    
 O   -4.07811022       9.81904030       5.46832991    
 O   -3.14331007       10.9846096       7.64960003    
 O   -3.15498996       8.43603992       7.65876007    
 O   -4.07035017       12.3672199       5.45663977    
 O   -6.28084993       11.0971699       5.46873999    
 O   -3.28972006       11.1731701       12.0312405    
 O   -6.46886015       11.1876497       9.86594009    
 O   -5.62441015       12.3852596       12.0304003    
 O   -5.51070023       9.75679016       12.0567904    
 O   -4.06440020       9.61672020       9.86977959    
 O   -1.50727999       8.32536030       9.84348011    
 O    6.29952002      -2.55000009E-03   3.26389003    
 O    8.01959991      0.107230000       1.09718001    
 O    4.05897999       1.29462004       3.26235008    
 O    6.45676994       2.86673999       3.26558995    
 O    7.91061020       2.73196006       1.09905005    
 O    5.69215012       1.32381999       1.09582996    
 O    8.67381954       1.38401997       7.65790987    
 O    5.53321981       1.49679005       5.45749998    
 O    6.47615004       2.65873003       7.63958979    
 O    6.46270990      0.111890003       7.64608002    
 O    5.54259014       4.04772997       5.45732021    
 O    3.32828999       2.77496004       5.44998980    
 O    6.30159998       2.84105992       12.0369196    
 O    3.14653993       2.87432003       9.79734039    
 O    3.99965000       4.07923985       11.9317503    
 O    4.08923006       1.44679999       11.9950705    
 O    5.54784012       1.29484999       9.84088993    
 O    8.10867977       1.68999995E-03   9.85649014    
 O    3.89696002       4.15661001       3.25882006    
 O    5.62037992       4.26879978       1.09695995    
 O    1.65477002       5.45833015       3.25749993    
 O    4.05432987       7.02886009       3.26081991    
 O    5.50978994       6.89281988       1.09684002    
 O    3.29027009       5.48729992       1.09362996    
 O    6.27707005       5.54685020       7.65739012    
 O    3.12913990       5.65748978       5.44811010    
 O    4.07009983       6.82488012       7.62265015    
 O    4.06220007       4.27504015       7.62361002    
 O    3.13717008       8.21006012       5.44733000    
 O   0.922559977       6.94208002       5.44590998    
 O    3.94682002       6.94209003       11.9167004    
 O   0.727880001       7.03228998       9.78314972    
 O    1.60414004       8.19923019       11.9389200    
 O    1.69763994       5.60186005       11.9445105    
 O    3.12527990       5.46335983       9.77760029    
 O    5.72683001       4.14568996       9.81515026    
 O    1.49302006       8.32133961       3.25767994    
 O    3.21570992       8.43091011       1.09533000    
 O  -0.748260021       9.62018967       3.26276994    
 O    1.65058005       11.1904297       3.26428008    
 O    3.10538006       11.0554600       1.09688997    
 O   0.885240018       9.64867020       1.09345996    
 O    3.86789989       9.71113014       7.63184977    
 O   0.728030026       9.82190037       5.45453978    
 O    1.66794002       10.9907503       7.64092016    
 O    1.65745997       8.44174004       7.62006998    
 O   0.735149980       12.3713398       5.46161985    
 O   -1.47730994       11.1005096       5.45927000    
 O    1.50273001       11.1557198       12.0271196    
 O   -1.66727996       11.1878796       9.84809017    
 O  -0.821150005       12.3787098       12.0143299    
 O  -0.702099979       9.74353981       12.0146503    
 O   0.734780014       9.62160969       9.82180023    
 O    3.30712008       8.31649971       9.80512047    
 O    11.1045303      -2.69999990E-04   3.26817989    
 O    12.8250198      0.105389997       1.09913003    
 O    8.86398983       1.29656994       3.26750994    
 O    11.2591000       2.86829996       3.26914001    
 O    12.7124100       2.73060012       1.09859002    
 O    10.4960403       1.32340002       1.09828997    
 O    13.4733896       1.38145006       7.64834023    
 O    10.3371201       1.49731004       5.46753979    
 O    11.2691097       2.66100001       7.65526009    
 O    11.2644396      0.113260001       7.65862989    
 O    10.3446102       4.04577017       5.47056007    
 O    8.13516998       2.77775002       5.46547985    
 O    11.1203203       2.83806992       12.0393105    
 O    7.94706011       2.86044002       9.87205982    
 O    8.78271008       4.05439997       12.0505600    
 O    8.89577007       1.42428994       12.0464401    
 O    10.3511600       1.28971004       9.87043953    
 O    12.9098597       3.65000009E-03   9.86388016    
 O    8.70129967       4.15775013       3.26982999    
 O    10.4219103       4.26830006       1.09905005    
 O    6.46247005       5.45907021       3.26566005    
 O    8.85814953       7.03038979       3.27200007    
 O    10.3116198       6.89198017       1.10132003    
 O    8.09679031       5.48413992       1.10069001    
 O    11.0674801       5.54276991       7.65518999    
 O    7.93962002       5.65809011       5.47040987    
 O    8.86765003       6.82517004       7.67386007    
 O    8.86075020       4.27582979       7.66720009    
 O    7.94386005       8.20827961       5.47426987    
 O    5.73334980       6.93847990       5.46016979    
 O    8.71411037       6.99798012       12.0694799    
 O    5.53848982       7.03021002       9.85287952    
 O    6.37738991       8.22189999       12.0405397    
 O    6.46559000       5.57949018       12.0432796    
 O    7.94835997       5.45901012       9.88508987    
 O    10.5068998       4.16046000       9.86592007    
 O    6.29902983       8.32139015       3.26823997    
 O    8.02163029       8.42784023       1.10180998    
 O    4.06039000       9.62222004       3.26361990    
 O    6.45632982       11.1899700       3.26937008    
 O    7.90824986       11.0521898       1.10118997    
 O    5.69380999       9.64507008       1.09835994    
 O    8.67226028       9.70372009       7.66542006    
 O    5.53598022       9.82007027       5.46516991    
 O    6.47057009       10.9873304       7.65420008    
 O    6.46485996       8.43568039       7.65261984    
 O    5.53952980       12.3692703       5.46788979    
 O    3.32972002       11.1029196       5.45896006    
 O    6.31255007       11.1612597       12.0368795    
 O    3.13725996       11.1810799       9.85923958    
 O    3.98571992       12.3681097       12.0422001    
 O    4.09111023       9.72529030       12.0021801    
 O    5.54688978       9.62071991       9.84502983    
 O    8.10208035       8.32668972       9.88665009    
 O    4.10223007       5.79928017       14.2550697    
 O    3.92383003       7.08448982       13.9799299    
