 running on    1 total cores
 distrk:  each k-point on    1 cores,    1 groups
 distr:  one band on    1 cores,    1 groups
 OpenACC runtime initialized ...    1 GPUs detected
 vasp.6.2.1 16May21 (build May 12 2022 08:28:04) complex                         
 POSCAR found type information on POSCAR AlO 
 POSCAR found :  2 types and     272 ions
 scaLAPACK will be used selectively (only on CPU)
 LDA part: xc-table for Pade appr. of Perdew
 POSCAR found type information on POSCAR AlO 
 POSCAR found :  2 types and     272 ions
 POSCAR, INCAR and KPOINTS ok, starting setup
 FFT: planning ...
 WAVECAR not read
 entering main loop
       N       E                     dE             d eps       ncg     rms          rms(c)
DAV:   1     0.117336197502E+05    0.11734E+05   -0.50564E+05  6704   0.109E+03
DAV:   2    -0.133497275435E+03   -0.11867E+05   -0.11390E+05  8728   0.361E+02
DAV:   3    -0.211935488780E+04   -0.19859E+04   -0.19692E+04  8408   0.149E+02
DAV:   4    -0.220132908900E+04   -0.81974E+02   -0.81764E+02  8496   0.342E+01
DAV:   5    -0.220324929154E+04   -0.19202E+01   -0.19177E+01  8728   0.636E+00    0.113E+02
DAV:   6    -0.194671649706E+04    0.25653E+03   -0.10336E+03  9136   0.446E+01    0.883E+01
DAV:   7    -0.193763339384E+04    0.90831E+01   -0.32171E+01  8544   0.746E+00    0.659E+01
DAV:   8    -0.194021550402E+04   -0.25821E+01   -0.72597E+01  9496   0.157E+01    0.285E+01
DAV:   9    -0.193027234380E+04    0.99432E+01   -0.15818E+01  8800   0.738E+00    0.144E+01
DAV:  10    -0.192912592691E+04    0.11464E+01   -0.82615E+00  8264   0.602E+00    0.168E+01
DAV:  11    -0.192820938437E+04    0.91654E+00   -0.27055E+01  7376   0.309E+00    0.959E+00
DAV:  12    -0.192821120154E+04   -0.18172E-02   -0.88332E+00 10672   0.426E+00    0.660E+00
DAV:  13    -0.192806216678E+04    0.14903E+00   -0.67631E-01  7248   0.151E+00    0.501E+00
DAV:  14    -0.192793189272E+04    0.13027E+00   -0.19556E-01  8904   0.148E+00    0.351E+00
DAV:  15    -0.192784499472E+04    0.86898E-01   -0.34044E-01 10408   0.243E+00    0.186E+00
DAV:  16    -0.192783576126E+04    0.92335E-02   -0.31134E-01  7000   0.820E-01    0.164E+00
DAV:  17    -0.192781461166E+04    0.21150E-01   -0.35216E-02  8296   0.374E-01    0.110E+00
DAV:  18    -0.192779618230E+04    0.18429E-01   -0.46353E-02  9496   0.572E-01    0.610E-01
DAV:  19    -0.192779580358E+04    0.37872E-03   -0.20073E-02  6976   0.228E-01    0.441E-01
DAV:  20    -0.192779901137E+04   -0.32078E-02   -0.51516E-03  8200   0.272E-01    0.290E-01
DAV:  21    -0.192781088288E+04   -0.11872E-01   -0.11562E-02  8104   0.451E-01    0.219E-01
DAV:  22    -0.192781692919E+04   -0.60463E-02   -0.15017E-02  8048   0.225E-01    0.177E-01
DAV:  23    -0.192782178973E+04   -0.48605E-02   -0.42131E-03  7592   0.108E-01    0.199E-01
DAV:  24    -0.192782672045E+04   -0.49307E-02   -0.89515E-04  7680   0.137E-01    0.129E-01
DAV:  25    -0.192783121946E+04   -0.44990E-02   -0.17416E-03  6888   0.109E-01    0.766E-02
DAV:  26    -0.192783293430E+04   -0.17148E-02   -0.88662E-04  7072   0.399E-02    0.575E-02
DAV:  27    -0.192783321786E+04   -0.28356E-03   -0.73740E-05  7824   0.124E-02    0.453E-02
DAV:  28    -0.192783381340E+04   -0.59554E-03   -0.82922E-06  4176   0.273E-02    0.347E-02
DAV:  29    -0.192783516255E+04   -0.13491E-02   -0.20544E-04  8304   0.834E-02    0.282E-02
DAV:  30    -0.192783524520E+04   -0.82643E-04   -0.13913E-04  6840   0.162E-02    0.330E-02
DAV:  31    -0.192783524461E+04    0.58766E-06   -0.60339E-06  4504   0.346E-03
   1 F= -.19796499E+04 E0= -.19796490E+04  d E =-.197965E+04
 curvature:   0.00 expect dE= 0.000E+00 dE for cont linesearch  0.000E+00
 trial: gam= 0.00000 g(F)=  0.272E+02 g(S)=  0.000E+00 ort = 0.000E+00 (trialstep = 0.100E+01)
 search vector abs. value=  0.272E+02
 bond charge predicted
       N       E                     dE             d eps       ncg     rms          rms(c)
DAV:   1    -0.194305082287E+04   -0.15216E+02   -0.14348E+03  6467   0.499E+01    0.223E+01
DAV:   2    -0.194812779786E+04   -0.50770E+01   -0.60992E+01  8104   0.876E+00    0.248E+01
DAV:   3    -0.194701915081E+04    0.11086E+01   -0.46403E+00  9016   0.461E+00    0.214E+01
DAV:   4    -0.194698088258E+04    0.38268E-01   -0.17946E+00  7752   0.217E+00    0.188E+01
DAV:   5    -0.195007813466E+04   -0.30973E+01   -0.39969E+01 11144   0.961E+00    0.155E+01
DAV:   6    -0.194878207193E+04    0.12961E+01   -0.31956E+00  7912   0.407E+00    0.107E+01
DAV:   7    -0.194814830838E+04    0.63376E+00   -0.36981E+00  8968   0.252E+00    0.108E+01
DAV:   8    -0.194730906254E+04    0.83925E+00   -0.92558E+00 10560   0.491E+00    0.692E+00
DAV:   9    -0.194717644946E+04    0.13261E+00   -0.12497E+00  7144   0.135E+00    0.514E+00
DAV:  10    -0.194711170382E+04    0.64746E-01   -0.93272E-02  8264   0.444E-01    0.472E+00
DAV:  11    -0.194697198698E+04    0.13972E+00   -0.66688E-02  8760   0.647E-01    0.392E+00
DAV:  12    -0.194683291149E+04    0.13908E+00   -0.14925E-01  9072   0.819E-01    0.257E+00
DAV:  13    -0.194682725820E+04    0.56533E-02   -0.96583E-02  8176   0.438E-01    0.213E+00
DAV:  14    -0.194682744590E+04   -0.18770E-03   -0.79251E-03  8408   0.113E-01    0.207E+00
DAV:  15    -0.194680524226E+04    0.22204E-01   -0.10761E-02 10224   0.220E-01    0.157E+00
DAV:  16    -0.194679419979E+04    0.11042E-01   -0.10957E-01  9552   0.679E-01    0.136E+00
DAV:  17    -0.194679678060E+04   -0.25808E-02   -0.46021E-02  7408   0.325E-01    0.476E-01
DAV:  18    -0.194679992509E+04   -0.31445E-02   -0.43545E-03  6712   0.160E-01    0.344E-01
DAV:  19    -0.194680022786E+04   -0.30277E-03   -0.88142E-03  8472   0.108E-01    0.359E-01
DAV:  20    -0.194679985656E+04    0.37129E-03   -0.46464E-03  8256   0.768E-02    0.175E-01
DAV:  21    -0.194680099334E+04   -0.11368E-02   -0.77792E-04  7368   0.485E-02    0.263E-01
DAV:  22    -0.194680090494E+04    0.88398E-04   -0.14631E-03  8400   0.568E-02    0.880E-02
DAV:  23    -0.194680123321E+04   -0.32827E-03   -0.27774E-04  6912   0.217E-02    0.593E-02
DAV:  24    -0.194680131638E+04   -0.83168E-04   -0.25381E-05  6528   0.850E-03    0.454E-02
DAV:  25    -0.194680148011E+04   -0.16373E-03   -0.84930E-05  6152   0.101E-02    0.472E-02
DAV:  26    -0.194680191683E+04   -0.43672E-03   -0.32852E-04  8024   0.248E-02    0.774E-02
DAV:  27    -0.194680190129E+04    0.15549E-04   -0.37656E-05  6120   0.976E-03    0.491E-02
DAV:  28    -0.194680197772E+04   -0.76438E-04   -0.44530E-06  3976   0.360E-03    0.501E-02
DAV:  29    -0.194680212782E+04   -0.15009E-03   -0.20645E-05  4544   0.514E-03    0.277E-02
DAV:  30    -0.194680220339E+04   -0.75576E-04   -0.14860E-05  4480   0.660E-03    0.690E-03
DAV:  31    -0.194680224428E+04   -0.40892E-04   -0.63931E-06  4488   0.466E-03    0.773E-03
DAV:  32    -0.194680225941E+04   -0.15128E-04   -0.43921E-06  4168   0.300E-03    0.101E-02
DAV:  33    -0.194680227206E+04   -0.12645E-04   -0.24851E-06  4024   0.304E-03    0.273E-03
DAV:  34    -0.194680227929E+04   -0.72300E-05   -0.14464E-06  4112   0.142E-03    0.255E-03
DAV:  35    -0.194680228023E+04   -0.94157E-06   -0.53200E-07  4280   0.103E-03
   2 F= -.19987421E+04 E0= -.19987397E+04  d E =-.190922E+02
 trial-energy change:  -19.092223  1 .order  -20.041710  -27.225777  -12.857643
 step:   1.8949(harm=  1.8949)  dis= 0.37362  next Energy= -2005.444550 (dE=-0.258E+02)
 bond charge predicted
       N       E                     dE             d eps       ncg     rms          rms(c)
DAV:   1    -0.195158703725E+04   -0.47848E+01   -0.10945E+03  6399   0.494E+01    0.123E+01
DAV:   2    -0.195494730871E+04   -0.33603E+01   -0.37664E+01  7800   0.762E+00    0.138E+01
DAV:   3    -0.195528586773E+04   -0.33856E+00   -0.10921E+01  9376   0.430E+00    0.116E+01
DAV:   4    -0.195438511798E+04    0.90075E+00   -0.93056E-01  8728   0.236E+00    0.694E+00
DAV:   5    -0.195428720439E+04    0.97914E-01   -0.12753E+00  9512   0.214E+00    0.552E+00
DAV:   6    -0.195423222624E+04    0.54978E-01   -0.68011E-01  8616   0.168E+00    0.583E+00
DAV:   7    -0.195418312044E+04    0.49106E-01   -0.15963E+00  9104   0.157E+00    0.244E+00
DAV:   8    -0.195422096790E+04   -0.37847E-01   -0.63733E-01  8072   0.639E-01    0.261E+00
DAV:   9    -0.195417727594E+04    0.43692E-01   -0.15234E-01  8160   0.430E-01    0.845E-01
DAV:  10    -0.195418537611E+04   -0.81002E-02   -0.45298E-02  8416   0.343E-01    0.795E-01
DAV:  11    -0.195418627654E+04   -0.90042E-03   -0.67368E-03  7720   0.136E-01    0.626E-01
DAV:  12    -0.195418755878E+04   -0.12822E-02   -0.17628E-03  6816   0.731E-02    0.374E-01
DAV:  13    -0.195419063031E+04   -0.30715E-02   -0.73043E-03  9272   0.902E-02    0.248E-01
DAV:  14    -0.195419207695E+04   -0.14466E-02   -0.10604E-03  6984   0.408E-02    0.119E-01
DAV:  15    -0.195419255929E+04   -0.48235E-03   -0.44800E-04  8704   0.209E-02    0.573E-02
DAV:  16    -0.195419381683E+04   -0.12575E-02   -0.12476E-04  6656   0.252E-02    0.245E-02
DAV:  17    -0.195419452532E+04   -0.70849E-03   -0.11965E-04  6984   0.153E-02    0.338E-02
DAV:  18    -0.195419554078E+04   -0.10155E-02   -0.30267E-04  6936   0.228E-02    0.745E-02
DAV:  19    -0.195419579212E+04   -0.25134E-03   -0.10978E-04  6928   0.107E-02    0.225E-02
DAV:  20    -0.195419617788E+04   -0.38575E-03   -0.44187E-05  6104   0.737E-03    0.191E-02
DAV:  21    -0.195419643969E+04   -0.26181E-03   -0.10630E-05  4504   0.512E-03    0.101E-02
DAV:  22    -0.195419659429E+04   -0.15460E-03   -0.98202E-06  4160   0.507E-03    0.187E-02
DAV:  23    -0.195419668942E+04   -0.95133E-04   -0.61877E-06  4120   0.570E-03    0.709E-03
DAV:  24    -0.195419671873E+04   -0.29310E-04   -0.56465E-06  4224   0.330E-03    0.357E-03
DAV:  25    -0.195419672109E+04   -0.23602E-05   -0.16069E-06  4416   0.207E-03
   3 F= -.20062537E+04 E0= -.20062517E+04  d E =-.266038E+02
 curvature:  -0.95 expect dE=-0.506E+01 dE for cont linesearch -0.477E+00
 ZBRENT: extrapolating
 opt :   2.2569  next Energy= -2006.924064 (dE=-0.273E+02)
 bond charge predicted
       N       E                     dE             d eps       ncg     rms          rms(c)
DAV:   1    -0.195446527762E+04   -0.26856E+00   -0.17731E+02  6350   0.201E+01    0.390E+00
DAV:   2    -0.195483265620E+04   -0.36738E+00   -0.43798E+00  7832   0.273E+00    0.359E+00
DAV:   3    -0.195489841119E+04   -0.65755E-01   -0.20767E+00  8496   0.120E+00    0.453E+00
DAV:   4    -0.195476343603E+04    0.13498E+00   -0.26620E-01  8856   0.863E-01    0.302E+00
DAV:   5    -0.195480338714E+04   -0.39951E-01   -0.67716E-01  9112   0.699E-01    0.314E+00
DAV:   6    -0.195476135241E+04    0.42035E-01   -0.70052E-02  7656   0.446E-01    0.167E+00
DAV:   7    -0.195476142804E+04   -0.75629E-04   -0.11460E-01  8384   0.293E-01    0.127E+00
DAV:   8    -0.195476798879E+04   -0.65608E-02   -0.79893E-02  8056   0.214E-01    0.822E-01
DAV:   9    -0.195476817406E+04   -0.18527E-03   -0.93856E-03  7816   0.108E-01    0.177E-01
DAV:  10    -0.195477036150E+04   -0.21874E-02   -0.26430E-03  8072   0.508E-02    0.244E-01
DAV:  11    -0.195477106346E+04   -0.70196E-03   -0.16614E-03  8144   0.374E-02    0.832E-02
DAV:  12    -0.195477179490E+04   -0.73144E-03   -0.41742E-04  6832   0.177E-02    0.659E-02
DAV:  13    -0.195477223642E+04   -0.44152E-03   -0.13772E-04  7144   0.105E-02    0.205E-02
DAV:  14    -0.195477294350E+04   -0.70708E-03   -0.62070E-05  6376   0.873E-03    0.987E-03
DAV:  15    -0.195477350422E+04   -0.56071E-03   -0.50021E-05  6528   0.773E-03    0.601E-03
DAV:  16    -0.195477371900E+04   -0.21478E-03   -0.65682E-06  4400   0.343E-03    0.474E-03
DAV:  17    -0.195477390233E+04   -0.18334E-03   -0.44694E-06  4272   0.258E-03    0.319E-03
DAV:  18    -0.195477410406E+04   -0.20173E-03   -0.53904E-06  4224   0.310E-03    0.365E-03
DAV:  19    -0.195477413209E+04   -0.28037E-04   -0.19474E-06  4392   0.206E-03    0.139E-03
DAV:  20    -0.195477415799E+04   -0.25897E-04   -0.12594E-06  3944   0.132E-03    0.689E-04
DAV:  21    -0.195477416766E+04   -0.96742E-05   -0.68327E-07  4184   0.105E-03    0.554E-04
DAV:  22    -0.195477417016E+04   -0.24923E-05   -0.36951E-07  4208   0.741E-04
   4 F= -.20068704E+04 E0= -.20068661E+04  d E =-.272205E+02
 curvature:  -1.33 expect dE=-0.866E+01 dE for cont linesearch -0.412E-02
 trial: gam= 0.24980 g(F)=  0.651E+01 g(S)=  0.000E+00 ort =-0.290E+00 (trialstep = 0.125E+01)
 search vector abs. value=  0.806E+01
 bond charge predicted
       N       E                     dE             d eps       ncg     rms          rms(c)
DAV:   1    -0.195994399643E+04   -0.51698E+01   -0.69940E+02  6400   0.416E+01    0.825E+00
DAV:   2    -0.196286079298E+04   -0.29168E+01   -0.25769E+01  8248   0.608E+00    0.171E+01
DAV:   3    -0.196148406335E+04    0.13767E+01   -0.12719E+01  9040   0.343E+00    0.727E+00
DAV:   4    -0.196122862072E+04    0.25544E+00   -0.42231E-01  8448   0.164E+00    0.376E+00
DAV:   5    -0.196114986461E+04    0.78756E-01   -0.28515E-01  8392   0.111E+00    0.293E+00
DAV:   6    -0.196110071015E+04    0.49154E-01   -0.77270E-02  8016   0.580E-01    0.157E+00
DAV:   7    -0.196110933348E+04   -0.86233E-02   -0.10299E-01  7776   0.586E-01    0.186E+00
DAV:   8    -0.196110094230E+04    0.83912E-02   -0.15874E-01  7960   0.405E-01    0.944E-01
DAV:   9    -0.196110295034E+04   -0.20080E-02   -0.22629E-02  7688   0.179E-01    0.409E-01
DAV:  10    -0.196110520890E+04   -0.22586E-02   -0.30477E-03  8408   0.837E-02    0.299E-01
DAV:  11    -0.196110769632E+04   -0.24874E-02   -0.26076E-03  7160   0.684E-02    0.154E-01
DAV:  12    -0.196110870443E+04   -0.10081E-02   -0.63297E-04  7304   0.396E-02    0.961E-02
DAV:  13    -0.196110946141E+04   -0.75698E-03   -0.48938E-04  8752   0.306E-02    0.647E-02
DAV:  14    -0.196111026312E+04   -0.80171E-03   -0.18292E-04  8000   0.202E-02    0.247E-02
DAV:  15    -0.196111090213E+04   -0.63901E-03   -0.11973E-04  7216   0.124E-02    0.508E-02
DAV:  16    -0.196111154786E+04   -0.64573E-03   -0.13148E-04  7040   0.132E-02    0.191E-02
DAV:  17    -0.196111202373E+04   -0.47587E-03   -0.46267E-05  6640   0.878E-03    0.303E-02
DAV:  18    -0.196111235173E+04   -0.32801E-03   -0.52340E-05  5376   0.698E-03    0.150E-02
DAV:  19    -0.196111255539E+04   -0.20365E-03   -0.74066E-06  4392   0.399E-03    0.114E-02
DAV:  20    -0.196111270083E+04   -0.14544E-03   -0.82161E-06  4184   0.317E-03    0.551E-03
DAV:  21    -0.196111282482E+04   -0.12398E-03   -0.46657E-06  4112   0.283E-03    0.295E-03
DAV:  22    -0.196111284966E+04   -0.24848E-04   -0.15531E-06  4504   0.211E-03    0.179E-03
DAV:  23    -0.196111286830E+04   -0.18639E-04   -0.97905E-07  4088   0.151E-03    0.169E-03
DAV:  24    -0.196111287443E+04   -0.61297E-05   -0.62655E-07  4208   0.111E-03    0.854E-04
DAV:  25    -0.196111287632E+04   -0.18826E-05   -0.29554E-07  4368   0.705E-04
   5 F= -.20132969E+04 E0= -.20132953E+04  d E =-.642653E+01
 trial-energy change:   -6.426528  1 .order   -6.433241   -8.056586   -4.809896
 step:   3.1053(harm=  3.1053)  dis= 0.20981  next Energy= -2016.866518 (dE=-0.100E+02)
 bond charge predicted
       N       E                     dE             d eps       ncg     rms          rms(c)
DAV:   1    -0.196153716956E+04   -0.42430E+00   -0.15453E+03  6672   0.621E+01    0.126E+01
DAV:   2    -0.196579152537E+04   -0.42544E+01   -0.46239E+01  8352   0.903E+00    0.148E+01
DAV:   3    -0.196596735943E+04   -0.17583E+00   -0.91222E+00  9552   0.520E+00    0.106E+01
DAV:   4    -0.196480760188E+04    0.11598E+01   -0.13350E+00  8904   0.254E+00    0.508E+00
DAV:   5    -0.196462059711E+04    0.18700E+00   -0.66809E-01  8376   0.166E+00    0.357E+00
DAV:   6    -0.196457240309E+04    0.48194E-01   -0.59128E-01  8392   0.100E+00    0.393E+00
DAV:   7    -0.196457304442E+04   -0.64134E-03   -0.11299E+00  9032   0.105E+00    0.245E+00
DAV:   8    -0.196455295675E+04    0.20088E-01   -0.21402E-01  7488   0.596E-01    0.143E+00
DAV:   9    -0.196454179863E+04    0.11158E-01   -0.66478E-02  8248   0.402E-01    0.659E-01
DAV:  10    -0.196454241761E+04   -0.61898E-03   -0.40541E-02  8792   0.247E-01    0.626E-01
DAV:  11    -0.196454368700E+04   -0.12694E-02   -0.15496E-02  8048   0.138E-01    0.260E-01
DAV:  12    -0.196454518824E+04   -0.15012E-02   -0.40000E-03  7504   0.739E-02    0.117E-01
DAV:  13    -0.196454691651E+04   -0.17283E-02   -0.87243E-04  7336   0.519E-02    0.774E-02
DAV:  14    -0.196454803484E+04   -0.11183E-02   -0.51256E-04  8136   0.356E-02    0.473E-02
DAV:  15    -0.196454945871E+04   -0.14239E-02   -0.26138E-04  6888   0.207E-02    0.312E-02
DAV:  16    -0.196455043518E+04   -0.97646E-03   -0.13765E-04  7296   0.138E-02    0.178E-02
DAV:  17    -0.196455134982E+04   -0.91464E-03   -0.12273E-04  6440   0.123E-02    0.120E-02
DAV:  18    -0.196455186259E+04   -0.51277E-03   -0.42319E-05  7016   0.795E-03    0.137E-02
DAV:  19    -0.196455216140E+04   -0.29881E-03   -0.19289E-05  5240   0.556E-03    0.100E-02
DAV:  20    -0.196455242359E+04   -0.26219E-03   -0.91926E-06  4424   0.586E-03    0.369E-03
DAV:  21    -0.196455256153E+04   -0.13793E-03   -0.49876E-06  4336   0.337E-03    0.337E-03
DAV:  22    -0.196455263121E+04   -0.69676E-04   -0.21541E-06  4296   0.220E-03    0.225E-03
DAV:  23    -0.196455268077E+04   -0.49569E-04   -0.17106E-06  4216   0.193E-03    0.164E-03
DAV:  24    -0.196455268829E+04   -0.75115E-05   -0.73890E-07  4504   0.129E-03    0.997E-04
DAV:  25    -0.196455269292E+04   -0.46341E-05   -0.38419E-07  4136   0.744E-04
   6 F= -.20168605E+04 E0= -.20168580E+04  d E =-.999008E+01
 curvature:  -1.94 expect dE=-0.628E+01 dE for cont linesearch -0.621E-04
 trial: gam= 0.53555 g(F)=  0.323E+01 g(S)=  0.000E+00 ort =-0.160E-01 (trialstep = 0.162E+01)
 search vector abs. value=  0.552E+01
 bond charge predicted
       N       E                     dE             d eps       ncg     rms          rms(c)
DAV:   1    -0.196689913777E+04   -0.23464E+01   -0.54324E+02  6629   0.347E+01    0.939E+00
DAV:   2    -0.196822008469E+04   -0.13209E+01   -0.15969E+01  8208   0.526E+00    0.943E+00
DAV:   3    -0.196829640060E+04   -0.76316E-01   -0.79000E+00  8984   0.345E+00    0.523E+00
DAV:   4    -0.196812172423E+04    0.17468E+00   -0.50867E-01  8040   0.163E+00    0.287E+00
DAV:   5    -0.196806660138E+04    0.55123E-01   -0.27544E-01  8824   0.116E+00    0.214E+00
DAV:   6    -0.196803409529E+04    0.32506E-01   -0.12973E-01  8488   0.680E-01    0.940E-01
DAV:   7    -0.196803661984E+04   -0.25246E-02   -0.39113E-02  8144   0.308E-01    0.549E-01
DAV:   8    -0.196803777571E+04   -0.11559E-02   -0.10077E-02  8040   0.181E-01    0.380E-01
DAV:   9    -0.196803869675E+04   -0.92104E-03   -0.76830E-03  8320   0.158E-01    0.182E-01
DAV:  10    -0.196803970652E+04   -0.10098E-02   -0.29355E-03  7824   0.954E-02    0.883E-02
DAV:  11    -0.196804112867E+04   -0.14222E-02   -0.88039E-04  7712   0.448E-02    0.659E-02
DAV:  12    -0.196804300306E+04   -0.18744E-02   -0.30033E-04  6920   0.322E-02    0.391E-02
DAV:  13    -0.196804459447E+04   -0.15914E-02   -0.29877E-04  6888   0.286E-02    0.251E-02
DAV:  14    -0.196804569229E+04   -0.10978E-02   -0.17804E-04  8464   0.198E-02    0.169E-02
DAV:  15    -0.196804624926E+04   -0.55697E-03   -0.32665E-05  6880   0.872E-03    0.133E-02
DAV:  16    -0.196804686580E+04   -0.61655E-03   -0.46006E-05  6192   0.762E-03    0.915E-03
DAV:  17    -0.196804721433E+04   -0.34853E-03   -0.16626E-05  5656   0.492E-03    0.562E-03
DAV:  18    -0.196804743032E+04   -0.21599E-03   -0.49889E-06  4408   0.353E-03    0.353E-03
DAV:  19    -0.196804762959E+04   -0.19927E-03   -0.42557E-06  4408   0.373E-03    0.302E-03
DAV:  20    -0.196804770270E+04   -0.73109E-04   -0.19402E-06  4408   0.279E-03    0.195E-03
DAV:  21    -0.196804773386E+04   -0.31166E-04   -0.15005E-06  4264   0.226E-03    0.150E-03
DAV:  22    -0.196804774179E+04   -0.79232E-05   -0.70795E-07  4528   0.131E-03    0.101E-03
DAV:  23    -0.196804774468E+04   -0.28955E-05   -0.26980E-07  4320   0.709E-04
   7 F= -.20204843E+04 E0= -.20204843E+04  d E =-.362387E+01
 trial-energy change:   -3.623866  1 .order   -3.623587   -5.221785   -2.025388
 step:   2.6500(harm=  2.6500)  dis= 0.18316  next Energy= -2021.125758 (dE=-0.427E+01)
 bond charge predicted
       N       E                     dE             d eps       ncg     rms          rms(c)
DAV:   1    -0.196820312898E+04   -0.15539E+00   -0.21944E+02  6624   0.219E+01    0.821E+00
DAV:   2    -0.196860262942E+04   -0.39950E+00   -0.51108E+00  8256   0.297E+00    0.335E+00
DAV:   3    -0.196857593135E+04    0.26698E-01   -0.21810E-01  8408   0.106E+00    0.168E+00
DAV:   4    -0.196858893915E+04   -0.13008E-01   -0.11172E-01  8400   0.745E-01    0.117E+00
DAV:   5    -0.196857893964E+04    0.99995E-02   -0.34171E-02  8112   0.404E-01    0.435E-01
DAV:   6    -0.196857926381E+04   -0.32417E-03   -0.92901E-03  8192   0.172E-01    0.254E-01
DAV:   7    -0.196858004965E+04   -0.78584E-03   -0.34053E-03  8112   0.101E-01    0.155E-01
DAV:   8    -0.196858077849E+04   -0.72884E-03   -0.91294E-04  7816   0.633E-02    0.814E-02
DAV:   9    -0.196858217172E+04   -0.13932E-02   -0.55522E-04  7936   0.564E-02    0.497E-02
DAV:  10    -0.196858373551E+04   -0.15638E-02   -0.45899E-04  8048   0.452E-02    0.331E-02
DAV:  11    -0.196858454514E+04   -0.80964E-03   -0.19132E-04  8312   0.220E-02    0.282E-02
DAV:  12    -0.196858498721E+04   -0.44206E-03   -0.38492E-05  7192   0.915E-03    0.167E-02
DAV:  13    -0.196858573492E+04   -0.74772E-03   -0.68036E-05  6192   0.910E-03    0.983E-03
DAV:  14    -0.196858611809E+04   -0.38317E-03   -0.28468E-05  6304   0.714E-03    0.673E-03
DAV:  15    -0.196858648755E+04   -0.36946E-03   -0.17754E-05  5624   0.475E-03    0.563E-03
DAV:  16    -0.196858674529E+04   -0.25774E-03   -0.57787E-06  4656   0.500E-03    0.253E-03
DAV:  17    -0.196858688744E+04   -0.14215E-03   -0.40567E-06  4480   0.366E-03    0.258E-03
DAV:  18    -0.196858693153E+04   -0.44087E-04   -0.18228E-06  4456   0.216E-03    0.241E-03
DAV:  19    -0.196858695573E+04   -0.24201E-04   -0.86275E-07  4320   0.164E-03    0.915E-04
DAV:  20    -0.196858696893E+04   -0.13193E-04   -0.74452E-07  4344   0.133E-03    0.181E-03
DAV:  21    -0.196858697118E+04   -0.22515E-05   -0.31487E-07  4568   0.120E-03
   8 F= -.20210996E+04 E0= -.20210996E+04  d E =-.423909E+01
 curvature:  -2.27 expect dE=-0.535E+01 dE for cont linesearch -0.252E-02
 trial: gam= 0.69477 g(F)=  0.235E+01 g(S)=  0.000E+00 ort =-0.782E-01 (trialstep = 0.183E+01)
 search vector abs. value=  0.491E+01
 bond charge predicted
       N       E                     dE             d eps       ncg     rms          rms(c)
DAV:   1    -0.196489567179E+04    0.36913E+01   -0.12119E+03  6696   0.491E+01    0.491E+01
DAV:   2    -0.196936471083E+04   -0.44690E+01   -0.51234E+01  8152   0.727E+00    0.180E+01
DAV:   3    -0.196938015088E+04   -0.15440E-01   -0.89264E+00  9160   0.398E+00    0.129E+01
DAV:   4    -0.196888939131E+04    0.49076E+00   -0.38069E+00  9288   0.270E+00    0.486E+00
DAV:   5    -0.196894109520E+04   -0.51704E-01   -0.39741E-01  7128   0.780E-01    0.213E+00
DAV:   6    -0.196891859210E+04    0.22503E-01   -0.16828E-01  9336   0.761E-01    0.747E-01
DAV:   7    -0.196892532478E+04   -0.67327E-02   -0.26513E-02  7184   0.239E-01    0.500E-01
DAV:   8    -0.196892750474E+04   -0.21800E-02   -0.40311E-03  8472   0.854E-02    0.264E-01
DAV:   9    -0.196892966448E+04   -0.21597E-02   -0.10673E-03  7216   0.656E-02    0.640E-02
DAV:  10    -0.196893064237E+04   -0.97789E-03   -0.49392E-04  8064   0.421E-02    0.427E-02
DAV:  11    -0.196893109229E+04   -0.44992E-03   -0.13362E-04  7552   0.162E-02    0.316E-02
DAV:  12    -0.196893165880E+04   -0.56651E-03   -0.42644E-05  6336   0.980E-03    0.192E-02
DAV:  13    -0.196893262472E+04   -0.96591E-03   -0.11024E-04  6344   0.191E-02    0.190E-02
DAV:  14    -0.196893324817E+04   -0.62346E-03   -0.10746E-04  7688   0.222E-02    0.119E-02
DAV:  15    -0.196893337074E+04   -0.12257E-03   -0.26622E-05  6520   0.692E-03    0.154E-02
DAV:  16    -0.196893346407E+04   -0.93333E-04   -0.25032E-06  4376   0.274E-03    0.999E-03
DAV:  17    -0.196893386379E+04   -0.39972E-03   -0.43777E-05  6968   0.931E-03    0.146E-02
DAV:  18    -0.196893391824E+04   -0.54447E-04   -0.34725E-06  4744   0.523E-03    0.835E-03
DAV:  19    -0.196893396946E+04   -0.51219E-04   -0.80235E-06  4528   0.390E-03    0.372E-03
DAV:  20    -0.196893403020E+04   -0.60738E-04   -0.15923E-06  4432   0.358E-03    0.218E-03
DAV:  21    -0.196893406407E+04   -0.33870E-04   -0.70558E-07  4504   0.131E-03    0.314E-03
DAV:  22    -0.196893408155E+04   -0.17488E-04   -0.54225E-07  4464   0.262E-03    0.756E-04
DAV:  23    -0.196893408904E+04   -0.74850E-05   -0.66109E-07  4520   0.106E-03    0.152E-03
DAV:  24    -0.196893409054E+04   -0.14961E-05   -0.10879E-07  4640   0.621E-04
   9 F= -.20215366E+04 E0= -.20215366E+04  d E =-.437039E+00
 trial-energy change:   -0.437039  1 .order    1.318780   -4.199207    6.836767
 step:   1.1113(harm=  0.6955)  dis= 0.14234  next Energy= -2022.770817 (dE=-0.167E+01)
 bond charge predicted
       N       E                     dE             d eps       ncg     rms          rms(c)
DAV:   1    -0.196973089283E+04   -0.79680E+00   -0.19448E+02  6768   0.165E+01    0.120E+01
DAV:   2    -0.197012105353E+04   -0.39016E+00   -0.63162E+00  8328   0.300E+00    0.114E+01
DAV:   3    -0.197011877416E+04    0.22794E-02   -0.31881E-01  7832   0.780E-01    0.855E+00
DAV:   4    -0.197018129093E+04   -0.62517E-01   -0.28583E-01  7376   0.782E-01    0.258E+00
DAV:   5    -0.197012269227E+04    0.58599E-01   -0.26962E-01  9104   0.776E-01    0.707E-01
DAV:   6    -0.197013811603E+04   -0.15424E-01   -0.19282E-02  7816   0.211E-01    0.466E-01
DAV:   7    -0.197013799357E+04    0.12246E-03   -0.62796E-03  9176   0.115E-01    0.229E-01
DAV:   8    -0.197013815714E+04   -0.16357E-03   -0.96737E-04  7016   0.522E-02    0.517E-02
DAV:   9    -0.197013844227E+04   -0.28513E-03   -0.29694E-04  8104   0.303E-02    0.387E-02
DAV:  10    -0.197013855316E+04   -0.11088E-03   -0.48284E-05  6888   0.105E-02    0.301E-02
DAV:  11    -0.197013866357E+04   -0.11041E-03   -0.12061E-05  5280   0.628E-03    0.200E-02
DAV:  12    -0.197013898598E+04   -0.32241E-03   -0.50910E-05  6272   0.139E-02    0.152E-02
DAV:  13    -0.197013904994E+04   -0.63958E-04   -0.24736E-05  6832   0.775E-03    0.944E-03
DAV:  14    -0.197013910757E+04   -0.57628E-04   -0.31934E-06  4360   0.329E-03    0.661E-03
DAV:  15    -0.197013923267E+04   -0.12510E-03   -0.49503E-06  4472   0.488E-03    0.480E-03
DAV:  16    -0.197013934178E+04   -0.10911E-03   -0.58296E-06  4656   0.347E-03    0.274E-03
DAV:  17    -0.197013938501E+04   -0.43229E-04   -0.25545E-06  4576   0.230E-03    0.228E-03
DAV:  18    -0.197013941075E+04   -0.25737E-04   -0.14981E-06  4488   0.190E-03    0.131E-03
DAV:  19    -0.197013943037E+04   -0.19621E-04   -0.97151E-07  4488   0.128E-03    0.807E-04
DAV:  20    -0.197013943559E+04   -0.52182E-05   -0.46721E-07  4656   0.827E-04    0.666E-04
DAV:  21    -0.197013944178E+04   -0.61949E-05   -0.27844E-07  4400   0.752E-04    0.573E-04
DAV:  22    -0.197013944297E+04   -0.11856E-05   -0.13566E-07  4608   0.616E-04
  10 F= -.20227022E+04 E0= -.20227022E+04  d E =-.160265E+01
 curvature:  -0.64 expect dE=-0.525E+00 dE for cont linesearch -0.738E-03
 trial: gam= 0.02544 g(F)=  0.817E+00 g(S)=  0.000E+00 ort = 0.751E-01 (trialstep = 0.168E+01)
 search vector abs. value=  0.824E+00
 bond charge predicted
       N       E                     dE             d eps       ncg     rms          rms(c)
DAV:   1    -0.197048504477E+04   -0.34560E+00   -0.18991E+02  6328   0.214E+01    0.694E+00
DAV:   2    -0.197079490903E+04   -0.30986E+00   -0.42957E+00  8528   0.295E+00    0.442E+00
DAV:   3    -0.197075110237E+04    0.43807E-01   -0.32836E-01  8704   0.978E-01    0.275E+00
DAV:   4    -0.197074062091E+04    0.10481E-01   -0.21866E-01  8504   0.824E-01    0.163E+00
DAV:   5    -0.197072092138E+04    0.19700E-01   -0.11276E-01  8384   0.520E-01    0.412E-01
DAV:   6    -0.197072551654E+04   -0.45952E-02   -0.17803E-02  7344   0.175E-01    0.260E-01
DAV:   7    -0.197072526664E+04    0.24990E-03   -0.18478E-03  8984   0.667E-02    0.137E-01
DAV:   8    -0.197072533020E+04   -0.63555E-04   -0.51065E-04  7000   0.475E-02    0.536E-02
DAV:   9    -0.197072554226E+04   -0.21207E-03   -0.23783E-04  7224   0.345E-02    0.301E-02
DAV:  10    -0.197072567421E+04   -0.13194E-03   -0.12544E-04  8176   0.171E-02    0.282E-02
DAV:  11    -0.197072578476E+04   -0.11056E-03   -0.12573E-05  4704   0.684E-03    0.185E-02
DAV:  12    -0.197072605921E+04   -0.27444E-03   -0.42197E-05  6272   0.142E-02    0.116E-02
DAV:  13    -0.197072616615E+04   -0.10695E-03   -0.19019E-05  6112   0.858E-03    0.843E-03
DAV:  14    -0.197072625184E+04   -0.85681E-04   -0.62926E-06  4464   0.478E-03    0.473E-03
DAV:  15    -0.197072636306E+04   -0.11123E-03   -0.41427E-06  4408   0.440E-03    0.321E-03
DAV:  16    -0.197072647099E+04   -0.10792E-03   -0.61913E-06  4544   0.360E-03    0.417E-03
DAV:  17    -0.197072650621E+04   -0.35229E-04   -0.23517E-06  4616   0.290E-03    0.328E-03
DAV:  18    -0.197072652802E+04   -0.21805E-04   -0.13514E-06  4456   0.197E-03    0.169E-03
DAV:  19    -0.197072654356E+04   -0.15542E-04   -0.94629E-07  4504   0.172E-03    0.675E-04
DAV:  20    -0.197072654991E+04   -0.63443E-05   -0.53814E-07  4504   0.119E-03    0.863E-04
DAV:  21    -0.197072655260E+04   -0.26997E-05   -0.26156E-07  4520   0.738E-04
  11 F= -.20232931E+04 E0= -.20232931E+04  d E =-.590831E+00
 trial-energy change:   -0.590831  1 .order   -0.594400   -1.378873    0.190072
 step:   1.4779(harm=  1.4804)  dis= 0.04251  next Energy= -2023.304713 (dE=-0.602E+00)
 bond charge predicted
       N       E                     dE             d eps       ncg     rms          rms(c)
DAV:   1    -0.197073531675E+04   -0.87668E-02   -0.28519E+00  6384   0.263E+00    0.933E-01
DAV:   2    -0.197073961086E+04   -0.42941E-02   -0.60667E-02  8576   0.325E-01    0.482E-01
DAV:   3    -0.197073884433E+04    0.76653E-03   -0.39575E-03  8656   0.118E-01    0.269E-01
DAV:   4    -0.197073878318E+04    0.61152E-04   -0.28509E-03  8528   0.910E-02    0.162E-01
DAV:   5    -0.197073855423E+04    0.22895E-03   -0.99971E-04  8488   0.536E-02    0.400E-02
DAV:   6    -0.197073859964E+04   -0.45406E-04   -0.16071E-04  7080   0.176E-02    0.264E-02
DAV:   7    -0.197073859958E+04    0.58208E-07   -0.14843E-05  5448   0.683E-03
  12 F= -.20233046E+04 E0= -.20233046E+04  d E =-.602394E+00
 curvature:  -0.74 expect dE=-0.151E+00 dE for cont linesearch -0.443E-09
 trial: gam= 0.25958 g(F)=  0.203E+00 g(S)=  0.000E+00 ort =-0.221E-04 (trialstep = 0.164E+01)
 search vector abs. value=  0.259E+00
 bond charge predicted
       N       E                     dE             d eps       ncg     rms          rms(c)
DAV:   1    -0.197076104235E+04   -0.22443E-01   -0.77115E+01  6328   0.132E+01    0.750E+00
DAV:   2    -0.197089932498E+04   -0.13828E+00   -0.19447E+00  8384   0.168E+00    0.376E+00
DAV:   3    -0.197092531173E+04   -0.25987E-01   -0.57252E-01  9136   0.116E+00    0.338E+00
DAV:   4    -0.197085820947E+04    0.67102E-01   -0.43304E-01  9288   0.738E-01    0.977E-01
DAV:   5    -0.197087732216E+04   -0.19113E-01   -0.23632E-02  7032   0.194E-01    0.386E-01
DAV:   6    -0.197087640701E+04    0.91515E-03   -0.62681E-03  9120   0.135E-01    0.141E-01
DAV:   7    -0.197087669797E+04   -0.29096E-03   -0.12234E-03  7496   0.482E-02    0.698E-02
DAV:   8    -0.197087673821E+04   -0.40238E-04   -0.11212E-04  8256   0.182E-02    0.446E-02
DAV:   9    -0.197087677555E+04   -0.37341E-04   -0.44256E-05  6552   0.145E-02    0.134E-02
DAV:  10    -0.197087680433E+04   -0.28772E-04   -0.16970E-05  5728   0.842E-03    0.920E-03
DAV:  11    -0.197087681943E+04   -0.15109E-04   -0.60242E-06  4512   0.469E-03    0.625E-03
DAV:  12    -0.197087683823E+04   -0.18797E-04   -0.28912E-06  4304   0.323E-03    0.358E-03
DAV:  13    -0.197087686311E+04   -0.24880E-04   -0.29464E-06  4320   0.379E-03    0.295E-03
DAV:  14    -0.197087687754E+04   -0.14431E-04   -0.22431E-06  4528   0.316E-03    0.185E-03
DAV:  15    -0.197087689050E+04   -0.12957E-04   -0.21183E-06  4344   0.256E-03    0.145E-03
DAV:  16    -0.197087689467E+04   -0.41730E-05   -0.10550E-06  4648   0.167E-03
  13 F= -.20234724E+04 E0= -.20234724E+04  d E =-.167771E+00
 trial-energy change:   -0.167771  1 .order   -0.160022   -0.333970    0.013925
 step:   1.5849(harm=  1.5774)  dis= 0.04195  next Energy= -2023.472635 (dE=-0.168E+00)
 bond charge predicted
       N       E                     dE             d eps       ncg     rms          rms(c)
DAV:   1    -0.197087805837E+04   -0.11679E-02   -0.97383E-02  6488   0.462E-01    0.247E-01
DAV:   2    -0.197087821666E+04   -0.15829E-03   -0.23787E-03  8432   0.588E-02    0.141E-01
DAV:   3    -0.197087825019E+04   -0.33533E-04   -0.71826E-04  9096   0.398E-02    0.114E-01
DAV:   4    -0.197087817291E+04    0.77281E-04   -0.33558E-04  8584   0.257E-02    0.279E-02
DAV:   5    -0.197087819553E+04   -0.22617E-04   -0.23534E-05  5920   0.707E-03    0.896E-03
DAV:   6    -0.197087819611E+04   -0.57917E-06   -0.54264E-06  4816   0.396E-03
  14 F= -.20234726E+04 E0= -.20234726E+04  d E =-.168025E+00
 curvature:  -0.99 expect dE=-0.119E+00 dE for cont linesearch -0.279E-07
 trial: gam= 0.58693 g(F)=  0.120E+00 g(S)=  0.000E+00 ort = 0.853E-04 (trialstep = 0.163E+01)
 search vector abs. value=  0.210E+00
 bond charge predicted
       N       E                     dE             d eps       ncg     rms          rms(c)
DAV:   1    -0.197088996661E+04   -0.11771E-01   -0.44840E+01  6328   0.100E+01    0.266E+00
DAV:   2    -0.197096430683E+04   -0.74340E-01   -0.98170E-01  8480   0.127E+00    0.180E+00
DAV:   3    -0.197096353061E+04    0.77622E-03   -0.61434E-02  8168   0.424E-01    0.116E+00
DAV:   4    -0.197096668898E+04   -0.31584E-02   -0.66097E-02  8568   0.354E-01    0.938E-01
DAV:   5    -0.197096298251E+04    0.37065E-02   -0.18921E-02  8064   0.197E-01    0.194E-01
DAV:   6    -0.197096450704E+04   -0.15245E-02   -0.25811E-03  7960   0.808E-02    0.123E-01
DAV:   7    -0.197096462146E+04   -0.11442E-03   -0.54193E-04  8696   0.382E-02    0.651E-02
DAV:   8    -0.197096461976E+04    0.16949E-05   -0.12680E-04  7456   0.172E-02    0.315E-02
DAV:   9    -0.197096465256E+04   -0.32800E-04   -0.40797E-05  6840   0.117E-02    0.107E-02
DAV:  10    -0.197096467326E+04   -0.20701E-04   -0.12919E-05  4904   0.562E-03    0.612E-03
DAV:  11    -0.197096468631E+04   -0.13051E-04   -0.25074E-06  4400   0.309E-03    0.447E-03
DAV:  12    -0.197096470884E+04   -0.22524E-04   -0.22381E-06  4264   0.226E-03    0.244E-03
DAV:  13    -0.197096472055E+04   -0.11709E-04   -0.11991E-06  4552   0.195E-03    0.151E-03
DAV:  14    -0.197096473176E+04   -0.11218E-04   -0.11892E-06  4360   0.167E-03    0.103E-03
DAV:  15    -0.197096473944E+04   -0.76790E-05   -0.86478E-07  4472   0.131E-03    0.112E-03
DAV:  16    -0.197096474237E+04   -0.29283E-05   -0.47245E-07  4544   0.890E-04
  15 F= -.20236057E+04 E0= -.20236057E+04  d E =-.133036E+00
 trial-energy change:   -0.133036  1 .order   -0.133195   -0.196367   -0.070023
 step:   2.5357(harm=  2.5357)  dis= 0.04677  next Energy= -2023.625242 (dE=-0.153E+00)
 bond charge predicted
       N       E                     dE             d eps       ncg     rms          rms(c)
DAV:   1    -0.197093635919E+04    0.28380E-01   -0.13759E+01  6328   0.555E+00    0.152E+00
DAV:   2    -0.197095892237E+04   -0.22563E-01   -0.30167E-01  8488   0.690E-01    0.102E+00
DAV:   3    -0.197095888976E+04    0.32611E-04   -0.31992E-02  8440   0.265E-01    0.730E-01
DAV:   4    -0.197095822844E+04    0.66132E-03   -0.26888E-02  8808   0.198E-01    0.511E-01
DAV:   5    -0.197095813016E+04    0.98271E-04   -0.55173E-03  7504   0.100E-01    0.106E-01
DAV:   6    -0.197095848929E+04   -0.35913E-03   -0.77222E-04  8336   0.459E-02    0.655E-02
DAV:   7    -0.197095852443E+04   -0.35140E-04   -0.18650E-04  8360   0.236E-02    0.339E-02
DAV:   8    -0.197095852259E+04    0.18401E-05   -0.34849E-05  5560   0.991E-03
  16 F= -.20236254E+04 E0= -.20236254E+04  d E =-.152769E+00
 curvature:  -2.21 expect dE=-0.237E+00 dE for cont linesearch -0.662E-05
 trial: gam= 0.91579 g(F)=  0.107E+00 g(S)=  0.000E+00 ort = 0.793E-03 (trialstep = 0.134E+01)
 search vector abs. value=  0.284E+00
 bond charge predicted
       N       E                     dE             d eps       ncg     rms          rms(c)
DAV:   1    -0.197095852344E+04    0.98802E-06   -0.47259E+01  6328   0.101E+01    0.362E+00
DAV:   2    -0.197108845193E+04   -0.12993E+00   -0.21067E+00  8336   0.156E+00    0.367E+00
DAV:   3    -0.197099101771E+04    0.97434E-01   -0.34802E-01  8825   0.880E-01    0.117E+00
DAV:   4    -0.197101543694E+04   -0.24419E-01   -0.33425E-02  7448   0.320E-01    0.564E-01
DAV:   5    -0.197101841097E+04   -0.29740E-02   -0.82704E-03  8608   0.167E-01    0.251E-01
DAV:   6    -0.197101849043E+04   -0.79463E-04   -0.18156E-03  7952   0.784E-02    0.108E-01
DAV:   7    -0.197101862124E+04   -0.13081E-03   -0.46178E-04  8448   0.397E-02    0.558E-02
DAV:   8    -0.197101862546E+04   -0.42196E-05   -0.12218E-04  7656   0.168E-02    0.317E-02
DAV:   9    -0.197101864977E+04   -0.24309E-04   -0.50439E-05  5688   0.776E-03    0.219E-02
DAV:  10    -0.197101866675E+04   -0.16980E-04   -0.19208E-05  4560   0.603E-03    0.587E-03
DAV:  11    -0.197101868123E+04   -0.14482E-04   -0.38034E-06  4568   0.359E-03    0.318E-03
DAV:  12    -0.197101869403E+04   -0.12792E-04   -0.15949E-06  4448   0.219E-03    0.191E-03
DAV:  13    -0.197101870786E+04   -0.13837E-04   -0.11179E-06  4424   0.195E-03    0.113E-03
DAV:  14    -0.197101871514E+04   -0.72768E-05   -0.81628E-07  4528   0.138E-03    0.102E-03
DAV:  15    -0.197101872078E+04   -0.56403E-05   -0.54571E-07  4440   0.106E-03    0.629E-04
DAV:  16    -0.197101872504E+04   -0.42603E-05   -0.41058E-07  4448   0.853E-04
  17 F= -.20237302E+04 E0= -.20237302E+04  d E =-.104816E+00
 trial-energy change:   -0.104816  1 .order   -0.104448   -0.144136   -0.064760
 step:   2.3734(harm=  2.4247)  dis= 0.05822  next Energy= -2023.755574 (dE=-0.130E+00)
 bond charge predicted
       N       E                     dE             d eps       ncg     rms          rms(c)
DAV:   1    -0.197097818019E+04    0.40541E-01   -0.28612E+01  6328   0.784E+00    0.316E+00
DAV:   2    -0.197109393853E+04   -0.11576E+00   -0.19006E+00  8384   0.132E+00    0.402E+00
DAV:   3    -0.197097063904E+04    0.12330E+00   -0.30829E-01  8904   0.775E-01    0.100E+00
DAV:   4    -0.197100510220E+04   -0.34463E-01   -0.27541E-02  7216   0.253E-01    0.541E-01
DAV:   5    -0.197101011190E+04   -0.50097E-02   -0.85334E-03  8472   0.161E-01    0.302E-01
DAV:   6    -0.197100994601E+04    0.16589E-03   -0.12002E-03  8024   0.691E-02    0.117E-01
DAV:   7    -0.197101015829E+04   -0.21228E-03   -0.13404E-03  8568   0.468E-02    0.146E-01
DAV:   8    -0.197101009501E+04    0.63275E-04   -0.67930E-04  7120   0.192E-02    0.428E-02
DAV:   9    -0.197101016723E+04   -0.72223E-04   -0.22373E-05  5824   0.569E-03    0.205E-02
DAV:  10    -0.197101017952E+04   -0.12287E-04   -0.16686E-05  4432   0.531E-03    0.141E-02
DAV:  11    -0.197101019049E+04   -0.10968E-04   -0.73965E-06  4560   0.440E-03    0.293E-03
DAV:  12    -0.197101019596E+04   -0.54700E-05   -0.18416E-06  4528   0.217E-03    0.214E-03
DAV:  13    -0.197101020095E+04   -0.49950E-05   -0.78153E-07  4416   0.173E-03
  18 F= -.20237564E+04 E0= -.20237563E+04  d E =-.130982E+00
 curvature:  -3.19 expect dE=-0.249E+00 dE for cont linesearch -0.247E-04
 trial: gam= 0.72079 g(F)=  0.781E-01 g(S)=  0.000E+00 ort = 0.148E-02 (trialstep = 0.154E+01)
 search vector abs. value=  0.228E+00
 bond charge predicted
       N       E                     dE             d eps       ncg     rms          rms(c)
DAV:   1    -0.197095482348E+04    0.55372E-01   -0.51764E+01  6328   0.104E+01    0.281E+00
DAV:   2    -0.197105472074E+04   -0.99897E-01   -0.13499E+00  8456   0.133E+00    0.301E+00
DAV:   3    -0.197102204917E+04    0.32672E-01   -0.30715E-01  8520   0.545E-01    0.214E+00
DAV:   4    -0.197102819907E+04   -0.61499E-02   -0.16284E-01  8424   0.330E-01    0.132E+00
DAV:   5    -0.197103759191E+04   -0.93928E-02   -0.30800E-02  7832   0.244E-01    0.234E-01
DAV:   6    -0.197104030363E+04   -0.27117E-02   -0.37526E-03  8432   0.112E-01    0.227E-01
DAV:   7    -0.197104006450E+04    0.23912E-03   -0.19614E-03  8360   0.631E-02    0.107E-01
DAV:   8    -0.197104016325E+04   -0.98749E-04   -0.31698E-04  6968   0.222E-02    0.419E-02
DAV:   9    -0.197104019457E+04   -0.31316E-04   -0.28229E-05  6416   0.106E-02    0.231E-02
DAV:  10    -0.197104021262E+04   -0.18050E-04   -0.20666E-05  4920   0.744E-03    0.106E-02
DAV:  11    -0.197104023529E+04   -0.22673E-04   -0.89699E-06  4600   0.488E-03    0.577E-03
DAV:  12    -0.197104025026E+04   -0.14966E-04   -0.30418E-06  4472   0.311E-03    0.328E-03
DAV:  13    -0.197104026643E+04   -0.16169E-04   -0.19415E-06  4384   0.230E-03    0.225E-03
DAV:  14    -0.197104028492E+04   -0.18493E-04   -0.19520E-06  4392   0.285E-03    0.121E-03
DAV:  15    -0.197104029049E+04   -0.55737E-05   -0.13959E-06  4624   0.161E-03    0.106E-03
DAV:  16    -0.197104029610E+04   -0.56064E-05   -0.81625E-07  4400   0.125E-03    0.741E-04
DAV:  17    -0.197104029921E+04   -0.31124E-05   -0.46061E-07  4488   0.964E-04
  19 F= -.20238326E+04 E0= -.20238318E+04  d E =-.761975E-01
 trial-energy change:   -0.076197  1 .order   -0.076453   -0.122084   -0.030821
 step:   2.0760(harm=  2.0639)  dis= 0.05215  next Energy= -2023.837906 (dE=-0.815E-01)
 bond charge predicted
       N       E                     dE             d eps       ncg     rms          rms(c)
DAV:   1    -0.197102014460E+04    0.20151E-01   -0.61693E+00  6342   0.360E+00    0.102E+00
DAV:   2    -0.197103231887E+04   -0.12174E-01   -0.16340E-01  8416   0.438E-01    0.128E+00
DAV:   3    -0.197102456783E+04    0.77510E-02   -0.66087E-02  8688   0.202E-01    0.934E-01
DAV:   4    -0.197102665803E+04   -0.20902E-02   -0.23850E-02  8104   0.130E-01    0.404E-01
DAV:   5    -0.197102952671E+04   -0.28687E-02   -0.31492E-03  7536   0.806E-02    0.749E-02
DAV:   6    -0.197102967791E+04   -0.15120E-03   -0.30191E-04  7864   0.328E-02    0.458E-02
DAV:   7    -0.197102967492E+04    0.29873E-05   -0.13557E-04  8960   0.198E-02    0.362E-02
DAV:   8    -0.197102966828E+04    0.66442E-05   -0.29799E-05  4992   0.742E-03    0.101E-02
DAV:   9    -0.197102967587E+04   -0.75903E-05   -0.39532E-06  4392   0.359E-03    0.508E-03
DAV:  10    -0.197102967845E+04   -0.25821E-05   -0.17629E-06  4432   0.299E-03
  20 F= -.20238379E+04 E0= -.20238367E+04  d E =-.815397E-01
 curvature:  -2.97 expect dE=-0.194E+00 dE for cont linesearch -0.957E-07
 trial: gam= 0.84635 g(F)=  0.652E-01 g(S)=  0.000E+00 ort = 0.857E-04 (trialstep = 0.164E+01)
 search vector abs. value=  0.229E+00
 bond charge predicted
       N       E                     dE             d eps       ncg     rms          rms(c)
DAV:   1    -0.197096380700E+04    0.65869E-01   -0.59254E+01  6328   0.110E+01    0.452E+00
DAV:   2    -0.197125258058E+04   -0.28877E+00   -0.39707E+00  8480   0.190E+00    0.559E+00
DAV:   3    -0.197098091679E+04    0.27166E+00   -0.42250E-01  9129   0.119E+00    0.170E+00
DAV:   4    -0.197103018004E+04   -0.49263E-01   -0.61626E-02  7240   0.347E-01    0.928E-01
DAV:   5    -0.197104758845E+04   -0.17408E-01   -0.13967E-02  8384   0.281E-01    0.554E-01
DAV:   6    -0.197104934117E+04   -0.17527E-02   -0.13699E-02  9168   0.162E-01    0.632E-01
DAV:   7    -0.197104683381E+04    0.25074E-02   -0.10773E-02  7760   0.692E-02    0.269E-01
DAV:   8    -0.197104882632E+04   -0.19925E-02   -0.70555E-04  8272   0.426E-02    0.276E-01
DAV:   9    -0.197104832873E+04    0.49758E-03   -0.18342E-03  8512   0.265E-02    0.101E-01
DAV:  10    -0.197104897022E+04   -0.64148E-03   -0.97935E-05  6688   0.129E-02    0.348E-02
DAV:  11    -0.197104903872E+04   -0.68497E-04   -0.28186E-05  4768   0.663E-03    0.100E-02
DAV:  12    -0.197104910742E+04   -0.68702E-04   -0.58169E-06  4576   0.495E-03    0.407E-03
DAV:  13    -0.197104915250E+04   -0.45084E-04   -0.36497E-06  4504   0.256E-03    0.294E-03
DAV:  14    -0.197104921662E+04   -0.64113E-04   -0.39126E-06  4496   0.340E-03    0.286E-03
DAV:  15    -0.197104925053E+04   -0.33917E-04   -0.35310E-06  4568   0.268E-03    0.352E-03
DAV:  16    -0.197104926491E+04   -0.14378E-04   -0.20923E-06  4536   0.180E-03    0.245E-03
DAV:  17    -0.197104927279E+04   -0.78748E-05   -0.10917E-06  4552   0.137E-03    0.199E-03
DAV:  18    -0.197104927745E+04   -0.46623E-05   -0.54971E-07  4488   0.145E-03
  21 F= -.20239059E+04 E0= -.20239026E+04  d E =-.679324E-01
 trial-energy change:   -0.067932  1 .order   -0.067854   -0.107320   -0.028387
 step:   2.2363(harm=  2.2363)  dis= 0.05651  next Energy= -2023.910892 (dE=-0.730E-01)
 bond charge predicted
       N       E                     dE             d eps       ncg     rms          rms(c)
DAV:   1    -0.197102688565E+04    0.22387E-01   -0.76722E+00  6328   0.392E+00    0.160E+00
DAV:   2    -0.197107429132E+04   -0.47406E-01   -0.58065E-01  8512   0.656E-01    0.322E+00
DAV:   3    -0.197099902590E+04    0.75265E-01   -0.17175E-01  8904   0.405E-01    0.660E-01
DAV:   4    -0.197103440638E+04   -0.35380E-01   -0.10114E-02  6760   0.137E-01    0.519E-01
DAV:   5    -0.197103707769E+04   -0.26713E-02   -0.15563E-02  8504   0.120E-01    0.589E-01
DAV:   6    -0.197103500661E+04    0.20711E-02   -0.32514E-03  6704   0.438E-02    0.151E-01
DAV:   7    -0.197103662971E+04   -0.16231E-02   -0.91725E-04  8816   0.340E-02    0.121E-01
DAV:   8    -0.197103695037E+04   -0.32066E-03   -0.25417E-04  7576   0.193E-02    0.294E-02
DAV:   9    -0.197103698849E+04   -0.38115E-04   -0.12290E-05  5256   0.725E-03    0.149E-02
DAV:  10    -0.197103699408E+04   -0.55911E-05   -0.37113E-06  4600   0.391E-03    0.713E-03
DAV:  11    -0.197103700429E+04   -0.10217E-04   -0.42144E-06  4464   0.267E-03    0.904E-03
DAV:  12    -0.197103700967E+04   -0.53752E-05   -0.12251E-06  4568   0.191E-03    0.357E-03
DAV:  13    -0.197103701451E+04   -0.48416E-05   -0.76667E-07  4504   0.108E-03
  22 F= -.20239110E+04 E0= -.20239069E+04  d E =-.730921E-01
 curvature:  -3.92 expect dE=-0.196E+00 dE for cont linesearch -0.516E-06
 trial: gam= 0.78722 g(F)=  0.501E-01 g(S)=  0.000E+00 ort = 0.174E-03 (trialstep = 0.176E+01)
 search vector abs. value=  0.192E+00
 bond charge predicted
       N       E                     dE             d eps       ncg     rms          rms(c)
DAV:   1    -0.197093420620E+04    0.10280E+00   -0.56562E+01  6328   0.105E+01    0.286E+00
DAV:   2    -0.197102569209E+04   -0.91486E-01   -0.12265E+00  8376   0.129E+00    0.282E+00
DAV:   3    -0.197102721834E+04   -0.15262E-02   -0.53598E-01  8712   0.514E-01    0.322E+00
DAV:   4    -0.197099881940E+04    0.28399E-01   -0.11087E-01  9056   0.350E-01    0.121E+00
DAV:   5    -0.197102662885E+04   -0.27809E-01   -0.17697E-02  7968   0.231E-01    0.683E-01
DAV:   6    -0.197103049247E+04   -0.38636E-02   -0.17413E-02  8320   0.149E-01    0.508E-01
DAV:   7    -0.197102981451E+04    0.67796E-03   -0.36829E-03  7608   0.765E-02    0.101E-01
DAV:   8    -0.197103108736E+04   -0.12729E-02   -0.45476E-04  8160   0.325E-02    0.563E-02
DAV:   9    -0.197103126906E+04   -0.18169E-03   -0.82231E-05  7600   0.171E-02    0.409E-02
DAV:  10    -0.197103132153E+04   -0.52476E-04   -0.39002E-05  5144   0.931E-03    0.221E-02
DAV:  11    -0.197103141978E+04   -0.98248E-04   -0.14773E-05  5248   0.898E-03    0.210E-02
DAV:  12    -0.197103148990E+04   -0.70121E-04   -0.11499E-05  4560   0.473E-03    0.593E-03
DAV:  13    -0.197103154427E+04   -0.54370E-04   -0.31123E-06  4520   0.282E-03    0.367E-03
DAV:  14    -0.197103166022E+04   -0.11595E-03   -0.80001E-06  4632   0.390E-03    0.517E-03
DAV:  15    -0.197103168295E+04   -0.22726E-04   -0.24607E-06  4648   0.325E-03    0.327E-03
DAV:  16    -0.197103171800E+04   -0.35053E-04   -0.37166E-06  4408   0.321E-03    0.238E-03
DAV:  17    -0.197103173131E+04   -0.13312E-04   -0.16890E-06  4552   0.235E-03    0.247E-03
DAV:  18    -0.197103173593E+04   -0.46190E-05   -0.50379E-07  4560   0.101E-03
  23 F= -.20239513E+04 E0= -.20239465E+04  d E =-.402570E-01
 trial-energy change:   -0.040257  1 .order   -0.040635   -0.088540    0.007269
 step:   1.6264(harm=  1.6293)  dis= 0.04113  next Energy= -2023.951565 (dE=-0.405E-01)
 bond charge predicted
       N       E                     dE             d eps       ncg     rms          rms(c)
DAV:   1    -0.197103503400E+04   -0.33027E-02   -0.33929E-01  6372   0.819E-01    0.247E-01
DAV:   2    -0.197103554118E+04   -0.50718E-03   -0.67170E-03  8472   0.931E-02    0.202E-01
DAV:   3    -0.197103576639E+04   -0.22521E-03   -0.49797E-03  9112   0.464E-02    0.464E-01
DAV:   4    -0.197103409583E+04    0.16706E-02   -0.31667E-03  8408   0.372E-02    0.917E-02
DAV:   5    -0.197103552139E+04   -0.14256E-02   -0.11195E-04  6528   0.213E-02    0.186E-02
DAV:   6    -0.197103555110E+04   -0.29708E-04   -0.22217E-05  6184   0.777E-03    0.253E-02
DAV:   7    -0.197103554739E+04    0.37100E-05   -0.64649E-06  4536   0.445E-03
  24 F= -.20239516E+04 E0= -.20239468E+04  d E =-.405300E-01
 curvature:  -3.11 expect dE=-0.980E-01 dE for cont linesearch -0.366E-06
 trial: gam= 0.64399 g(F)=  0.315E-01 g(S)=  0.000E+00 ort = 0.150E-03 (trialstep = 0.174E+01)
 search vector abs. value=  0.111E+00
 bond charge predicted
       N       E                     dE             d eps       ncg     rms          rms(c)
DAV:   1    -0.197099329145E+04    0.42260E-01   -0.33311E+01  6328   0.809E+00    0.260E+00
DAV:   2    -0.197111495285E+04   -0.12166E+00   -0.14392E+00  8344   0.122E+00    0.409E+00
DAV:   3    -0.197098564900E+04    0.12930E+00   -0.28908E-01  9016   0.663E-01    0.107E+00
DAV:   4    -0.197103246803E+04   -0.46819E-01   -0.19048E-02  6776   0.203E-01    0.575E-01
DAV:   5    -0.197104160589E+04   -0.91379E-02   -0.26209E-02  8824   0.193E-01    0.987E-01
DAV:   6    -0.197103527709E+04    0.63288E-02   -0.16525E-02  7304   0.887E-02    0.299E-01
DAV:   7    -0.197104077534E+04   -0.54983E-02   -0.15901E-03  7928   0.582E-02    0.412E-01
DAV:   8    -0.197103914774E+04    0.16276E-02   -0.18860E-03  8072   0.355E-02    0.902E-02
DAV:   9    -0.197104064718E+04   -0.14994E-02   -0.24735E-04  6608   0.218E-02    0.114E-01
DAV:  10    -0.197104057375E+04    0.73425E-04   -0.47986E-05  6448   0.980E-03    0.549E-02
DAV:  11    -0.197104063022E+04   -0.56470E-04   -0.56327E-05  4848   0.685E-03    0.186E-02
DAV:  12    -0.197104067959E+04   -0.49363E-04   -0.54699E-06  4512   0.509E-03    0.596E-03
DAV:  13    -0.197104068632E+04   -0.67392E-05   -0.20956E-06  4472   0.307E-03    0.379E-03
DAV:  14    -0.197104069121E+04   -0.48899E-05   -0.13405E-06  4536   0.235E-03
  25 F= -.20239855E+04 E0= -.20239797E+04  d E =-.339135E-01
 trial-energy change:   -0.033914  1 .order   -0.033935   -0.054795   -0.013075
 step:   2.2798(harm=  2.2798)  dis= 0.04270  next Energy= -2023.987540 (dE=-0.360E-01)
 bond charge predicted
       N       E                     dE             d eps       ncg     rms          rms(c)
DAV:   1    -0.197102935292E+04    0.11333E-01   -0.32729E+00  6328   0.252E+00    0.782E-01
DAV:   2    -0.197104297111E+04   -0.13618E-01   -0.15015E-01  8352   0.358E-01    0.195E+00
DAV:   3    -0.197101416090E+04    0.28810E-01   -0.68683E-02  8552   0.204E-01    0.506E-01
DAV:   4    -0.197103315141E+04   -0.18991E-01   -0.29603E-03  6433   0.765E-02    0.207E-01
DAV:   5    -0.197103383888E+04   -0.68748E-03   -0.33181E-03  8936   0.676E-02    0.361E-01
DAV:   6    -0.197103282806E+04    0.10108E-02   -0.16134E-03  8056   0.379E-02    0.766E-02
DAV:   7    -0.197103368163E+04   -0.85358E-03   -0.97876E-05  6696   0.151E-02    0.505E-02
DAV:   8    -0.197103369274E+04   -0.11106E-04   -0.29815E-05  5304   0.879E-03    0.121E-02
DAV:   9    -0.197103370530E+04   -0.12555E-04   -0.10501E-05  4560   0.534E-03    0.160E-02
DAV:  10    -0.197103370541E+04   -0.11094E-06   -0.33908E-06  4464   0.347E-03
  26 F= -.20239875E+04 E0= -.20239814E+04  d E =-.359372E-01
 curvature:  -4.02 expect dE=-0.709E-01 dE for cont linesearch -0.533E-06
 trial: gam= 0.55176 g(F)=  0.176E-01 g(S)=  0.000E+00 ort =-0.122E-03 (trialstep = 0.184E+01)
 search vector abs. value=  0.514E-01
 bond charge predicted
       N       E                     dE             d eps       ncg     rms          rms(c)
DAV:   1    -0.197100796551E+04    0.25740E-01   -0.16860E+01  6328   0.548E+00    0.150E+00
DAV:   2    -0.197103543980E+04   -0.27474E-01   -0.38437E-01  8224   0.664E-01    0.234E+00
DAV:   3    -0.197100539915E+04    0.30041E-01   -0.23288E-01  8608   0.298E-01    0.188E+00
DAV:   4    -0.197102034045E+04   -0.14941E-01   -0.31621E-02  7336   0.175E-01    0.622E-01
DAV:   5    -0.197102969631E+04   -0.93559E-02   -0.36367E-03  8104   0.947E-02    0.289E-01
DAV:   6    -0.197103301917E+04   -0.33229E-02   -0.22134E-03  8312   0.752E-02    0.356E-01
DAV:   7    -0.197103180639E+04    0.12128E-02   -0.23479E-03  8984   0.509E-02    0.113E-01
DAV:   8    -0.197103289070E+04   -0.10843E-02   -0.12541E-04  6696   0.206E-02    0.448E-02
DAV:   9    -0.197103289310E+04   -0.24026E-05   -0.36702E-05  6120   0.745E-03
  27 F= -.20240054E+04 E0= -.20239990E+04  d E =-.178755E-01
 trial-energy change:   -0.017875  1 .order   -0.017944   -0.032406   -0.003482
 step:   2.0702(harm=  2.0666)  dis= 0.02909  next Energy= -2024.005582 (dE=-0.181E-01)
 bond charge predicted
       N       E                     dE             d eps       ncg     rms          rms(c)
DAV:   1    -0.197103047574E+04    0.24150E-02   -0.25256E-01  6408   0.675E-01    0.192E-01
DAV:   2    -0.197103089030E+04   -0.41456E-03   -0.55211E-03  8320   0.808E-02    0.267E-01
DAV:   3    -0.197103042753E+04    0.46277E-03   -0.36083E-03  8792   0.385E-02    0.294E-01
DAV:   4    -0.197103037207E+04    0.55453E-04   -0.94742E-04  6704   0.257E-02    0.608E-02
DAV:   5    -0.197103082081E+04   -0.44873E-03   -0.79647E-05  6696   0.153E-02    0.171E-02
DAV:   6    -0.197103084781E+04   -0.27004E-04   -0.15902E-05  5312   0.660E-03    0.210E-02
DAV:   7    -0.197103084611E+04    0.16984E-05   -0.51253E-06  4376   0.392E-03
  28 F= -.20240056E+04 E0= -.20239993E+04  d E =-.181175E-01
 curvature:  -3.02 expect dE=-0.404E-01 dE for cont linesearch -0.816E-06
 trial: gam= 0.76068 g(F)=  0.134E-01 g(S)=  0.000E+00 ort =-0.118E-03 (trialstep = 0.189E+01)
 search vector abs. value=  0.429E-01
 bond charge predicted
       N       E                     dE             d eps       ncg     rms          rms(c)
DAV:   1    -0.197100868964E+04    0.22158E-01   -0.15719E+01  6328   0.516E+00    0.211E+00
DAV:   2    -0.197107667539E+04   -0.67986E-01   -0.79308E-01  8264   0.810E-01    0.358E+00
DAV:   3    -0.197098256233E+04    0.94113E-01   -0.24921E-01  9144   0.513E-01    0.116E+00
DAV:   4    -0.197102717890E+04   -0.44617E-01   -0.19285E-02  6672   0.159E-01    0.416E-01
DAV:   5    -0.197103148165E+04   -0.43028E-02   -0.10973E-02  9128   0.140E-01    0.790E-01
DAV:   6    -0.197102669480E+04    0.47869E-02   -0.13129E-02  8872   0.990E-02    0.446E-01
DAV:   7    -0.197102945689E+04   -0.27621E-02   -0.66412E-04  6528   0.356E-02    0.240E-01
DAV:   8    -0.197102952608E+04   -0.69192E-04   -0.74645E-04  8688   0.223E-02    0.669E-02
DAV:   9    -0.197103028753E+04   -0.76145E-03   -0.49753E-05  6456   0.125E-02    0.379E-02
DAV:  10    -0.197103028059E+04    0.69464E-05   -0.92312E-06  4664   0.370E-03    0.158E-02
DAV:  11    -0.197103029110E+04   -0.10509E-04   -0.21417E-06  4312   0.280E-03    0.743E-03
DAV:  12    -0.197103029856E+04   -0.74619E-05   -0.18454E-06  4408   0.199E-03    0.221E-03
DAV:  13    -0.197103030233E+04   -0.37742E-05   -0.63893E-07  4424   0.141E-03
  29 F= -.20240188E+04 E0= -.20240118E+04  d E =-.131622E-01
 trial-energy change:   -0.013162  1 .order   -0.013139   -0.025125   -0.001154
 step:   1.9807(harm=  1.9807)  dis= 0.02628  next Energy= -2024.018778 (dE=-0.132E-01)
 bond charge predicted
       N       E                     dE             d eps       ncg     rms          rms(c)
DAV:   1    -0.197102962497E+04    0.67359E-03   -0.36445E-02  6488   0.247E-01    0.968E-02
DAV:   2    -0.197102981343E+04   -0.18846E-03   -0.20599E-03  8400   0.358E-02    0.287E-01
DAV:   3    -0.197102904122E+04    0.77221E-03   -0.15394E-03  8152   0.256E-02    0.942E-02
DAV:   4    -0.197102966543E+04   -0.62420E-03   -0.78983E-05  6032   0.111E-02    0.233E-02
DAV:   5    -0.197102967495E+04   -0.95204E-05   -0.27214E-05  4768   0.603E-03    0.305E-02
DAV:   6    -0.197102966935E+04    0.56009E-05   -0.14797E-05  4336   0.518E-03    0.587E-03
DAV:   7    -0.197102967568E+04   -0.63336E-05   -0.57806E-07  4320   0.119E-03    0.229E-03
DAV:   8    -0.197102967602E+04   -0.33446E-06   -0.27745E-07  4296   0.112E-03
  30 F= -.20240188E+04 E0= -.20240118E+04  d E =-.131965E-01
 curvature:  -3.20 expect dE=-0.250E-01 dE for cont linesearch -0.128E-06
 trial: gam= 0.58764 g(F)=  0.782E-02 g(S)=  0.000E+00 ort =-0.414E-04 (trialstep = 0.191E+01)
 search vector abs. value=  0.226E-01
 bond charge predicted
       N       E                     dE             d eps       ncg     rms          rms(c)
DAV:   1    -0.197101620180E+04    0.13474E-01   -0.91318E+00  6328   0.370E+00    0.140E+00
DAV:   2    -0.197102932201E+04   -0.13120E-01   -0.19358E-01  8216   0.450E-01    0.170E+00
DAV:   3    -0.197101835090E+04    0.10971E-01   -0.15507E-01  8833   0.242E-01    0.192E+00
DAV:   4    -0.197101419635E+04    0.41546E-02   -0.31526E-02  8234   0.163E-01    0.600E-01
DAV:   5    -0.197102545400E+04   -0.11258E-01   -0.22542E-03  7688   0.791E-02    0.208E-01
DAV:   6    -0.197102892063E+04   -0.34666E-02   -0.81092E-04  8160   0.512E-02    0.258E-01
DAV:   7    -0.197102834304E+04    0.57759E-03   -0.11319E-03  9184   0.322E-02    0.837E-02
DAV:   8    -0.197102910111E+04   -0.75806E-03   -0.63960E-05  6616   0.152E-02    0.247E-02
DAV:   9    -0.197102910509E+04   -0.39769E-05   -0.18482E-05  5264   0.638E-03
  31 F= -.20240245E+04 E0= -.20240175E+04  d E =-.572431E-02
 trial-energy change:   -0.005724  1 .order   -0.005783   -0.014872    0.003306
 step:   1.5554(harm=  1.5609)  dis= 0.01580  next Energy= -2024.024837 (dE=-0.603E-02)
 bond charge predicted
       N       E                     dE             d eps       ncg     rms          rms(c)
DAV:   1    -0.197103016171E+04   -0.10606E-02   -0.31092E-01  6356   0.686E-01    0.275E-01
DAV:   2    -0.197103059583E+04   -0.43412E-03   -0.61214E-03  8232   0.782E-02    0.278E-01
DAV:   3    -0.197103053617E+04    0.59662E-04   -0.68039E-03  9040   0.495E-02    0.542E-01
DAV:   4    -0.197102856751E+04    0.19687E-02   -0.33489E-03  7706   0.404E-02    0.960E-02
DAV:   5    -0.197103049737E+04   -0.19299E-02   -0.10016E-04  6554   0.166E-02    0.342E-02
DAV:   6    -0.197103056711E+04   -0.69737E-04   -0.94466E-06  4960   0.540E-03    0.144E-02
DAV:   7    -0.197103058749E+04   -0.20388E-04   -0.39024E-06  4384   0.421E-03    0.212E-02
DAV:   8    -0.197103058553E+04    0.19640E-05   -0.89841E-06  4480   0.320E-03
  32 F= -.20240248E+04 E0= -.20240179E+04  d E =-.603706E-02
 curvature:  -2.26 expect dE=-0.125E-01 dE for cont linesearch -0.270E-06
 trial: gam= 0.70987 g(F)=  0.552E-02 g(S)=  0.000E+00 ort = 0.520E-04 (trialstep = 0.184E+01)
 search vector abs. value=  0.170E-01
 bond charge predicted
       N       E                     dE             d eps       ncg     rms          rms(c)
DAV:   1    -0.197102997619E+04    0.61130E-03   -0.67654E+00  6328   0.310E+00    0.156E+00
DAV:   2    -0.197108625316E+04   -0.56277E-01   -0.59157E-01  8392   0.618E-01    0.352E+00
DAV:   3    -0.197098781540E+04    0.98438E-01   -0.16898E-01  8928   0.444E-01    0.675E-01
DAV:   4    -0.197102986126E+04   -0.42046E-01   -0.98318E-03  6585   0.108E-01    0.475E-01
DAV:   5    -0.197103621422E+04   -0.63530E-02   -0.94787E-03  8032   0.918E-02    0.577E-01
DAV:   6    -0.197103462898E+04    0.15852E-02   -0.28817E-03  6608   0.349E-02    0.132E-01
DAV:   7    -0.197103663854E+04   -0.20096E-02   -0.13289E-03  8736   0.393E-02    0.309E-01
DAV:   8    -0.197103575479E+04    0.88375E-03   -0.60321E-04  6584   0.208E-02    0.656E-02
DAV:   9    -0.197103648543E+04   -0.73064E-03   -0.12181E-04  6096   0.942E-03    0.550E-02
DAV:  10    -0.197103656236E+04   -0.76934E-04   -0.11400E-05  4992   0.601E-03    0.241E-02
DAV:  11    -0.197103656630E+04   -0.39419E-05   -0.12922E-05  4496   0.322E-03
  33 F= -.20240322E+04 E0= -.20240245E+04  d E =-.732436E-02
 trial-energy change:   -0.007324  1 .order   -0.007400   -0.010201   -0.004599
 step:   3.6326(harm=  3.3454)  dis= 0.03719  next Energy= -2024.034345 (dE=-0.950E-02)
 bond charge predicted
       N       E                     dE             d eps       ncg     rms          rms(c)
DAV:   1    -0.197103100517E+04    0.55572E-02   -0.64558E+00  6328   0.302E+00    0.157E+00
DAV:   2    -0.197109088062E+04   -0.59875E-01   -0.60626E-01  8480   0.622E-01    0.360E+00
DAV:   3    -0.197098595789E+04    0.10492E+00   -0.17225E-01  8984   0.455E-01    0.703E-01
DAV:   4    -0.197102946720E+04   -0.43509E-01   -0.98603E-03  6633   0.107E-01    0.447E-01
DAV:   5    -0.197103682495E+04   -0.73578E-02   -0.84096E-03  7912   0.896E-02    0.575E-01
DAV:   6    -0.197103514999E+04    0.16750E-02   -0.33588E-03  6576   0.351E-02    0.147E-01
DAV:   7    -0.197103723618E+04   -0.20862E-02   -0.11545E-03  8504   0.384E-02    0.345E-01
DAV:   8    -0.197103598968E+04    0.12465E-02   -0.81381E-04  6656   0.211E-02    0.640E-02
DAV:   9    -0.197103702221E+04   -0.10325E-02   -0.12692E-04  6144   0.111E-02    0.680E-02
DAV:  10    -0.197103707119E+04   -0.48981E-04   -0.16662E-05  5040   0.631E-03    0.256E-02
DAV:  11    -0.197103708612E+04   -0.14927E-04   -0.14775E-05  4496   0.346E-03    0.155E-02
DAV:  12    -0.197103709683E+04   -0.10714E-04   -0.29278E-06  4384   0.237E-03    0.235E-03
DAV:  13    -0.197103709820E+04   -0.13671E-05   -0.40571E-07  4488   0.111E-03
  34 F= -.20240340E+04 E0= -.20240258E+04  d E =-.917391E-02
 curvature:  -4.93 expect dE=-0.473E-01 dE for cont linesearch -0.669E-04
 trial: gam= 1.82117 g(F)=  0.959E-02 g(S)=  0.000E+00 ort =-0.480E-03 (trialstep = 0.581E+00)
 search vector abs. value=  0.641E-01
 bond charge predicted
       N       E                     dE             d eps       ncg     rms          rms(c)
DAV:   1    -0.197103877546E+04   -0.16786E-02   -0.25576E+00  6328   0.179E+00    0.833E-01
DAV:   2    -0.197105923851E+04   -0.20463E-01   -0.19520E-01  8472   0.334E-01    0.254E+00
DAV:   3    -0.197100829796E+04    0.50941E-01   -0.88294E-02  8697   0.249E-01    0.456E-01
DAV:   4    -0.197103949467E+04   -0.31197E-01   -0.28243E-03  6409   0.689E-02    0.246E-01
DAV:   5    -0.197104118446E+04   -0.16898E-02   -0.24406E-03  8560   0.529E-02    0.358E-01
DAV:   6    -0.197104051203E+04    0.67242E-03   -0.80975E-04  6528   0.214E-02    0.914E-02
DAV:   7    -0.197104130798E+04   -0.79595E-03   -0.42988E-04  7888   0.204E-02    0.151E-01
DAV:   8    -0.197104118570E+04    0.12228E-03   -0.20734E-04  6472   0.115E-02    0.280E-02
DAV:   9    -0.197104134980E+04   -0.16409E-03   -0.74454E-06  4424   0.498E-03    0.589E-03
DAV:  10    -0.197104135250E+04   -0.27049E-05   -0.11282E-06  4712   0.206E-03
  35 F= -.20240385E+04 E0= -.20240299E+04  d E =-.448433E-02
 trial-energy change:   -0.004484  1 .order   -0.004464   -0.005064   -0.003864
 step:   1.9783(harm=  2.4538)  dis= 0.03999  next Energy= -2024.043423 (dE=-0.941E-02)
 bond charge predicted
       N       E                     dE             d eps       ncg     rms          rms(c)
DAV:   1    -0.197103034176E+04    0.11008E-01   -0.14742E+01  6328   0.432E+00    0.216E+00
DAV:   2    -0.197114987977E+04   -0.11954E+00   -0.11772E+00  8592   0.924E-01    0.440E+00
DAV:   3    -0.197098064481E+04    0.16923E+00   -0.21691E-01  9258   0.661E-01    0.118E+00
DAV:   4    -0.197102496828E+04   -0.44323E-01   -0.14809E-02  6705   0.127E-01    0.492E-01
DAV:   5    -0.197104329504E+04   -0.18327E-01   -0.45254E-03  8008   0.916E-02    0.612E-01
DAV:   6    -0.197104476332E+04   -0.14683E-02   -0.11072E-02  7864   0.611E-02    0.514E-01
DAV:   7    -0.197104525591E+04   -0.49259E-03   -0.11196E-03  7624   0.570E-02    0.655E-01
DAV:   8    -0.197104068539E+04    0.45705E-02   -0.29044E-04  6600   0.194E-02    0.550E-01
DAV:   9    -0.197104176822E+04   -0.10828E-02   -0.23297E-03  7328   0.186E-02    0.123E-01
DAV:  10    -0.197104624329E+04   -0.44751E-02   -0.28220E-04  6320   0.224E-02    0.710E-02
DAV:  11    -0.197104652710E+04   -0.28381E-03   -0.41611E-05  5544   0.786E-03    0.106E-02
DAV:  12    -0.197104653469E+04   -0.75886E-05   -0.27409E-06  4648   0.331E-03    0.507E-03
DAV:  13    -0.197104653744E+04   -0.27493E-05   -0.11210E-06  4496   0.206E-03
  36 F= -.20240443E+04 E0= -.20240347E+04  d E =-.102403E-01
 curvature:  -8.45 expect dE=-0.625E-01 dE for cont linesearch -0.351E-03
 ZBRENT: extrapolating
 opt :   2.4332  next Energy= -2024.044630 (dE=-0.106E-01)
 bond charge predicted
       N       E                     dE             d eps       ncg     rms          rms(c)
DAV:   1    -0.197104524117E+04    0.12935E-02   -0.15619E+00  6328   0.141E+00    0.684E-01
DAV:   2    -0.197106151709E+04   -0.16276E-01   -0.14047E-01  8552   0.274E-01    0.238E+00
DAV:   3    -0.197101455828E+04    0.46959E-01   -0.74148E-02  8746   0.219E-01    0.437E-01
DAV:   4    -0.197104555727E+04   -0.30999E-01   -0.22639E-03  6387   0.626E-02    0.210E-01
DAV:   5    -0.197104661542E+04   -0.10581E-02   -0.14575E-03  8408   0.421E-02    0.286E-01
DAV:   6    -0.197104622172E+04    0.39370E-03   -0.42659E-04  6488   0.175E-02    0.828E-02
DAV:   7    -0.197104669427E+04   -0.47256E-03   -0.32979E-04  7448   0.166E-02    0.131E-01
DAV:   8    -0.197104662876E+04    0.65515E-04   -0.15926E-04  6144   0.964E-03    0.306E-02
DAV:   9    -0.197104673997E+04   -0.11121E-03   -0.74089E-06  4376   0.427E-03    0.353E-03
DAV:  10    -0.197104674106E+04   -0.10921E-05   -0.91086E-07  4696   0.154E-03
  37 F= -.20240447E+04 E0= -.20240348E+04  d E =-.106353E-01
 curvature:  -8.93 expect dE=-0.889E-01 dE for cont linesearch -0.401E-08
 trial: gam= 0.87636 g(F)=  0.995E-02 g(S)=  0.000E+00 ort =-0.536E-05 (trialstep = 0.952E+00)
 search vector abs. value=  0.592E-01
 bond charge predicted
       N       E                     dE             d eps       ncg     rms          rms(c)
DAV:   1    -0.197105620129E+04   -0.94613E-02   -0.62848E+00  6328   0.270E+00    0.275E+00
DAV:   2    -0.197125653670E+04   -0.20034E+00   -0.18076E+00  9200   0.109E+00    0.524E+00
DAV:   3    -0.197098948206E+04    0.26705E+00   -0.25696E-01 10162   0.935E-01    0.189E+00
DAV:   4    -0.197101566996E+04   -0.26188E-01   -0.24350E-02  6723   0.179E-01    0.109E+00
DAV:   5    -0.197103660639E+04   -0.20936E-01   -0.85757E-03  8808   0.110E-01    0.431E-01
DAV:   6    -0.197105546897E+04   -0.18863E-01   -0.14361E-03  6452   0.769E-02    0.213E-01
DAV:   7    -0.197105583295E+04   -0.36398E-03   -0.71334E-04  8096   0.366E-02    0.324E-01
DAV:   8    -0.197105536931E+04    0.46364E-03   -0.31666E-03  7336   0.225E-02    0.317E-01
DAV:   9    -0.197105551701E+04   -0.14770E-03   -0.74722E-04  6264   0.200E-02    0.405E-02
DAV:  10    -0.197105601307E+04   -0.49606E-03   -0.37326E-05  5720   0.832E-03    0.510E-02
DAV:  11    -0.197105601943E+04   -0.63642E-05   -0.21812E-05  4632   0.423E-03    0.102E-02
DAV:  12    -0.197105603212E+04   -0.12685E-04   -0.16447E-06  4416   0.221E-03    0.879E-03
DAV:  13    -0.197105603189E+04    0.22841E-06   -0.16397E-06  4536   0.115E-03
  38 F= -.20240527E+04 E0= -.20240418E+04  d E =-.803651E-02
 trial-energy change:   -0.008037  1 .order   -0.008095   -0.009462   -0.006728
 step:   3.2944(harm=  3.2944)  dis= 0.06576  next Energy= -2024.061030 (dE=-0.164E-01)
 bond charge predicted
       N       E                     dE             d eps       ncg     rms          rms(c)
DAV:   1    -0.197106465231E+04   -0.86202E-02   -0.37951E+01  6328   0.664E+00    0.723E+00
DAV:   2    -0.197208922616E+04   -0.10246E+01   -0.13598E+01  9344   0.288E+00    0.937E+00
DAV:   3    -0.197105521851E+04    0.10340E+01   -0.10729E+00 10489   0.256E+00    0.488E+00
DAV:   4    -0.197097073645E+04    0.84482E-01   -0.19075E-01  7819   0.707E-01    0.321E+00
DAV:   5    -0.197097698612E+04   -0.62497E-02   -0.75782E-02  7456   0.277E-01    0.185E+00
DAV:   6    -0.197101087757E+04   -0.33891E-01   -0.97262E-03  8272   0.101E-01    0.160E+00
DAV:   7    -0.197107875751E+04   -0.67880E-01   -0.23095E-01  8416   0.162E-01    0.528E+00
DAV:   8    -0.197091716639E+04    0.16159E+00   -0.11087E-01  6436   0.204E-01    0.158E+00
DAV:   9    -0.197101422448E+04   -0.97058E-01   -0.18311E-02  6659   0.820E-02    0.759E-01
DAV:  10    -0.197105322691E+04   -0.39002E-01   -0.29095E-03  6672   0.510E-02    0.575E-01
DAV:  11    -0.197106078895E+04   -0.75620E-02   -0.35097E-03  7048   0.258E-02    0.269E-01
DAV:  12    -0.197106605599E+04   -0.52670E-02   -0.78996E-04  6402   0.313E-02    0.899E-02
DAV:  13    -0.197106603945E+04    0.16532E-04   -0.48522E-05  5424   0.591E-03    0.692E-02
DAV:  14    -0.197106604538E+04   -0.59316E-05   -0.32414E-05  4600   0.401E-03    0.240E-02
DAV:  15    -0.197106610724E+04   -0.61853E-04   -0.60321E-06  4624   0.347E-03    0.116E-02
DAV:  16    -0.197106611004E+04   -0.28039E-05   -0.99754E-07  4504   0.156E-03
  39 F= -.20240597E+04 E0= -.20240464E+04  d E =-.150504E-01
 curvature:  -9.81 expect dE=-0.184E+00 dE for cont linesearch -0.151E-03
 trial: gam= 2.07640 g(F)=  0.188E-01 g(S)=  0.000E+00 ort =-0.955E-03 (trialstep = 0.311E+00)
 search vector abs. value=  0.270E+00
 bond charge predicted
       N       E                     dE             d eps       ncg     rms          rms(c)
DAV:   1    -0.197107184772E+04   -0.57405E-02   -0.31108E+00  6328   0.185E+00    0.182E+00
DAV:   2    -0.197119239425E+04   -0.12055E+00   -0.84639E-01  9464   0.721E-01    0.463E+00
DAV:   3    -0.197099598042E+04    0.19641E+00   -0.22940E-01 10289   0.647E-01    0.126E+00
DAV:   4    -0.197104704511E+04   -0.51065E-01   -0.99999E-03  6682   0.111E-01    0.595E-01
DAV:   5    -0.197106460248E+04   -0.17557E-01   -0.11530E-03  8224   0.595E-02    0.455E-01
DAV:   6    -0.197107125291E+04   -0.66504E-02   -0.11229E-02  9048   0.572E-02    0.958E-01
DAV:   7    -0.197106501222E+04    0.62407E-02   -0.27012E-03  6356   0.510E-02    0.357E-01
DAV:   8    -0.197106979433E+04   -0.47821E-02   -0.17345E-03  6912   0.221E-02    0.173E-01
DAV:   9    -0.197107209685E+04   -0.23025E-02   -0.48542E-04  6448   0.199E-02    0.850E-02
DAV:  10    -0.197107203737E+04    0.59484E-04   -0.62695E-05  4704   0.438E-03    0.173E-02
DAV:  11    -0.197107209438E+04   -0.57013E-04   -0.42301E-06  4320   0.308E-03    0.147E-02
DAV:  12    -0.197107209458E+04   -0.19919E-06   -0.19453E-06  4608   0.190E-03
  40 F= -.20240645E+04 E0= -.20240506E+04  d E =-.478899E-02
 ZBRENT: can't locate minimum, use default step
 trial-energy change:   -0.004789  1 .order   -0.004779   -0.005229   -0.004329
 step:   1.2454(harm=  1.8102)  dis= 0.05124  next Energy= -2024.074904 (dE=-0.152E-01)
