 252 252   0   0
  0.2286318E+02  0.1514622E-08  0.1514622E-08  0.2900000E-08  0.2000000E-15
   1.0000000000000000E-004
  CAR 
 NiAl                                    
      5.44199504     -9.94411511  301     -0.54011563      1.00000000
     -9.944  0.0000E+00  0.0000E+00
     -9.893  0.0000E+00  0.0000E+00
     -9.842  0.0000E+00  0.0000E+00
     -9.790  0.0000E+00  0.0000E+00
     -9.739  0.0000E+00  0.0000E+00
     -9.688  0.0000E+00  0.0000E+00
     -9.636  0.0000E+00  0.0000E+00
     -9.585  0.0000E+00  0.0000E+00
     -9.534  0.4059E-16  0.2082E-17
     -9.483  0.2131E-11  0.1093E-12
     -9.431  0.1618E-07  0.8299E-09
     -9.380  0.1596E-04  0.8195E-06
     -9.329  0.2130E-02  0.1101E-03
     -9.277  0.4123E-01  0.2225E-02
     -9.226  0.1275E+00  0.8763E-02
     -9.175  0.6702E-01  0.1220E-01
     -9.124  0.7040E-02  0.1256E-01
     -9.072  0.6684E-01  0.1599E-01
     -9.021  0.5308E+00  0.4321E-01
     -8.970  0.7014E+00  0.7918E-01
     -8.918  0.1567E+00  0.8722E-01
     -8.867  0.5479E-02  0.8750E-01
     -8.816  0.3281E-04  0.8750E-01
     -8.765  0.1038E-02  0.8755E-01
     -8.713  0.2804E-01  0.8899E-01
     -8.662  0.1214E+00  0.9522E-01
     -8.611  0.1854E+00  0.1047E+00
     -8.559  0.6255E+00  0.1368E+00
     -8.508  0.6868E+00  0.1720E+00
     -8.457  0.5963E+00  0.2026E+00
     -8.406  0.7700E+00  0.2421E+00
     -8.354  0.6055E+00  0.2732E+00
     -8.303  0.7665E+00  0.3125E+00
     -8.252  0.2330E+00  0.3244E+00
     -8.200  0.1139E-01  0.3250E+00
     -8.149  0.1075E-03  0.3250E+00
     -8.098  0.5425E-02  0.3253E+00
     -8.046  0.1558E+00  0.3333E+00
     -7.995  0.7004E+00  0.3692E+00
     -7.944  0.5322E+00  0.3965E+00
     -7.893  0.7091E-01  0.4001E+00
     -7.841  0.1314E+00  0.4069E+00
     -7.790  0.7442E+00  0.4450E+00
     -7.739  0.9859E+00  0.4956E+00
     -7.687  0.1470E+01  0.5710E+00
     -7.636  0.1232E+01  0.6342E+00
     -7.585  0.7639E+00  0.6734E+00
     -7.534  0.6453E+00  0.7065E+00
     -7.482  0.1145E+00  0.7123E+00
     -7.431  0.3213E-02  0.7125E+00
     -7.380  0.8811E-02  0.7130E+00
     -7.328  0.2031E+00  0.7234E+00
     -7.277  0.7472E+00  0.7617E+00
     -7.226  0.6874E+00  0.7969E+00
     -7.175  0.1701E+01  0.8842E+00
     -7.123  0.2049E+01  0.9893E+00
     -7.072  0.4390E+00  0.1012E+01
     -7.021  0.8328E-01  0.1016E+01
     -6.969  0.5355E+00  0.1044E+01
     -6.918  0.6985E+00  0.1079E+01
     -6.867  0.1850E+00  0.1089E+01
     -6.816  0.3945E+00  0.1109E+01
     -6.764  0.8805E+00  0.1154E+01
     -6.713  0.8439E+00  0.1198E+01
     -6.662  0.8039E+00  0.1239E+01
     -6.610  0.2856E+00  0.1253E+01
     -6.559  0.1040E+01  0.1307E+01
     -6.508  0.2327E+01  0.1426E+01
     -6.457  0.9929E+00  0.1477E+01
     -6.405  0.9793E+00  0.1527E+01
     -6.354  0.1485E+01  0.1603E+01
     -6.303  0.4566E+00  0.1627E+01
     -6.251  0.5004E+00  0.1652E+01
     -6.200  0.8343E+00  0.1695E+01
     -6.149  0.1037E+01  0.1748E+01
     -6.098  0.2418E+01  0.1872E+01
     -6.046  0.2905E+01  0.2022E+01
     -5.995  0.1279E+01  0.2087E+01
     -5.944  0.8457E+00  0.2130E+01
     -5.892  0.3544E+00  0.2149E+01
     -5.841  0.2628E-01  0.2150E+01
     -5.790  0.1135E-01  0.2151E+01
     -5.739  0.2407E+00  0.2163E+01
     -5.687  0.8623E+00  0.2207E+01
     -5.636  0.6081E+00  0.2238E+01
     -5.585  0.9630E+00  0.2288E+01
     -5.533  0.2935E+01  0.2438E+01
     -5.482  0.4093E+01  0.2648E+01
     -5.431  0.3421E+01  0.2824E+01
     -5.380  0.2078E+01  0.2930E+01
     -5.328  0.1014E+01  0.2982E+01
     -5.277  0.4471E+00  0.3005E+01
     -5.226  0.2397E+01  0.3128E+01
     -5.174  0.3637E+01  0.3314E+01
     -5.123  0.3155E+01  0.3476E+01
     -5.072  0.2056E+01  0.3582E+01
     -5.021  0.9262E+00  0.3629E+01
     -4.969  0.8467E+00  0.3673E+01
     -4.918  0.1346E+01  0.3742E+01
     -4.867  0.3926E+01  0.3943E+01
     -4.815  0.7469E+01  0.4326E+01
     -4.764  0.6541E+01  0.4662E+01
     -4.713  0.3692E+01  0.4851E+01
     -4.662  0.3910E+01  0.5051E+01
     -4.610  0.4835E+01  0.5299E+01
     -4.559  0.6684E+01  0.5642E+01
     -4.508  0.6188E+01  0.5960E+01
     -4.456  0.8366E+01  0.6389E+01
     -4.405  0.7265E+01  0.6761E+01
     -4.354  0.4326E+01  0.6983E+01
     -4.303  0.4352E+01  0.7206E+01
     -4.251  0.7546E+01  0.7593E+01
     -4.200  0.7103E+01  0.7958E+01
     -4.149  0.4826E+01  0.8205E+01
     -4.097  0.8522E+01  0.8642E+01
     -4.046  0.9647E+01  0.9137E+01
     -3.995  0.9661E+01  0.9632E+01
     -3.944  0.1227E+02  0.1026E+02
     -3.892  0.1244E+02  0.1090E+02
     -3.841  0.1045E+02  0.1144E+02
     -3.790  0.1211E+02  0.1206E+02
     -3.738  0.1161E+02  0.1265E+02
     -3.687  0.1023E+02  0.1318E+02
     -3.636  0.1081E+02  0.1373E+02
     -3.585  0.1056E+02  0.1427E+02
     -3.533  0.9168E+01  0.1474E+02
     -3.482  0.8087E+01  0.1516E+02
     -3.431  0.8555E+01  0.1560E+02
     -3.379  0.8958E+01  0.1606E+02
     -3.328  0.8227E+01  0.1648E+02
     -3.277  0.9390E+01  0.1696E+02
     -3.226  0.1220E+02  0.1758E+02
     -3.174  0.1398E+02  0.1830E+02
     -3.123  0.1264E+02  0.1895E+02
     -3.072  0.9189E+01  0.1942E+02
     -3.020  0.7776E+01  0.1982E+02
     -2.969  0.1073E+02  0.2037E+02
     -2.918  0.1649E+02  0.2122E+02
     -2.867  0.1492E+02  0.2198E+02
     -2.815  0.1142E+02  0.2257E+02
     -2.764  0.1107E+02  0.2313E+02
     -2.713  0.1314E+02  0.2381E+02
     -2.661  0.1639E+02  0.2465E+02
     -2.610  0.1327E+02  0.2533E+02
     -2.559  0.1226E+02  0.2596E+02
     -2.507  0.1657E+02  0.2681E+02
     -2.456  0.1768E+02  0.2771E+02
     -2.405  0.1663E+02  0.2857E+02
     -2.354  0.1705E+02  0.2944E+02
     -2.302  0.1985E+02  0.3046E+02
     -2.251  0.2006E+02  0.3149E+02
     -2.200  0.2017E+02  0.3252E+02
     -2.148  0.1719E+02  0.3341E+02
     -2.097  0.1772E+02  0.3431E+02
     -2.046  0.2088E+02  0.3538E+02
     -1.995  0.2174E+02  0.3650E+02
     -1.943  0.2101E+02  0.3758E+02
     -1.892  0.1879E+02  0.3854E+02
     -1.841  0.1766E+02  0.3945E+02
     -1.789  0.1607E+02  0.4027E+02
     -1.738  0.1411E+02  0.4099E+02
     -1.687  0.1233E+02  0.4163E+02
     -1.636  0.1090E+02  0.4219E+02
     -1.584  0.1176E+02  0.4279E+02
     -1.533  0.1481E+02  0.4355E+02
     -1.482  0.1589E+02  0.4436E+02
     -1.430  0.1911E+02  0.4534E+02
     -1.379  0.1997E+02  0.4637E+02
     -1.328  0.2008E+02  0.4740E+02
     -1.277  0.1694E+02  0.4827E+02
     -1.225  0.1242E+02  0.4890E+02
     -1.174  0.1104E+02  0.4947E+02
     -1.123  0.1656E+02  0.5032E+02
     -1.071  0.2028E+02  0.5136E+02
     -1.020  0.1761E+02  0.5226E+02
     -0.969  0.1783E+02  0.5318E+02
     -0.918  0.2278E+02  0.5434E+02
     -0.866  0.2052E+02  0.5540E+02
     -0.815  0.1579E+02  0.5621E+02
     -0.764  0.1629E+02  0.5704E+02
     -0.712  0.1986E+02  0.5806E+02
     -0.661  0.2454E+02  0.5932E+02
     -0.610  0.2899E+02  0.6081E+02
     -0.559  0.3224E+02  0.6246E+02
     -0.507  0.2687E+02  0.6384E+02
     -0.456  0.2076E+02  0.6490E+02
     -0.405  0.1325E+02  0.6558E+02
     -0.353  0.8889E+01  0.6604E+02
     -0.302  0.4474E+01  0.6627E+02
     -0.251  0.2469E+01  0.6639E+02
     -0.200  0.3703E+01  0.6658E+02
     -0.148  0.4312E+01  0.6681E+02
     -0.097  0.4238E+01  0.6702E+02
     -0.046  0.4115E+01  0.6723E+02
      0.006  0.3102E+01  0.6739E+02
      0.057  0.2839E+01  0.6754E+02
      0.108  0.1658E+01  0.6762E+02
      0.159  0.3931E+00  0.6764E+02
      0.211  0.1164E+01  0.6770E+02
      0.262  0.2087E+01  0.6781E+02
      0.313  0.9982E+00  0.6786E+02
      0.365  0.1010E+01  0.6791E+02
      0.416  0.2241E+01  0.6803E+02
      0.467  0.3255E+01  0.6820E+02
      0.518  0.2233E+01  0.6831E+02
      0.570  0.1888E+01  0.6841E+02
      0.621  0.2184E+01  0.6852E+02
      0.672  0.1750E+01  0.6861E+02
      0.724  0.3626E+01  0.6879E+02
      0.775  0.2546E+01  0.6893E+02
      0.826  0.1604E+01  0.6901E+02
      0.877  0.2228E+01  0.6912E+02
      0.929  0.4151E+01  0.6933E+02
      0.980  0.3483E+01  0.6951E+02
      1.031  0.1432E+01  0.6959E+02
      1.083  0.1583E+01  0.6967E+02
      1.134  0.5974E+00  0.6970E+02
      1.185  0.3641E+00  0.6972E+02
      1.236  0.1898E+01  0.6981E+02
      1.288  0.3556E+01  0.7000E+02
      1.339  0.2759E+01  0.7014E+02
      1.390  0.1284E+01  0.7020E+02
      1.442  0.4121E+00  0.7023E+02
      1.493  0.5427E+00  0.7025E+02
      1.544  0.1202E+01  0.7032E+02
      1.595  0.1304E+01  0.7038E+02
      1.647  0.3274E+01  0.7055E+02
      1.698  0.4219E+01  0.7077E+02
      1.749  0.2468E+01  0.7089E+02
      1.801  0.8033E+00  0.7093E+02
      1.852  0.4712E+00  0.7096E+02
      1.903  0.2345E+01  0.7108E+02
      1.954  0.2890E+01  0.7123E+02
      2.006  0.2004E+01  0.7133E+02
      2.057  0.2584E+01  0.7146E+02
      2.108  0.1736E+01  0.7155E+02
      2.160  0.1012E+01  0.7160E+02
      2.211  0.8462E+00  0.7165E+02
      2.262  0.2928E+01  0.7180E+02
      2.313  0.3833E+01  0.7199E+02
      2.365  0.2977E+01  0.7215E+02
      2.416  0.2260E+01  0.7226E+02
      2.467  0.1170E+01  0.7232E+02
      2.519  0.1617E+01  0.7240E+02
      2.570  0.1650E+01  0.7249E+02
      2.621  0.4315E+00  0.7251E+02
      2.672  0.5351E-01  0.7251E+02
      2.724  0.4180E+00  0.7254E+02
      2.775  0.1064E+01  0.7259E+02
      2.826  0.1027E+01  0.7264E+02
      2.878  0.4418E+00  0.7267E+02
      2.929  0.9342E+00  0.7271E+02
      2.980  0.2057E+01  0.7282E+02
      3.032  0.2300E+01  0.7294E+02
      3.083  0.3761E+01  0.7313E+02
      3.134  0.6292E+01  0.7345E+02
      3.185  0.3291E+01  0.7362E+02
      3.237  0.1276E+01  0.7369E+02
      3.288  0.1511E+01  0.7376E+02
      3.339  0.4666E+00  0.7379E+02
      3.391  0.4579E+00  0.7381E+02
      3.442  0.1504E+01  0.7389E+02
      3.493  0.2574E+01  0.7402E+02
      3.544  0.1853E+01  0.7412E+02
      3.596  0.1694E+01  0.7420E+02
      3.647  0.1217E+01  0.7427E+02
      3.698  0.1654E+01  0.7435E+02
      3.750  0.1323E+01  0.7442E+02
      3.801  0.1327E+01  0.7449E+02
      3.852  0.8527E+00  0.7453E+02
      3.903  0.1481E+00  0.7454E+02
      3.955  0.1099E-01  0.7454E+02
      4.006  0.1703E+00  0.7455E+02
      4.057  0.7167E+00  0.7458E+02
      4.109  0.5708E+00  0.7461E+02
      4.160  0.8363E+00  0.7466E+02
      4.211  0.2289E+01  0.7477E+02
      4.262  0.2133E+01  0.7488E+02
      4.314  0.1087E+01  0.7494E+02
      4.365  0.2088E+01  0.7505E+02
      4.416  0.2251E+01  0.7516E+02
      4.468  0.5026E+00  0.7519E+02
      4.519  0.1602E+00  0.7519E+02
      4.570  0.9934E+00  0.7525E+02
      4.621  0.2160E+01  0.7536E+02
      4.673  0.1619E+01  0.7544E+02
      4.724  0.1075E+01  0.7549E+02
      4.775  0.1538E+01  0.7557E+02
      4.827  0.4945E+00  0.7560E+02
      4.878  0.2553E-01  0.7560E+02
      4.929  0.1912E-03  0.7560E+02
      4.980  0.1937E-06  0.7560E+02
      5.032  0.2550E-10  0.7560E+02
      5.083  0.6494E-15  0.7560E+02
      5.134  0.0000E+00  0.7560E+02
      5.186  0.0000E+00  0.7560E+02
      5.237  0.0000E+00  0.7560E+02
      5.288  0.0000E+00  0.7560E+02
      5.339  0.0000E+00  0.7560E+02
      5.391  0.0000E+00  0.7560E+02
      5.442  0.0000E+00  0.7560E+02
