         260
 Energy:  -1374.1633384000002      en  -1283.3377184000001      edisp  -90.825620000000001     
 X   0.00000000       0.00000000       0.00000000    
 X   0.00000000      -15.1462221       0.00000000    
 X   0.00000000      -7.57311106      -13.1170130    
 X   29.0000000       0.00000000       0.00000000    
 X   0.00000000      -22.7193336      -13.1170130    
 X   29.0000000      -15.1462221       0.00000000    
 X   29.0000000      -7.57311106      -13.1170130    
 X   29.0000000      -22.7193336      -13.1170130    
 Ni   2.25640011      -10.0974798      -5.82978010    
 Ni   2.25640011      -12.6218500      -10.2021198    
 Ni   2.25640011      -7.57311010      -1.45745003    
 Ni   2.25640011      -15.1462202      -5.82978010    
 Ni   2.25640011      -17.6705894      -10.2021198    
 Ni   2.25640011      -12.6218500      -1.45745003    
 Ni   2.25640011      -5.04873991      -5.82978010    
 Ni   2.25640011      -7.57311010      -10.2021198    
 Ni   2.25640011      -2.52436996      -1.45745003    
 Ni   4.54539013      -12.6218500      -7.28723001    
 Ni   4.54539013      -15.1462202      -11.6595697    
 Ni   4.54539013      -10.0974798      -2.91489005    
 Ni   4.54539013      -17.6705894      -7.28723001    
 Ni   4.54539013      -20.1949596      -11.6595697    
 Ni   4.54539013      -15.1462202      -2.91489005    
 Ni   4.54539013      -7.57311010      -7.28723001    
 Ni   4.54539013      -10.0974798      -11.6595697    
 Ni   4.54539013      -5.04873991      -2.91489005    
 Ni   6.76043987      -15.1462202      -8.74468040    
 Ni   6.76043987      -10.0974798       0.00000000    
 Ni   6.76043987      -12.6218500      -4.37234020    
 Ni   6.76043987      -5.04873991      -8.74468040    
 Ni   6.76043987       0.00000000       0.00000000    
 Ni   6.76043987      -2.52436996      -4.37234020    
 Ni   6.76043987      -10.0974798      -8.74468040    
 Ni   6.76043987      -5.04873991       0.00000000    
 Ni   6.76043987      -7.57311010      -4.37234020    
 Ni   9.04018974      -17.6705894      -10.2021198    
 Ni   9.04018974      -12.6218500      -1.45745003    
 Ni   9.04018974      -15.1462202      -5.82978010    
 Ni   9.04018974      -7.57311010      -10.2021198    
 Ni   9.04018974      -2.52436996      -1.45745003    
 Ni   9.04018974      -5.04873991      -5.82978010    
 Ni   9.04018974      -12.6218500      -10.2021198    
 Ni   9.04018974      -7.57311010      -1.45745003    
 Ni   9.04018974      -10.0974798      -5.82978010    
 Ni   11.3199396      -20.1949596      -11.6595697    
 Ni   11.3199396      -15.1462202      -2.91489005    
 Ni   11.3199396      -17.6705894      -7.28723001    
 Ni   11.3199396      -10.0974798      -11.6595697    
 Ni   11.3199396      -5.04873991      -2.91489005    
 Ni   11.3199396      -7.57311010      -7.28723001    
 Ni   11.3199396      -15.1462202      -11.6595697    
 Ni   11.3199396      -10.0974798      -2.91489005    
 Ni   11.3199396      -12.6218500      -7.28723001    
 Ni   13.5349903       0.00000000       0.00000000    
 Ni   13.5349903      -2.52436996      -4.37234020    
 Ni   13.5349903      -5.04873991      -8.74468040    
 Ni   13.5349903      -5.04873991       0.00000000    
 Ni   13.5349903      -7.57311010      -4.37234020    
 Ni   13.5349903      -10.0974798      -8.74468040    
 Ni   13.5349903      -10.0974798       0.00000000    
 Ni   13.5349903      -12.6218500      -4.37234020    
 Ni   13.5349903      -15.1462202      -8.74468040    
 Ni   15.8239803      -2.52436996      -1.45745003    
 Ni   15.8239803      -5.04873991      -5.82978010    
 Ni   15.8239803      -7.57311010      -10.2021198    
 Ni   15.8239803      -7.57311010      -1.45745003    
 Ni   15.8239803      -10.0974798      -5.82978010    
 Ni   15.8239803      -12.6218500      -10.2021198    
 Ni   15.8239803      -12.6218500      -1.45745003    
 Ni   15.8239803      -15.1462202      -5.82978010    
 Ni   15.8239803      -17.6705894      -10.2021198    
 Ni   2.25640011      -6.31092978      -3.64361000    
 Ni   2.25640011      -8.83530045      -8.01595020    
 Ni   2.25640011      -11.3596697      -12.3882904    
 Ni   2.25640011      -11.3596697      -3.64361000    
 Ni   2.25640011      -13.8840399      -8.01595020    
 Ni   2.25640011      -16.4084091      -12.3882904    
 Ni   2.25640011      -16.4084091      -3.64361000    
 Ni   2.25640011      -18.9327793      -8.01595020    
 Ni   2.25640011      -21.4571495      -12.3882904    
 Ni   4.54539013      -8.83530045      -5.10105991    
 Ni   4.54539013      -11.3596697      -9.47340012    
 Ni   4.54539013      -6.31092978     -0.728720009    
 Ni   4.54539013      -13.8840399      -5.10105991    
 Ni   4.54539013      -16.4084091      -9.47340012    
 Ni   4.54539013      -11.3596697     -0.728720009    
 Ni   4.54539013      -3.78656006      -5.10105991    
 Ni   4.54539013      -6.31092978      -9.47340012    
 Ni   4.54539013      -1.26218998     -0.728720009    
 Ni   6.76043987      -11.3596697      -6.55850983    
 Ni   6.76043987      -13.8840399      -10.9308395    
 Ni   6.76043987      -8.83530045      -2.18617010    
 Ni   6.76043987      -16.4084091      -6.55850983    
 Ni   6.76043987      -18.9327793      -10.9308395    
 Ni   6.76043987      -13.8840399      -2.18617010    
 Ni   6.76043987      -6.31092978      -6.55850983    
 Ni   6.76043987      -8.83530045      -10.9308395    
 Ni   6.76043987      -3.78656006      -2.18617010    
 Ni   9.04018974      -13.8840399      -8.01595020    
 Ni   9.04018974      -16.4084091      -12.3882904    
 Ni   9.04018974      -11.3596697      -3.64361000    
 Ni   9.04018974      -18.9327793      -8.01595020    
 Ni   9.04018974      -21.4571495      -12.3882904    
 Ni   9.04018974      -16.4084091      -3.64361000    
 Ni   9.04018974      -8.83530045      -8.01595020    
 Ni   9.04018974      -11.3596697      -12.3882904    
 Ni   9.04018974      -6.31092978      -3.64361000    
 Ni   11.3199396      -16.4084091      -9.47340012    
 Ni   11.3199396      -11.3596697     -0.728720009    
 Ni   11.3199396      -13.8840399      -5.10105991    
 Ni   11.3199396      -6.31092978      -9.47340012    
 Ni   11.3199396      -1.26218998     -0.728720009    
 Ni   11.3199396      -3.78656006      -5.10105991    
 Ni   11.3199396      -11.3596697      -9.47340012    
 Ni   11.3199396      -6.31092978     -0.728720009    
 Ni   11.3199396      -8.83530045      -5.10105991    
 Ni   13.5349903      -18.9327793      -10.9308395    
 Ni   13.5349903      -13.8840399      -2.18617010    
 Ni   13.5349903      -16.4084091      -6.55850983    
 Ni   13.5349903      -8.83530045      -10.9308395    
 Ni   13.5349903      -3.78656006      -2.18617010    
 Ni   13.5349903      -6.31092978      -6.55850983    
 Ni   13.5349903      -13.8840399      -10.9308395    
 Ni   13.5349903      -8.83530045      -2.18617010    
 Ni   13.5349903      -11.3596697      -6.55850983    
 Ni   15.8239803      -21.4571495      -12.3882904    
 Ni   15.8239803      -16.4084091      -3.64361000    
 Ni   15.8239803      -18.9327793      -8.01595020    
 Ni   15.8239803      -11.3596697      -12.3882904    
 Ni   15.8239803      -6.31092978      -3.64361000    
 Ni   15.8239803      -8.83530045      -8.01595020    
 Ni   15.8239803      -16.4084091      -12.3882904    
 Ni   15.8239803      -11.3596697      -3.64361000    
 Ni   15.8239803      -13.8840399      -8.01595020    
 Ni   2.25640011      -7.57311010      -5.82978010    
 Ni   2.25640011      -10.0974798      -10.2021198    
 Ni   2.25640011      -5.04873991      -1.45745003    
 Ni   2.25640011      -12.6218500      -5.82978010    
 Ni   2.25640011      -15.1462202      -10.2021198    
 Ni   2.25640011      -10.0974798      -1.45745003    
 Ni   2.25640011      -17.6705894      -5.82978010    
 Ni   2.25640011      -20.1949596      -10.2021198    
 Ni   2.25640011      -15.1462202      -1.45745003    
 Ni   4.54539013      -10.0974798      -7.28723001    
 Ni   4.54539013      -12.6218500      -11.6595697    
 Ni   4.54539013      -7.57311010      -2.91489005    
 Ni   4.54539013      -15.1462202      -7.28723001    
 Ni   4.54539013      -17.6705894      -11.6595697    
 Ni   4.54539013      -12.6218500      -2.91489005    
 Ni   4.54539013      -5.04873991      -7.28723001    
 Ni   4.54539013      -7.57311010      -11.6595697    
 Ni   4.54539013      -2.52436996      -2.91489005    
 Ni   6.76043987      -12.6218500      -8.74468040    
 Ni   6.76043987      -7.57311010       0.00000000    
 Ni   6.76043987      -10.0974798      -4.37234020    
 Ni   6.76043987      -17.6705894      -8.74468040    
 Ni   6.76043987      -12.6218500       0.00000000    
 Ni   6.76043987      -15.1462202      -4.37234020    
 Ni   6.76043987      -7.57311010      -8.74468040    
 Ni   6.76043987      -2.52436996       0.00000000    
 Ni   6.76043987      -5.04873991      -4.37234020    
 Ni   9.04018974      -15.1462202      -10.2021198    
 Ni   9.04018974      -10.0974798      -1.45745003    
 Ni   9.04018974      -12.6218500      -5.82978010    
 Ni   9.04018974      -20.1949596      -10.2021198    
 Ni   9.04018974      -15.1462202      -1.45745003    
 Ni   9.04018974      -17.6705894      -5.82978010    
 Ni   9.04018974      -10.0974798      -10.2021198    
 Ni   9.04018974      -5.04873991      -1.45745003    
 Ni   9.04018974      -7.57311010      -5.82978010    
 Ni   11.3199396      -17.6705894      -11.6595697    
 Ni   11.3199396      -12.6218500      -2.91489005    
 Ni   11.3199396      -15.1462202      -7.28723001    
 Ni   11.3199396      -7.57311010      -11.6595697    
 Ni   11.3199396      -2.52436996      -2.91489005    
 Ni   11.3199396      -5.04873991      -7.28723001    
 Ni   11.3199396      -12.6218500      -11.6595697    
 Ni   11.3199396      -7.57311010      -2.91489005    
 Ni   11.3199396      -10.0974798      -7.28723001    
 Ni   13.5349903      -12.6218500       0.00000000    
 Ni   13.5349903      -15.1462202      -4.37234020    
 Ni   13.5349903      -17.6705894      -8.74468040    
 Ni   13.5349903      -2.52436996       0.00000000    
 Ni   13.5349903      -5.04873991      -4.37234020    
 Ni   13.5349903      -7.57311010      -8.74468040    
 Ni   13.5349903      -7.57311010       0.00000000    
 Ni   13.5349903      -10.0974798      -4.37234020    
 Ni   13.5349903      -12.6218500      -8.74468040    
 Ni   15.8239803      -15.1462202      -1.45745003    
 Ni   15.8239803      -17.6705894      -5.82978010    
 Ni   15.8239803      -20.1949596      -10.2021198    
 Ni   15.8239803      -5.04873991      -1.45745003    
 Ni   15.8239803      -7.57311010      -5.82978010    
 Ni   15.8239803      -10.0974798      -10.2021198    
 Ni   15.8239803      -10.0974798      -1.45745003    
 Ni   15.8239803      -12.6218500      -5.82978010    
 Ni   15.8239803      -15.1462202      -10.2021198    
 Ni   2.25640011      -8.83530045      -3.64361000    
 Ni   2.25640011      -11.3596697      -8.01595020    
 Ni   2.25640011      -13.8840399      -12.3882904    
 Ni   2.25640011      -13.8840399      -3.64361000    
 Ni   2.25640011      -16.4084091      -8.01595020    
 Ni   2.25640011      -18.9327793      -12.3882904    
 Ni   2.25640011      -3.78656006      -3.64361000    
 Ni   2.25640011      -6.31092978      -8.01595020    
 Ni   2.25640011      -8.83530045      -12.3882904    
 Ni   4.54539013      -11.3596697      -5.10105991    
 Ni   4.54539013      -13.8840399      -9.47340012    
 Ni   4.54539013      -8.83530045     -0.728720009    
 Ni   4.54539013      -16.4084091      -5.10105991    
 Ni   4.54539013      -18.9327793      -9.47340012    
 Ni   4.54539013      -13.8840399     -0.728720009    
 Ni   4.54539013      -6.31092978      -5.10105991    
 Ni   4.54539013      -8.83530045      -9.47340012    
 Ni   4.54539013      -3.78656006     -0.728720009    
 Ni   6.76043987      -13.8840399      -6.55850983    
 Ni   6.76043987      -16.4084091      -10.9308395    
 Ni   6.76043987      -11.3596697      -2.18617010    
 Ni   6.76043987      -3.78656006      -6.55850983    
 Ni   6.76043987      -6.31092978      -10.9308395    
 Ni   6.76043987      -1.26218998      -2.18617010    
 Ni   6.76043987      -8.83530045      -6.55850983    
 Ni   6.76043987      -11.3596697      -10.9308395    
 Ni   6.76043987      -6.31092978      -2.18617010    
 Ni   9.04018974      -16.4084091      -8.01595020    
 Ni   9.04018974      -18.9327793      -12.3882904    
 Ni   9.04018974      -13.8840399      -3.64361000    
 Ni   9.04018974      -6.31092978      -8.01595020    
 Ni   9.04018974      -8.83530045      -12.3882904    
 Ni   9.04018974      -3.78656006      -3.64361000    
 Ni   9.04018974      -11.3596697      -8.01595020    
 Ni   9.04018974      -13.8840399      -12.3882904    
 Ni   9.04018974      -8.83530045      -3.64361000    
 Ni   11.3199396      -18.9327793      -9.47340012    
 Ni   11.3199396      -13.8840399     -0.728720009    
 Ni   11.3199396      -16.4084091      -5.10105991    
 Ni   11.3199396      -8.83530045      -9.47340012    
 Ni   11.3199396      -3.78656006     -0.728720009    
 Ni   11.3199396      -6.31092978      -5.10105991    
 Ni   11.3199396      -13.8840399      -9.47340012    
 Ni   11.3199396      -8.83530045     -0.728720009    
 Ni   11.3199396      -11.3596697      -5.10105991    
 Ni   13.5349903      -6.31092978      -10.9308395    
 Ni   13.5349903      -1.26218998      -2.18617010    
 Ni   13.5349903      -3.78656006      -6.55850983    
 Ni   13.5349903      -11.3596697      -10.9308395    
 Ni   13.5349903      -6.31092978      -2.18617010    
 Ni   13.5349903      -8.83530045      -6.55850983    
 Ni   13.5349903      -16.4084091      -10.9308395    
 Ni   13.5349903      -11.3596697      -2.18617010    
 Ni   13.5349903      -13.8840399      -6.55850983    
 Ni   15.8239803      -8.83530045      -12.3882904    
 Ni   15.8239803      -3.78656006      -3.64361000    
 Ni   15.8239803      -6.31092978      -8.01595020    
 Ni   15.8239803      -13.8840399      -12.3882904    
 Ni   15.8239803      -8.83530045      -3.64361000    
 Ni   15.8239803      -11.3596697      -8.01595020    
 Ni   15.8239803      -18.9327793      -12.3882904    
 Ni   15.8239803      -13.8840399      -3.64361000    
 Ni   15.8239803      -16.4084091      -8.01595020    
         260
 Energy:  -1375.8100772000000      en  -1284.9216772000000      edisp  -90.888400000000004     
 X   0.00000000       0.00000000       0.00000000    
 X   0.00000000      -15.1462221       0.00000000    
 X   0.00000000      -7.57311106      -13.1170130    
 X   29.0000000       0.00000000       0.00000000    
 X   0.00000000      -22.7193336      -13.1170130    
 X   29.0000000      -15.1462221       0.00000000    
 X   29.0000000      -7.57311106      -13.1170130    
 X   29.0000000      -22.7193336      -13.1170130    
 Ni   2.27726007      -10.0974798      -5.82978010    
 Ni   2.27726007      -12.6218500      -10.2021198    
 Ni   2.27726007      -7.57311010      -1.45745003    
 Ni   2.27726007      -15.1462202      -5.82978010    
 Ni   2.27726007      -17.6705894      -10.2021198    
 Ni   2.27726007      -12.6218500      -1.45745003    
 Ni   2.27726007      -5.04873991      -5.82978010    
 Ni   2.27726007      -7.57311010      -10.2021198    
 Ni   2.27726007      -2.52436996      -1.45745003    
 Ni   4.54233980      -12.6218500      -7.28723001    
 Ni   4.54233980      -15.1462202      -11.6595697    
 Ni   4.54233980      -10.0974798      -2.91489005    
 Ni   4.54233980      -17.6705894      -7.28723001    
 Ni   4.54233980      -20.1949596      -11.6595697    
 Ni   4.54233980      -15.1462202      -2.91489005    
 Ni   4.54233980      -7.57311010      -7.28723001    
 Ni   4.54233980      -10.0974798      -11.6595697    
 Ni   4.54233980      -5.04873991      -2.91489005    
 Ni   6.76276016      -15.1462202      -8.74468040    
 Ni   6.76276016      -10.0974798      -0.00000000    
 Ni   6.76276016      -12.6218500      -4.37234020    
 Ni   6.76276016      -5.04873991      -8.74468040    
 Ni   6.76276016      -0.00000000      -0.00000000    
 Ni   6.76276016      -2.52436996      -4.37234020    
 Ni   6.76276016      -10.0974798      -8.74468040    
 Ni   6.76276016      -5.04873991      -0.00000000    
 Ni   6.76276016      -7.57311010      -4.37234020    
 Ni   9.04018974      -17.6705894      -10.2021198    
 Ni   9.04018974      -12.6218500      -1.45745003    
 Ni   9.04018974      -15.1462202      -5.82978010    
 Ni   9.04018974      -7.57311010      -10.2021198    
 Ni   9.04018974      -2.52436996      -1.45745003    
 Ni   9.04018974      -5.04873991      -5.82978010    
 Ni   9.04018974      -12.6218500      -10.2021198    
 Ni   9.04018974      -7.57311010      -1.45745003    
 Ni   9.04018974      -10.0974798      -5.82978010    
 Ni   11.3176203      -20.1949596      -11.6595697    
 Ni   11.3176203      -15.1462202      -2.91489005    
 Ni   11.3176203      -17.6705894      -7.28723001    
 Ni   11.3176203      -10.0974798      -11.6595697    
 Ni   11.3176203      -5.04873991      -2.91489005    
 Ni   11.3176203      -7.57311010      -7.28723001    
 Ni   11.3176203      -15.1462202      -11.6595697    
 Ni   11.3176203      -10.0974798      -2.91489005    
 Ni   11.3176203      -12.6218500      -7.28723001    
 Ni   13.5380297       0.00000000      -0.00000000    
 Ni   13.5380297      -2.52436996      -4.37234020    
 Ni   13.5380297      -5.04873991      -8.74468040    
 Ni   13.5380297      -5.04873991      -0.00000000    
 Ni   13.5380297      -7.57311010      -4.37234020    
 Ni   13.5380297      -10.0974798      -8.74468040    
 Ni   13.5380297      -10.0974798      -0.00000000    
 Ni   13.5380297      -12.6218500      -4.37234020    
 Ni   13.5380297      -15.1462202      -8.74468040    
 Ni   15.8031101      -2.52436996      -1.45745003    
 Ni   15.8031101      -5.04873991      -5.82978010    
 Ni   15.8031101      -7.57311010      -10.2021198    
 Ni   15.8031101      -7.57311010      -1.45745003    
 Ni   15.8031101      -10.0974798      -5.82978010    
 Ni   15.8031101      -12.6218500      -10.2021198    
 Ni   15.8031101      -12.6218500      -1.45745003    
 Ni   15.8031101      -15.1462202      -5.82978010    
 Ni   15.8031101      -17.6705894      -10.2021198    
 Ni   2.27726007      -6.31092978      -3.64361000    
 Ni   2.27726007      -8.83530045      -8.01595020    
 Ni   2.27726007      -11.3596697      -12.3882904    
 Ni   2.27726007      -11.3596697      -3.64361000    
 Ni   2.27726007      -13.8840399      -8.01595020    
 Ni   2.27726007      -16.4084091      -12.3882904    
 Ni   2.27726007      -16.4084091      -3.64361000    
 Ni   2.27726007      -18.9327793      -8.01595020    
 Ni   2.27726007      -21.4571495      -12.3882904    
 Ni   4.54233980      -8.83530045      -5.10105991    
 Ni   4.54233980      -11.3596697      -9.47340012    
 Ni   4.54233980      -6.31092978     -0.728720009    
 Ni   4.54233980      -13.8840399      -5.10105991    
 Ni   4.54233980      -16.4084091      -9.47340012    
 Ni   4.54233980      -11.3596697     -0.728720009    
 Ni   4.54233980      -3.78656006      -5.10105991    
 Ni   4.54233980      -6.31092978      -9.47340012    
 Ni   4.54233980      -1.26218998     -0.728720009    
 Ni   6.76276016      -11.3596697      -6.55850983    
 Ni   6.76276016      -13.8840399      -10.9308395    
 Ni   6.76276016      -8.83530045      -2.18617010    
 Ni   6.76276016      -16.4084091      -6.55850983    
 Ni   6.76276016      -18.9327793      -10.9308395    
 Ni   6.76276016      -13.8840399      -2.18617010    
 Ni   6.76276016      -6.31092978      -6.55850983    
 Ni   6.76276016      -8.83530045      -10.9308395    
 Ni   6.76276016      -3.78656006      -2.18617010    
 Ni   9.04018974      -13.8840399      -8.01595020    
 Ni   9.04018974      -16.4084091      -12.3882904    
 Ni   9.04018974      -11.3596697      -3.64361000    
 Ni   9.04018974      -18.9327793      -8.01595020    
 Ni   9.04018974      -21.4571495      -12.3882904    
 Ni   9.04018974      -16.4084091      -3.64361000    
 Ni   9.04018974      -8.83530045      -8.01595020    
 Ni   9.04018974      -11.3596697      -12.3882904    
 Ni   9.04018974      -6.31092978      -3.64361000    
 Ni   11.3176203      -16.4084091      -9.47340012    
 Ni   11.3176203      -11.3596697     -0.728720009    
 Ni   11.3176203      -13.8840399      -5.10105991    
 Ni   11.3176203      -6.31092978      -9.47340012    
 Ni   11.3176203      -1.26218998     -0.728720009    
 Ni   11.3176203      -3.78656006      -5.10105991    
 Ni   11.3176203      -11.3596697      -9.47340012    
 Ni   11.3176203      -6.31092978     -0.728720009    
 Ni   11.3176203      -8.83530045      -5.10105991    
 Ni   13.5380297      -18.9327793      -10.9308395    
 Ni   13.5380297      -13.8840399      -2.18617010    
 Ni   13.5380297      -16.4084091      -6.55850983    
 Ni   13.5380297      -8.83530045      -10.9308395    
 Ni   13.5380297      -3.78656006      -2.18617010    
 Ni   13.5380297      -6.31092978      -6.55850983    
 Ni   13.5380297      -13.8840399      -10.9308395    
 Ni   13.5380297      -8.83530045      -2.18617010    
 Ni   13.5380297      -11.3596697      -6.55850983    
 Ni   15.8031101      -21.4571495      -12.3882904    
 Ni   15.8031101      -16.4084091      -3.64361000    
 Ni   15.8031101      -18.9327793      -8.01595020    
 Ni   15.8031101      -11.3596697      -12.3882904    
 Ni   15.8031101      -6.31092978      -3.64361000    
 Ni   15.8031101      -8.83530045      -8.01595020    
 Ni   15.8031101      -16.4084091      -12.3882904    
 Ni   15.8031101      -11.3596697      -3.64361000    
 Ni   15.8031101      -13.8840399      -8.01595020    
 Ni   2.27726007      -7.57311010      -5.82978010    
 Ni   2.27726007      -10.0974798      -10.2021198    
 Ni   2.27726007      -5.04873991      -1.45745003    
 Ni   2.27726007      -12.6218500      -5.82978010    
 Ni   2.27726007      -15.1462202      -10.2021198    
 Ni   2.27726007      -10.0974798      -1.45745003    
 Ni   2.27726007      -17.6705894      -5.82978010    
 Ni   2.27726007      -20.1949596      -10.2021198    
 Ni   2.27726007      -15.1462202      -1.45745003    
 Ni   4.54233980      -10.0974798      -7.28723001    
 Ni   4.54233980      -12.6218500      -11.6595697    
 Ni   4.54233980      -7.57311010      -2.91489005    
 Ni   4.54233980      -15.1462202      -7.28723001    
 Ni   4.54233980      -17.6705894      -11.6595697    
 Ni   4.54233980      -12.6218500      -2.91489005    
 Ni   4.54233980      -5.04873991      -7.28723001    
 Ni   4.54233980      -7.57311010      -11.6595697    
 Ni   4.54233980      -2.52436996      -2.91489005    
 Ni   6.76276016      -12.6218500      -8.74468040    
 Ni   6.76276016      -7.57311010      -0.00000000    
 Ni   6.76276016      -10.0974798      -4.37234020    
 Ni   6.76276016      -17.6705894      -8.74468040    
 Ni   6.76276016      -12.6218500      -0.00000000    
 Ni   6.76276016      -15.1462202      -4.37234020    
 Ni   6.76276016      -7.57311010      -8.74468040    
 Ni   6.76276016      -2.52436996      -0.00000000    
 Ni   6.76276016      -5.04873991      -4.37234020    
 Ni   9.04018974      -15.1462202      -10.2021198    
 Ni   9.04018974      -10.0974798      -1.45745003    
 Ni   9.04018974      -12.6218500      -5.82978010    
 Ni   9.04018974      -20.1949596      -10.2021198    
 Ni   9.04018974      -15.1462202      -1.45745003    
 Ni   9.04018974      -17.6705894      -5.82978010    
 Ni   9.04018974      -10.0974798      -10.2021198    
 Ni   9.04018974      -5.04873991      -1.45745003    
 Ni   9.04018974      -7.57311010      -5.82978010    
 Ni   11.3176203      -17.6705894      -11.6595697    
 Ni   11.3176203      -12.6218500      -2.91489005    
 Ni   11.3176203      -15.1462202      -7.28723001    
 Ni   11.3176203      -7.57311010      -11.6595697    
 Ni   11.3176203      -2.52436996      -2.91489005    
 Ni   11.3176203      -5.04873991      -7.28723001    
 Ni   11.3176203      -12.6218500      -11.6595697    
 Ni   11.3176203      -7.57311010      -2.91489005    
 Ni   11.3176203      -10.0974798      -7.28723001    
 Ni   13.5380297      -12.6218500      -0.00000000    
 Ni   13.5380297      -15.1462202      -4.37234020    
 Ni   13.5380297      -17.6705894      -8.74468040    
 Ni   13.5380297      -2.52436996      -0.00000000    
 Ni   13.5380297      -5.04873991      -4.37234020    
 Ni   13.5380297      -7.57311010      -8.74468040    
 Ni   13.5380297      -7.57311010      -0.00000000    
 Ni   13.5380297      -10.0974798      -4.37234020    
 Ni   13.5380297      -12.6218500      -8.74468040    
 Ni   15.8031101      -15.1462202      -1.45745003    
 Ni   15.8031101      -17.6705894      -5.82978010    
 Ni   15.8031101      -20.1949596      -10.2021198    
 Ni   15.8031101      -5.04873991      -1.45745003    
 Ni   15.8031101      -7.57311010      -5.82978010    
 Ni   15.8031101      -10.0974798      -10.2021198    
 Ni   15.8031101      -10.0974798      -1.45745003    
 Ni   15.8031101      -12.6218500      -5.82978010    
 Ni   15.8031101      -15.1462202      -10.2021198    
 Ni   2.27726007      -8.83530045      -3.64361000    
 Ni   2.27726007      -11.3596697      -8.01595020    
 Ni   2.27726007      -13.8840399      -12.3882904    
 Ni   2.27726007      -13.8840399      -3.64361000    
 Ni   2.27726007      -16.4084091      -8.01595020    
 Ni   2.27726007      -18.9327793      -12.3882904    
 Ni   2.27726007      -3.78656006      -3.64361000    
 Ni   2.27726007      -6.31092978      -8.01595020    
 Ni   2.27726007      -8.83530045      -12.3882904    
 Ni   4.54233980      -11.3596697      -5.10105991    
 Ni   4.54233980      -13.8840399      -9.47340012    
 Ni   4.54233980      -8.83530045     -0.728720009    
 Ni   4.54233980      -16.4084091      -5.10105991    
 Ni   4.54233980      -18.9327793      -9.47340012    
 Ni   4.54233980      -13.8840399     -0.728720009    
 Ni   4.54233980      -6.31092978      -5.10105991    
 Ni   4.54233980      -8.83530045      -9.47340012    
 Ni   4.54233980      -3.78656006     -0.728720009    
 Ni   6.76276016      -13.8840399      -6.55850983    
 Ni   6.76276016      -16.4084091      -10.9308395    
 Ni   6.76276016      -11.3596697      -2.18617010    
 Ni   6.76276016      -3.78656006      -6.55850983    
 Ni   6.76276016      -6.31092978      -10.9308395    
 Ni   6.76276016      -1.26218998      -2.18617010    
 Ni   6.76276016      -8.83530045      -6.55850983    
 Ni   6.76276016      -11.3596697      -10.9308395    
 Ni   6.76276016      -6.31092978      -2.18617010    
 Ni   9.04018974      -16.4084091      -8.01595020    
 Ni   9.04018974      -18.9327793      -12.3882904    
 Ni   9.04018974      -13.8840399      -3.64361000    
 Ni   9.04018974      -6.31092978      -8.01595020    
 Ni   9.04018974      -8.83530045      -12.3882904    
 Ni   9.04018974      -3.78656006      -3.64361000    
 Ni   9.04018974      -11.3596697      -8.01595020    
 Ni   9.04018974      -13.8840399      -12.3882904    
 Ni   9.04018974      -8.83530045      -3.64361000    
 Ni   11.3176203      -18.9327793      -9.47340012    
 Ni   11.3176203      -13.8840399     -0.728720009    
 Ni   11.3176203      -16.4084091      -5.10105991    
 Ni   11.3176203      -8.83530045      -9.47340012    
 Ni   11.3176203      -3.78656006     -0.728720009    
 Ni   11.3176203      -6.31092978      -5.10105991    
 Ni   11.3176203      -13.8840399      -9.47340012    
 Ni   11.3176203      -8.83530045     -0.728720009    
 Ni   11.3176203      -11.3596697      -5.10105991    
 Ni   13.5380297      -6.31092978      -10.9308395    
 Ni   13.5380297      -1.26218998      -2.18617010    
 Ni   13.5380297      -3.78656006      -6.55850983    
 Ni   13.5380297      -11.3596697      -10.9308395    
 Ni   13.5380297      -6.31092978      -2.18617010    
 Ni   13.5380297      -8.83530045      -6.55850983    
 Ni   13.5380297      -16.4084091      -10.9308395    
 Ni   13.5380297      -11.3596697      -2.18617010    
 Ni   13.5380297      -13.8840399      -6.55850983    
 Ni   15.8031101      -8.83530045      -12.3882904    
 Ni   15.8031101      -3.78656006      -3.64361000    
 Ni   15.8031101      -6.31092978      -8.01595020    
 Ni   15.8031101      -13.8840399      -12.3882904    
 Ni   15.8031101      -8.83530045      -3.64361000    
 Ni   15.8031101      -11.3596697      -8.01595020    
 Ni   15.8031101      -18.9327793      -12.3882904    
 Ni   15.8031101      -13.8840399      -3.64361000    
 Ni   15.8031101      -16.4084091      -8.01595020    
         260
 Energy:  -1380.2580796000000      en  -1289.2061796000000      edisp  -91.051900000000003     
 X   0.00000000       0.00000000       0.00000000    
 X   0.00000000      -15.1462221       0.00000000    
 X   0.00000000      -7.57311106      -13.1170130    
 X   29.0000000       0.00000000       0.00000000    
 X   0.00000000      -22.7193336      -13.1170130    
 X   29.0000000      -15.1462221       0.00000000    
 X   29.0000000      -7.57311106      -13.1170130    
 X   29.0000000      -22.7193336      -13.1170130    
 Ni   2.33985996      -10.0974798      -5.82978010    
 Ni   2.33985996      -12.6218500      -10.2021198    
 Ni   2.33985996      -7.57311010      -1.45745003    
 Ni   2.33985996      -15.1462202      -5.82978010    
 Ni   2.33985996      -17.6705894      -10.2021198    
 Ni   2.33985996      -12.6218500      -1.45745003    
 Ni   2.33985996      -5.04873991      -5.82978010    
 Ni   2.33985996      -7.57311010      -10.2021198    
 Ni   2.33985996      -2.52436996      -1.45745003    
 Ni   4.53319979      -12.6218500      -7.28723001    
 Ni   4.53319979      -15.1462202      -11.6595697    