<?xml version="1.0" encoding="ISO-8859-1"?>
<modeling>
 <generator>
  <i name="program" type="string">vasp </i>
  <i name="version" type="string">6.2.1  </i>
  <i name="subversion" type="string">16May21 (build Jun 16 2021 03:23:30) complex                          parallel </i>
  <i name="platform" type="string">LinuxPGI </i>
  <i name="date" type="string">2022 04 25 </i>
  <i name="time" type="string">11:32:55 </i>
 </generator>
 <incar>
  <i type="string" name="SYSTEM">NiAl</i>
  <i type="int" name="ISTART">     0</i>
  <i type="int" name="NELMIN">     6</i>
  <i type="int" name="IBRION">     2</i>
  <i name="EDIFF">      0.00000500</i>
  <i type="int" name="NSW">    40</i>
  <i type="int" name="ISIF">     1</i>
  <i name="ENCUT">    360.00000000</i>
  <i name="POTIM">      0.20000000</i>
  <i type="string" name="LREAL">Auto</i>
  <i type="logical" name="LPLANE"> T  </i>
  <i type="int" name="ISMEAR">     0</i>
  <i name="SIGMA">      0.05000000</i>
  <i type="logical" name="LWAVE"> F  </i>
  <i type="logical" name="LCHARG"> F  </i>
  <i type="int" name="IVDW">    12</i>
 </incar>
 <primitive_cell>
  <structure name="primitive_cell" >
   <crystal>
    <varray name="basis" >
     <v>       0.00000000       1.26218515       2.18616880 </v>
     <v>       0.00000000      -2.52437029       0.00000000 </v>
     <v>      29.00000000       0.00000000       0.00000000 </v>
    </varray>
    <i name="volume">    160.04228784 </i>
    <varray name="rec_basis" >
     <v>      -0.00000000       0.00000000       0.45742122 </v>
     <v>       0.00000000      -0.39613840       0.22871061 </v>
     <v>       0.03448276       0.00000000      -0.00000000 </v>
    </varray>
   </crystal>
   <varray name="positions" >
    <v>       0.33333333       0.66666667       0.07780690 </v>
    <v>       0.66666667       0.33333333       0.15673765 </v>
    <v>       0.00000000       1.00000000       0.23311859 </v>
    <v>       0.33333333       0.66666667       0.31173066 </v>
    <v>       0.66666667       0.33333333       0.39034272 </v>
    <v>       0.00000000       1.00000000       0.46672366 </v>
    <v>       0.33333333       0.66666667       0.54565441 </v>
   </varray>
  </structure>
  <varray name="primitive_index" >
   <v type="int" >        1 </v>
   <v type="int" >       73 </v>
   <v type="int" >       82 </v>
   <v type="int" >       36 </v>
   <v type="int" >      108 </v>
   <v type="int" >      117 </v>
   <v type="int" >       59 </v>
  </varray>
 </primitive_cell>
 <kpoints>
  <generation param="Gamma">
   <v type="int" name="divisions">       2        2        1 </v>
   <v name="usershift">      0.00000000       0.00000000       0.00000000 </v>
   <v name="genvec1">      0.50000000      -0.00000000       0.00000000 </v>
   <v name="genvec2">      0.00000000       0.50000000       0.00000000 </v>
   <v name="genvec3">      0.00000000       0.00000000       1.00000000 </v>
   <v name="shift">      0.00000000       0.00000000       0.00000000 </v>
  </generation>
  <varray name="kpointlist" >
   <v>       0.00000000       0.00000000       0.00000000 </v>
   <v>       0.50000000       0.00000000       0.00000000 </v>
  </varray>
  <varray name="weights" >
   <v>       0.25000000 </v>
   <v>       0.75000000 </v>
  </varray>
 </kpoints>
 <parameters>
  <separator name="general" >
   <i type="string" name="SYSTEM">NiAl</i>
   <i type="logical" name="LCOMPAT"> F  </i>
  </separator>
  <separator name="electronic" >
   <i type="string" name="PREC">normal</i>
   <i name="ENMAX">    360.00000000</i>
   <i name="ENAUG">    802.31000000</i>
   <i name="EDIFF">      0.00000500</i>
   <i type="int" name="IALGO">    38</i>
   <i type="int" name="IWAVPR">    11</i>
   <i type="int" name="NBANDS">  1512</i>
   <i type="int" name="NBANDSLOW">    -1</i>
   <i type="int" name="NBANDSHIGH">    -1</i>
   <i name="NELECT">   2520.00000000</i>
   <i type="int" name="TURBO">     0</i>
   <i type="int" name="IRESTART">     0</i>
   <i type="int" name="NREBOOT">     0</i>
   <i type="int" name="NMIN">     0</i>
   <i name="EREF">      0.00000000</i>
   <separator name="electronic smearing" >
    <i type="int" name="ISMEAR">     0</i>
    <i name="SIGMA">      0.05000000</i>
    <i name="KSPACING">      0.50000000</i>
    <i type="logical" name="KGAMMA"> T  </i>
    <i type="logical" name="KBLOWUP"> T  </i>
   </separator>
   <separator name="electronic projectors" >
    <i type="logical" name="LREAL"> T  </i>
    <v name="ROPT">     -0.00050000</v>
    <i type="int" name="LMAXPAW">  -100</i>
    <i type="int" name="LMAXMIX">     2</i>
    <i type="logical" name="NLSPLINE"> F  </i>
   </separator>
   <separator name="electronic startup" >
    <i type="int" name="ISTART">     0</i>
    <i type="int" name="ICHARG">     2</i>
    <i type="int" name="INIWAV">     1</i>
   </separator>
   <separator name="electronic spin" >
    <i type="int" name="ISPIN">     1</i>
    <i type="logical" name="LNONCOLLINEAR"> F  </i>
    <v name="MAGMOM">      1.00000000      1.00000000      1.00000000      1.00000000      1.00000000      1.00000000      1.00000000      1.00000000      1.00000000      1.00000000      1.00000000      1.00000000      1.00000000      1.00000000      1.00000000      1.00000000      1.00000000      1.00000000      1.00000000      1.00000000
      1.00000000      1.00000000      1.00000000      1.00000000      1.00000000      1.00000000      1.00000000      1.00000000      1.00000000      1.00000000      1.00000000      1.00000000      1.00000000      1.00000000      1.00000000      1.00000000      1.00000000      1.00000000      1.00000000      1.00000000
      1.00000000      1.00000000      1.00000000      1.00000000      1.00000000      1.00000000      1.00000000      1.00000000      1.00000000      1.00000000      1.00000000      1.00000000      1.00000000      1.00000000      1.00000000      1.00000000      1.00000000      1.00000000      1.00000000      1.00000000
      1.00000000      1.00000000      1.00000000      1.00000000      1.00000000      1.00000000      1.00000000      1.00000000      1.00000000      1.00000000      1.00000000      1.00000000      1.00000000      1.00000000      1.00000000      1.00000000      1.00000000      1.00000000      1.00000000      1.00000000
      1.00000000      1.00000000      1.00000000      1.00000000      1.00000000      1.00000000      1.00000000      1.00000000      1.00000000      1.00000000      1.00000000      1.00000000      1.00000000      1.00000000      1.00000000      1.00000000      1.00000000      1.00000000      1.00000000      1.00000000
      1.00000000      1.00000000      1.00000000      1.00000000      1.00000000      1.00000000      1.00000000      1.00000000      1.00000000      1.00000000      1.00000000      1.00000000      1.00000000      1.00000000      1.00000000      1.00000000      1.00000000      1.00000000      1.00000000      1.00000000
      1.00000000      1.00000000      1.00000000      1.00000000      1.00000000      1.00000000      1.00000000      1.00000000      1.00000000      1.00000000      1.00000000      1.00000000      1.00000000      1.00000000      1.00000000      1.00000000      1.00000000      1.00000000      1.00000000      1.00000000
      1.00000000      1.00000000      1.00000000      1.00000000      1.00000000      1.00000000      1.00000000      1.00000000      1.00000000      1.00000000      1.00000000      1.00000000      1.00000000      1.00000000      1.00000000      1.00000000      1.00000000      1.00000000      1.00000000      1.00000000
      1.00000000      1.00000000      1.00000000      1.00000000      1.00000000      1.00000000      1.00000000      1.00000000      1.00000000      1.00000000      1.00000000      1.00000000      1.00000000      1.00000000      1.00000000      1.00000000      1.00000000      1.00000000      1.00000000      1.00000000
      1.00000000      1.00000000      1.00000000      1.00000000      1.00000000      1.00000000      1.00000000      1.00000000      1.00000000      1.00000000      1.00000000      1.00000000      1.00000000      1.00000000      1.00000000      1.00000000      1.00000000      1.00000000      1.00000000      1.00000000
      1.00000000      1.00000000      1.00000000      1.00000000      1.00000000      1.00000000      1.00000000      1.00000000      1.00000000      1.00000000      1.00000000      1.00000000      1.00000000      1.00000000      1.00000000      1.00000000      1.00000000      1.00000000      1.00000000      1.00000000
      1.00000000      1.00000000      1.00000000      1.00000000      1.00000000      1.00000000      1.00000000      1.00000000      1.00000000      1.00000000      1.00000000      1.00000000      1.00000000      1.00000000      1.00000000      1.00000000      1.00000000      1.00000000      1.00000000      1.00000000
      1.00000000      1.00000000      1.00000000      1.00000000      1.00000000      1.00000000      1.00000000      1.00000000      1.00000000      1.00000000      1.00000000      1.00000000</v>
    <i name="NUPDOWN">     -1.00000000</i>
    <i type="logical" name="LSORBIT"> F  </i>
    <v name="SAXIS">      0.00000000      0.00000000      1.00000000</v>
    <i type="logical" name="LSPIRAL"> F  </i>
    <v name="QSPIRAL">      0.00000000      0.00000000      0.00000000</v>
    <i type="logical" name="LZEROZ"> F  </i>
   </separator>
   <separator name="electronic exchange-correlation" >
    <i type="logical" name="LASPH"> F  </i>
    <i type="logical" name="LMETAGGA"> F  </i>
   </separator>
   <separator name="electronic convergence" >
    <i type="int" name="NELM">    60</i>
    <i type="int" name="NELMDL">    -5</i>
    <i type="int" name="NELMIN">     6</i>
    <i name="ENINI">    360.00000000</i>
    <separator name="electronic convergence detail" >
     <i type="logical" name="LDIAG"> T  </i>
     <i type="logical" name="LSUBROT"> F  </i>
     <i name="WEIMIN">      0.00100000</i>
     <i name="EBREAK">      0.00000000</i>
     <i name="DEPER">      0.30000000</i>
     <i type="int" name="NRMM">     4</i>
     <i name="TIME">      0.40000000</i>
    </separator>
   </separator>
   <separator name="electronic mixer" >
    <i name="AMIX">      0.40000000</i>
    <i name="BMIX">      1.00000000</i>
    <i name="AMIN">      0.10000000</i>
    <i name="AMIX_MAG">      1.60000000</i>
    <i name="BMIX_MAG">      1.00000000</i>
    <separator name="electronic mixer details" >
     <i type="int" name="IMIX">     4</i>
     <i type="logical" name="MIXFIRST"> F  </i>
     <i type="int" name="MAXMIX">   -45</i>
     <i name="WC">    100.00000000</i>
     <i type="int" name="INIMIX">     1</i>
     <i type="int" name="MIXPRE">     1</i>
     <i type="int" name="MREMOVE">     5</i>
    </separator>
   </separator>
   <separator name="electronic dipolcorrection" >
    <i type="logical" name="LDIPOL"> F  </i>
    <i type="logical" name="LMONO"> F  </i>
    <i type="int" name="IDIPOL">     0</i>
    <i name="EPSILON">      1.00000000</i>
    <v name="DIPOL">   -100.00000000   -100.00000000   -100.00000000</v>
    <i name="EFIELD">      0.00000000</i>
   </separator>
  </separator>
  <separator name="grids" >
   <i type="int" name="NGX">    70</i>
   <i type="int" name="NGY">    70</i>
   <i type="int" name="NGZ">   140</i>
   <i type="int" name="NGXF">   140</i>
   <i type="int" name="NGYF">   140</i>
   <i type="int" name="NGZF">   280</i>
   <i type="logical" name="ADDGRID"> F  </i>
  </separator>
  <separator name="ionic" >
   <i type="int" name="NSW">    40</i>
   <i type="int" name="IBRION">     2</i>
   <i type="int" name="MDALGO">     0</i>
   <i type="int" name="ISIF">     1</i>
   <i name="PSTRESS">      0.00000000</i>
   <i name="EDIFFG">      0.00005000</i>
   <i type="int" name="NFREE">     1</i>
   <i name="POTIM">      0.20000000</i>
   <i name="SMASS">     -3.00000000</i>
   <i name="SCALEE">      1.00000000</i>
  </separator>
  <separator name="ionic md" >
   <i name="TEBEG">      0.00010000</i>
   <i name="TEEND">      0.00010000</i>
   <i type="int" name="NBLOCK">     1</i>
   <i type="int" name="KBLOCK">    40</i>
   <i type="int" name="NPACO">   256</i>
   <i name="APACO">     16.00000000</i>
  </separator>
  <separator name="symmetry" >
   <i type="int" name="ISYM">     2</i>
   <i name="SYMPREC">      0.00001000</i>
  </separator>
  <separator name="dos" >
   <i type="int" name="LORBIT">     0</i>
   <v name="RWIGS">     -1.00000000</v>
   <i type="int" name="NEDOS">   301</i>
   <i name="EMIN">     10.00000000</i>
   <i name="EMAX">    -10.00000000</i>
   <i name="EFERMI">      0.00000000</i>
  </separator>
  <separator name="writing" >
   <i type="int" name="NWRITE">     2</i>
   <i type="logical" name="LWAVE"> F  </i>
   <i type="logical" name="LDOWNSAMPLE"> F  </i>
   <i type="logical" name="LCHARG"> F  </i>
   <i type="logical" name="LPARD"> F  </i>
   <i type="logical" name="LVTOT"> F  </i>
   <i type="logical" name="LVHAR"> F  </i>
   <i type="logical" name="LELF"> F  </i>
   <i type="logical" name="LOPTICS"> F  </i>
   <v name="STM">      0.00000000      0.00000000      0.00000000      0.00000000      0.00000000      0.00000000      0.00000000</v>
  </separator>
  <separator name="performance" >
   <i type="int" name="NPAR">     1</i>
   <i type="int" name="NSIM">     4</i>
   <i type="int" name="NBLK">    -1</i>
   <i type="logical" name="LPLANE"> T  </i>
   <i type="logical" name="LSCALAPACK"> T  </i>
   <i type="logical" name="LSCAAWARE"> F  </i>
   <i type="logical" name="LSCALU"> F  </i>
   <i type="logical" name="LASYNC"> F  </i>
   <i type="logical" name="LORBITALREAL"> F  </i>
  </separator>
  <separator name="miscellaneous" >
   <i type="int" name="IDIOT">     3</i>
   <i type="int" name="PHON_NSTRUCT">    -1</i>
   <i type="logical" name="LMUSIC"> F  </i>
   <v name="POMASS">     58.69000000</v>
   <v name="DARWINR">      0.00000000</v>
   <v name="DARWINV">      1.00000000</v>
   <i type="logical" name="LCORR"> T  </i>
  </separator>
  <i type="logical" name="GGA_COMPAT"> T  </i>
  <i type="logical" name="LBERRY"> F  </i>
  <i type="int" name="ICORELEVEL">     0</i>
  <i type="logical" name="LDAU"> F  </i>
  <i type="int" name="I_CONSTRAINED_M">     0</i>
  <separator name="electronic exchange-correlation" >
   <i type="string" name="GGA">--</i>
   <i type="int" name="VOSKOWN">     0</i>
   <i type="logical" name="LHFCALC"> F  </i>
   <i type="string" name="PRECFOCK"></i>
   <i type="logical" name="LSYMGRAD"> F  </i>
   <i type="logical" name="LHFONE"> F  </i>
   <i type="logical" name="LRHFCALC"> F  </i>
   <i type="logical" name="LTHOMAS"> F  </i>
   <i type="logical" name="LMODELHF"> F  </i>
   <i type="logical" name="LFOCKACE"> F  </i>
   <i name="ENCUT4O">     -1.00000000</i>
   <i type="int" name="EXXOEP">     0</i>
   <i type="int" name="FOURORBIT">     0</i>
   <i name="AEXX">      0.00000000</i>
   <i name="HFALPHA">      0.00000000</i>
   <i name="MCALPHA">      0.00000000</i>
   <i name="ALDAX">      1.00000000</i>
   <i name="AGGAX">      1.00000000</i>
   <i name="ALDAC">      1.00000000</i>
   <i name="AGGAC">      1.00000000</i>
   <i type="int" name="NKREDX">     1</i>
   <i type="int" name="NKREDY">     1</i>
   <i type="int" name="NKREDZ">     1</i>
   <i type="logical" name="SHIFTRED"> F  </i>
   <i type="logical" name="ODDONLY"> F  </i>
   <i type="logical" name="EVENONLY"> F  </i>
   <i type="int" name="LMAXFOCK">     0</i>
   <i type="int" name="NMAXFOCKAE">     0</i>
   <i type="logical" name="LFOCKAEDFT"> F  </i>
   <i name="HFSCREEN">      0.00000000</i>
   <i name="HFSCREENC">      0.00000000</i>
   <i type="int" name="NBANDSGWLOW">     0</i>
  </separator>
  <separator name="vdW DFT" >
   <i type="logical" name="LUSE_VDW"> F  </i>
   <i name="Zab_VDW">     -0.84910000</i>
   <i name="PARAM1">      0.12340000</i>
   <i name="PARAM2">      1.00000000</i>
   <i name="PARAM3">      0.00000000</i>
  </separator>
  <separator name="model GW" >
   <i type="int" name="MODEL_GW">     0</i>
   <i name="MODEL_EPS0">     13.71791039</i>
   <i name="MODEL_ALPHA">      1.00000000</i>
  </separator>
  <separator name="linear response parameters" >
   <i type="logical" name="LEPSILON"> F  </i>
   <i type="logical" name="LRPA"> F  </i>
   <i type="logical" name="LNABLA"> F  </i>
   <i type="logical" name="LVEL"> F  </i>
   <i type="int" name="KINTER">     0</i>
   <i name="CSHIFT">      0.10000000</i>
   <i name="OMEGAMAX">     -1.00000000</i>
   <i name="DEG_THRESHOLD">      0.00200000</i>
   <i name="RTIME">     -0.10000000</i>
   <i name="WPLASMAI">      0.00000000</i>
   <v name="DFIELD">      0.00000000      0.00000000      0.00000000</v>
   <v name="WPLASMA">      0.00000000      0.00000000      0.00000000      0.00000000      0.00000000      0.00000000      0.00000000      0.00000000      0.00000000</v>
  </separator>
  <separator name="orbital magnetization" >
   <i type="logical" name="NUCIND"> F  </i>
   <v name="MAGPOS">      0.00000000      0.00000000      0.00000000</v>
   <i type="logical" name="LNICSALL"> T  </i>
   <i type="logical" name="ORBITALMAG"> F  </i>
   <i type="logical" name="LMAGBLOCH"> F  </i>
   <i type="logical" name="LCHIMAG"> F  </i>
   <i type="logical" name="LGAUGE"> T  </i>
   <i type="int" name="MAGATOM">     0</i>
   <v name="MAGDIPOL">      0.00000000      0.00000000      0.00000000</v>
   <v name="AVECCONST">      0.00000000      0.00000000      0.00000000</v>
  </separator>
  <separator name="response functions" >
   <i type="logical" name="LFINITE_TEMPERATURE"> F  </i>
   <i type="logical" name="LADDER"> F  </i>
   <i type="logical" name="LRPAFORCE"> F  </i>
   <i type="logical" name="LFXC"> F  </i>
   <i type="logical" name="LHARTREE"> T  </i>
   <i type="int" name="IBSE">     0</i>
   <v type="int" name="KPOINT">    -1     0     0     0</v>
   <i type="logical" name="LTCTC"> F  </i>
   <i type="logical" name="LTCTE"> F  </i>
   <i type="logical" name="LTETE"> F  </i>
   <i type="logical" name="LTRIPLET"> F  </i>
   <i type="logical" name="LFXCEPS"> F  </i>
   <i type="logical" name="LFXHEG"> F  </i>
   <i type="int" name="NATURALO">     2</i>
   <i type="logical" name="LHOLEGF"> F  </i>
   <i type="logical" name="L2ORDER"> F  </i>
   <i type="logical" name="LDMP1"> F  </i>
   <i type="logical" name="LMP2LT"> F  </i>
   <i type="logical" name="LSMP2LT"> F  </i>
   <i type="logical" name="LGWLF"> F  </i>
   <i name="ENCUTGW">     -2.00000000</i>
   <i name="ENCUTGWSOFT">     -2.00000000</i>
   <i name="ENCUTLF">     -1.00000000</i>
   <i type="logical" name="LESF_SPLINES"> F  </i>
   <i type="int" name="LMAXMP2">    -1</i>
   <i name="SCISSOR">      0.00000000</i>
   <i type="int" name="NOMEGA">     0</i>
   <i type="int" name="NOMEGAR">     0</i>
   <i type="int" name="NBANDSGW">    -1</i>
   <i type="int" name="NBANDSO">    -1</i>
   <i type="int" name="NBANDSV">    -1</i>
   <i type="int" name="NELM">     1</i>
   <i type="int" name="NELMHF">     1</i>
   <i type="int" name="DIM">     3</i>
   <i type="int" name="IESPILON">     4</i>
   <i type="int" name="ANTIRES">     0</i>
   <i name="OMEGAMAX">    -30.00000000</i>
   <i name="OMEGAMIN">    -30.00000000</i>
   <i name="OMEGATL">   -200.00000000</i>
   <i type="int" name="OMEGAGRID">     0</i>
   <i name="CSHIFT">     -0.10000000</i>
   <i type="logical" name="LSELFENERGY"> F  </i>
   <i type="logical" name="LSPECTRAL"> F  </i>
   <i type="logical" name="LSPECTRALGW"> F  </i>
   <i type="logical" name="LSINGLES"> F  </i>
   <i type="logical" name="LFERMIGW"> F  </i>
   <i type="logical" name="ODDONLYGW"> F  </i>
   <i type="logical" name="EVENONLYGW"> F  </i>
   <i type="int" name="NKREDLFX">     1</i>
   <i type="int" name="NKREDLFY">     1</i>
   <i type="int" name="NKREDLFZ">     1</i>
   <i type="int" name="MAXMEM">  2800</i>
   <i type="int" name="TELESCOPE">     0</i>
   <i type="int" name="NTAUPAR">    -1</i>
   <i type="int" name="NOMEGAPAR">    -1</i>
   <i name="DAMP_NEWTON">      0.80000001</i>
   <i name="LAMBDA">      1.00000000</i>
  </separator>
  <separator name="External order field" >
   <i name="OFIELD_KAPPA">      0.00000000</i>
   <v name="OFIELD_K">      0.00000000      0.00000000      0.00000000</v>
   <i name="OFIELD_Q6_NEAR">      0.00000000</i>
   <i name="OFIELD_Q6_FAR">      0.00000000</i>
   <i name="OFIELD_A">      0.00000000</i>
  </separator>
  <separator name="solvation model" >
   <i type="logical" name="LSOL"> F  </i>
  </separator>
 </parameters>
 <atominfo>
  <atoms>     252 </atoms>
  <types>       1 </types>
  <array name="atoms" >
   <dimension dim="1">ion</dimension>
   <field type="string">element</field>
   <field type="int">atomtype</field>
   <set>
    <rc><c>Ni</c><c>   1</c></rc>
    <rc><c>Ni</c><c>   1</c></rc>
    <rc><c>Ni</c><c>   1</c></rc>
    <rc><c>Ni</c><c>   1</c></rc>
    <rc><c>Ni</c><c>   1</c></rc>
    <rc><c>Ni</c><c>   1</c></rc>
    <rc><c>Ni</c><c>   1</c></rc>
    <rc><c>Ni</c><c>   1</c></rc>
    <rc><c>Ni</c><c>   1</c></rc>
    <rc><c>Ni</c><c>   1</c></rc>
    <rc><c>Ni</c><c>   1</c></rc>
    <rc><c>Ni</c><c>   1</c></rc>
    <rc><c>Ni</c><c>   1</c></rc>
    <rc><c>Ni</c><c>   1</c></rc>
    <rc><c>Ni</c><c>   1</c></rc>
    <rc><c>Ni</c><c>   1</c></rc>
    <rc><c>Ni</c><c>   1</c></rc>
    <rc><c>Ni</c><c>   1</c></rc>
    <rc><c>Ni</c><c>   1</c></rc>
    <rc><c>Ni</c><c>   1</c></rc>
    <rc><c>Ni</c><c>   1</c></rc>
    <rc><c>Ni</c><c>   1</c></rc>
    <rc><c>Ni</c><c>   1</c></rc>
    <rc><c>Ni</c><c>   1</c></rc>
    <rc><c>Ni</c><c>   1</c></rc>
    <rc><c>Ni</c><c>   1</c></rc>
    <rc><c>Ni</c><c>   1</c></rc>
    <rc><c>Ni</c><c>   1</c></rc>
    <rc><c>Ni</c><c>   1</c></rc>
    <rc><c>Ni</c><c>   1</c></rc>
    <rc><c>Ni</c><c>   1</c></rc>
    <rc><c>Ni</c><c>   1</c></rc>
    <rc><c>Ni</c><c>   1</c></rc>
    <rc><c>Ni</c><c>   1</c></rc>
    <rc><c>Ni</c><c>   1</c></rc>
    <rc><c>Ni</c><c>   1</c></rc>
    <rc><c>Ni</c><c>   1</c></rc>
    <rc><c>Ni</c><c>   1</c></rc>
    <rc><c>Ni</c><c>   1</c></rc>
    <rc><c>Ni</c><c>   1</c></rc>
    <rc><c>Ni</c><c>   1</c></rc>
    <rc><c>Ni</c><c>   1</c></rc>
    <rc><c>Ni</c><c>   1</c></rc>
    <rc><c>Ni</c><c>   1</c></rc>
    <rc><c>Ni</c><c>   1</c></rc>
    <rc><c>Ni</c><c>   1</c></rc>
    <rc><c>Ni</c><c>   1</c></rc>
    <rc><c>Ni</c><c>   1</c></rc>
    <rc><c>Ni</c><c>   1</c></rc>
    <rc><c>Ni</c><c>   1</c></rc>
    <rc><c>Ni</c><c>   1</c></rc>
    <rc><c>Ni</c><c>   1</c></rc>
    <rc><c>Ni</c><c>   1</c></rc>
    <rc><c>Ni</c><c>   1</c></rc>
    <rc><c>Ni</c><c>   1</c></rc>
    <rc><c>Ni</c><c>   1</c></rc>
    <rc><c>Ni</c><c>   1</c></rc>
    <rc><c>Ni</c><c>   1</c></rc>
    <rc><c>Ni</c><c>   1</c></rc>
    <rc><c>Ni</c><c>   1</c></rc>
    <rc><c>Ni</c><c>   1</c></rc>
    <rc><c>Ni</c><c>   1</c></rc>
    <rc><c>Ni</c><c>   1</c></rc>
    <rc><c>Ni</c><c>   1</c></rc>
    <rc><c>Ni</c><c>   1</c></rc>
    <rc><c>Ni</c><c>   1</c></rc>
    <rc><c>Ni</c><c>   1</c></rc>
    <rc><c>Ni</c><c>   1</c></rc>
    <rc><c>Ni</c><c>   1</c></rc>
    <rc><c>Ni</c><c>   1</c></rc>
    <rc><c>Ni</c><c>   1</c></rc>
    <rc><c>Ni</c><c>   1</c></rc>
    <rc><c>Ni</c><c>   1</c></rc>
    <rc><c>Ni</c><c>   1</c></rc>
    <rc><c>Ni</c><c>   1</c></rc>
    <rc><c>Ni</c><c>   1</c></rc>
    <rc><c>Ni</c><c>   1</c></rc>
    <rc><c>Ni</c><c>   1</c></rc>
    <rc><c>Ni</c><c>   1</c></rc>
    <rc><c>Ni</c><c>   1</c></rc>
    <rc><c>Ni</c><c>   1</c></rc>
    <rc><c>Ni</c><c>   1</c></rc>
    <rc><c>Ni</c><c>   1</c></rc>
    <rc><c>Ni</c><c>   1</c></rc>
    <rc><c>Ni</c><c>   1</c></rc>
    <rc><c>Ni</c><c>   1</c></rc>
    <rc><c>Ni</c><c>   1</c></rc>
    <rc><c>Ni</c><c>   1</c></rc>
    <rc><c>Ni</c><c>   1</c></rc>
    <rc><c>Ni</c><c>   1</c></rc>
    <rc><c>Ni</c><c>   1</c></rc>
    <rc><c>Ni</c><c>   1</c></rc>
    <rc><c>Ni</c><c>   1</c></rc>
    <rc><c>Ni</c><c>   1</c></rc>
    <rc><c>Ni</c><c>   1</c></rc>
    <rc><c>Ni</c><c>   1</c></rc>
    <rc><c>Ni</c><c>   1</c></rc>
    <rc><c>Ni</c><c>   1</c></rc>
    <rc><c>Ni</c><c>   1</c></rc>
    <rc><c>Ni</c><c>   1</c></rc>
    <rc><c>Ni</c><c>   1</c></rc>
    <rc><c>Ni</c><c>   1</c></rc>
    <rc><c>Ni</c><c>   1</c></rc>
    <rc><c>Ni</c><c>   1</c></rc>
    <rc><c>Ni</c><c>   1</c></rc>
    <rc><c>Ni</c><c>   1</c></rc>
    <rc><c>Ni</c><c>   1</c></rc>
    <rc><c>Ni</c><c>   1</c></rc>
    <rc><c>Ni</c><c>   1</c></rc>
    <rc><c>Ni</c><c>   1</c></rc>
    <rc><c>Ni</c><c>   1</c></rc>
    <rc><c>Ni</c><c>   1</c></rc>
    <rc><c>Ni</c><c>   1</c></rc>
    <rc><c>Ni</c><c>   1</c></rc>
    <rc><c>Ni</c><c>   1</c></rc>
    <rc><c>Ni</c><c>   1</c></rc>
    <rc><c>Ni</c><c>   1</c></rc>
    <rc><c>Ni</c><c>   1</c></rc>
    <rc><c>Ni</c><c>   1</c></rc>
    <rc><c>Ni</c><c>   1</c></rc>
    <rc><c>Ni</c><c>   1</c></rc>
    <rc><c>Ni</c><c>   1</c></rc>
    <rc><c>Ni</c><c>   1</c></rc>
    <rc><c>Ni</c><c>   1</c></rc>
    <rc><c>Ni</c><c>   1</c></rc>
    <rc><c>Ni</c><c>   1</c></rc>
    <rc><c>Ni</c><c>   1</c></rc>
    <rc><c>Ni</c><c>   1</c></rc>
    <rc><c>Ni</c><c>   1</c></rc>
    <rc><c>Ni</c><c>   1</c></rc>
    <rc><c>Ni</c><c>   1</c></rc>
    <rc><c>Ni</c><c>   1</c></rc>
    <rc><c>Ni</c><c>   1</c></rc>
    <rc><c>Ni</c><c>   1</c></rc>
    <rc><c>Ni</c><c>   1</c></rc>
    <rc><c>Ni</c><c>   1</c></rc>
    <rc><c>Ni</c><c>   1</c></rc>
    <rc><c>Ni</c><c>   1</c></rc>
    <rc><c>Ni</c><c>   1</c></rc>
    <rc><c>Ni</c><c>   1</c></rc>
    <rc><c>Ni</c><c>   1</c></rc>
    <rc><c>Ni</c><c>   1</c></rc>
    <rc><c>Ni</c><c>   1</c></rc>
    <rc><c>Ni</c><c>   1</c></rc>
    <rc><c>Ni</c><c>   1</c></rc>
    <rc><c>Ni</c><c>   1</c></rc>
    <rc><c>Ni</c><c>   1</c></rc>
    <rc><c>Ni</c><c>   1</c></rc>
    <rc><c>Ni</c><c>   1</c></rc>
    <rc><c>Ni</c><c>   1</c></rc>
    <rc><c>Ni</c><c>   1</c></rc>
    <rc><c>Ni</c><c>   1</c></rc>
    <rc><c>Ni</c><c>   1</c></rc>
    <rc><c>Ni</c><c>   1</c></rc>
    <rc><c>Ni</c><c>   1</c></rc>
    <rc><c>Ni</c><c>   1</c></rc>
    <rc><c>Ni</c><c>   1</c></rc>
    <rc><c>Ni</c><c>   1</c></rc>
    <rc><c>Ni</c><c>   1</c></rc>
    <rc><c>Ni</c><c>   1</c></rc>
    <rc><c>Ni</c><c>   1</c></rc>
    <rc><c>Ni</c><c>   1</c></rc>
    <rc><c>Ni</c><c>   1</c></rc>
    <rc><c>Ni</c><c>   1</c></rc>
    <rc><c>Ni</c><c>   1</c></rc>
    <rc><c>Ni</c><c>   1</c></rc>
    <rc><c>Ni</c><c>   1</c></rc>
    <rc><c>Ni</c><c>   1</c></rc>
    <rc><c>Ni</c><c>   1</c></rc>
    <rc><c>Ni</c><c>   1</c></rc>
    <rc><c>Ni</c><c>   1</c></rc>
    <rc><c>Ni</c><c>   1</c></rc>
    <rc><c>Ni</c><c>   1</c></rc>
    <rc><c>Ni</c><c>   1</c></rc>
    <rc><c>Ni</c><c>   1</c></rc>
    <rc><c>Ni</c><c>   1</c></rc>
    <rc><c>Ni</c><c>   1</c></rc>
    <rc><c>Ni</c><c>   1</c></rc>
    <rc><c>Ni</c><c>   1</c></rc>
    <rc><c>Ni</c><c>   1</c></rc>
    <rc><c>Ni</c><c>   1</c></rc>
    <rc><c>Ni</c><c>   1</c></rc>
    <rc><c>Ni</c><c>   1</c></rc>
    <rc><c>Ni</c><c>   1</c></rc>
    <rc><c>Ni</c><c>   1</c></rc>
    <rc><c>Ni</c><c>   1</c></rc>
    <rc><c>Ni</c><c>   1</c></rc>
    <rc><c>Ni</c><c>   1</c></rc>
    <rc><c>Ni</c><c>   1</c></rc>
    <rc><c>Ni</c><c>   1</c></rc>
    <rc><c>Ni</c><c>   1</c></rc>
    <rc><c>Ni</c><c>   1</c></rc>
    <rc><c>Ni</c><c>   1</c></rc>
    <rc><c>Ni</c><c>   1</c></rc>
    <rc><c>Ni</c><c>   1</c></rc>
    <rc><c>Ni</c><c>   1</c></rc>
    <rc><c>Ni</c><c>   1</c></rc>
    <rc><c>Ni</c><c>   1</c></rc>
    <rc><c>Ni</c><c>   1</c></rc>
    <rc><c>Ni</c><c>   1</c></rc>
    <rc><c>Ni</c><c>   1</c></rc>
    <rc><c>Ni</c><c>   1</c></rc>
    <rc><c>Ni</c><c>   1</c></rc>
    <rc><c>Ni</c><c>   1</c></rc>
    <rc><c>Ni</c><c>   1</c></rc>
    <rc><c>Ni</c><c>   1</c></rc>
    <rc><c>Ni</c><c>   1</c></rc>
    <rc><c>Ni</c><c>   1</c></rc>
    <rc><c>Ni</c><c>   1</c></rc>
    <rc><c>Ni</c><c>   1</c></rc>
    <rc><c>Ni</c><c>   1</c></rc>
    <rc><c>Ni</c><c>   1</c></rc>
    <rc><c>Ni</c><c>   1</c></rc>
    <rc><c>Ni</c><c>   1</c></rc>
    <rc><c>Ni</c><c>   1</c></rc>
    <rc><c>Ni</c><c>   1</c></rc>
    <rc><c>Ni</c><c>   1</c></rc>
    <rc><c>Ni</c><c>   1</c></rc>
    <rc><c>Ni</c><c>   1</c></rc>
    <rc><c>Ni</c><c>   1</c></rc>
    <rc><c>Ni</c><c>   1</c></rc>
    <rc><c>Ni</c><c>   1</c></rc>
    <rc><c>Ni</c><c>   1</c></rc>
    <rc><c>Ni</c><c>   1</c></rc>
    <rc><c>Ni</c><c>   1</c></rc>
    <rc><c>Ni</c><c>   1</c></rc>
    <rc><c>Ni</c><c>   1</c></rc>
    <rc><c>Ni</c><c>   1</c></rc>
    <rc><c>Ni</c><c>   1</c></rc>
    <rc><c>Ni</c><c>   1</c></rc>
    <rc><c>Ni</c><c>   1</c></rc>
    <rc><c>Ni</c><c>   1</c></rc>
    <rc><c>Ni</c><c>   1</c></rc>
    <rc><c>Ni</c><c>   1</c></rc>
    <rc><c>Ni</c><c>   1</c></rc>
    <rc><c>Ni</c><c>   1</c></rc>
    <rc><c>Ni</c><c>   1</c></rc>
    <rc><c>Ni</c><c>   1</c></rc>
    <rc><c>Ni</c><c>   1</c></rc>
    <rc><c>Ni</c><c>   1</c></rc>
    <rc><c>Ni</c><c>   1</c></rc>
    <rc><c>Ni</c><c>   1</c></rc>
    <rc><c>Ni</c><c>   1</c></rc>
    <rc><c>Ni</c><c>   1</c></rc>
    <rc><c>Ni</c><c>   1</c></rc>
    <rc><c>Ni</c><c>   1</c></rc>
    <rc><c>Ni</c><c>   1</c></rc>
    <rc><c>Ni</c><c>   1</c></rc>
    <rc><c>Ni</c><c>   1</c></rc>
    <rc><c>Ni</c><c>   1</c></rc>
    <rc><c>Ni</c><c>   1</c></rc>
    <rc><c>Ni</c><c>   1</c></rc>
   </set>
  </array>
  <array name="atomtypes" >
   <dimension dim="1">type</dimension>
   <field type="int">atomspertype</field>
   <field type="string">element</field>
   <field>mass</field>
   <field>valence</field>
   <field type="string">pseudopotential</field>
   <set>
    <rc><c> 252</c><c>Ni</c><c>     58.69000000</c><c>     10.00000000</c><c>  PAW Ni_GW 31Mar2010                   </c></rc>
   </set>
  </array>
 </atominfo>
 <structure name="initialpos" >
  <crystal>
   <varray name="basis" >
    <v>       0.00000000     -15.14622176       0.00000000 </v>
    <v>       0.00000000      -7.57311088     -13.11701281 </v>
    <v>      29.00000000       0.00000000       0.00000000 </v>
   </varray>
   <i name="volume">   5761.52236213 </i>
   <varray name="rec_basis" >
    <v>       0.00000000      -0.06602307       0.03811843 </v>
    <v>       0.00000000       0.00000000      -0.07623687 </v>
    <v>       0.03448276       0.00000000       0.00000000 </v>
   </varray>
  </crystal>
  <varray name="positions" >
   <v>       0.44444444       0.44444444       0.07780690 </v>
   <v>       0.44444444       0.77777778       0.07780690 </v>
   <v>       0.44444444       0.11111111       0.07780690 </v>
   <v>       0.77777778       0.44444444       0.07780690 </v>
   <v>       0.77777778       0.77777778       0.07780690 </v>
   <v>       0.77777778       0.11111111       0.07780690 </v>
   <v>       0.11111111       0.44444444       0.07780690 </v>
   <v>       0.11111111       0.77777778       0.07780690 </v>
   <v>       0.11111111       0.11111111       0.07780690 </v>
   <v>       0.55555556       0.55555556       0.15673765 </v>
   <v>       0.55555556       0.88888889       0.15673765 </v>
   <v>       0.55555556       0.22222222       0.15673765 </v>
   <v>       0.88888889       0.55555556       0.15673765 </v>
   <v>       0.88888889       0.88888889       0.15673765 </v>
   <v>       0.88888889       0.22222222       0.15673765 </v>
   <v>       0.22222222       0.55555556       0.15673765 </v>
   <v>       0.22222222       0.88888889       0.15673765 </v>
   <v>       0.22222222       0.22222222       0.15673765 </v>
   <v>       0.66666667       0.66666667       0.23311859 </v>
   <v>       0.66666667       0.00000000       0.23311859 </v>
   <v>       0.66666667       0.33333333       0.23311859 </v>
   <v>       0.00000000       0.66666667       0.23311859 </v>
   <v>       0.00000000       0.00000000       0.23311859 </v>
   <v>       0.00000000       0.33333333       0.23311859 </v>
   <v>       0.33333333       0.66666667       0.23311859 </v>
   <v>       0.33333333       0.00000000       0.23311859 </v>
   <v>       0.33333333       0.33333333       0.23311859 </v>
   <v>       0.77777778       0.77777778       0.31173066 </v>
   <v>       0.77777778       0.11111111       0.31173066 </v>
   <v>       0.77777778       0.44444444       0.31173066 </v>
   <v>       0.11111111       0.77777778       0.31173066 </v>
   <v>       0.11111111       0.11111111       0.31173066 </v>
   <v>       0.11111111       0.44444444       0.31173066 </v>
   <v>       0.44444444       0.77777778       0.31173066 </v>
   <v>       0.44444444       0.11111111       0.31173066 </v>
   <v>       0.44444444       0.44444444       0.31173066 </v>
   <v>       0.88888889       0.88888889       0.39034272 </v>
   <v>       0.88888889       0.22222222       0.39034272 </v>
   <v>       0.88888889       0.55555556       0.39034272 </v>
   <v>       0.22222222       0.88888889       0.39034272 </v>
   <v>       0.22222222       0.22222222       0.39034272 </v>
   <v>       0.22222222       0.55555556       0.39034272 </v>
   <v>       0.55555556       0.88888889       0.39034272 </v>
   <v>       0.55555556       0.22222222       0.39034272 </v>
   <v>       0.55555556       0.55555556       0.39034272 </v>
   <v>       0.00000000       0.00000000       0.46672366 </v>
   <v>       0.00000000       0.33333333       0.46672366 </v>
   <v>       0.00000000       0.66666667       0.46672366 </v>
   <v>       0.33333333       0.00000000       0.46672366 </v>
   <v>       0.33333333       0.33333333       0.46672366 </v>
   <v>       0.33333333       0.66666667       0.46672366 </v>
   <v>       0.66666667       0.00000000       0.46672366 </v>
   <v>       0.66666667       0.33333333       0.46672366 </v>
   <v>       0.66666667       0.66666667       0.46672366 </v>
   <v>       0.11111111       0.11111111       0.54565441 </v>
   <v>       0.11111111       0.44444444       0.54565441 </v>
   <v>       0.11111111       0.77777778       0.54565441 </v>
   <v>       0.44444444       0.11111111       0.54565441 </v>
   <v>       0.44444444       0.44444444       0.54565441 </v>
   <v>       0.44444444       0.77777778       0.54565441 </v>
   <v>       0.77777778       0.11111111       0.54565441 </v>
   <v>       0.77777778       0.44444444       0.54565441 </v>
   <v>       0.77777778       0.77777778       0.54565441 </v>
   <v>       0.27777778       0.27777778       0.07780690 </v>
   <v>       0.27777778       0.61111111       0.07780690 </v>
   <v>       0.27777778       0.94444444       0.07780690 </v>
   <v>       0.61111111       0.27777778       0.07780690 </v>
   <v>       0.61111111       0.61111111       0.07780690 </v>
   <v>       0.61111111       0.94444444       0.07780690 </v>
   <v>       0.94444444       0.27777778       0.07780690 </v>
   <v>       0.94444444       0.61111111       0.07780690 </v>
   <v>       0.94444444       0.94444444       0.07780690 </v>
   <v>       0.38888889       0.38888889       0.15673765 </v>
   <v>       0.38888889       0.72222222       0.15673765 </v>
   <v>       0.38888889       0.05555556       0.15673765 </v>
   <v>       0.72222222       0.38888889       0.15673765 </v>
   <v>       0.72222222       0.72222222       0.15673765 </v>
   <v>       0.72222222       0.05555556       0.15673765 </v>
   <v>       0.05555556       0.38888889       0.15673765 </v>
   <v>       0.05555556       0.72222222       0.15673765 </v>
   <v>       0.05555556       0.05555556       0.15673765 </v>
   <v>       0.50000000       0.50000000       0.23311859 </v>
   <v>       0.50000000       0.83333333       0.23311859 </v>
   <v>       0.50000000       0.16666667       0.23311859 </v>
   <v>       0.83333333       0.50000000       0.23311859 </v>
   <v>       0.83333333       0.83333333       0.23311859 </v>
   <v>       0.83333333       0.16666667       0.23311859 </v>
   <v>       0.16666667       0.50000000       0.23311859 </v>
   <v>       0.16666667       0.83333333       0.23311859 </v>
   <v>       0.16666667       0.16666667       0.23311859 </v>
   <v>       0.61111111       0.61111111       0.31173066 </v>
   <v>       0.61111111       0.94444444       0.31173066 </v>
   <v>       0.61111111       0.27777778       0.31173066 </v>
   <v>       0.94444444       0.61111111       0.31173066 </v>
   <v>       0.94444444       0.94444444       0.31173066 </v>
   <v>       0.94444444       0.27777778       0.31173066 </v>
   <v>       0.27777778       0.61111111       0.31173066 </v>
   <v>       0.27777778       0.94444444       0.31173066 </v>
   <v>       0.27777778       0.27777778       0.31173066 </v>
   <v>       0.72222222       0.72222222       0.39034272 </v>
   <v>       0.72222222       0.05555556       0.39034272 </v>
   <v>       0.72222222       0.38888889       0.39034272 </v>
   <v>       0.05555556       0.72222222       0.39034272 </v>
   <v>       0.05555556       0.05555556       0.39034272 </v>
   <v>       0.05555556       0.38888889       0.39034272 </v>
   <v>       0.38888889       0.72222222       0.39034272 </v>
   <v>       0.38888889       0.05555556       0.39034272 </v>
   <v>       0.38888889       0.38888889       0.39034272 </v>
   <v>       0.83333333       0.83333333       0.46672366 </v>
   <v>       0.83333333       0.16666667       0.46672366 </v>
   <v>       0.83333333       0.50000000       0.46672366 </v>
   <v>       0.16666667       0.83333333       0.46672366 </v>
   <v>       0.16666667       0.16666667       0.46672366 </v>
   <v>       0.16666667       0.50000000       0.46672366 </v>
   <v>       0.50000000       0.83333333       0.46672366 </v>
   <v>       0.50000000       0.16666667       0.46672366 </v>
   <v>       0.50000000       0.50000000       0.46672366 </v>
   <v>       0.94444444       0.94444444       0.54565441 </v>
   <v>       0.94444444       0.27777778       0.54565441 </v>
   <v>       0.94444444       0.61111111       0.54565441 </v>
   <v>       0.27777778       0.94444444       0.54565441 </v>
   <v>       0.27777778       0.27777778       0.54565441 </v>
   <v>       0.27777778       0.61111111       0.54565441 </v>
   <v>       0.61111111       0.94444444       0.54565441 </v>
   <v>       0.61111111       0.27777778       0.54565441 </v>
   <v>       0.61111111       0.61111111       0.54565441 </v>
   <v>       0.27777778       0.44444444       0.07780690 </v>
   <v>       0.27777778       0.77777778       0.07780690 </v>
   <v>       0.27777778       0.11111111       0.07780690 </v>
   <v>       0.61111111       0.44444444       0.07780690 </v>
   <v>       0.61111111       0.77777778       0.07780690 </v>
   <v>       0.61111111       0.11111111       0.07780690 </v>
   <v>       0.94444444       0.44444444       0.07780690 </v>
   <v>       0.94444444       0.77777778       0.07780690 </v>
   <v>       0.94444444       0.11111111       0.07780690 </v>
   <v>       0.38888889       0.55555556       0.15673765 </v>
   <v>       0.38888889       0.88888889       0.15673765 </v>
   <v>       0.38888889       0.22222222       0.15673765 </v>
   <v>       0.72222222       0.55555556       0.15673765 </v>
   <v>       0.72222222       0.88888889       0.15673765 </v>
   <v>       0.72222222       0.22222222       0.15673765 </v>
   <v>       0.05555556       0.55555556       0.15673765 </v>
   <v>       0.05555556       0.88888889       0.15673765 </v>
   <v>       0.05555556       0.22222222       0.15673765 </v>
   <v>       0.50000000       0.66666667       0.23311859 </v>
   <v>       0.50000000       0.00000000       0.23311859 </v>
   <v>       0.50000000       0.33333333       0.23311859 </v>
   <v>       0.83333333       0.66666667       0.23311859 </v>
   <v>       0.83333333       0.00000000       0.23311859 </v>
   <v>       0.83333333       0.33333333       0.23311859 </v>
   <v>       0.16666667       0.66666667       0.23311859 </v>
   <v>       0.16666667       0.00000000       0.23311859 </v>
   <v>       0.16666667       0.33333333       0.23311859 </v>
   <v>       0.61111111       0.77777778       0.31173066 </v>
   <v>       0.61111111       0.11111111       0.31173066 </v>
   <v>       0.61111111       0.44444444       0.31173066 </v>
   <v>       0.94444444       0.77777778       0.31173066 </v>
   <v>       0.94444444       0.11111111       0.31173066 </v>
   <v>       0.94444444       0.44444444       0.31173066 </v>
   <v>       0.27777778       0.77777778       0.31173066 </v>
   <v>       0.27777778       0.11111111       0.31173066 </v>
   <v>       0.27777778       0.44444444       0.31173066 </v>
   <v>       0.72222222       0.88888889       0.39034272 </v>
   <v>       0.72222222       0.22222222       0.39034272 </v>
   <v>       0.72222222       0.55555556       0.39034272 </v>
   <v>       0.05555556       0.88888889       0.39034272 </v>
   <v>       0.05555556       0.22222222       0.39034272 </v>
   <v>       0.05555556       0.55555556       0.39034272 </v>
   <v>       0.38888889       0.88888889       0.39034272 </v>
   <v>       0.38888889       0.22222222       0.39034272 </v>
   <v>       0.38888889       0.55555556       0.39034272 </v>
   <v>       0.83333333       0.00000000       0.46672366 </v>
   <v>       0.83333333       0.33333333       0.46672366 </v>
   <v>       0.83333333       0.66666667       0.46672366 </v>
   <v>       0.16666667       0.00000000       0.46672366 </v>
   <v>       0.16666667       0.33333333       0.46672366 </v>
   <v>       0.16666667       0.66666667       0.46672366 </v>
   <v>       0.50000000       0.00000000       0.46672366 </v>
   <v>       0.50000000       0.33333333       0.46672366 </v>
   <v>       0.50000000       0.66666667       0.46672366 </v>
   <v>       0.94444444       0.11111111       0.54565441 </v>
   <v>       0.94444444       0.44444444       0.54565441 </v>
   <v>       0.94444444       0.77777778       0.54565441 </v>
   <v>       0.27777778       0.11111111       0.54565441 </v>
   <v>       0.27777778       0.44444444       0.54565441 </v>
   <v>       0.27777778       0.77777778       0.54565441 </v>
   <v>       0.61111111       0.11111111       0.54565441 </v>
   <v>       0.61111111       0.44444444       0.54565441 </v>
   <v>       0.61111111       0.77777778       0.54565441 </v>
   <v>       0.44444444       0.27777778       0.07780690 </v>
   <v>       0.44444444       0.61111111       0.07780690 </v>
   <v>       0.44444444       0.94444444       0.07780690 </v>
   <v>       0.77777778       0.27777778       0.07780690 </v>
   <v>       0.77777778       0.61111111       0.07780690 </v>
   <v>       0.77777778       0.94444444       0.07780690 </v>
   <v>       0.11111111       0.27777778       0.07780690 </v>
   <v>       0.11111111       0.61111111       0.07780690 </v>
   <v>       0.11111111       0.94444444       0.07780690 </v>
   <v>       0.55555556       0.38888889       0.15673765 </v>
   <v>       0.55555556       0.72222222       0.15673765 </v>
   <v>       0.55555556       0.05555556       0.15673765 </v>
   <v>       0.88888889       0.38888889       0.15673765 </v>
   <v>       0.88888889       0.72222222       0.15673765 </v>
   <v>       0.88888889       0.05555556       0.15673765 </v>
   <v>       0.22222222       0.38888889       0.15673765 </v>
   <v>       0.22222222       0.72222222       0.15673765 </v>
   <v>       0.22222222       0.05555556       0.15673765 </v>
   <v>       0.66666667       0.50000000       0.23311859 </v>
   <v>       0.66666667       0.83333333       0.23311859 </v>
   <v>       0.66666667       0.16666667       0.23311859 </v>
   <v>       0.00000000       0.50000000       0.23311859 </v>
   <v>       0.00000000       0.83333333       0.23311859 </v>
   <v>       0.00000000       0.16666667       0.23311859 </v>
   <v>       0.33333333       0.50000000       0.23311859 </v>
   <v>       0.33333333       0.83333333       0.23311859 </v>
   <v>       0.33333333       0.16666667       0.23311859 </v>
   <v>       0.77777778       0.61111111       0.31173066 </v>
   <v>       0.77777778       0.94444444       0.31173066 </v>
   <v>       0.77777778       0.27777778       0.31173066 </v>
   <v>       0.11111111       0.61111111       0.31173066 </v>
   <v>       0.11111111       0.94444444       0.31173066 </v>
   <v>       0.11111111       0.27777778       0.31173066 </v>
   <v>       0.44444444       0.61111111       0.31173066 </v>
   <v>       0.44444444       0.94444444       0.31173066 </v>
   <v>       0.44444444       0.27777778       0.31173066 </v>
   <v>       0.88888889       0.72222222       0.39034272 </v>
   <v>       0.88888889       0.05555556       0.39034272 </v>
   <v>       0.88888889       0.38888889       0.39034272 </v>
   <v>       0.22222222       0.72222222       0.39034272 </v>
   <v>       0.22222222       0.05555556       0.39034272 </v>
   <v>       0.22222222       0.38888889       0.39034272 </v>
   <v>       0.55555556       0.72222222       0.39034272 </v>
   <v>       0.55555556       0.05555556       0.39034272 </v>
   <v>       0.55555556       0.38888889       0.39034272 </v>
   <v>       0.00000000       0.83333333       0.46672366 </v>
   <v>       0.00000000       0.16666667       0.46672366 </v>
   <v>       0.00000000       0.50000000       0.46672366 </v>
   <v>       0.33333333       0.83333333       0.46672366 </v>
   <v>       0.33333333       0.16666667       0.46672366 </v>
   <v>       0.33333333       0.50000000       0.46672366 </v>
   <v>       0.66666667       0.83333333       0.46672366 </v>
   <v>       0.66666667       0.16666667       0.46672366 </v>
   <v>       0.66666667       0.50000000       0.46672366 </v>
   <v>       0.11111111       0.94444444       0.54565441 </v>
   <v>       0.11111111       0.27777778       0.54565441 </v>
   <v>       0.11111111       0.61111111       0.54565441 </v>
   <v>       0.44444444       0.94444444       0.54565441 </v>
   <v>       0.44444444       0.27777778       0.54565441 </v>
   <v>       0.44444444       0.61111111       0.54565441 </v>
   <v>       0.77777778       0.94444444       0.54565441 </v>
   <v>       0.77777778       0.27777778       0.54565441 </v>
   <v>       0.77777778       0.61111111       0.54565441 </v>
  </varray>
 </structure>
 <calculation>
  <scstep>
   <time name="dav">   15.86   15.87</time>
   <time name="total">   16.45   16.46</time>
   <energy>
    <i name="alphaZ">  11922.77764452 </i>
    <i name="ewald">1255487.35512933 </i>
    <i name="hartreedc">**************** </i>
    <i name="XCdc">   2824.29284263 </i>
    <i name="pawpsdc"> 239947.24901886 </i>
    <i name="pawaedc">-259508.45555226 </i>
    <i name="eentropy">     -0.19202196 </i>
    <i name="bandstr">  19301.93563247 </i>
    <i name="atom"> 271559.83956188 </i>
    <i name="e_fr_energy">  21477.64312266 </i>
    <i name="e_wo_entrp">  21477.83514461 </i>
    <i name="e_0_energy">  21477.73913364 </i>
   </energy>
  </scstep>
  <scstep>
   <time name="dav">   15.77   15.77</time>
   <time name="total">   15.77   15.77</time>
   <energy>
    <i name="e_fr_energy">     67.96390570 </i>
    <i name="e_wo_entrp">     68.19370360 </i>
    <i name="e_0_energy">     68.07880465 </i>
   </energy>
  </scstep>
  <scstep>
   <time name="dav">   17.16   17.16</time>
   <time name="total">   17.16   17.17</time>
   <energy>
    <i name="e_fr_energy">  -1281.51904066 </i>
    <i name="e_wo_entrp">  -1280.78219361 </i>
    <i name="e_0_energy">  -1281.15061714 </i>
   </energy>
  </scstep>
  <scstep>
   <time name="dav">   25.87   25.88</time>
   <time name="total">   25.88   25.88</time>
   <energy>
    <i name="e_fr_energy">  -1505.45640433 </i>
    <i name="e_wo_entrp">  -1504.05313876 </i>
    <i name="e_0_energy">  -1504.75477155 </i>
   </energy>
  </scstep>
  <scstep>
   <time name="dav">   22.86   22.87</time>
   <time name="total">   24.09   24.09</time>
   <energy>
    <i name="e_fr_energy">  -1517.33743898 </i>
    <i name="e_wo_entrp">  -1515.88892303 </i>
    <i name="e_0_energy">  -1516.61318100 </i>
   </energy>
  </scstep>
  <scstep>
   <time name="dav">   17.59   17.59</time>
   <time name="total">   19.37   19.37</time>
   <energy>
    <i name="e_fr_energy">  -1555.30657915 </i>
    <i name="e_wo_entrp">  -1554.51421768 </i>
    <i name="e_0_energy">  -1554.91039841 </i>
   </energy>
  </scstep>
  <scstep>
   <time name="dav">   17.46   17.46</time>
   <time name="total">   19.23   19.24</time>
   <energy>
    <i name="e_fr_energy">  -1899.14111553 </i>
    <i name="e_wo_entrp">  -1898.62890870 </i>
    <i name="e_0_energy">  -1898.88501211 </i>
   </energy>
  </scstep>
  <scstep>
   <time name="dav">   19.51   19.51</time>
   <time name="total">   21.27   21.28</time>
   <energy>
    <i name="e_fr_energy">  -1643.86649880 </i>
    <i name="e_wo_entrp">  -1643.13420904 </i>
    <i name="e_0_energy">  -1643.50035392 </i>
   </energy>
  </scstep>
  <scstep>
   <time name="dav">   22.79   22.79</time>
   <time name="total">   24.59   24.59</time>
   <energy>
    <i name="e_fr_energy">  -1446.41650772 </i>
    <i name="e_wo_entrp">  -1445.61755344 </i>
    <i name="e_0_energy">  -1446.01703058 </i>
   </energy>
  </scstep>
  <scstep>
   <time name="dav">   21.46   21.46</time>
   <time name="total">   23.23   23.23</time>
   <energy>
    <i name="e_fr_energy">  -1547.83542460 </i>
    <i name="e_wo_entrp">  -1547.52222586 </i>
    <i name="e_0_energy">  -1547.67882523 </i>
   </energy>
  </scstep>
  <scstep>
   <time name="dav">   20.88   20.88</time>
   <time name="total">   22.67   22.67</time>
   <energy>
    <i name="e_fr_energy">  -1618.76993789 </i>
    <i name="e_wo_entrp">  -1618.27464414 </i>
    <i name="e_0_energy">  -1618.52229102 </i>
   </energy>
  </scstep>
  <scstep>
   <time name="dav">   18.70   18.70</time>
   <time name="total">   20.50   20.51</time>
   <energy>
    <i name="e_fr_energy">  -1302.94589072 </i>
    <i name="e_wo_entrp">  -1301.45966734 </i>
    <i name="e_0_energy">  -1302.20277903 </i>
   </energy>
  </scstep>
  <scstep>
   <time name="dav">   21.30   21.31</time>
   <time name="total">   23.13   23.13</time>
   <energy>
    <i name="e_fr_energy">  -1308.79969910 </i>
    <i name="e_wo_entrp">  -1307.99173111 </i>
    <i name="e_0_energy">  -1308.39571511 </i>
   </energy>
  </scstep>
  <scstep>
   <time name="dav">   17.12   17.13</time>
   <time name="total">   18.94   18.94</time>
   <energy>
    <i name="e_fr_energy">  -1297.44210339 </i>
    <i name="e_wo_entrp">  -1296.17412631 </i>
    <i name="e_0_energy">  -1296.80811485 </i>
   </energy>
  </scstep>
  <scstep>
   <time name="dav">   16.80   16.80</time>
   <time name="total">   18.63   18.63</time>
   <energy>
    <i name="e_fr_energy">  -1290.42060615 </i>
    <i name="e_wo_entrp">  -1289.15810472 </i>
    <i name="e_0_energy">  -1289.78935543 </i>
   </energy>
  </scstep>
  <scstep>
   <time name="dav">   23.28   23.29</time>
   <time name="total">   25.11   25.11</time>
   <energy>
    <i name="e_fr_energy">  -1289.78195836 </i>
    <i name="e_wo_entrp">  -1288.50506020 </i>
    <i name="e_0_energy">  -1289.14350928 </i>
   </energy>
  </scstep>
  <scstep>
   <time name="dav">   22.59   22.60</time>
   <time name="total">   24.45   24.46</time>
   <energy>
    <i name="e_fr_energy">  -1288.84273636 </i>
    <i name="e_wo_entrp">  -1287.54957169 </i>
    <i name="e_0_energy">  -1288.19615402 </i>
   </energy>
  </scstep>
  <scstep>
   <time name="dav">   21.82   21.82</time>
   <time name="total">   23.69   23.69</time>
   <energy>
    <i name="e_fr_energy">  -1284.39241719 </i>
    <i name="e_wo_entrp">  -1282.88498329 </i>
    <i name="e_0_energy">  -1283.63870024 </i>
   </energy>
  </scstep>
  <scstep>
   <time name="dav">   26.83   26.83</time>
   <time name="total">   28.70   28.70</time>
   <energy>
    <i name="e_fr_energy">  -1284.30462784 </i>
    <i name="e_wo_entrp">  -1282.63876486 </i>
    <i name="e_0_energy">  -1283.47169635 </i>
   </energy>
  </scstep>
  <scstep>
   <time name="dav">   19.85   19.85</time>
   <time name="total">   21.72   21.73</time>
   <energy>
    <i name="e_fr_energy">  -1283.78662772 </i>
    <i name="e_wo_entrp">  -1282.26150869 </i>
    <i name="e_0_energy">  -1283.02406820 </i>
   </energy>
  </scstep>
  <scstep>
   <time name="dav">   19.15   19.15</time>
   <time name="total">   21.05   21.06</time>
   <energy>
    <i name="e_fr_energy">  -1283.65992601 </i>
    <i name="e_wo_entrp">  -1282.02779506 </i>
    <i name="e_0_energy">  -1282.84386053 </i>
   </energy>
  </scstep>
  <scstep>
   <time name="dav">   19.04   19.04</time>
   <time name="total">   20.93   20.94</time>
   <energy>
    <i name="e_fr_energy">  -1283.55437188 </i>
    <i name="e_wo_entrp">  -1282.01344436 </i>
    <i name="e_0_energy">  -1282.78390812 </i>
   </energy>
  </scstep>
  <scstep>
   <time name="dav">   16.41   16.41</time>
   <time name="total">   18.32   18.33</time>
   <energy>
    <i name="e_fr_energy">  -1283.52408600 </i>
    <i name="e_wo_entrp">  -1281.96327444 </i>
    <i name="e_0_energy">  -1282.74368022 </i>
   </energy>
  </scstep>
  <scstep>
   <time name="dav">   17.94   17.95</time>
   <time name="total">   19.86   19.87</time>
   <energy>
    <i name="e_fr_energy">  -1283.47067450 </i>
    <i name="e_wo_entrp">  -1281.89930336 </i>
    <i name="e_0_energy">  -1282.68498893 </i>
   </energy>
  </scstep>
  <scstep>
   <time name="dav">   26.41   26.41</time>
   <time name="total">   28.36   28.36</time>
   <energy>
    <i name="e_fr_energy">  -1283.42097363 </i>
    <i name="e_wo_entrp">  -1281.84854139 </i>
    <i name="e_0_energy">  -1282.63475751 </i>
   </energy>
  </scstep>
  <scstep>
   <time name="dav">   19.77   19.78</time>
   <time name="total">   21.74   21.74</time>
   <energy>
    <i name="e_fr_energy">  -1283.36207361 </i>
    <i name="e_wo_entrp">  -1281.77542452 </i>
    <i name="e_0_energy">  -1282.56874907 </i>
   </energy>
  </scstep>
  <scstep>
   <time name="dav">   17.49   17.49</time>
   <time name="total">   19.44   19.44</time>
   <energy>
    <i name="e_fr_energy">  -1283.35797269 </i>
    <i name="e_wo_entrp">  -1281.76374740 </i>
    <i name="e_0_energy">  -1282.56086005 </i>
   </energy>
  </scstep>
  <scstep>
   <time name="dav">   17.33   17.34</time>
   <time name="total">   19.32   19.32</time>
   <energy>
    <i name="e_fr_energy">  -1283.33231760 </i>
    <i name="e_wo_entrp">  -1281.72410398 </i>
    <i name="e_0_energy">  -1282.52821079 </i>
   </energy>
  </scstep>
  <scstep>
   <time name="dav">   25.68   25.69</time>
   <time name="total">   27.67   27.67</time>
   <energy>
    <i name="e_fr_energy">  -1283.33543498 </i>
    <i name="e_wo_entrp">  -1281.70813999 </i>
    <i name="e_0_energy">  -1282.52178748 </i>
   </energy>
  </scstep>
  <scstep>
   <time name="dav">   16.25   16.25</time>
   <time name="total">   18.27   18.28</time>
   <energy>
    <i name="e_fr_energy">  -1283.33488701 </i>
    <i name="e_wo_entrp">  -1281.71764811 </i>
    <i name="e_0_energy">  -1282.52626756 </i>
   </energy>
  </scstep>
  <scstep>
   <time name="dav">   17.15   17.15</time>
   <time name="total">   19.17   19.17</time>
   <energy>
    <i name="e_fr_energy">  -1283.33551495 </i>
    <i name="e_wo_entrp">  -1281.71493531 </i>
    <i name="e_0_energy">  -1282.52522513 </i>
   </energy>
  </scstep>
  <scstep>
   <time name="dav">   22.78   22.78</time>
   <time name="total">   24.84   24.85</time>
   <energy>
    <i name="e_fr_energy">  -1283.33560877 </i>
    <i name="e_wo_entrp">  -1281.71704531 </i>
    <i name="e_0_energy">  -1282.52632704 </i>
   </energy>
  </scstep>
  <scstep>
   <time name="dav">   21.20   21.20</time>
   <time name="total">   23.25   23.25</time>
   <energy>
    <i name="e_fr_energy">  -1283.33650078 </i>
    <i name="e_wo_entrp">  -1281.71782862 </i>
    <i name="e_0_energy">  -1282.52716470 </i>
   </energy>
  </scstep>
  <scstep>
   <time name="dav">   17.69   17.69</time>
   <time name="total">   19.78   19.78</time>
   <energy>
    <i name="e_fr_energy">  -1283.33691786 </i>
    <i name="e_wo_entrp">  -1281.71708356 </i>
    <i name="e_0_energy">  -1282.52700071 </i>
   </energy>
  </scstep>
  <scstep>
   <time name="dav">   18.60   18.60</time>
   <time name="total">   20.69   20.69</time>
   <energy>
    <i name="e_fr_energy">  -1283.33698612 </i>
    <i name="e_wo_entrp">  -1281.71825236 </i>
    <i name="e_0_energy">  -1282.52761924 </i>
   </energy>
  </scstep>
  <scstep>
   <time name="dav">   16.03   16.03</time>
   <time name="total">   18.16   18.17</time>
   <energy>
    <i name="e_fr_energy">  -1283.33715389 </i>
    <i name="e_wo_entrp">  -1281.71970498 </i>
    <i name="e_0_energy">  -1282.52842944 </i>
   </energy>
  </scstep>
  <scstep>
   <time name="dav">   18.95   18.95</time>
   <time name="total">   21.09   21.09</time>
   <energy>
    <i name="e_fr_energy">  -1283.33733390 </i>
    <i name="e_wo_entrp">  -1281.71896528 </i>
    <i name="e_0_energy">  -1282.52814959 </i>
   </energy>
  </scstep>
  <scstep>
   <time name="dav">   16.37   16.37</time>
   <time name="total">   18.57   18.58</time>
   <energy>
    <i name="e_fr_energy">  -1283.33749401 </i>
    <i name="e_wo_entrp">  -1281.71984981 </i>
    <i name="e_0_energy">  -1282.52867191 </i>
   </energy>
  </scstep>
  <scstep>
   <time name="dav">   11.12   11.12</time>
   <time name="total">   13.27   13.28</time>
   <energy>
    <i name="e_fr_energy">  -1283.33757469 </i>
    <i name="e_wo_entrp">  -1281.71930502 </i>
    <i name="e_0_energy">  -1282.52843986 </i>
   </energy>
  </scstep>
  <scstep>
   <time name="dav">   10.78   10.79</time>
   <time name="total">   12.98   12.98</time>
   <energy>
    <i name="e_fr_energy">  -1283.33762787 </i>
    <i name="e_wo_entrp">  -1281.71941708 </i>
    <i name="e_0_energy">  -1282.52852248 </i>
   </energy>
  </scstep>
  <scstep>
   <time name="dav">   10.81   10.82</time>
   <time name="total">   13.04   13.04</time>
   <energy>
    <i name="e_fr_energy">  -1283.33767419 </i>
    <i name="e_wo_entrp">  -1281.71975598 </i>
    <i name="e_0_energy">  -1282.52871508 </i>
   </energy>
  </scstep>
  <scstep>
   <time name="dav">   10.63   10.63</time>
   <time name="total">   12.88   12.88</time>
   <energy>
    <i name="e_fr_energy">  -1283.33769838 </i>
    <i name="e_wo_entrp">  -1281.71984846 </i>
    <i name="e_0_energy">  -1282.52877342 </i>
   </energy>
  </scstep>
  <scstep>
   <time name="dav">   10.03   10.03</time>
   <time name="total">   12.29   12.29</time>
   <energy>
    <i name="e_fr_energy">  -1283.33770680 </i>
    <i name="e_wo_entrp">  -1281.71992418 </i>
    <i name="e_0_energy">  -1282.52881549 </i>
   </energy>
  </scstep>
  <scstep>
   <time name="dav">   10.55   10.55</time>
   <time name="total">   12.85   12.85</time>
   <energy>
    <i name="e_fr_energy">  -1283.33771605 </i>
    <i name="e_wo_entrp">  -1281.71985490 </i>
    <i name="e_0_energy">  -1282.52878547 </i>
   </energy>
  </scstep>
  <scstep>
   <time name="dav">    9.97    9.97</time>
   <time name="total">   10.54   10.54</time>
   <energy>
    <i name="alphaZ">  11922.77764452 </i>
    <i name="ewald">1255487.35512933 </i>
    <i name="hartreedc">**************** </i>
    <i name="XCdc">   2633.48941560 </i>
    <i name="pawpsdc"> 258988.53693402 </i>
    <i name="pawaedc">-278618.68765445 </i>
    <i name="eentropy">     -1.61789909 </i>
    <i name="bandstr">  -5676.77854140 </i>
    <i name="atom"> 271559.83956188 </i>
    <i name="e_fr_energy">  -1283.33771843 </i>
    <i name="e_wo_entrp">  -1281.71981934 </i>
    <i name="e_0_energy">  -1282.52876889 </i>
   </energy>
  </scstep>
  <structure>
   <crystal>
    <varray name="basis" >
     <v>       0.00000000     -15.14622176       0.00000000 </v>
     <v>       0.00000000      -7.57311088     -13.11701281 </v>
     <v>      29.00000000       0.00000000       0.00000000 </v>
    </varray>
    <i name="volume">   5761.52236213 </i>
    <varray name="rec_basis" >
     <v>       0.00000000      -0.06602307       0.03811843 </v>
     <v>       0.00000000       0.00000000      -0.07623687 </v>
     <v>       0.03448276       0.00000000       0.00000000 </v>
    </varray>
   </crystal>
   <varray name="positions" >
    <v>       0.44444444       0.44444444       0.07780690 </v>
    <v>       0.44444444       0.77777778       0.07780690 </v>
    <v>       0.44444444       0.11111111       0.07780690 </v>
    <v>       0.77777778       0.44444444       0.07780690 </v>
    <v>       0.77777778       0.77777778       0.07780690 </v>
    <v>       0.77777778       0.11111111       0.07780690 </v>
    <v>       0.11111111       0.44444444       0.07780690 </v>
    <v>       0.11111111       0.77777778       0.07780690 </v>
    <v>       0.11111111       0.11111111       0.07780690 </v>
    <v>       0.55555556       0.55555556       0.15673765 </v>
    <v>       0.55555556       0.88888889       0.15673765 </v>
    <v>       0.55555556       0.22222222       0.15673765 </v>
    <v>       0.88888889       0.55555556       0.15673765 </v>
    <v>       0.88888889       0.88888889       0.15673765 </v>
    <v>       0.88888889       0.22222222       0.15673765 </v>
    <v>       0.22222222       0.55555556       0.15673765 </v>
    <v>       0.22222222       0.88888889       0.15673765 </v>
    <v>       0.22222222       0.22222222       0.15673765 </v>
    <v>       0.66666667       0.66666667       0.23311859 </v>
    <v>       0.66666667       0.00000000       0.23311859 </v>
    <v>       0.66666667       0.33333333       0.23311859 </v>
    <v>       0.00000000       0.66666667       0.23311859 </v>
    <v>       0.00000000       0.00000000       0.23311859 </v>
    <v>       0.00000000       0.33333333       0.23311859 </v>
    <v>       0.33333333       0.66666667       0.23311859 </v>
    <v>       0.33333333       0.00000000       0.23311859 </v>
    <v>       0.33333333       0.33333333       0.23311859 </v>
    <v>       0.77777778       0.77777778       0.31173066 </v>
    <v>       0.77777778       0.11111111       0.31173066 </v>
    <v>       0.77777778       0.44444444       0.31173066 </v>
    <v>       0.11111111       0.77777778       0.31173066 </v>
    <v>       0.11111111       0.11111111       0.31173066 </v>
    <v>       0.11111111       0.44444444       0.31173066 </v>
    <v>       0.44444444       0.77777778       0.31173066 </v>
    <v>       0.44444444       0.11111111       0.31173066 </v>
    <v>       0.44444444       0.44444444       0.31173066 </v>
    <v>       0.88888889       0.88888889       0.39034272 </v>
    <v>       0.88888889       0.22222222       0.39034272 </v>
    <v>       0.88888889       0.55555556       0.39034272 </v>
    <v>       0.22222222       0.88888889       0.39034272 </v>
    <v>       0.22222222       0.22222222       0.39034272 </v>
    <v>       0.22222222       0.55555556       0.39034272 </v>
    <v>       0.55555556       0.88888889       0.39034272 </v>
    <v>       0.55555556       0.22222222       0.39034272 </v>
    <v>       0.55555556       0.55555556       0.39034272 </v>
    <v>       0.00000000       0.00000000       0.46672366 </v>
    <v>       0.00000000       0.33333333       0.46672366 </v>
    <v>       0.00000000       0.66666667       0.46672366 </v>
    <v>       0.33333333       0.00000000       0.46672366 </v>
    <v>       0.33333333       0.33333333       0.46672366 </v>
    <v>       0.33333333       0.66666667       0.46672366 </v>
    <v>       0.66666667       0.00000000       0.46672366 </v>
    <v>       0.66666667       0.33333333       0.46672366 </v>
    <v>       0.66666667       0.66666667       0.46672366 </v>
    <v>       0.11111111       0.11111111       0.54565441 </v>
    <v>       0.11111111       0.44444444       0.54565441 </v>
    <v>       0.11111111       0.77777778       0.54565441 </v>
    <v>       0.44444444       0.11111111       0.54565441 </v>
    <v>       0.44444444       0.44444444       0.54565441 </v>
    <v>       0.44444444       0.77777778       0.54565441 </v>
    <v>       0.77777778       0.11111111       0.54565441 </v>
    <v>       0.77777778       0.44444444       0.54565441 </v>
    <v>       0.77777778       0.77777778       0.54565441 </v>
    <v>       0.27777778       0.27777778       0.07780690 </v>
    <v>       0.27777778       0.61111111       0.07780690 </v>
    <v>       0.27777778       0.94444444       0.07780690 </v>
    <v>       0.61111111       0.27777778       0.07780690 </v>
    <v>       0.61111111       0.61111111       0.07780690 </v>
    <v>       0.61111111       0.94444444       0.07780690 </v>
    <v>       0.94444444       0.27777778       0.07780690 </v>
    <v>       0.94444444       0.61111111       0.07780690 </v>
    <v>       0.94444444       0.94444444       0.07780690 </v>
    <v>       0.38888889       0.38888889       0.15673765 </v>
    <v>       0.38888889       0.72222222       0.15673765 </v>
    <v>       0.38888889       0.05555556       0.15673765 </v>
    <v>       0.72222222       0.38888889       0.15673765 </v>
    <v>       0.72222222       0.72222222       0.15673765 </v>
    <v>       0.72222222       0.05555556       0.15673765 </v>
    <v>       0.05555556       0.38888889       0.15673765 </v>
    <v>       0.05555556       0.72222222       0.15673765 </v>
    <v>       0.05555556       0.05555556       0.15673765 </v>
    <v>       0.50000000       0.50000000       0.23311859 </v>
    <v>       0.50000000       0.83333333       0.23311859 </v>
    <v>       0.50000000       0.16666667       0.23311859 </v>
    <v>       0.83333333       0.50000000       0.23311859 </v>
    <v>       0.83333333       0.83333333       0.23311859 </v>
    <v>       0.83333333       0.16666667       0.23311859 </v>
    <v>       0.16666667       0.50000000       0.23311859 </v>
    <v>       0.16666667       0.83333333       0.23311859 </v>
    <v>       0.16666667       0.16666667       0.23311859 </v>
    <v>       0.61111111       0.61111111       0.31173066 </v>
    <v>       0.61111111       0.94444444       0.31173066 </v>
    <v>       0.61111111       0.27777778       0.31173066 </v>
    <v>       0.94444444       0.61111111       0.31173066 </v>
    <v>       0.94444444       0.94444444       0.31173066 </v>
    <v>       0.94444444       0.27777778       0.31173066 </v>
    <v>       0.27777778       0.61111111       0.31173066 </v>
    <v>       0.27777778       0.94444444       0.31173066 </v>
    <v>       0.27777778       0.27777778       0.31173066 </v>
    <v>       0.72222222       0.72222222       0.39034272 </v>
    <v>       0.72222222       0.05555556       0.39034272 </v>
    <v>       0.72222222       0.38888889       0.39034272 </v>
    <v>       0.05555556       0.72222222       0.39034272 </v>
    <v>       0.05555556       0.05555556       0.39034272 </v>
    <v>       0.05555556       0.38888889       0.39034272 </v>
    <v>       0.38888889       0.72222222       0.39034272 </v>
    <v>       0.38888889       0.05555556       0.39034272 </v>
    <v>       0.38888889       0.38888889       0.39034272 </v>
    <v>       0.83333333       0.83333333       0.46672366 </v>
    <v>       0.83333333       0.16666667       0.46672366 </v>
    <v>       0.83333333       0.50000000       0.46672366 </v>
    <v>       0.16666667       0.83333333       0.46672366 </v>
    <v>       0.16666667       0.16666667       0.46672366 </v>
    <v>       0.16666667       0.50000000       0.46672366 </v>
    <v>       0.50000000       0.83333333       0.46672366 </v>
    <v>       0.50000000       0.16666667       0.46672366 </v>
    <v>       0.50000000       0.50000000       0.46672366 </v>
    <v>       0.94444444       0.94444444       0.54565441 </v>
    <v>       0.94444444       0.27777778       0.54565441 </v>
    <v>       0.94444444       0.61111111       0.54565441 </v>
    <v>       0.27777778       0.94444444       0.54565441 </v>
    <v>       0.27777778       0.27777778       0.54565441 </v>
    <v>       0.27777778       0.61111111       0.54565441 </v>
    <v>       0.61111111       0.94444444       0.54565441 </v>
    <v>       0.61111111       0.27777778       0.54565441 </v>
    <v>       0.61111111       0.61111111       0.54565441 </v>
    <v>       0.27777778       0.44444444       0.07780690 </v>
    <v>       0.27777778       0.77777778       0.07780690 </v>
    <v>       0.27777778       0.11111111       0.07780690 </v>
    <v>       0.61111111       0.44444444       0.07780690 </v>
    <v>       0.61111111       0.77777778       0.07780690 </v>
    <v>       0.61111111       0.11111111       0.07780690 </v>
    <v>       0.94444444       0.44444444       0.07780690 </v>
    <v>       0.94444444       0.77777778       0.07780690 </v>
    <v>       0.94444444       0.11111111       0.07780690 </v>
    <v>       0.38888889       0.55555556       0.15673765 </v>
    <v>       0.38888889       0.88888889       0.15673765 </v>
    <v>       0.38888889       0.22222222       0.15673765 </v>
    <v>       0.72222222       0.55555556       0.15673765 </v>
    <v>       0.72222222       0.88888889       0.15673765 </v>
    <v>       0.72222222       0.22222222       0.15673765 </v>
    <v>       0.05555556       0.55555556       0.15673765 </v>
    <v>       0.05555556       0.88888889       0.15673765 </v>
    <v>       0.05555556       0.22222222       0.15673765 </v>
    <v>       0.50000000       0.66666667       0.23311859 </v>
    <v>       0.50000000       0.00000000       0.23311859 </v>
    <v>       0.50000000       0.33333333       0.23311859 </v>
    <v>       0.83333333       0.66666667       0.23311859 </v>
    <v>       0.83333333       0.00000000       0.23311859 </v>
    <v>       0.83333333       0.33333333       0.23311859 </v>
    <v>       0.16666667       0.66666667       0.23311859 </v>
    <v>       0.16666667       0.00000000       0.23311859 </v>
    <v>       0.16666667       0.33333333       0.23311859 </v>
    <v>       0.61111111       0.77777778       0.31173066 </v>
    <v>       0.61111111       0.11111111       0.31173066 </v>
    <v>       0.61111111       0.44444444       0.31173066 </v>
    <v>       0.94444444       0.77777778       0.31173066 </v>
    <v>       0.94444444       0.11111111       0.31173066 </v>
    <v>       0.94444444       0.44444444       0.31173066 </v>
    <v>       0.27777778       0.77777778       0.31173066 </v>
    <v>       0.27777778       0.11111111       0.31173066 </v>
    <v>       0.27777778       0.44444444       0.31173066 </v>
    <v>       0.72222222       0.88888889       0.39034272 </v>
    <v>       0.72222222       0.22222222       0.39034272 </v>
    <v>       0.72222222       0.55555556       0.39034272 </v>
    <v>       0.05555556       0.88888889       0.39034272 </v>
    <v>       0.05555556       0.22222222       0.39034272 </v>
    <v>       0.05555556       0.55555556       0.39034272 </v>
    <v>       0.38888889       0.88888889       0.39034272 </v>
    <v>       0.38888889       0.22222222       0.39034272 </v>
    <v>       0.38888889       0.55555556       0.39034272 </v>
    <v>       0.83333333       0.00000000       0.46672366 </v>
    <v>       0.83333333       0.33333333       0.46672366 </v>
    <v>       0.83333333       0.66666667       0.46672366 </v>
    <v>       0.16666667       0.00000000       0.46672366 </v>
    <v>       0.16666667       0.33333333       0.46672366 </v>
    <v>       0.16666667       0.66666667       0.46672366 </v>
    <v>       0.50000000       0.00000000       0.46672366 </v>
    <v>       0.50000000       0.33333333       0.46672366 </v>
    <v>       0.50000000       0.66666667       0.46672366 </v>
    <v>       0.94444444       0.11111111       0.54565441 </v>
    <v>       0.94444444       0.44444444       0.54565441 </v>
    <v>       0.94444444       0.77777778       0.54565441 </v>
    <v>       0.27777778       0.11111111       0.54565441 </v>
    <v>       0.27777778       0.44444444       0.54565441 </v>
    <v>       0.27777778       0.77777778       0.54565441 </v>
    <v>       0.61111111       0.11111111       0.54565441 </v>
    <v>       0.61111111       0.44444444       0.54565441 </v>
    <v>       0.61111111       0.77777778       0.54565441 </v>
    <v>       0.44444444       0.27777778       0.07780690 </v>
    <v>       0.44444444       0.61111111       0.07780690 </v>
    <v>       0.44444444       0.94444444       0.07780690 </v>
    <v>       0.77777778       0.27777778       0.07780690 </v>
    <v>       0.77777778       0.61111111       0.07780690 </v>
    <v>       0.77777778       0.94444444       0.07780690 </v>
    <v>       0.11111111       0.27777778       0.07780690 </v>
    <v>       0.11111111       0.61111111       0.07780690 </v>
    <v>       0.11111111       0.94444444       0.07780690 </v>
    <v>       0.55555556       0.38888889       0.15673765 </v>
    <v>       0.55555556       0.72222222       0.15673765 </v>
    <v>       0.55555556       0.05555556       0.15673765 </v>
    <v>       0.88888889       0.38888889       0.15673765 </v>
    <v>       0.88888889       0.72222222       0.15673765 </v>
    <v>       0.88888889       0.05555556       0.15673765 </v>
    <v>       0.22222222       0.38888889       0.15673765 </v>
    <v>       0.22222222       0.72222222       0.15673765 </v>
    <v>       0.22222222       0.05555556       0.15673765 </v>
    <v>       0.66666667       0.50000000       0.23311859 </v>
    <v>       0.66666667       0.83333333       0.23311859 </v>
    <v>       0.66666667       0.16666667       0.23311859 </v>
    <v>       0.00000000       0.50000000       0.23311859 </v>
    <v>       0.00000000       0.83333333       0.23311859 </v>
    <v>       0.00000000       0.16666667       0.23311859 </v>
    <v>       0.33333333       0.50000000       0.23311859 </v>
    <v>       0.33333333       0.83333333       0.23311859 </v>
    <v>       0.33333333       0.16666667       0.23311859 </v>
    <v>       0.77777778       0.61111111       0.31173066 </v>
    <v>       0.77777778       0.94444444       0.31173066 </v>
    <v>       0.77777778       0.27777778       0.31173066 </v>
    <v>       0.11111111       0.61111111       0.31173066 </v>
    <v>       0.11111111       0.94444444       0.31173066 </v>
    <v>       0.11111111       0.27777778       0.31173066 </v>
    <v>       0.44444444       0.61111111       0.31173066 </v>
    <v>       0.44444444       0.94444444       0.31173066 </v>
    <v>       0.44444444       0.27777778       0.31173066 </v>
    <v>       0.88888889       0.72222222       0.39034272 </v>
    <v>       0.88888889       0.05555556       0.39034272 </v>
    <v>       0.88888889       0.38888889       0.39034272 </v>
    <v>       0.22222222       0.72222222       0.39034272 </v>
    <v>       0.22222222       0.05555556       0.39034272 </v>
    <v>       0.22222222       0.38888889       0.39034272 </v>
    <v>       0.55555556       0.72222222       0.39034272 </v>
    <v>       0.55555556       0.05555556       0.39034272 </v>
    <v>       0.55555556       0.38888889       0.39034272 </v>
    <v>       0.00000000       0.83333333       0.46672366 </v>
    <v>       0.00000000       0.16666667       0.46672366 </v>
    <v>       0.00000000       0.50000000       0.46672366 </v>
    <v>       0.33333333       0.83333333       0.46672366 </v>
    <v>       0.33333333       0.16666667       0.46672366 </v>
    <v>       0.33333333       0.50000000       0.46672366 </v>
    <v>       0.66666667       0.83333333       0.46672366 </v>
    <v>       0.66666667       0.16666667       0.46672366 </v>
    <v>       0.66666667       0.50000000       0.46672366 </v>
    <v>       0.11111111       0.94444444       0.54565441 </v>
    <v>       0.11111111       0.27777778       0.54565441 </v>
    <v>       0.11111111       0.61111111       0.54565441 </v>
    <v>       0.44444444       0.94444444       0.54565441 </v>
    <v>       0.44444444       0.27777778       0.54565441 </v>
    <v>       0.44444444       0.61111111       0.54565441 </v>
    <v>       0.77777778       0.94444444       0.54565441 </v>
    <v>       0.77777778       0.27777778       0.54565441 </v>
    <v>       0.77777778       0.61111111       0.54565441 </v>
   </varray>
  </structure>
  <varray name="forces" >
   <v>       1.08123066       0.00000000      -0.00000000 </v>
   <v>       1.08123066       0.00000000      -0.00000000 </v>
   <v>       1.08123066       0.00000000       0.00000000 </v>
   <v>       1.08123066      -0.00000000       0.00000000 </v>
   <v>       1.08123066       0.00000000      -0.00000000 </v>
   <v>       1.08123066      -0.00000000      -0.00000000 </v>
   <v>       1.08123066       0.00000000       0.00000000 </v>
   <v>       1.08123066      -0.00000000       0.00000000 </v>
   <v>       1.08123066       0.00000000      -0.00000000 </v>
   <v>      -0.15792298       0.00000000       0.00000000 </v>
   <v>      -0.15792298      -0.00000000       0.00000000 </v>
   <v>      -0.15792298      -0.00000000       0.00000000 </v>
   <v>      -0.15792298      -0.00000000      -0.00000000 </v>
   <v>      -0.15792298      -0.00000000       0.00000000 </v>
   <v>      -0.15792298      -0.00000000       0.00000000 </v>
   <v>      -0.15792298       0.00000000       0.00000000 </v>
   <v>      -0.15792298       0.00000000       0.00000000 </v>
   <v>      -0.15792298       0.00000000       0.00000000 </v>
   <v>       0.12030393      -0.00000000      -0.00000000 </v>
   <v>       0.12030393      -0.00000000      -0.00000000 </v>
   <v>       0.12030393      -0.00000000       0.00000000 </v>
   <v>       0.12030393      -0.00000000      -0.00000000 </v>
   <v>       0.12030393      -0.00000000      -0.00000000 </v>
   <v>       0.12030393      -0.00000000       0.00000000 </v>
   <v>       0.12030393      -0.00000000       0.00000000 </v>
   <v>       0.12030393      -0.00000000      -0.00000000 </v>
   <v>       0.12030393      -0.00000000       0.00000000 </v>
   <v>       0.00000000       0.00000000       0.00000000 </v>
   <v>       0.00000000       0.00000000       0.00000000 </v>
   <v>       0.00000000      -0.00000000       0.00000000 </v>
   <v>       0.00000000      -0.00000000      -0.00000000 </v>
   <v>       0.00000000      -0.00000000      -0.00000000 </v>
   <v>       0.00000000      -0.00000000       0.00000000 </v>
   <v>       0.00000000      -0.00000000      -0.00000000 </v>
   <v>       0.00000000       0.00000000       0.00000000 </v>
   <v>       0.00000000       0.00000000       0.00000000 </v>
   <v>      -0.12030393      -0.00000000      -0.00000000 </v>
   <v>      -0.12030393       0.00000000       0.00000000 </v>
   <v>      -0.12030393       0.00000000       0.00000000 </v>
   <v>      -0.12030393       0.00000000       0.00000000 </v>
   <v>      -0.12030393       0.00000000       0.00000000 </v>
   <v>      -0.12030393       0.00000000       0.00000000 </v>
   <v>      -0.12030393       0.00000000       0.00000000 </v>
   <v>      -0.12030393       0.00000000       0.00000000 </v>
   <v>      -0.12030393       0.00000000      -0.00000000 </v>
   <v>       0.15792298       0.00000000      -0.00000000 </v>
   <v>       0.15792298      -0.00000000      -0.00000000 </v>
   <v>       0.15792298       0.00000000      -0.00000000 </v>
   <v>       0.15792298       0.00000000      -0.00000000 </v>
   <v>       0.15792298      -0.00000000      -0.00000000 </v>
   <v>       0.15792298      -0.00000000      -0.00000000 </v>
   <v>       0.15792298       0.00000000      -0.00000000 </v>
   <v>       0.15792298      -0.00000000      -0.00000000 </v>
   <v>       0.15792298       0.00000000      -0.00000000 </v>
   <v>      -1.08123066       0.00000000      -0.00000000 </v>
   <v>      -1.08123066       0.00000000      -0.00000000 </v>
   <v>      -1.08123066       0.00000000      -0.00000000 </v>
[...]
       <r>     1.9545   115.6169  2849.0744 </r>
       <r>     2.0058    80.1680  2853.1860 </r>
       <r>     2.0571   103.3742  2858.4878 </r>
       <r>     2.1083    69.4435  2862.0493 </r>
       <r>     2.1596    40.4969  2864.1263 </r>
       <r>     2.2109    33.8469  2865.8622 </r>
       <r>     2.2622   117.1155  2871.8687 </r>
       <r>     2.3135   153.3117  2879.7316 </r>
       <r>     2.3648   119.0991  2885.8398 </r>
       <r>     2.4161    90.3864  2890.4755 </r>
       <r>     2.4673    46.7840  2892.8749 </r>
       <r>     2.5186    64.6769  2896.1920 </r>
       <r>     2.5699    65.9815  2899.5760 </r>
       <r>     2.6212    17.2594  2900.4612 </r>
       <r>     2.6725     2.1403  2900.5709 </r>
       <r>     2.7238    16.7218  2901.4285 </r>
       <r>     2.7751    42.5516  2903.6109 </r>
       <r>     2.8264    41.0883  2905.7182 </r>
       <r>     2.8776    17.6723  2906.6245 </r>
       <r>     2.9289    37.3695  2908.5411 </r>
       <r>     2.9802    82.2861  2912.7613 </r>
       <r>     3.0315    91.9986  2917.4797 </r>
       <r>     3.0828   150.4500  2925.1958 </r>
       <r>     3.1341   251.6814  2938.1038 </r>
       <r>     3.1854   131.6522  2944.8558 </r>
       <r>     3.2367    51.0542  2947.4742 </r>
       <r>     3.2879    60.4282  2950.5734 </r>
       <r>     3.3392    18.6652  2951.5307 </r>
       <r>     3.3905    18.3170  2952.4701 </r>
       <r>     3.4418    60.1486  2955.5550 </r>
       <r>     3.4931   102.9423  2960.8346 </r>
       <r>     3.5444    74.1222  2964.6361 </r>
       <r>     3.5957    67.7792  2968.1123 </r>
       <r>     3.6469    48.6618  2970.6080 </r>
       <r>     3.6982    66.1693  2974.0016 </r>
       <r>     3.7495    52.9125  2976.7153 </r>
       <r>     3.8008    53.0742  2979.4374 </r>
       <r>     3.8521    34.1094  2981.1867 </r>
       <r>     3.9034     5.9237  2981.4905 </r>
       <r>     3.9547     0.4396  2981.5131 </r>
       <r>     4.0060     6.8125  2981.8625 </r>
       <r>     4.0572    28.6666  2983.3327 </r>
       <r>     4.1085    22.8335  2984.5038 </r>
       <r>     4.1598    33.4521  2986.2194 </r>
       <r>     4.2111    91.5581  2990.9152 </r>
       <r>     4.2624    85.3286  2995.2914 </r>
       <r>     4.3137    43.4649  2997.5206 </r>
       <r>     4.3650    83.5245  3001.8043 </r>
       <r>     4.4163    90.0396  3006.4222 </r>
       <r>     4.4675    20.1038  3007.4533 </r>
       <r>     4.5188     6.4062  3007.7818 </r>
       <r>     4.5701    39.7344  3009.8197 </r>
       <r>     4.6214    86.3925  3014.2505 </r>
       <r>     4.6727    64.7554  3017.5716 </r>
       <r>     4.7240    42.9967  3019.7768 </r>
       <r>     4.7753    61.5357  3022.9328 </r>
       <r>     4.8266    19.7803  3023.9472 </r>
       <r>     4.8778     1.0212  3023.9996 </r>
       <r>     4.9291     0.0076  3024.0000 </r>
       <r>     4.9804     0.0000  3024.0000 </r>
       <r>     5.0317     0.0000  3024.0000 </r>
       <r>     5.0830     0.0000  3024.0000 </r>
       <r>     5.1343     0.0000  3024.0000 </r>
       <r>     5.1856     0.0000  3024.0000 </r>
       <r>     5.2368     0.0000  3024.0000 </r>
       <r>     5.2881     0.0000  3024.0000 </r>
       <r>     5.3394     0.0000  3024.0000 </r>
       <r>     5.3907     0.0000  3024.0000 </r>
       <r>     5.4420     0.0000  3024.0000 </r>
      </set>
     </set>
    </array>
   </total>
  </dos>
 </calculation>
 <structure name="finalpos" >
  <crystal>
   <varray name="basis" >
    <v>       0.00000000     -15.14622176       0.00000000 </v>
    <v>       0.00000000      -7.57311088     -13.11701281 </v>
    <v>      29.00000000       0.00000000       0.00000000 </v>
   </varray>
   <i name="volume">   5761.52236213 </i>
   <varray name="rec_basis" >
    <v>       0.00000000      -0.06602307       0.03811843 </v>
    <v>       0.00000000       0.00000000      -0.07623687 </v>
    <v>       0.03448276       0.00000000       0.00000000 </v>
   </varray>
  </crystal>
  <varray name="positions" >
   <v>       0.44444444       0.44444444       0.10837020 </v>
   <v>       0.44444444       0.77777778       0.10837020 </v>
   <v>       0.44444444       0.11111111       0.10837020 </v>
   <v>       0.77777778       0.44444444       0.10837020 </v>
   <v>       0.77777778       0.77777778       0.10837020 </v>
   <v>       0.77777778       0.11111111       0.10837020 </v>
   <v>       0.11111111       0.44444444       0.10837020 </v>
   <v>       0.11111111       0.77777778       0.10837020 </v>
   <v>       0.11111111       0.11111111       0.10837020 </v>
   <v>       0.55555556       0.55555556       0.17640581 </v>
   <v>       0.55555556       0.88888889       0.17640581 </v>
   <v>       0.55555556       0.22222222       0.17640581 </v>
   <v>       0.88888889       0.55555556       0.17640581 </v>
   <v>       0.88888889       0.88888889       0.17640581 </v>
   <v>       0.88888889       0.22222222       0.17640581 </v>
   <v>       0.22222222       0.55555556       0.17640581 </v>
   <v>       0.22222222       0.88888889       0.17640581 </v>
   <v>       0.22222222       0.22222222       0.17640581 </v>
   <v>       0.66666667       0.66666667       0.24409160 </v>
   <v>       0.66666667      -0.00000000       0.24409160 </v>
   <v>       0.66666667       0.33333333       0.24409160 </v>
   <v>       0.00000000       0.66666667       0.24409160 </v>
   <v>       0.00000000      -0.00000000       0.24409160 </v>
   <v>       0.00000000       0.33333333       0.24409160 </v>
   <v>       0.33333333       0.66666667       0.24409160 </v>
   <v>       0.33333333       0.00000000       0.24409160 </v>
   <v>       0.33333333       0.33333333       0.24409160 </v>
   <v>       0.77777778       0.77777778       0.31173066 </v>
   <v>       0.77777778       0.11111111       0.31173066 </v>
   <v>       0.77777778       0.44444444       0.31173066 </v>
   <v>       0.11111111       0.77777778       0.31173066 </v>
   <v>       0.11111111       0.11111111       0.31173066 </v>
   <v>       0.11111111       0.44444444       0.31173066 </v>
   <v>       0.44444444       0.77777778       0.31173066 </v>
   <v>       0.44444444       0.11111111       0.31173066 </v>
   <v>       0.44444444       0.44444444       0.31173066 </v>
   <v>       0.88888889       0.88888889       0.37936971 </v>
   <v>       0.88888889       0.22222222       0.37936971 </v>
   <v>       0.88888889       0.55555556       0.37936971 </v>
   <v>       0.22222222       0.88888889       0.37936971 </v>
   <v>       0.22222222       0.22222222       0.37936971 </v>
   <v>       0.22222222       0.55555556       0.37936971 </v>
   <v>       0.55555556       0.88888889       0.37936971 </v>
   <v>       0.55555556       0.22222222       0.37936971 </v>
   <v>       0.55555556       0.55555556       0.37936971 </v>
   <v>       0.00000000       0.00000000       0.44705550 </v>
   <v>       0.00000000       0.33333333       0.44705550 </v>
   <v>      -0.00000000       0.66666667       0.44705550 </v>
   <v>       0.33333333       0.00000000       0.44705550 </v>
   <v>       0.33333333       0.33333333       0.44705550 </v>
   <v>       0.33333333       0.66666667       0.44705550 </v>
   <v>       0.66666667       0.00000000       0.44705550 </v>
   <v>       0.66666667       0.33333333       0.44705550 </v>
   <v>       0.66666667       0.66666667       0.44705550 </v>
   <v>       0.11111111       0.11111111       0.51509111 </v>
   <v>       0.11111111       0.44444444       0.51509111 </v>
   <v>       0.11111111       0.77777778       0.51509111 </v>
   <v>       0.44444444       0.11111111       0.51509111 </v>
   <v>       0.44444444       0.44444444       0.51509111 </v>
   <v>       0.44444444       0.77777778       0.51509111 </v>
   <v>       0.77777778       0.11111111       0.51509111 </v>
   <v>       0.77777778       0.44444444       0.51509111 </v>
   <v>       0.77777778       0.77777778       0.51509111 </v>
   <v>       0.27777778       0.27777778       0.10837020 </v>
   <v>       0.27777778       0.61111111       0.10837020 </v>
   <v>       0.27777778       0.94444444       0.10837020 </v>
   <v>       0.61111111       0.27777778       0.10837020 </v>
   <v>       0.61111111       0.61111111       0.10837020 </v>
   <v>       0.61111111       0.94444444       0.10837020 </v>
   <v>       0.94444444       0.27777778       0.10837020 </v>
   <v>       0.94444444       0.61111111       0.10837020 </v>
   <v>       0.94444444       0.94444444       0.10837020 </v>
   <v>       0.38888889       0.38888889       0.17640581 </v>
   <v>       0.38888889       0.72222222       0.17640581 </v>
   <v>       0.38888889       0.05555556       0.17640581 </v>
   <v>       0.72222222       0.38888889       0.17640581 </v>
   <v>       0.72222222       0.72222222       0.17640581 </v>
   <v>       0.72222222       0.05555556       0.17640581 </v>
   <v>       0.05555556       0.38888889       0.17640581 </v>
   <v>       0.05555556       0.72222222       0.17640581 </v>
   <v>       0.05555556       0.05555556       0.17640581 </v>
   <v>       0.50000000       0.50000000       0.24409160 </v>
   <v>       0.50000000       0.83333333       0.24409160 </v>
   <v>       0.50000000       0.16666667       0.24409160 </v>
   <v>       0.83333333       0.50000000       0.24409160 </v>
   <v>       0.83333333       0.83333333       0.24409160 </v>
   <v>       0.83333333       0.16666667       0.24409160 </v>
   <v>       0.16666667       0.50000000       0.24409160 </v>
   <v>       0.16666667       0.83333333       0.24409160 </v>
   <v>       0.16666667       0.16666667       0.24409160 </v>
   <v>       0.61111111       0.61111111       0.31173066 </v>
   <v>       0.61111111       0.94444444       0.31173066 </v>
   <v>       0.61111111       0.27777778       0.31173066 </v>
   <v>       0.94444444       0.61111111       0.31173066 </v>
   <v>       0.94444444       0.94444444       0.31173066 </v>
   <v>       0.94444444       0.27777778       0.31173066 </v>
   <v>       0.27777778       0.61111111       0.31173066 </v>
   <v>       0.27777778       0.94444444       0.31173066 </v>
   <v>       0.27777778       0.27777778       0.31173066 </v>
   <v>       0.72222222       0.72222222       0.37936971 </v>
   <v>       0.72222222       0.05555556       0.37936971 </v>
   <v>       0.72222222       0.38888889       0.37936971 </v>
   <v>       0.05555556       0.72222222       0.37936971 </v>
   <v>       0.05555556       0.05555556       0.37936971 </v>
   <v>       0.05555556       0.38888889       0.37936971 </v>
   <v>       0.38888889       0.72222222       0.37936971 </v>
   <v>       0.38888889       0.05555556       0.37936971 </v>
   <v>       0.38888889       0.38888889       0.37936971 </v>
   <v>       0.83333333       0.83333333       0.44705550 </v>
   <v>       0.83333333       0.16666667       0.44705550 </v>
   <v>       0.83333333       0.50000000       0.44705550 </v>
   <v>       0.16666667       0.83333333       0.44705550 </v>
   <v>       0.16666667       0.16666667       0.44705550 </v>
   <v>       0.16666667       0.50000000       0.44705550 </v>
   <v>       0.50000000       0.83333333       0.44705550 </v>
   <v>       0.50000000       0.16666667       0.44705550 </v>
   <v>       0.50000000       0.50000000       0.44705550 </v>
   <v>       0.94444444       0.94444444       0.51509111 </v>
   <v>       0.94444444       0.27777778       0.51509111 </v>
   <v>       0.94444444       0.61111111       0.51509111 </v>
   <v>       0.27777778       0.94444444       0.51509111 </v>
   <v>       0.27777778       0.27777778       0.51509111 </v>
   <v>       0.27777778       0.61111111       0.51509111 </v>
   <v>       0.61111111       0.94444444       0.51509111 </v>
   <v>       0.61111111       0.27777778       0.51509111 </v>
   <v>       0.61111111       0.61111111       0.51509111 </v>
   <v>       0.27777778       0.44444444       0.10837020 </v>
   <v>       0.27777778       0.77777778       0.10837020 </v>
   <v>       0.27777778       0.11111111       0.10837020 </v>
   <v>       0.61111111       0.44444444       0.10837020 </v>
   <v>       0.61111111       0.77777778       0.10837020 </v>
   <v>       0.61111111       0.11111111       0.10837020 </v>
   <v>       0.94444444       0.44444444       0.10837020 </v>
   <v>       0.94444444       0.77777778       0.10837020 </v>
   <v>       0.94444444       0.11111111       0.10837020 </v>
   <v>       0.38888889       0.55555556       0.17640581 </v>
   <v>       0.38888889       0.88888889       0.17640581 </v>
   <v>       0.38888889       0.22222222       0.17640581 </v>
   <v>       0.72222222       0.55555556       0.17640581 </v>
   <v>       0.72222222       0.88888889       0.17640581 </v>
   <v>       0.72222222       0.22222222       0.17640581 </v>
   <v>       0.05555556       0.55555556       0.17640581 </v>
   <v>       0.05555556       0.88888889       0.17640581 </v>
   <v>       0.05555556       0.22222222       0.17640581 </v>
   <v>       0.50000000       0.66666667       0.24409160 </v>
   <v>       0.50000000      -0.00000000       0.24409160 </v>
   <v>       0.50000000       0.33333333       0.24409160 </v>
   <v>       0.83333333       0.66666667       0.24409160 </v>
   <v>       0.83333333       0.00000000       0.24409160 </v>
   <v>       0.83333333       0.33333333       0.24409160 </v>
   <v>       0.16666667       0.66666667       0.24409160 </v>
   <v>       0.16666667      -0.00000000       0.24409160 </v>
   <v>       0.16666667       0.33333333       0.24409160 </v>
   <v>       0.61111111       0.77777778       0.31173066 </v>
   <v>       0.61111111       0.11111111       0.31173066 </v>
   <v>       0.61111111       0.44444444       0.31173066 </v>
   <v>       0.94444444       0.77777778       0.31173066 </v>
   <v>       0.94444444       0.11111111       0.31173066 </v>
   <v>       0.94444444       0.44444444       0.31173066 </v>
   <v>       0.27777778       0.77777778       0.31173066 </v>
   <v>       0.27777778       0.11111111       0.31173066 </v>
   <v>       0.27777778       0.44444444       0.31173066 </v>
   <v>       0.72222222       0.88888889       0.37936971 </v>
   <v>       0.72222222       0.22222222       0.37936971 </v>
   <v>       0.72222222       0.55555556       0.37936971 </v>
   <v>       0.05555556       0.88888889       0.37936971 </v>
   <v>       0.05555556       0.22222222       0.37936971 </v>
   <v>       0.05555556       0.55555556       0.37936971 </v>
   <v>       0.38888889       0.88888889       0.37936971 </v>
   <v>       0.38888889       0.22222222       0.37936971 </v>
   <v>       0.38888889       0.55555556       0.37936971 </v>
   <v>       0.83333333       0.00000000       0.44705550 </v>
   <v>       0.83333333       0.33333333       0.44705550 </v>
   <v>       0.83333333       0.66666667       0.44705550 </v>
   <v>       0.16666667       0.00000000       0.44705550 </v>
   <v>       0.16666667       0.33333333       0.44705550 </v>
   <v>       0.16666667       0.66666667       0.44705550 </v>
   <v>       0.50000000       0.00000000       0.44705550 </v>
   <v>       0.50000000       0.33333333       0.44705550 </v>
   <v>       0.50000000       0.66666667       0.44705550 </v>
   <v>       0.94444444       0.11111111       0.51509111 </v>
   <v>       0.94444444       0.44444444       0.51509111 </v>
   <v>       0.94444444       0.77777778       0.51509111 </v>
   <v>       0.27777778       0.11111111       0.51509111 </v>
   <v>       0.27777778       0.44444444       0.51509111 </v>
   <v>       0.27777778       0.77777778       0.51509111 </v>
   <v>       0.61111111       0.11111111       0.51509111 </v>
   <v>       0.61111111       0.44444444       0.51509111 </v>
   <v>       0.61111111       0.77777778       0.51509111 </v>
   <v>       0.44444444       0.27777778       0.10837020 </v>
   <v>       0.44444444       0.61111111       0.10837020 </v>
   <v>       0.44444444       0.94444444       0.10837020 </v>
   <v>       0.77777778       0.27777778       0.10837020 </v>
   <v>       0.77777778       0.61111111       0.10837020 </v>
   <v>       0.77777778       0.94444444       0.10837020 </v>
   <v>       0.11111111       0.27777778       0.10837020 </v>
   <v>       0.11111111       0.61111111       0.10837020 </v>
   <v>       0.11111111       0.94444444       0.10837020 </v>
   <v>       0.55555556       0.38888889       0.17640581 </v>
   <v>       0.55555556       0.72222222       0.17640581 </v>
   <v>       0.55555556       0.05555556       0.17640581 </v>
   <v>       0.88888889       0.38888889       0.17640581 </v>
   <v>       0.88888889       0.72222222       0.17640581 </v>
   <v>       0.88888889       0.05555556       0.17640581 </v>
   <v>       0.22222222       0.38888889       0.17640581 </v>
   <v>       0.22222222       0.72222222       0.17640581 </v>
   <v>       0.22222222       0.05555556       0.17640581 </v>
   <v>       0.66666667       0.50000000       0.24409160 </v>
   <v>       0.66666667       0.83333333       0.24409160 </v>
   <v>       0.66666667       0.16666667       0.24409160 </v>
   <v>      -0.00000000       0.50000000       0.24409160 </v>
   <v>       0.00000000       0.83333333       0.24409160 </v>
   <v>      -0.00000000       0.16666667       0.24409160 </v>
   <v>       0.33333333       0.50000000       0.24409160 </v>
   <v>       0.33333333       0.83333333       0.24409160 </v>
   <v>       0.33333333       0.16666667       0.24409160 </v>
   <v>       0.77777778       0.61111111       0.31173066 </v>
   <v>       0.77777778       0.94444444       0.31173066 </v>
   <v>       0.77777778       0.27777778       0.31173066 </v>
   <v>       0.11111111       0.61111111       0.31173066 </v>
   <v>       0.11111111       0.94444444       0.31173066 </v>
   <v>       0.11111111       0.27777778       0.31173066 </v>
   <v>       0.44444444       0.61111111       0.31173066 </v>
   <v>       0.44444444       0.94444444       0.31173066 </v>
   <v>       0.44444444       0.27777778       0.31173066 </v>
   <v>       0.88888889       0.72222222       0.37936971 </v>
   <v>       0.88888889       0.05555556       0.37936971 </v>
   <v>       0.88888889       0.38888889       0.37936971 </v>
   <v>       0.22222222       0.72222222       0.37936971 </v>
   <v>       0.22222222       0.05555556       0.37936971 </v>
   <v>       0.22222222       0.38888889       0.37936971 </v>
   <v>       0.55555556       0.72222222       0.37936971 </v>
   <v>       0.55555556       0.05555556       0.37936971 </v>
   <v>       0.55555556       0.38888889       0.37936971 </v>
   <v>       0.00000000       0.83333333       0.44705550 </v>
   <v>       0.00000000       0.16666667       0.44705550 </v>
   <v>       0.00000000       0.50000000       0.44705550 </v>
   <v>       0.33333333       0.83333333       0.44705550 </v>
   <v>       0.33333333       0.16666667       0.44705550 </v>
   <v>       0.33333333       0.50000000       0.44705550 </v>
   <v>       0.66666667       0.83333333       0.44705550 </v>
   <v>       0.66666667       0.16666667       0.44705550 </v>
   <v>       0.66666667       0.50000000       0.44705550 </v>
   <v>       0.11111111       0.94444444       0.51509111 </v>
   <v>       0.11111111       0.27777778       0.51509111 </v>
   <v>       0.11111111       0.61111111       0.51509111 </v>
   <v>       0.44444444       0.94444444       0.51509111 </v>
   <v>       0.44444444       0.27777778       0.51509111 </v>
   <v>       0.44444444       0.61111111       0.51509111 </v>
   <v>       0.77777778       0.94444444       0.51509111 </v>
   <v>       0.77777778       0.27777778       0.51509111 </v>
   <v>       0.77777778       0.61111111       0.51509111 </v>
  </varray>
 </structure>
</modeling>
