  30  30   0   0
  0.8742005E+01  0.4805028E-09  0.4805028E-09  0.1311625E-08  0.2000000E-15
   1.0000000000000000E-004
  CAR 
 NiAl                                    
     19.15369999    -14.95887276  301      6.08432055      1.00000000
    -14.959  0.0000E+00  0.0000E+00
    -14.845  0.0000E+00  0.0000E+00
    -14.731  0.0000E+00  0.0000E+00
    -14.618  0.0000E+00  0.0000E+00
    -14.504  0.0000E+00  0.0000E+00
    -14.390  0.0000E+00  0.0000E+00
    -14.277  0.0000E+00  0.0000E+00
    -14.163  0.0000E+00  0.0000E+00
    -14.049  0.0000E+00  0.0000E+00
    -13.935  0.0000E+00  0.0000E+00
    -13.822  0.0000E+00  0.0000E+00
    -13.708  0.0000E+00  0.0000E+00
    -13.594  0.4332E-09  0.4926E-10
    -13.481  0.1243E-03  0.1413E-04
    -13.367  0.5893E-02  0.6842E-03
    -13.253  0.4183E-01  0.5441E-02
    -13.140  0.6836E-01  0.1321E-01
    -13.026  0.3967E-01  0.1772E-01
    -12.912  0.1085E+00  0.3006E-01
    -12.798  0.1507E+00  0.4720E-01
    -12.685  0.2708E-01  0.5028E-01
    -12.571  0.1553E+00  0.6794E-01
    -12.457  0.2079E+00  0.9157E-01
    -12.344  0.1492E+00  0.1085E+00
    -12.230  0.2033E+00  0.1317E+00
    -12.116  0.2240E+00  0.1571E+00
    -12.002  0.2616E+00  0.1869E+00
    -11.889  0.1518E+00  0.2041E+00
    -11.775  0.1823E+00  0.2249E+00
    -11.661  0.2558E+00  0.2540E+00
    -11.548  0.1699E+00  0.2733E+00
    -11.434  0.3233E+00  0.3100E+00
    -11.320  0.3557E+00  0.3505E+00
    -11.206  0.6520E+00  0.4246E+00
    -11.093  0.4951E+00  0.4809E+00
    -10.979  0.6371E+00  0.5534E+00
    -10.865  0.8126E+00  0.6458E+00
    -10.752  0.7214E+00  0.7278E+00
    -10.638  0.7882E+00  0.8174E+00
    -10.524  0.7076E+00  0.8979E+00
    -10.411  0.1861E-01  0.9000E+00
    -10.297  0.2752E-06  0.9000E+00
    -10.183  0.2441E-15  0.9000E+00
    -10.069  0.0000E+00  0.9000E+00
     -9.956  0.0000E+00  0.9000E+00
     -9.842  0.0000E+00  0.9000E+00
     -9.728  0.0000E+00  0.9000E+00
     -9.615  0.0000E+00  0.9000E+00
     -9.501  0.0000E+00  0.9000E+00
     -9.387  0.0000E+00  0.9000E+00
     -9.273  0.0000E+00  0.9000E+00
     -9.160  0.0000E+00  0.9000E+00
     -9.046  0.0000E+00  0.9000E+00
     -8.932  0.0000E+00  0.9000E+00
     -8.819  0.0000E+00  0.9000E+00
     -8.705  0.0000E+00  0.9000E+00
     -8.591  0.0000E+00  0.9000E+00
     -8.477  0.0000E+00  0.9000E+00
     -8.364  0.0000E+00  0.9000E+00
     -8.250  0.0000E+00  0.9000E+00
     -8.136  0.0000E+00  0.9000E+00
     -8.023  0.0000E+00  0.9000E+00
     -7.909  0.0000E+00  0.9000E+00
     -7.795  0.0000E+00  0.9000E+00
     -7.682  0.0000E+00  0.9000E+00
     -7.568  0.0000E+00  0.9000E+00
     -7.454  0.0000E+00  0.9000E+00
     -7.340  0.0000E+00  0.9000E+00
     -7.227  0.0000E+00  0.9000E+00
     -7.113  0.0000E+00  0.9000E+00
     -6.999  0.0000E+00  0.9000E+00
     -6.886  0.0000E+00  0.9000E+00
     -6.772  0.0000E+00  0.9000E+00
     -6.658  0.0000E+00  0.9000E+00
     -6.544  0.0000E+00  0.9000E+00
     -6.431  0.0000E+00  0.9000E+00
     -6.317  0.0000E+00  0.9000E+00
     -6.203  0.0000E+00  0.9000E+00
     -6.090  0.0000E+00  0.9000E+00
     -5.976  0.0000E+00  0.9000E+00
     -5.862  0.0000E+00  0.9000E+00
     -5.748  0.0000E+00  0.9000E+00
     -5.635  0.0000E+00  0.9000E+00
     -5.521  0.0000E+00  0.9000E+00
     -5.407  0.0000E+00  0.9000E+00
     -5.294  0.0000E+00  0.9000E+00
     -5.180  0.0000E+00  0.9000E+00
     -5.066  0.0000E+00  0.9000E+00
     -4.953  0.0000E+00  0.9000E+00
     -4.839  0.0000E+00  0.9000E+00
     -4.725  0.0000E+00  0.9000E+00
     -4.611  0.0000E+00  0.9000E+00
     -4.498  0.0000E+00  0.9000E+00
     -4.384  0.0000E+00  0.9000E+00
     -4.270  0.0000E+00  0.9000E+00
     -4.157  0.0000E+00  0.9000E+00
     -4.043  0.0000E+00  0.9000E+00
     -3.929  0.0000E+00  0.9000E+00
     -3.815  0.0000E+00  0.9000E+00
     -3.702  0.0000E+00  0.9000E+00
     -3.588  0.0000E+00  0.9000E+00
     -3.474  0.0000E+00  0.9000E+00
     -3.361  0.0000E+00  0.9000E+00
     -3.247  0.0000E+00  0.9000E+00
     -3.133  0.0000E+00  0.9000E+00
     -3.019  0.0000E+00  0.9000E+00
     -2.906  0.0000E+00  0.9000E+00
     -2.792  0.0000E+00  0.9000E+00
     -2.678  0.0000E+00  0.9000E+00
     -2.565  0.0000E+00  0.9000E+00
     -2.451  0.0000E+00  0.9000E+00
     -2.337  0.0000E+00  0.9000E+00
     -2.224  0.0000E+00  0.9000E+00
     -2.110  0.0000E+00  0.9000E+00
     -1.996  0.0000E+00  0.9000E+00
     -1.882  0.0000E+00  0.9000E+00
     -1.769  0.0000E+00  0.9000E+00
     -1.655  0.0000E+00  0.9000E+00
     -1.541  0.0000E+00  0.9000E+00
     -1.428  0.0000E+00  0.9000E+00
     -1.314  0.3802E-11  0.9000E+00
     -1.200  0.1301E-04  0.9000E+00
     -1.086  0.3970E-02  0.9005E+00
     -0.973  0.2543E-01  0.9033E+00
     -0.859  0.1487E-01  0.9050E+00
     -0.745  0.6999E-01  0.9130E+00
     -0.632  0.1618E+00  0.9314E+00
     -0.518  0.2200E+00  0.9564E+00
     -0.404  0.2750E+00  0.9877E+00
     -0.290  0.4142E+00  0.1035E+01
     -0.177  0.3211E+00  0.1071E+01
     -0.063  0.3967E+00  0.1116E+01
      0.051  0.5849E+00  0.1183E+01
      0.164  0.3501E+00  0.1223E+01
      0.278  0.2719E+00  0.1254E+01
      0.392  0.2244E+00  0.1279E+01
      0.505  0.1669E+00  0.1298E+01
      0.619  0.3459E+00  0.1337E+01
      0.733  0.2665E+00  0.1368E+01
      0.847  0.4535E+00  0.1419E+01
      0.960  0.3864E+00  0.1463E+01
      1.074  0.1365E+00  0.1479E+01
      1.188  0.1588E+00  0.1497E+01
      1.301  0.3553E+00  0.1537E+01
      1.415  0.2962E+00  0.1571E+01
      1.529  0.2656E+00  0.1601E+01
      1.643  0.3385E+00  0.1640E+01
      1.756  0.4914E+00  0.1695E+01
      1.870  0.5034E+00  0.1753E+01
      1.984  0.2755E+00  0.1784E+01
      2.097  0.2576E+00  0.1813E+01
      2.211  0.3336E+00  0.1851E+01
      2.325  0.3082E+00  0.1886E+01
      2.439  0.3393E+00  0.1925E+01
      2.552  0.2062E+00  0.1948E+01
      2.666  0.1550E+00  0.1966E+01
      2.780  0.4004E+00  0.2012E+01
      2.893  0.2022E+00  0.2035E+01
      3.007  0.2052E+00  0.2058E+01
      3.121  0.5824E+00  0.2124E+01
      3.234  0.3650E+00  0.2166E+01
      3.348  0.4138E+00  0.2213E+01
      3.462  0.4785E+00  0.2267E+01
      3.576  0.6173E+00  0.2337E+01
      3.689  0.4392E+00  0.2387E+01
      3.803  0.4954E+00  0.2443E+01
      3.917  0.5488E+00  0.2506E+01
      4.030  0.5519E+00  0.2569E+01
      4.144  0.6178E+00  0.2639E+01
      4.258  0.4648E+00  0.2692E+01
      4.372  0.8974E+00  0.2794E+01
      4.485  0.8509E+00  0.2891E+01
      4.599  0.5705E+00  0.2955E+01
      4.713  0.5666E+00  0.3020E+01
      4.826  0.6283E+00  0.3091E+01
      4.940  0.4914E+00  0.3147E+01
      5.054  0.8285E+00  0.3241E+01
      5.168  0.6894E+00  0.3320E+01
      5.281  0.5759E+00  0.3385E+01
      5.395  0.6753E+00  0.3462E+01
      5.509  0.7075E+00  0.3543E+01
      5.622  0.3529E+00  0.3583E+01
      5.736  0.1435E+00  0.3599E+01
      5.850  0.9074E-02  0.3600E+01
      5.964  0.1844E-03  0.3600E+01
      6.077  0.1069E-08  0.3600E+01
      6.191  0.0000E+00  0.3600E+01
      6.305  0.0000E+00  0.3600E+01
      6.418  0.0000E+00  0.3600E+01
      6.532  0.0000E+00  0.3600E+01
      6.646  0.0000E+00  0.3600E+01
      6.759  0.0000E+00  0.3600E+01
      6.873  0.0000E+00  0.3600E+01
      6.987  0.0000E+00  0.3600E+01
      7.101  0.0000E+00  0.3600E+01
      7.214  0.0000E+00  0.3600E+01
      7.328  0.0000E+00  0.3600E+01
      7.442  0.0000E+00  0.3600E+01
      7.555  0.0000E+00  0.3600E+01
      7.669  0.0000E+00  0.3600E+01
      7.783  0.0000E+00  0.3600E+01
      7.897  0.0000E+00  0.3600E+01
      8.010  0.0000E+00  0.3600E+01
      8.124  0.0000E+00  0.3600E+01
      8.238  0.0000E+00  0.3600E+01
      8.351  0.0000E+00  0.3600E+01
      8.465  0.0000E+00  0.3600E+01
      8.579  0.0000E+00  0.3600E+01
      8.693  0.0000E+00  0.3600E+01
      8.806  0.0000E+00  0.3600E+01
      8.920  0.0000E+00  0.3600E+01
      9.034  0.0000E+00  0.3600E+01
      9.147  0.0000E+00  0.3600E+01
      9.261  0.0000E+00  0.3600E+01
      9.375  0.0000E+00  0.3600E+01
      9.488  0.0000E+00  0.3600E+01
      9.602  0.0000E+00  0.3600E+01
      9.716  0.0000E+00  0.3600E+01
      9.830  0.0000E+00  0.3600E+01
      9.943  0.0000E+00  0.3600E+01
     10.057  0.0000E+00  0.3600E+01
     10.171  0.0000E+00  0.3600E+01
     10.284  0.0000E+00  0.3600E+01
     10.398  0.0000E+00  0.3600E+01
     10.512  0.0000E+00  0.3600E+01
     10.626  0.0000E+00  0.3600E+01
     10.739  0.0000E+00  0.3600E+01
     10.853  0.0000E+00  0.3600E+01
     10.967  0.0000E+00  0.3600E+01
     11.080  0.0000E+00  0.3600E+01
     11.194  0.0000E+00  0.3600E+01
     11.308  0.3960E-09  0.3600E+01
     11.422  0.1194E-03  0.3600E+01
     11.535  0.5228E-02  0.3601E+01
     11.649  0.7600E-03  0.3601E+01
     11.763  0.3808E-07  0.3601E+01
     11.876  0.1384E-05  0.3601E+01
     11.990  0.3984E-02  0.3601E+01
     12.104  0.3233E-01  0.3605E+01
     12.217  0.1254E-01  0.3606E+01
     12.331  0.5301E-05  0.3606E+01
     12.445  0.1590E-02  0.3606E+01
     12.559  0.6318E-01  0.3614E+01
     12.672  0.8515E-02  0.3615E+01
     12.786  0.3839E-06  0.3615E+01
     12.900  0.7295E-03  0.3615E+01
     13.013  0.3305E-01  0.3618E+01
     13.127  0.1486E-01  0.3620E+01
     13.241  0.7707E-02  0.3621E+01
     13.355  0.8164E-01  0.3630E+01
     13.468  0.6170E-01  0.3637E+01
     13.582  0.4086E-01  0.3642E+01
     13.696  0.6286E-01  0.3649E+01
     13.809  0.1956E-02  0.3649E+01
     13.923  0.9248E-04  0.3649E+01
     14.037  0.2168E-01  0.3652E+01
     14.151  0.1006E+00  0.3663E+01
     14.264  0.7422E-01  0.3672E+01
     14.378  0.1838E+00  0.3693E+01
     14.492  0.7308E-01  0.3701E+01
     14.605  0.2441E-01  0.3704E+01
     14.719  0.8440E-01  0.3713E+01
     14.833  0.3761E+00  0.3756E+01
     14.946  0.1722E+00  0.3776E+01
     15.060  0.4009E+00  0.3821E+01
     15.174  0.3051E+00  0.3856E+01
     15.288  0.4305E+00  0.3905E+01
     15.401  0.2818E+00  0.3937E+01
     15.515  0.2864E+00  0.3969E+01
     15.629  0.3106E+00  0.4005E+01
     15.742  0.3587E+00  0.4046E+01
     15.856  0.4498E+00  0.4097E+01
     15.970  0.3968E+00  0.4142E+01
     16.084  0.2637E+00  0.4172E+01
     16.197  0.2435E+00  0.4199E+01
     16.311  0.3642E+00  0.4241E+01
     16.425  0.3898E+00  0.4285E+01
     16.538  0.1476E+00  0.4302E+01
     16.652  0.2266E+00  0.4328E+01
     16.766  0.1994E+00  0.4350E+01
     16.880  0.1136E+00  0.4363E+01
     16.993  0.1010E+00  0.4375E+01
     17.107  0.7982E-01  0.4384E+01
     17.221  0.7588E-01  0.4393E+01
     17.334  0.4986E-01  0.4398E+01
     17.448  0.3494E-02  0.4399E+01
     17.562  0.1493E-02  0.4399E+01
     17.675  0.1048E-01  0.4400E+01
     17.789  0.2452E-03  0.4400E+01
     17.903  0.8410E-09  0.4400E+01
     18.017  0.0000E+00  0.4400E+01
     18.130  0.0000E+00  0.4400E+01
     18.244  0.0000E+00  0.4400E+01
     18.358  0.0000E+00  0.4400E+01
     18.471  0.0000E+00  0.4400E+01
     18.585  0.0000E+00  0.4400E+01
     18.699  0.0000E+00  0.4400E+01
     18.813  0.0000E+00  0.4400E+01
     18.926  0.0000E+00  0.4400E+01
     19.040  0.0000E+00  0.4400E+01
     19.154  0.0000E+00  0.4400E+01
