   30   30   40    1
  0.8742005E+01  0.4805028E-09  0.4805028E-09  0.1311625E-08  0.2000000E-15
   1.0000000000000000E-004
  CAR 
 NiAl                                    
    144     14     88
 
  0.1262379E-14  0.1262379E-14  0.1262379E-14  0.1388889E-01
    1      -13.408301   1.000000
    2      -12.963318   1.000000
    3      -12.963304   1.000000
    4      -11.885428   1.000000
    5      -11.885396   1.000000
    6      -11.200024   1.000000
    7      -10.932745   1.000000
    8      -10.932738   1.000000
    9      -10.869537   1.000000
   10      -10.869530   1.000000
   11      -10.869518   1.000000
   12      -10.869512   1.000000
   13      -10.717057   1.000000
   14      -10.717047   1.000000
   15      -10.717035   1.000000
   16      -10.717025   1.000000
   17      -10.625390   1.000000
   18      -10.625381   1.000000
   19       -1.099084   1.000000
   20       -0.130898   1.000000
   21       -0.087968   1.000000
   22       -0.087953   1.000000
   23        0.259717   1.000000
   24        0.259743   1.000000
   25        0.332238   1.000000
   26        0.332314   1.000000
   27        0.575447   1.000000
   28        0.575449   1.000000
   29        0.731838   1.000000
   30        0.731863   1.000000
   31        0.731866   1.000000
   32        0.731891   1.000000
   33        1.349041   1.000000
   34        1.502462   1.000000
   35        1.502475   1.000000
   36        1.904814   1.000000
   37        1.904821   1.000000
   38        1.904832   1.000000
   39        1.904839   1.000000
   40        2.492341   1.000000
   41        2.770138   1.000000
   42        2.770154   1.000000
   43        2.794380   1.000000
   44        3.052507   1.000000
   45        3.052514   1.000000
   46        3.262431   1.000000
   47        3.262433   1.000000
   48        3.262530   1.000000
   49        3.262532   1.000000
   50        4.064439   1.000000
   51        4.064523   1.000000
   52        4.324913   1.000000
   53        4.324973   1.000000
   54        4.378747   1.000000
   55        4.378748   1.000000
   56        4.378776   1.000000
   57        4.378777   1.000000
   58        4.458592   1.000000
   59        4.458804   1.000000
   60        5.199748   1.000000
   61        5.199778   1.000000
   62        5.200145   1.000000
   63        5.200176   1.000000
   64        5.217934   1.000000
   65        5.218231   1.000000
   66        5.495483   1.000000
   67        5.495491   1.000000
   68        5.495954   1.000000
   69        5.495962   1.000000
   70        5.664554   1.000000
   71        5.665089   1.000000
   72        5.783395   1.000000
   73       11.494460   0.000000
   74       13.052495   0.000000
   75       13.052552   0.000000
   76       14.522277   0.000000
   77       14.522358   0.000000
   78       14.572959   0.000000
   79       16.051580   0.000000
   80       16.051587   0.000000
   81       16.085238   0.000000
   82       16.942540   0.000000
   83       16.942555   0.000000
   84       17.037291   0.000000
   85       17.037297   0.000000
   86       17.148075   0.000000
   87       17.602737   0.000000
   88       17.603128   0.000000
 
  0.1666667E+00  0.1230402E-14  0.1262379E-14  0.8333333E-01
    1      -13.285743   1.000000
    2      -12.852021   1.000000
    3      -12.849880   1.000000
    4      -11.826111   1.000000
    5      -11.811583   1.000000
    6      -11.239206   1.000000
    7      -11.143719   1.000000
    8      -11.068319   1.000000
    9      -10.991219   1.000000
   10      -10.985126   1.000000
   11      -10.955434   1.000000
   12      -10.894737   1.000000
   13      -10.808174   1.000000
   14      -10.769825   1.000000
   15      -10.667744   1.000000
   16      -10.659522   1.000000
   17      -10.605389   1.000000
   18      -10.601376   1.000000
   19       -0.985025   1.000000
   20       -0.392598   1.000000
   21       -0.173034   1.000000
   22       -0.038449   1.000000
   23        0.015102   1.000000
   24        0.113399   1.000000
   25        0.118066   1.000000
   26        0.140045   1.000000
   27        0.350591   1.000000
   28        0.840921   1.000000
   29        0.859961   1.000000
   30        1.036923   1.000000
   31        1.096107   1.000000
   32        1.208999   1.000000
   33        1.283778   1.000000
   34        1.344177   1.000000
   35        1.821994   1.000000
   36        1.879747   1.000000
   37        2.024985   1.000000
   38        2.143447   1.000000
   39        2.344479   1.000000
   40        2.632472   1.000000
   41        2.680257   1.000000
   42        2.997781   1.000000
   43        3.083877   1.000000
   44        3.111976   1.000000
   45        3.124412   1.000000
   46        3.285323   1.000000
   47        3.400553   1.000000
   48        3.605025   1.000000
   49        3.740900   1.000000
   50        3.889297   1.000000
   51        4.001703   1.000000
   52        4.058555   1.000000
   53        4.061470   1.000000
   54        4.080528   1.000000
   55        4.330586   1.000000
   56        4.335233   1.000000
   57        4.464870   1.000000
   58        4.480352   1.000000
   59        4.671916   1.000000
   60        4.835514   1.000000
   61        4.875161   1.000000
   62        4.989854   1.000000
   63        5.015648   1.000000
   64        5.031932   1.000000
   65        5.182207   1.000000
   66        5.277216   1.000000
   67        5.358697   1.000000
   68        5.371288   1.000000
   69        5.398556   1.000000
   70        5.427692   1.000000
   71        5.646874   1.000000
   72        5.686600   1.000000
   73       12.089315   0.000000
   74       13.462657   0.000000
   75       13.463473   0.000000
   76       14.975624   0.000000
   77       14.976116   0.000000
   78       15.068424   0.000000
   79       15.618238   0.000000
   80       16.171092   0.000000
   81       16.179191   0.000000
   82       16.246965   0.000000
   83       16.541195   0.000000
   84       16.659270   0.000000
   85       16.760015   0.000000
   86       16.836591   0.000000
   87       17.018130   0.000000
   88       17.183304   0.000000
 
  0.3333333E+00  0.1222317E-14  0.1262379E-14  0.8333333E-01
    1      -12.931984   1.000000
    2      -12.555300   1.000000
    3      -12.528602   1.000000
    4      -11.901957   1.000000
    5      -11.617453   1.000000
    6      -11.568983   1.000000
    7      -11.367063   1.000000
    8      -11.352827   1.000000
    9      -11.215617   1.000000
   10      -11.086958   1.000000
   11      -11.044126   1.000000
   12      -10.920210   1.000000
   13      -10.898561   1.000000
   14      -10.834018   1.000000
   15      -10.775257   1.000000
   16      -10.721799   1.000000
   17      -10.597925   1.000000
   18      -10.576827   1.000000
   19       -0.796130   1.000000
   20       -0.457366   1.000000
   21       -0.310789   1.000000
   22       -0.273823   1.000000
   23       -0.123573   1.000000
   24       -0.086747   1.000000
   25        0.031721   1.000000
   26        0.413800   1.000000
   27        0.624527   1.000000
   28        0.684300   1.000000
   29        1.166889   1.000000
   30        1.228941   1.000000
   31        1.382003   1.000000
   32        1.406973   1.000000
   33        1.441113   1.000000
   34        1.660961   1.000000
   35        1.785035   1.000000
   36        2.093894   1.000000
   37        2.288455   1.000000
   38        2.436562   1.000000
   39        2.679661   1.000000
   40        2.919187   1.000000
   41        3.054564   1.000000
   42        3.056087   1.000000
   43        3.198080   1.000000
   44        3.300870   1.000000
   45        3.445123   1.000000
   46        3.470048   1.000000
   47        3.478884   1.000000
   48        3.597851   1.000000
   49        3.707911   1.000000
   50        3.847403   1.000000
   51        4.005879   1.000000
   52        4.013083   1.000000
   53        4.049005   1.000000
   54        4.128843   1.000000
   55        4.137822   1.000000
   56        4.153799   1.000000
   57        4.354160   1.000000
   58        4.384240   1.000000
   59        4.411577   1.000000
   60        4.507056   1.000000
   61        4.678994   1.000000
   62        4.769226   1.000000
   63        4.832840   1.000000
   64        4.967076   1.000000
   65        5.050952   1.000000
   66        5.164351   1.000000
   67        5.174596   1.000000
   68        5.215365   1.000000
   69        5.277062   1.000000
   70        5.301082   1.000000
   71        5.531894   1.000000
   72        5.561845   1.000000
   73       13.356161   0.000000
   74       14.330597   0.000000
   75       14.343827   0.000000
   76       14.969036   0.000000
   77       15.127067   0.000000
   78       15.667442   0.000000
   79       15.706348   0.000000
   80       15.779739   0.000000
   81       15.924389   0.000000
   82       15.991698   0.000000
   83       15.998678   0.000000
   84       16.150484   0.000000
   85       16.172454   0.000000
   86       16.323233   0.000000
   87       16.548233   0.000000
   88       16.603046   0.000000
 
  0.5000000E+00  0.1226443E-14  0.1262379E-14  0.4166667E-01
    1      -12.415271   1.000000
    2      -12.415270   1.000000
    3      -12.299562   1.000000
    4      -12.062938   1.000000
    5      -12.062935   1.000000
    6      -11.660755   1.000000
    7      -11.462413   1.000000
    8      -11.282763   1.000000
    9      -11.150234   1.000000
   10      -11.150232   1.000000
   11      -11.081138   1.000000
   12      -11.081138   1.000000
   13      -11.046898   1.000000
   14      -10.791158   1.000000
   15      -10.791143   1.000000
   16      -10.701013   1.000000
   17      -10.701011   1.000000
   18      -10.581453   1.000000
   19       -0.707413   1.000000
   20       -0.707375   1.000000
   21       -0.363842   1.000000
   22       -0.185874   1.000000
   23       -0.185825   1.000000
   24        0.063689   1.000000
   25        0.424224   1.000000
   26        0.424292   1.000000
   27        0.752247   1.000000
   28        0.752251   1.000000
   29        1.066005   1.000000
   30        1.136381   1.000000
   31        1.580070   1.000000
   32        1.703591   1.000000
   33        1.703598   1.000000
   34        1.804818   1.000000
   35        1.980439   1.000000
   36        2.058498   1.000000
   37        2.058544   1.000000
   38        2.341687   1.000000
   39        2.341708   1.000000
   40        2.495915   1.000000
   41        3.099096   1.000000
   42        3.099171   1.000000
   43        3.207523   1.000000
   44        3.408082   1.000000
   45        3.408142   1.000000
   46        3.434639   1.000000
   47        3.602498   1.000000
   48        3.602515   1.000000
   49        3.708946   1.000000
   50        3.709014   1.000000
   51        3.981096   1.000000
   52        4.194611   1.000000
   53        4.216063   1.000000
   54        4.216097   1.000000
   55        4.373952   1.000000
   56        4.373974   1.000000
   57        4.382203   1.000000
   58        4.428508   1.000000
   59        4.525449   1.000000
   60        4.525471   1.000000
   61        4.620953   1.000000
   62        4.620967   1.000000
   63        4.711781   1.000000
   64        4.812729   1.000000
   65        4.999459   1.000000
   66        5.016751   1.000000
   67        5.016820   1.000000
   68        5.315012   1.000000
   69        5.315021   1.000000
   70        5.412083   1.000000
   71        5.412087   1.000000
   72        5.462093   1.000000
   73       14.661323   0.000000
   74       14.661364   0.000000
   75       14.756938   0.000000
   76       14.756940   0.000000
   77       15.017410   0.000000
   78       15.105572   0.000000
   79       15.105599   0.000000
   80       15.172814   0.000000
   81       15.298437   0.000000
   82       15.545908   0.000000
   83       15.545940   0.000000
   84       15.810187   0.000000
   85       16.603331   0.000000
   86       16.673683   0.000000
   87       16.717216   0.000000
   88       16.745823   0.000000
 
  0.1666667E+00  0.1666667E+00  0.1262379E-14  0.8333333E-01
    1      -13.046494   1.000000
    2      -12.639271   1.000000
    3      -12.639260   1.000000
    4      -11.743093   1.000000
    5      -11.743076   1.000000
    6      -11.419685   1.000000
    7      -11.295226   1.000000
    8      -11.295214   1.000000
    9      -11.135038   1.000000
   10      -11.135036   1.000000
   11      -11.119591   1.000000
   12      -10.922299   1.000000
   13      -10.805604   1.000000
   14      -10.805599   1.000000
   15      -10.752673   1.000000
   16      -10.727635   1.000000
   17      -10.576120   1.000000
   18      -10.576117   1.000000
   19       -0.765925   1.000000
   20       -0.431548   1.000000
   21       -0.201375   1.000000
   22       -0.201372   1.000000
   23       -0.009962   1.000000
   24        0.044866   1.000000
   25        0.044890   1.000000
   26        0.162738   1.000000
   27        0.162768   1.000000
   28        0.685388   1.000000
   29        1.218189   1.000000
   30        1.218201   1.000000
   31        1.286561   1.000000
   32        1.461082   1.000000
   33        1.513047   1.000000
   34        1.513066   1.000000
   35        1.808222   1.000000
   36        1.808247   1.000000
   37        2.319972   1.000000
   38        2.319983   1.000000
   39        2.733681   1.000000
   40        2.733692   1.000000
   41        3.077252   1.000000
   42        3.077304   1.000000
   43        3.143360   1.000000
   44        3.307316   1.000000
   45        3.512984   1.000000
   46        3.539002   1.000000
   47        3.539010   1.000000
   48        3.657851   1.000000
   49        3.691387   1.000000
   50        3.691428   1.000000
   51        3.813234   1.000000
   52        4.003869   1.000000
   53        4.003947   1.000000
   54        4.095719   1.000000
   55        4.192640   1.000000
   56        4.321686   1.000000
   57        4.321696   1.000000
   58        4.448355   1.000000
   59        4.565643   1.000000
   60        4.565743   1.000000
   61        4.671188   1.000000
   62        4.671240   1.000000
   63        4.890833   1.000000
   64        5.106027   1.000000
   65        5.106061   1.000000
   66        5.145328   1.000000
   67        5.145381   1.000000
   68        5.205935   1.000000
   69        5.314088   1.000000
   70        5.314106   1.000000
   71        5.582725   1.000000
   72        5.646171   1.000000
   73       12.972408   0.000000
   74       14.071115   0.000000
   75       14.071160   0.000000
   76       15.222038   0.000000
   77       15.566382   0.000000
   78       15.566459   0.000000
   79       15.749050   0.000000
   80       15.750085   0.000000
   81       15.750113   0.000000
   82       15.910218   0.000000
   83       16.184050   0.000000
   84       16.322076   0.000000
   85       16.322085   0.000000
   86       16.409622   0.000000
   87       16.409646   0.000000
   88       16.801767   0.000000
 
  0.3333333E+00  0.1666667E+00  0.1262379E-14  0.1666667E+00
    1      -12.610477   1.000000
    2      -12.312190   1.000000
    3      -12.256071   1.000000
    4      -12.075906   1.000000
    5      -11.796763   1.000000
    6      -11.695295   1.000000
    7      -11.520955   1.000000
    8      -11.272651   1.000000
    9      -11.251621   1.000000
   10      -11.243691   1.000000
   11      -11.206914   1.000000
   12      -10.960641   1.000000
   13      -10.952607   1.000000
   14      -10.822599   1.000000
   15      -10.806802   1.000000
   16      -10.760713   1.000000
   17      -10.624624   1.000000
   18      -10.576155   1.000000
   19       -0.570227   1.000000
   20       -0.434852   1.000000
   21       -0.140444   1.000000
   22       -0.131506   1.000000
   23       -0.015025   1.000000
   24       -0.001397   1.000000
   25        0.079088   1.000000
   26        0.480372   1.000000
   27        0.601560   1.000000
   28        0.734163   1.000000
   29        0.901011   1.000000
   30        1.217602   1.000000
   31        1.364160   1.000000
   32        1.401802   1.000000
   33        1.594410   1.000000
   34        1.652304   1.000000
   35        1.676677   1.000000
   36        1.974777   1.000000
   37        2.302579   1.000000
   38        2.331244   1.000000
   39        2.577810   1.000000
   40        2.754979   1.000000
   41        2.832931   1.000000
   42        3.078357   1.000000
   43        3.133867   1.000000
   44        3.209792   1.000000
   45        3.306719   1.000000
   46        3.505768   1.000000
   47        3.590912   1.000000
   48        3.691298   1.000000
   49        3.816833   1.000000
   50        3.990208   1.000000
   51        4.018594   1.000000
   52        4.151542   1.000000
   53        4.233454   1.000000
   54        4.281151   1.000000
   55        4.287191   1.000000
   56        4.352970   1.000000
   57        4.389432   1.000000
   58        4.446558   1.000000
   59        4.498353   1.000000
   60        4.640689   1.000000
   61        4.700825   1.000000
   62        4.754930   1.000000
   63        4.763608   1.000000
   64        4.970228   1.000000
   65        4.970468   1.000000
   66        5.077810   1.000000
   67        5.130833   1.000000
   68        5.213554   1.000000
   69        5.315564   1.000000
   70        5.390333   1.000000
   71        5.401030   1.000000
   72        5.515560   1.000000
   73       14.149117   0.000000
   74       14.741053   0.000000
   75       14.748531   0.000000
   76       14.793041   0.000000
   77       14.885686   0.000000
   78       15.232331   0.000000
   79       15.271659   0.000000
   80       15.317019   0.000000
   81       15.448399   0.000000
   82       15.673846   0.000000
   83       15.752937   0.000000
   84       15.771620   0.000000
   85       16.255323   0.000000
   86       16.310349   0.000000
   87       16.315961   0.000000
   88       16.384921   0.000000
 
  0.3333333E+00  0.3333333E+00  0.1262379E-14  0.2777778E-01
    1      -12.149385   1.000000
    2      -12.149382   1.000000
    3      -12.149381   1.000000
    4      -12.023653   1.000000
    5      -12.023651   1.000000
    6      -12.023649   1.000000
    7      -11.484358   1.000000
    8      -11.484344   1.000000
    9      -11.484340   1.000000
   10      -11.064934   1.000000
   11      -11.064928   1.000000
   12      -11.064925   1.000000
   13      -10.936605   1.000000
   14      -10.936584   1.000000
   15      -10.936580   1.000000
   16      -10.635641   1.000000
   17      -10.635629   1.000000
   18      -10.635628   1.000000
   19       -0.213535   1.000000
   20       -0.213473   1.000000
   21       -0.213452   1.000000
   22        0.132193   1.000000
   23        0.132212   1.000000
   24        0.132228   1.000000
   25        0.561097   1.000000
   26        0.561187   1.000000
   27        0.561198   1.000000
   28        0.589231   1.000000
   29        0.589235   1.000000
   30        0.589310   1.000000
   31        1.277189   1.000000
   32        1.277208   1.000000
   33        1.277216   1.000000
   34        1.881557   1.000000
   35        1.881624   1.000000
   36        1.881638   1.000000
   37        2.065971   1.000000
   38        2.065985   1.000000
   39        2.066168   1.000000
   40        2.872331   1.000000
   41        2.872370   1.000000
   42        2.872456   1.000000
   43        3.093739   1.000000
   44        3.093852   1.000000
   45        3.093886   1.000000
   46        3.830086   1.000000
   47        3.830316   1.000000
   48        3.830331   1.000000
   49        3.953435   1.000000
   50        3.953442   1.000000
   51        3.953644   1.000000
   52        4.291305   1.000000
   53        4.291313   1.000000
   54        4.291334   1.000000
   55        4.483269   1.000000
   56        4.483347   1.000000
   57        4.483376   1.000000
   58        4.709168   1.000000
   59        4.709176   1.000000
   60        4.709297   1.000000
   61        4.713842   1.000000
   62        4.713884   1.000000
   63        4.713985   1.000000
   64        4.968718   1.000000
   65        4.968746   1.000000
   66        4.968824   1.000000
   67        5.252727   1.000000
   68        5.252740   1.000000
   69        5.252818   1.000000
   70        5.444331   1.000000
   71        5.444509   1.000000
   72        5.444532   1.000000
   73       14.800919   0.000000
   74       14.800929   0.000000
   75       14.800982   0.000000
   76       14.837117   0.000000
   77       14.837162   0.000000
   78       14.837186   0.000000
   79       14.984357   0.000000
   80       14.984366   0.000000
   81       14.984408   0.000000
   82       15.895820   0.000000
   83       15.895825   0.000000
   84       15.895841   0.000000
   85       15.897580   0.000000
   86       15.897652   0.000000
   87       15.897676   0.000000
   88       16.111287   0.000000
 
  0.1262379E-14  0.1262379E-14  0.5000000E+00  0.1388889E-01
    1      -13.294908   1.000000
    2      -13.294848   1.000000
    3      -12.462231   1.000000
    4      -12.462222   1.000000
    5      -11.396534   1.000000
    6      -11.396481   1.000000
    7      -10.917246   1.000000
    8      -10.917240   1.000000
    9      -10.917188   1.000000
   10      -10.917182   1.000000
   11      -10.799047   1.000000
   12      -10.799042   1.000000
   13      -10.799037   1.000000
   14      -10.799032   1.000000
   15      -10.651294   1.000000
   16      -10.651285   1.000000
   17      -10.651237   1.000000
   18      -10.651228   1.000000
   19       -0.732294   1.000000
   20       -0.732240   1.000000
   21       -0.106557   1.000000
   22       -0.106502   1.000000
   23        0.167624   1.000000
   24        0.167632   1.000000
   25        0.367942   1.000000
   26        0.367966   1.000000
   27        0.367992   1.000000
   28        0.368018   1.000000
   29        1.069930   1.000000
   30        1.069975   1.000000
   31        1.350252   1.000000
   32        1.350255   1.000000
   33        1.350269   1.000000
   34        1.350272   1.000000
   35        1.633509   1.000000
   36        1.633517   1.000000
   37        1.704283   1.000000
   38        1.704299   1.000000
   39        1.704334   1.000000
   40        1.704350   1.000000
   41        2.652769   1.000000
   42        2.652823   1.000000
   43        2.919012   1.000000
   44        2.919056   1.000000
   45        3.484405   1.000000
   46        3.484418   1.000000
   47        3.739878   1.000000
   48        3.739886   1.000000
   49        3.739936   1.000000
   50        3.739949   1.000000
   51        3.746864   1.000000
   52        3.746875   1.000000
   53        3.746882   1.000000
   54        3.746892   1.000000
   55        4.595111   1.000000
   56        4.595136   1.000000
   57        4.595280   1.000000
   58        4.595304   1.000000
   59        5.143053   1.000000
   60        5.143104   1.000000
   61        5.221676   1.000000
   62        5.221721   1.000000
   63        5.221929   1.000000
   64        5.221974   1.000000
   65        5.305789   1.000000
   66        5.305794   1.000000
   67        5.306324   1.000000
   68        5.306329   1.000000
   69        5.628313   1.000000
   70        5.628365   1.000000
   71        5.628796   1.000000
   72        5.628847   1.000000
   73       12.006692   0.000000
   74       12.006746   0.000000
   75       14.009116   0.000000
   76       14.009141   0.000000
   77       14.600677   0.000000
   78       14.600729   0.000000
   79       15.992297   0.000000
   80       15.992341   0.000000
   81       16.531739   0.000000
   82       16.531787   0.000000
   83       17.074401   0.000000
   84       17.074417   0.000000
   85       17.074441   0.000000
   86       17.074457   0.000000
   87       17.136048   0.000000
   88       17.136103   0.000000
 
  0.1666667E+00  0.1230402E-14  0.5000000E+00  0.8333333E-01
    1      -13.174055   1.000000
    2      -13.173485   1.000000
    3      -12.369222   1.000000
    4      -12.363845   1.000000
    5      -11.401970   1.000000
    6      -11.361870   1.000000
    7      -11.089939   1.000000
    8      -11.088682   1.000000
    9      -11.058150   1.000000
   10      -11.000694   1.000000
   11      -10.927556   1.000000
   12      -10.885612   1.000000
   13      -10.800812   1.000000
   14      -10.767805   1.000000
   15      -10.700082   1.000000
   16      -10.650506   1.000000
   17      -10.598216   1.000000
   18      -10.597529   1.000000
   19       -0.673494   1.000000
   20       -0.651741   1.000000
   21       -0.345759   1.000000
   22       -0.261334   1.000000
   23       -0.014219   1.000000
   24        0.020672   1.000000
   25        0.194377   1.000000
   26        0.258266   1.000000
   27        0.797016   1.000000
   28        0.876972   1.000000
   29        0.894711   1.000000
   30        0.919591   1.000000
   31        1.010376   1.000000
   32        1.089958   1.000000
   33        1.510321   1.000000
   34        1.531596   1.000000
   35        1.752265   1.000000
   36        1.841895   1.000000
   37        1.988365   1.000000
   38        2.187751   1.000000
   39        2.200915   1.000000
   40        2.213027   1.000000
   41        2.983674   1.000000
   42        3.070506   1.000000
   43        3.110622   1.000000
   44        3.129460   1.000000
   45        3.280072   1.000000
   46        3.292258   1.000000
   47        3.348838   1.000000
   48        3.422490   1.000000
   49        3.474162   1.000000
   50        3.882487   1.000000
   51        3.997462   1.000000
   52        4.118740   1.000000
   53        4.126628   1.000000
   54        4.320016   1.000000
   55        4.352395   1.000000
   56        4.375830   1.000000
   57        4.409000   1.000000
   58        4.435113   1.000000
   59        4.711197   1.000000
   60        4.921219   1.000000
   61        4.925213   1.000000
   62        5.018850   1.000000
   63        5.068753   1.000000
   64        5.100745   1.000000
   65        5.162339   1.000000
   66        5.187966   1.000000
   67        5.220604   1.000000
   68        5.233038   1.000000
   69        5.496759   1.000000
   70        5.538371   1.000000
   71        5.578577   1.000000
   72        5.625264   1.000000
   73       12.515131   0.000000
   74       12.517578   0.000000
   75       14.411098   0.000000
   76       14.413171   0.000000
   77       15.085973   0.000000
   78       15.090607   0.000000
   79       15.747904   0.000000
   80       15.876957   0.000000
   81       16.285860   0.000000
   82       16.345010   0.000000
   83       16.502678   0.000000
   84       16.605788   0.000000
   85       16.900065   0.000000
   86       16.908926   0.000000
   87       16.988863   0.000000
   88       17.205404   0.000000
 
  0.3333333E+00  0.1222317E-14  0.5000000E+00  0.8333333E-01
    1      -12.834846   1.000000
    2      -12.826257   1.000000
    3      -12.175101   1.000000
    4      -12.089703   1.000000
    5      -11.756419   1.000000
    6      -11.495288   1.000000
    7      -11.392216   1.000000
    8      -11.209341   1.000000
    9      -11.168785   1.000000
   10      -11.086874   1.000000
   11      -11.035285   1.000000
   12      -11.000481   1.000000
   13      -10.929192   1.000000
   14      -10.883574   1.000000
   15      -10.740969   1.000000
   16      -10.649842   1.000000
   17      -10.611373   1.000000
   18      -10.609755   1.000000
   19       -0.673202   1.000000
   20       -0.532434   1.000000
   21       -0.397535   1.000000
   22       -0.330302   1.000000
   23       -0.310300   1.000000
   24        0.025709   1.000000
   25        0.338629   1.000000
   26        0.526656   1.000000
   27        0.565175   1.000000
   28        0.810865   1.000000
   29        0.833347   1.000000
   30        0.876337   1.000000
   31        1.254988   1.000000
   32        1.528012   1.000000
   33        1.703689   1.000000
   34        1.712178   1.000000
   35        2.048765   1.000000
   36        2.125772   1.000000
   37        2.238235   1.000000
   38        2.379103   1.000000
   39        2.742494   1.000000
   40        2.897570   1.000000
   41        2.899544   1.000000
   42        3.141830   1.000000
   43        3.232433   1.000000
   44        3.279575   1.000000
   45        3.284757   1.000000
   46        3.456568   1.000000
   47        3.459397   1.000000
   48        3.544780   1.000000
   49        3.627321   1.000000
   50        3.858090   1.000000
   51        3.867364   1.000000
   52        3.945934   1.000000
   53        4.075426   1.000000
   54        4.119244   1.000000
   55        4.221202   1.000000
   56        4.298858   1.000000
   57        4.373561   1.000000
   58        4.434111   1.000000
   59        4.563884   1.000000
   60        4.681088   1.000000
   61        4.702650   1.000000
   62        4.766993   1.000000
   63        4.837943   1.000000
   64        4.919358   1.000000
   65        5.011870   1.000000
   66        5.054005   1.000000
   67        5.072712   1.000000
   68        5.135087   1.000000
   69        5.402231   1.000000
   70        5.427416   1.000000
   71        5.438290   1.000000
   72        5.504739   1.000000
   73       13.616948   0.000000
   74       13.633959   0.000000
   75       15.200744   0.000000
   76       15.203555   0.000000
   77       15.213308   0.000000
   78       15.387008   0.000000
   79       15.403892   0.000000
   80       15.534142   0.000000
   81       15.711463   0.000000
   82       15.921260   0.000000
   83       16.033020   0.000000
   84       16.099181   0.000000
   85       16.126351   0.000000
   86       16.312745   0.000000
   87       16.428771   0.000000
   88       16.646422   0.000000
 
  0.5000000E+00  0.1226443E-14  0.5000000E+00  0.4166667E-01
    1      -12.371049   1.000000
    2      -12.371007   1.000000