       N       E                     dE             d eps       ncg     rms          rms(c)
DAV:   1     0.893993874342E+03    0.89399E+03   -0.61821E+04  2472   0.120E+03
DAV:   2    -0.164436092334E+03   -0.10584E+04   -0.10237E+04  3248   0.416E+02
DAV:   3    -0.241219377622E+03   -0.76783E+02   -0.76261E+02  3224   0.108E+02
DAV:   4    -0.244072577162E+03   -0.28532E+01   -0.28445E+01  3336   0.227E+01
DAV:   5    -0.244164658702E+03   -0.92082E-01   -0.91950E-01  3072   0.421E+00    0.336E+01
DAV:   6    -0.222060519084E+03    0.22104E+02   -0.95084E+01  3560   0.413E+01    0.278E+01
DAV:   7    -0.221933013241E+03    0.12751E+00   -0.14680E+00  3152   0.419E+00    0.210E+01
DAV:   8    -0.221907431113E+03    0.25582E-01   -0.64183E-01  2904   0.585E+00    0.390E+00
DAV:   9    -0.221884972656E+03    0.22458E-01   -0.78566E-02  3560   0.158E+00    0.622E-01
DAV:  10    -0.221887072961E+03   -0.21003E-02   -0.24463E-03  2928   0.201E-01    0.340E-01
DAV:  11    -0.221887596757E+03   -0.52380E-03   -0.12608E-03  2904   0.154E-01    0.527E-02
DAV:  12    -0.221887590128E+03    0.66294E-05   -0.65466E-05  2944   0.383E-02    0.250E-02
DAV:  13    -0.221887589629E+03    0.49885E-06   -0.61948E-06  3200   0.998E-03    0.148E-02
DAV:  14    -0.221887588034E+03    0.15946E-05   -0.98349E-07  2976   0.467E-03    0.525E-03
DAV:  15    -0.221887587219E+03    0.81495E-06   -0.17858E-07  2176   0.160E-03    0.315E-03
DAV:  16    -0.221887587196E+03    0.22942E-07   -0.13213E-08  1880   0.613E-04
   1 F= -.22878991E+03 E0= -.22878991E+03  d E =-.228790E+03
       N       E                     dE             d eps       ncg     rms          rms(c)
DAV:   1    -0.221887647399E+03   -0.60180E-04   -0.29116E-03  2736   0.261E-01    0.715E-03
DAV:   2    -0.221887650935E+03   -0.35354E-05   -0.38822E-05  3328   0.274E-02    0.761E-03
DAV:   3    -0.221887650838E+03    0.96593E-07   -0.38744E-07  2520   0.323E-03    0.635E-03
DAV:   4    -0.221887650587E+03    0.25064E-06   -0.11698E-06  2680   0.506E-03    0.336E-03
DAV:   5    -0.221887650580E+03    0.69799E-08   -0.16817E-07  1896   0.154E-03    0.307E-03
DAV:   6    -0.221887650548E+03    0.32238E-07   -0.18665E-08  1712   0.877E-04
   2 F= -.22878996E+03 E0= -.22878996E+03  d E =-.452532E-04
       N       E                     dE             d eps       ncg     rms          rms(c)
DAV:   1    -0.221887715956E+03   -0.65375E-04   -0.14710E-02  2672   0.587E-01    0.148E-02
DAV:   2    -0.221887733689E+03   -0.17733E-04   -0.19642E-04  3328   0.616E-02    0.162E-02
DAV:   3    -0.221887733164E+03    0.52517E-06   -0.20828E-06  3224   0.724E-03    0.131E-02
DAV:   4    -0.221887732124E+03    0.10394E-05   -0.51189E-06  2904   0.107E-02    0.462E-03
DAV:   5    -0.221887732160E+03   -0.35416E-07   -0.86766E-07  2896   0.332E-03    0.325E-03
DAV:   6    -0.221887732088E+03    0.71818E-07   -0.39853E-08  1808   0.125E-03
   3 F= -.22879000E+03 E0= -.22879000E+03  d E =-.861461E-04
       N       E                     dE             d eps       ncg     rms          rms(c)
DAV:   1    -0.221887728461E+03    0.36984E-05   -0.22734E-04  2696   0.709E-02    0.577E-03
DAV:   2    -0.221887728762E+03   -0.30084E-06   -0.39326E-06  3248   0.725E-03    0.321E-03
DAV:   3    -0.221887728749E+03    0.12934E-07   -0.57336E-08  1888   0.127E-03    0.306E-03
DAV:   4    -0.221887728772E+03   -0.22448E-07   -0.91360E-08  1768   0.144E-03    0.296E-03
DAV:   5    -0.221887728778E+03   -0.59299E-08   -0.18765E-08  1544   0.673E-04    0.296E-03
DAV:   6    -0.221887728787E+03   -0.92150E-08   -0.44976E-09  1544   0.451E-04
   4 F= -.22879000E+03 E0= -.22879000E+03  d E =-.786696E-06
       N       E                     dE             d eps       ncg     rms          rms(c)
DAV:   1    -0.221887727066E+03    0.17121E-05   -0.42987E-05  2696   0.308E-02    0.351E-03
DAV:   2    -0.221887727112E+03   -0.46840E-07   -0.73739E-07  2752   0.323E-03    0.302E-03
DAV:   3    -0.221887727115E+03   -0.23847E-08   -0.21430E-08  1568   0.755E-04    0.299E-03
DAV:   4    -0.221887727129E+03   -0.13818E-07   -0.22206E-08  1520   0.757E-04    0.296E-03
DAV:   5    -0.221887727130E+03   -0.16807E-08   -0.49793E-09  1520   0.333E-04    0.296E-03
DAV:   6    -0.221887727134E+03   -0.34788E-08   -0.10111E-09  1520   0.165E-04
   5 F= -.22879000E+03 E0= -.22879000E+03  d E =-.902553E-06
