/store/Terry_project/NiAlO_EDIP_fitting_DFT/DATA/PureAl2O3/PureAl2O3_iter_last_no_ox_lmp.data (written by ASE) 

12 	 atoms 
1  atom types
0.0      4.8050279600000003  xlo xhi
0.0              4.16127628  ylo yhi
0.0             13.11625385  zlo zhi
    -2.4025139800000002                       0                       0  xy xz yz


Atoms 

     1   1                       0                       0      1.9392160964160321
     2   1 -4.8050279590607503e-08      2.7741842421503509      0.2468262556381475
     3   1 -4.8050279590607503e-08      2.7741842421503509      4.1252581861451345
     4   1      2.4025139800000002      1.3870921210751754      2.4328684765297885
     5   1      2.4025139800000002      1.3870921210751754      6.3113005381993137
     6   1                       0                       0       4.618910566258891
     7   1                       0                       0      8.4973423656033393
     8   1 -4.8050279590607503e-08      2.7741842421503509      6.8049527871505324
     9   1 -4.8050279590607503e-08      2.7741842421503509      10.683385111145132
    10   1      2.4025139800000002      1.3870921210751754      8.9909951392047116
    11   1      2.4025139800000002      1.3870921210751754      12.869427987849466
    12   1                       0                       0      11.177037884746506
