<?xml version="1.0" encoding="ISO-8859-1"?>
<modeling>
 <generator>
  <i name="program" type="string">vasp </i>
  <i name="version" type="string">6.2.1  </i>
  <i name="subversion" type="string">16May21 (build Jun 16 2021 03:23:30) complex                          parallel </i>
  <i name="platform" type="string">LinuxPGI </i>
  <i name="date" type="string">2022 04 24 </i>
  <i name="time" type="string">18:32:47 </i>
 </generator>
 <incar>
  <i type="string" name="SYSTEM">NiAl</i>
  <i type="int" name="ISTART">     0</i>
  <i type="int" name="NELMIN">     6</i>
  <i type="int" name="IBRION">     2</i>
  <i name="EDIFF">      0.00000010</i>
  <i type="int" name="NSW">    40</i>
  <i type="int" name="ISIF">     1</i>
  <i name="ENCUT">    360.00000000</i>
  <i name="POTIM">      0.20000000</i>
  <i type="string" name="LREAL">Auto</i>
  <i type="logical" name="LPLANE"> T  </i>
  <i type="int" name="ISMEAR">     0</i>
  <i name="SIGMA">      0.05000000</i>
  <i type="logical" name="LWAVE"> F  </i>
  <i type="logical" name="LCHARG"> F  </i>
  <i type="int" name="IVDW">    12</i>
 </incar>
 <primitive_cell>
  <structure name="primitive_cell" >
   <crystal>
    <varray name="basis" >
     <v>       0.00000005      -2.77418423       4.37208510 </v>
     <v>       2.40251388       1.38709217       4.37208366 </v>
     <v>      -2.40251393       1.38709205       4.37208510 </v>
    </varray>
    <i name="volume">     87.42004426 </i>
    <varray name="rec_basis" >
     <v>       0.00000003      -0.24031087       0.07624128 </v>
     <v>       0.20811536       0.12015546       0.07624128 </v>
     <v>      -0.20811532       0.12015545       0.07624128 </v>
    </varray>
   </crystal>
   <varray name="positions" >
    <v>       0.14790399       0.14790399       0.14790399 </v>
    <v>       0.35209598       0.35209598       0.35209598 </v>
    <v>       0.64790395       0.64790395       0.64790395 </v>
    <v>       0.85209602       0.85209602       0.85209602 </v>
    <v>       0.25000004       0.55614605       0.94385401 </v>
    <v>       0.05614608       0.75000009       0.44385402 </v>
    <v>       0.94385414       0.25000012       0.55614607 </v>
    <v>       0.55614605       0.94385406       0.25000007 </v>
    <v>       0.44385409       0.05614615       0.75000005 </v>
    <v>       0.74999998       0.44385398       0.05614600 </v>
   </varray>
  </structure>
  <varray name="primitive_index" >
   <v type="int" >        1 </v>
   <v type="int" >        6 </v>
   <v type="int" >        7 </v>
   <v type="int" >       12 </v>
   <v type="int" >       13 </v>
   <v type="int" >       14 </v>
   <v type="int" >       15 </v>
   <v type="int" >       28 </v>
   <v type="int" >       17 </v>
   <v type="int" >       24 </v>
  </varray>
 </primitive_cell>
 <kpoints>
  <generation param="Gamma">
   <v type="int" name="divisions">       6        6        2 </v>
   <v name="usershift">      0.00000000       0.00000000       0.00000000 </v>
   <v name="genvec1">      0.16666667       0.00000000       0.00000000 </v>
   <v name="genvec2">      0.00000000       0.16666667       0.00000000 </v>
   <v name="genvec3">      0.00000000       0.00000000       0.50000000 </v>
   <v name="shift">      0.00000000       0.00000000       0.00000000 </v>
  </generation>
  <varray name="kpointlist" >
   <v>       0.00000000       0.00000000       0.00000000 </v>
   <v>       0.16666667       0.00000000       0.00000000 </v>
   <v>       0.33333333       0.00000000       0.00000000 </v>
   <v>       0.50000000       0.00000000       0.00000000 </v>
   <v>       0.16666667       0.16666667       0.00000000 </v>
   <v>       0.33333333       0.16666667       0.00000000 </v>
   <v>       0.33333333       0.33333333       0.00000000 </v>
   <v>       0.00000000       0.00000000       0.50000000 </v>
   <v>       0.16666667       0.00000000       0.50000000 </v>
   <v>       0.33333333       0.00000000       0.50000000 </v>
   <v>       0.50000000       0.00000000       0.50000000 </v>
   <v>       0.16666667       0.16666667       0.50000000 </v>
   <v>       0.33333333       0.16666667       0.50000000 </v>
   <v>       0.33333333       0.33333333       0.50000000 </v>
  </varray>
  <varray name="weights" >
   <v>       0.01388889 </v>
   <v>       0.08333333 </v>
   <v>       0.08333333 </v>
   <v>       0.04166667 </v>
   <v>       0.08333333 </v>
   <v>       0.16666667 </v>
   <v>       0.02777778 </v>
   <v>       0.01388889 </v>
   <v>       0.08333333 </v>
   <v>       0.08333333 </v>
   <v>       0.04166667 </v>
   <v>       0.08333333 </v>
   <v>       0.16666667 </v>
   <v>       0.02777778 </v>
  </varray>
 </kpoints>
 <parameters>
  <separator name="general" >
   <i type="string" name="SYSTEM">NiAl</i>
   <i type="logical" name="LCOMPAT"> F  </i>
  </separator>
  <separator name="electronic" >
   <i type="string" name="PREC">normal</i>
   <i name="ENMAX">    360.00000000</i>
   <i name="ENAUG">   1139.60900000</i>
   <i name="EDIFF">      0.00000010</i>
   <i type="int" name="IALGO">    38</i>
   <i type="int" name="IWAVPR">    11</i>
   <i type="int" name="NBANDS">    88</i>
   <i type="int" name="NBANDSLOW">    -1</i>
   <i type="int" name="NBANDSHIGH">    -1</i>
   <i name="NELECT">    144.00000000</i>
   <i type="int" name="TURBO">     0</i>
   <i type="int" name="IRESTART">     0</i>
   <i type="int" name="NREBOOT">     0</i>
   <i type="int" name="NMIN">     0</i>
   <i name="EREF">      0.00000000</i>
   <separator name="electronic smearing" >
    <i type="int" name="ISMEAR">     0</i>
    <i name="SIGMA">      0.05000000</i>
    <i name="KSPACING">      0.50000000</i>
    <i type="logical" name="KGAMMA"> T  </i>
    <i type="logical" name="KBLOWUP"> T  </i>
   </separator>
   <separator name="electronic projectors" >
    <i type="logical" name="LREAL"> T  </i>
    <v name="ROPT">     -0.00050000     -0.00050000</v>
    <i type="int" name="LMAXPAW">  -100</i>
    <i type="int" name="LMAXMIX">     2</i>
    <i type="logical" name="NLSPLINE"> F  </i>
   </separator>
   <separator name="electronic startup" >
    <i type="int" name="ISTART">     0</i>
    <i type="int" name="ICHARG">     2</i>
    <i type="int" name="INIWAV">     1</i>
   </separator>
   <separator name="electronic spin" >
    <i type="int" name="ISPIN">     1</i>
    <i type="logical" name="LNONCOLLINEAR"> F  </i>
    <v name="MAGMOM">      1.00000000      1.00000000      1.00000000      1.00000000      1.00000000      1.00000000      1.00000000      1.00000000      1.00000000      1.00000000      1.00000000      1.00000000      1.00000000      1.00000000      1.00000000      1.00000000      1.00000000      1.00000000      1.00000000      1.00000000
      1.00000000      1.00000000      1.00000000      1.00000000      1.00000000      1.00000000      1.00000000      1.00000000      1.00000000      1.00000000</v>
    <i name="NUPDOWN">     -1.00000000</i>
    <i type="logical" name="LSORBIT"> F  </i>
    <v name="SAXIS">      0.00000000      0.00000000      1.00000000</v>
    <i type="logical" name="LSPIRAL"> F  </i>
    <v name="QSPIRAL">      0.00000000      0.00000000      0.00000000</v>
    <i type="logical" name="LZEROZ"> F  </i>
   </separator>
   <separator name="electronic exchange-correlation" >
    <i type="logical" name="LASPH"> F  </i>
    <i type="logical" name="LMETAGGA"> F  </i>
   </separator>
   <separator name="electronic convergence" >
    <i type="int" name="NELM">    60</i>
    <i type="int" name="NELMDL">    -5</i>
    <i type="int" name="NELMIN">     6</i>
    <i name="ENINI">    360.00000000</i>
    <separator name="electronic convergence detail" >
     <i type="logical" name="LDIAG"> T  </i>
     <i type="logical" name="LSUBROT"> F  </i>
     <i name="WEIMIN">      0.00100000</i>
     <i name="EBREAK">      0.00000000</i>
     <i name="DEPER">      0.30000000</i>
     <i type="int" name="NRMM">     4</i>
     <i name="TIME">      0.40000000</i>
    </separator>
   </separator>
   <separator name="electronic mixer" >
    <i name="AMIX">      0.40000000</i>
    <i name="BMIX">      1.00000000</i>
    <i name="AMIN">      0.10000000</i>
    <i name="AMIX_MAG">      1.60000000</i>
    <i name="BMIX_MAG">      1.00000000</i>
    <separator name="electronic mixer details" >
     <i type="int" name="IMIX">     4</i>
     <i type="logical" name="MIXFIRST"> F  </i>
     <i type="int" name="MAXMIX">   -45</i>
     <i name="WC">    100.00000000</i>
     <i type="int" name="INIMIX">     1</i>
     <i type="int" name="MIXPRE">     1</i>
     <i type="int" name="MREMOVE">     5</i>
    </separator>
   </separator>
   <separator name="electronic dipolcorrection" >
    <i type="logical" name="LDIPOL"> F  </i>
    <i type="logical" name="LMONO"> F  </i>
    <i type="int" name="IDIPOL">     0</i>
    <i name="EPSILON">      1.00000000</i>
    <v name="DIPOL">   -100.00000000   -100.00000000   -100.00000000</v>
    <i name="EFIELD">      0.00000000</i>
   </separator>
  </separator>
  <separator name="grids" >
   <i type="int" name="NGX">    24</i>
   <i type="int" name="NGY">    24</i>
   <i type="int" name="NGZ">    64</i>
   <i type="int" name="NGXF">    48</i>
   <i type="int" name="NGYF">    48</i>
   <i type="int" name="NGZF">   128</i>
   <i type="logical" name="ADDGRID"> F  </i>
  </separator>
  <separator name="ionic" >
   <i type="int" name="NSW">    40</i>
   <i type="int" name="IBRION">     2</i>
   <i type="int" name="MDALGO">     0</i>
   <i type="int" name="ISIF">     1</i>
   <i name="PSTRESS">      0.00000000</i>
   <i name="EDIFFG">      0.00000100</i>
   <i type="int" name="NFREE">     1</i>
   <i name="POTIM">      0.20000000</i>
   <i name="SMASS">     -3.00000000</i>
   <i name="SCALEE">      1.00000000</i>
  </separator>
  <separator name="ionic md" >
   <i name="TEBEG">      0.00010000</i>
   <i name="TEEND">      0.00010000</i>
   <i type="int" name="NBLOCK">     1</i>
   <i type="int" name="KBLOCK">    40</i>
   <i type="int" name="NPACO">   256</i>
   <i name="APACO">     16.00000000</i>
  </separator>
  <separator name="symmetry" >
   <i type="int" name="ISYM">     2</i>
   <i name="SYMPREC">      0.00001000</i>
  </separator>
  <separator name="dos" >
   <i type="int" name="LORBIT">     0</i>
   <v name="RWIGS">     -1.00000000     -1.00000000</v>
   <i type="int" name="NEDOS">   301</i>
   <i name="EMIN">     10.00000000</i>
   <i name="EMAX">    -10.00000000</i>
   <i name="EFERMI">      0.00000000</i>
  </separator>
  <separator name="writing" >
   <i type="int" name="NWRITE">     2</i>
   <i type="logical" name="LWAVE"> F  </i>
   <i type="logical" name="LDOWNSAMPLE"> F  </i>
   <i type="logical" name="LCHARG"> F  </i>
   <i type="logical" name="LPARD"> F  </i>
   <i type="logical" name="LVTOT"> F  </i>
   <i type="logical" name="LVHAR"> F  </i>
   <i type="logical" name="LELF"> F  </i>
   <i type="logical" name="LOPTICS"> F  </i>
   <v name="STM">      0.00000000      0.00000000      0.00000000      0.00000000      0.00000000      0.00000000      0.00000000</v>
  </separator>
  <separator name="performance" >
   <i type="int" name="NPAR">     1</i>
   <i type="int" name="NSIM">     4</i>
   <i type="int" name="NBLK">    -1</i>
   <i type="logical" name="LPLANE"> T  </i>
   <i type="logical" name="LSCALAPACK"> T  </i>
   <i type="logical" name="LSCAAWARE"> F  </i>
   <i type="logical" name="LSCALU"> F  </i>
   <i type="logical" name="LASYNC"> F  </i>
   <i type="logical" name="LORBITALREAL"> F  </i>
  </separator>
  <separator name="miscellaneous" >
   <i type="int" name="IDIOT">     3</i>
   <i type="int" name="PHON_NSTRUCT">    -1</i>
   <i type="logical" name="LMUSIC"> F  </i>
   <v name="POMASS">     26.98200000     16.00000000</v>
   <v name="DARWINR">      0.00000000      0.00000000</v>
   <v name="DARWINV">      1.00000000      1.00000000</v>
   <i type="logical" name="LCORR"> T  </i>
  </separator>
  <i type="logical" name="GGA_COMPAT"> T  </i>
  <i type="logical" name="LBERRY"> F  </i>
  <i type="int" name="ICORELEVEL">     0</i>
  <i type="logical" name="LDAU"> F  </i>
  <i type="int" name="I_CONSTRAINED_M">     0</i>
  <separator name="electronic exchange-correlation" >
   <i type="string" name="GGA">--</i>
   <i type="int" name="VOSKOWN">     0</i>
   <i type="logical" name="LHFCALC"> F  </i>
   <i type="string" name="PRECFOCK"></i>
   <i type="logical" name="LSYMGRAD"> F  </i>
   <i type="logical" name="LHFONE"> F  </i>
   <i type="logical" name="LRHFCALC"> F  </i>
   <i type="logical" name="LTHOMAS"> F  </i>
   <i type="logical" name="LMODELHF"> F  </i>
   <i type="logical" name="LFOCKACE"> F  </i>
   <i name="ENCUT4O">     -1.00000000</i>
   <i type="int" name="EXXOEP">     0</i>
   <i type="int" name="FOURORBIT">     0</i>
   <i name="AEXX">      0.00000000</i>
   <i name="HFALPHA">      0.00000000</i>
   <i name="MCALPHA">      0.00000000</i>
   <i name="ALDAX">      1.00000000</i>
   <i name="AGGAX">      1.00000000</i>
   <i name="ALDAC">      1.00000000</i>
   <i name="AGGAC">      1.00000000</i>
   <i type="int" name="NKREDX">     1</i>
   <i type="int" name="NKREDY">     1</i>
   <i type="int" name="NKREDZ">     1</i>
   <i type="logical" name="SHIFTRED"> F  </i>
   <i type="logical" name="ODDONLY"> F  </i>
   <i type="logical" name="EVENONLY"> F  </i>
   <i type="int" name="LMAXFOCK">     0</i>
   <i type="int" name="NMAXFOCKAE">     0</i>
   <i type="logical" name="LFOCKAEDFT"> F  </i>
   <i name="HFSCREEN">      0.00000000</i>
   <i name="HFSCREENC">      0.00000000</i>
   <i type="int" name="NBANDSGWLOW">     0</i>
  </separator>
  <separator name="vdW DFT" >
   <i type="logical" name="LUSE_VDW"> F  </i>
   <i name="Zab_VDW">     -0.84910000</i>
   <i name="PARAM1">      0.12340000</i>
   <i name="PARAM2">      1.00000000</i>
   <i name="PARAM3">      0.00000000</i>
  </separator>
  <separator name="model GW" >
   <i type="int" name="MODEL_GW">     0</i>
   <i name="MODEL_EPS0">      5.24520274</i>
   <i name="MODEL_ALPHA">      1.00000000</i>
  </separator>
  <separator name="linear response parameters" >
   <i type="logical" name="LEPSILON"> F  </i>
   <i type="logical" name="LRPA"> F  </i>
   <i type="logical" name="LNABLA"> F  </i>
   <i type="logical" name="LVEL"> F  </i>
   <i type="int" name="KINTER">     0</i>
   <i name="CSHIFT">      0.10000000</i>
   <i name="OMEGAMAX">     -1.00000000</i>
   <i name="DEG_THRESHOLD">      0.00200000</i>
   <i name="RTIME">     -0.10000000</i>
   <i name="WPLASMAI">      0.00000000</i>
   <v name="DFIELD">      0.00000000      0.00000000      0.00000000</v>
   <v name="WPLASMA">      0.00000000      0.00000000      0.00000000      0.00000000      0.00000000      0.00000000      0.00000000      0.00000000      0.00000000</v>
  </separator>
  <separator name="orbital magnetization" >
   <i type="logical" name="NUCIND"> F  </i>
   <v name="MAGPOS">      0.00000000      0.00000000      0.00000000</v>
   <i type="logical" name="LNICSALL"> T  </i>
   <i type="logical" name="ORBITALMAG"> F  </i>
   <i type="logical" name="LMAGBLOCH"> F  </i>
   <i type="logical" name="LCHIMAG"> F  </i>
   <i type="logical" name="LGAUGE"> T  </i>
   <i type="int" name="MAGATOM">     0</i>
   <v name="MAGDIPOL">      0.00000000      0.00000000      0.00000000</v>
   <v name="AVECCONST">      0.00000000      0.00000000      0.00000000</v>
  </separator>
  <separator name="response functions" >
   <i type="logical" name="LFINITE_TEMPERATURE"> F  </i>
   <i type="logical" name="LADDER"> F  </i>
   <i type="logical" name="LRPAFORCE"> F  </i>
   <i type="logical" name="LFXC"> F  </i>
   <i type="logical" name="LHARTREE"> T  </i>
   <i type="int" name="IBSE">     0</i>
   <v type="int" name="KPOINT">    -1     0     0     0</v>
   <i type="logical" name="LTCTC"> F  </i>
   <i type="logical" name="LTCTE"> F  </i>
   <i type="logical" name="LTETE"> F  </i>
   <i type="logical" name="LTRIPLET"> F  </i>
   <i type="logical" name="LFXCEPS"> F  </i>
   <i type="logical" name="LFXHEG"> F  </i>
   <i type="int" name="NATURALO">     2</i>
   <i type="logical" name="LHOLEGF"> F  </i>
   <i type="logical" name="L2ORDER"> F  </i>
   <i type="logical" name="LDMP1"> F  </i>
   <i type="logical" name="LMP2LT"> F  </i>
   <i type="logical" name="LSMP2LT"> F  </i>
   <i type="logical" name="LGWLF"> F  </i>
   <i name="ENCUTGW">     -2.00000000</i>
   <i name="ENCUTGWSOFT">     -2.00000000</i>
   <i name="ENCUTLF">     -1.00000000</i>
   <i type="logical" name="LESF_SPLINES"> F  </i>
   <i type="int" name="LMAXMP2">    -1</i>
   <i name="SCISSOR">      0.00000000</i>
   <i type="int" name="NOMEGA">     0</i>
   <i type="int" name="NOMEGAR">     0</i>
   <i type="int" name="NBANDSGW">    -1</i>
   <i type="int" name="NBANDSO">    -1</i>
   <i type="int" name="NBANDSV">    -1</i>
   <i type="int" name="NELM">     1</i>
   <i type="int" name="NELMHF">     1</i>
   <i type="int" name="DIM">     3</i>
   <i type="int" name="IESPILON">     4</i>
   <i type="int" name="ANTIRES">     0</i>
   <i name="OMEGAMAX">    -30.00000000</i>
   <i name="OMEGAMIN">    -30.00000000</i>
   <i name="OMEGATL">   -200.00000000</i>
   <i type="int" name="OMEGAGRID">     0</i>
   <i name="CSHIFT">     -0.10000000</i>
   <i type="logical" name="LSELFENERGY"> F  </i>
   <i type="logical" name="LSPECTRAL"> F  </i>
   <i type="logical" name="LSPECTRALGW"> F  </i>
   <i type="logical" name="LSINGLES"> F  </i>
   <i type="logical" name="LFERMIGW"> F  </i>
   <i type="logical" name="ODDONLYGW"> F  </i>
   <i type="logical" name="EVENONLYGW"> F  </i>
   <i type="int" name="NKREDLFX">     1</i>
   <i type="int" name="NKREDLFY">     1</i>
   <i type="int" name="NKREDLFZ">     1</i>
   <i type="int" name="MAXMEM">  2800</i>
   <i type="int" name="TELESCOPE">     0</i>
   <i type="int" name="NTAUPAR">    -1</i>
   <i type="int" name="NOMEGAPAR">    -1</i>
   <i name="DAMP_NEWTON">      0.80000001</i>
   <i name="LAMBDA">      1.00000000</i>
  </separator>
  <separator name="External order field" >
   <i name="OFIELD_KAPPA">      0.00000000</i>
   <v name="OFIELD_K">      0.00000000      0.00000000      0.00000000</v>
   <i name="OFIELD_Q6_NEAR">      0.00000000</i>
   <i name="OFIELD_Q6_FAR">      0.00000000</i>
   <i name="OFIELD_A">      0.00000000</i>
  </separator>
  <separator name="solvation model" >
   <i type="logical" name="LSOL"> F  </i>
  </separator>
 </parameters>
 <atominfo>
  <atoms>      30 </atoms>
  <types>       2 </types>
  <array name="atoms" >
   <dimension dim="1">ion</dimension>
   <field type="string">element</field>
   <field type="int">atomtype</field>
   <set>
    <rc><c>Al</c><c>   1</c></rc>
    <rc><c>Al</c><c>   1</c></rc>
    <rc><c>Al</c><c>   1</c></rc>
    <rc><c>Al</c><c>   1</c></rc>
    <rc><c>Al</c><c>   1</c></rc>
    <rc><c>Al</c><c>   1</c></rc>
    <rc><c>Al</c><c>   1</c></rc>
    <rc><c>Al</c><c>   1</c></rc>
    <rc><c>Al</c><c>   1</c></rc>
    <rc><c>Al</c><c>   1</c></rc>
    <rc><c>Al</c><c>   1</c></rc>
    <rc><c>Al</c><c>   1</c></rc>
    <rc><c>O </c><c>   2</c></rc>
    <rc><c>O </c><c>   2</c></rc>
    <rc><c>O </c><c>   2</c></rc>
    <rc><c>O </c><c>   2</c></rc>
    <rc><c>O </c><c>   2</c></rc>
    <rc><c>O </c><c>   2</c></rc>
    <rc><c>O </c><c>   2</c></rc>
    <rc><c>O </c><c>   2</c></rc>
    <rc><c>O </c><c>   2</c></rc>
    <rc><c>O </c><c>   2</c></rc>
    <rc><c>O </c><c>   2</c></rc>
    <rc><c>O </c><c>   2</c></rc>
    <rc><c>O </c><c>   2</c></rc>
    <rc><c>O </c><c>   2</c></rc>
    <rc><c>O </c><c>   2</c></rc>
    <rc><c>O </c><c>   2</c></rc>
    <rc><c>O </c><c>   2</c></rc>
    <rc><c>O </c><c>   2</c></rc>
   </set>
  </array>
  <array name="atomtypes" >
   <dimension dim="1">type</dimension>
   <field type="int">atomspertype</field>
   <field type="string">element</field>
   <field>mass</field>
   <field>valence</field>
   <field type="string">pseudopotential</field>
   <set>
    <rc><c>  12</c><c>Al</c><c>     26.98200000</c><c>      3.00000000</c><c>  PAW Al_GW 19Mar2012                   </c></rc>
    <rc><c>  18</c><c>O </c><c>     16.00000000</c><c>      6.00000000</c><c>  PAW O_GW 19Mar2012                    </c></rc>
   </set>
  </array>
 </atominfo>
 <structure name="initialpos" >
  <crystal>
   <varray name="basis" >
    <v>       4.80502796       0.00000000       0.00000000 </v>
    <v>      -2.40251398       4.16127628       0.00000000 </v>
    <v>       0.00000000       0.00000000      13.11625385 </v>
   </varray>
   <i name="volume">    262.26013698 </i>
   <varray name="rec_basis" >
    <v>       0.20811533       0.12015544      -0.00000000 </v>
    <v>       0.00000000       0.24031089       0.00000000 </v>
    <v>       0.00000000      -0.00000000       0.07624128 </v>
   </varray>
  </crystal>
  <varray name="positions" >
   <v>       0.00000000       0.00000000       0.14790399 </v>
   <v>       0.33333333       0.66666668       0.01876267 </v>
   <v>       0.33333333       0.66666668       0.31457065 </v>
   <v>       0.66666667       0.33333334       0.18542933 </v>
   <v>       0.66666667       0.33333334       0.48123732 </v>
   <v>       0.00000000       0.00000000       0.35209598 </v>
   <v>       0.00000000       0.00000000       0.64790395 </v>
   <v>       0.33333333       0.66666668       0.51876265 </v>
   <v>       0.33333333       0.66666668       0.81457065 </v>
   <v>       0.66666667       0.33333334       0.68542932 </v>
   <v>       0.66666667       0.33333334       0.98123735 </v>
   <v>       0.00000000       0.00000000       0.85209602 </v>
   <v>       0.30614601       0.00000000       0.25000000 </v>
   <v>       0.66666668       0.02718733       0.08333332 </v>
   <v>       1.00000000       0.30614600       0.25000000 </v>
   <v>       0.69385398       0.69385399       0.25000000 </v>
   <v>       0.97281270       0.63947937       0.08333332 </v>
   <v>       0.36052066       0.33333334       0.08333332 </v>
   <v>       0.97281270       0.33333334       0.58333331 </v>
   <v>       0.33333334       0.36052068       0.41666665 </v>
   <v>       0.66666669       0.63947937       0.58333331 </v>
   <v>       0.36052065       0.02718733       0.58333331 </v>
   <v>       0.63947934       0.97281271       0.41666665 </v>
   <v>       0.02718733       0.66666668       0.41666665 </v>
   <v>       0.63947932       0.66666668       0.91666672 </v>
   <v>       0.00000001       0.69385399       0.75000002 </v>
   <v>       0.33333336       0.97281271       0.91666672 </v>
   <v>       0.02718733       0.36052068       0.91666672 </v>
   <v>       0.30614600       0.30614600       0.75000002 </v>
   <v>       0.69385397       0.00000000       0.75000002 </v>
  </varray>
 </structure>
 <calculation>
  <scstep>
   <time name="dav">    2.03    2.03</time>
   <time name="total">    2.09    2.11</time>
   <energy>
    <i name="alphaZ">    243.67775989 </i>
    <i name="ewald">  -7125.17112741 </i>
    <i name="hartreedc">  -1939.55582295 </i>
    <i name="XCdc">    168.72292616 </i>
    <i name="pawpsdc">   7079.12904348 </i>
    <i name="pawaedc">  -6681.21407508 </i>
    <i name="eentropy">     -0.00933774 </i>
    <i name="bandstr">    730.18206400 </i>
    <i name="atom">   8418.23244399 </i>
    <i name="e_fr_energy">    893.99387434 </i>
    <i name="e_wo_entrp">    894.00321208 </i>
    <i name="e_0_energy">    893.99854321 </i>
   </energy>
  </scstep>
  <scstep>
   <time name="dav">    2.51    2.51</time>
   <time name="total">    2.51    2.51</time>
   <energy>
    <i name="e_fr_energy">   -164.43609233 </i>
    <i name="e_wo_entrp">   -164.43609233 </i>
    <i name="e_0_energy">   -164.43609233 </i>
   </energy>
  </scstep>
  <scstep>
   <time name="dav">    2.49    2.49</time>
   <time name="total">    2.49    2.49</time>
   <energy>
    <i name="e_fr_energy">   -241.21937762 </i>
    <i name="e_wo_entrp">   -241.21937762 </i>
    <i name="e_0_energy">   -241.21937762 </i>
   </energy>
  </scstep>
  <scstep>
   <time name="dav">    2.56    2.56</time>
   <time name="total">    2.56    2.56</time>
   <energy>
    <i name="e_fr_energy">   -244.07257716 </i>
    <i name="e_wo_entrp">   -244.07257716 </i>
    <i name="e_0_energy">   -244.07257716 </i>
   </energy>
  </scstep>
  <scstep>
   <time name="dav">    2.39    2.39</time>
   <time name="total">    2.53    2.53</time>
   <energy>
    <i name="e_fr_energy">   -244.16465870 </i>
    <i name="e_wo_entrp">   -244.16465870 </i>
    <i name="e_0_energy">   -244.16465870 </i>
   </energy>
  </scstep>
  <scstep>
   <time name="dav">    2.70    2.70</time>
   <time name="total">    2.89    2.89</time>
   <energy>
    <i name="e_fr_energy">   -222.06051908 </i>
    <i name="e_wo_entrp">   -222.06051908 </i>
    <i name="e_0_energy">   -222.06051908 </i>
   </energy>
  </scstep>
  <scstep>
   <time name="dav">    2.44    2.44</time>
   <time name="total">    2.63    2.63</time>
   <energy>
    <i name="e_fr_energy">   -221.93301324 </i>
    <i name="e_wo_entrp">   -221.93301324 </i>
    <i name="e_0_energy">   -221.93301324 </i>
   </energy>
  </scstep>
  <scstep>
   <time name="dav">    2.28    2.29</time>
   <time name="total">    2.48    2.48</time>
   <energy>
    <i name="e_fr_energy">   -221.90743111 </i>
    <i name="e_wo_entrp">   -221.90743111 </i>
    <i name="e_0_energy">   -221.90743111 </i>
   </energy>
  </scstep>
  <scstep>
   <time name="dav">    2.70    2.70</time>
   <time name="total">    2.89    2.89</time>
   <energy>
    <i name="e_fr_energy">   -221.88497266 </i>
    <i name="e_wo_entrp">   -221.88497266 </i>
    <i name="e_0_energy">   -221.88497266 </i>
   </energy>
  </scstep>
  <scstep>
   <time name="dav">    2.30    2.30</time>
   <time name="total">    2.49    2.49</time>
   <energy>
    <i name="e_fr_energy">   -221.88707296 </i>
    <i name="e_wo_entrp">   -221.88707296 </i>
    <i name="e_0_energy">   -221.88707296 </i>
   </energy>
  </scstep>
  <scstep>
   <time name="dav">    2.29    2.29</time>
   <time name="total">    2.48    2.48</time>
   <energy>
    <i name="e_fr_energy">   -221.88759676 </i>
    <i name="e_wo_entrp">   -221.88759676 </i>
    <i name="e_0_energy">   -221.88759676 </i>
   </energy>
  </scstep>
  <scstep>
   <time name="dav">    2.31    2.31</time>
   <time name="total">    2.50    2.50</time>
   <energy>
    <i name="e_fr_energy">   -221.88759013 </i>
    <i name="e_wo_entrp">   -221.88759013 </i>
    <i name="e_0_energy">   -221.88759013 </i>
   </energy>
  </scstep>
  <scstep>
   <time name="dav">    2.47    2.47</time>
   <time name="total">    2.66    2.66</time>
   <energy>
    <i name="e_fr_energy">   -221.88758963 </i>
    <i name="e_wo_entrp">   -221.88758963 </i>
    <i name="e_0_energy">   -221.88758963 </i>
   </energy>
  </scstep>
  <scstep>
   <time name="dav">    2.33    2.33</time>
   <time name="total">    2.52    2.52</time>
   <energy>
    <i name="e_fr_energy">   -221.88758803 </i>
    <i name="e_wo_entrp">   -221.88758803 </i>
    <i name="e_0_energy">   -221.88758803 </i>
   </energy>
  </scstep>
  <scstep>
   <time name="dav">    1.87    1.87</time>
   <time name="total">    2.07    2.07</time>
   <energy>
    <i name="e_fr_energy">   -221.88758722 </i>
    <i name="e_wo_entrp">   -221.88758722 </i>
    <i name="e_0_energy">   -221.88758722 </i>
   </energy>
  </scstep>
  <scstep>
   <time name="dav">    1.70    1.70</time>
   <time name="total">    1.75    1.75</time>
   <energy>
    <i name="alphaZ">    243.67775989 </i>
    <i name="ewald">  -7125.17112741 </i>
    <i name="hartreedc">  -2256.16173228 </i>
    <i name="XCdc">    192.67473933 </i>
    <i name="pawpsdc">  14010.96855715 </i>
    <i name="pawaedc"> -13617.61028162 </i>
    <i name="eentropy">     -0.00000000 </i>
    <i name="bandstr">    -88.49794625 </i>
    <i name="atom">   8418.23244399 </i>
    <i name="e_fr_energy">   -221.88758720 </i>
    <i name="e_wo_entrp">   -221.88758720 </i>
    <i name="e_0_energy">   -221.88758720 </i>
   </energy>
  </scstep>
  <structure>
   <crystal>
    <varray name="basis" >
     <v>       4.80502796       0.00000000       0.00000000 </v>
     <v>      -2.40251398       4.16127628       0.00000000 </v>
     <v>       0.00000000       0.00000000      13.11625385 </v>
    </varray>
    <i name="volume">    262.26013698 </i>
    <varray name="rec_basis" >
     <v>       0.20811533       0.12015544      -0.00000000 </v>
     <v>       0.00000000       0.24031089       0.00000000 </v>
     <v>       0.00000000      -0.00000000       0.07624128 </v>
    </varray>
   </crystal>
   <varray name="positions" >
    <v>       0.00000000       0.00000000       0.14790399 </v>
    <v>       0.33333333       0.66666668       0.01876267 </v>
    <v>       0.33333333       0.66666668       0.31457065 </v>
    <v>       0.66666667       0.33333334       0.18542933 </v>
    <v>       0.66666667       0.33333334       0.48123732 </v>
    <v>       0.00000000       0.00000000       0.35209598 </v>
    <v>       0.00000000       0.00000000       0.64790395 </v>
    <v>       0.33333333       0.66666668       0.51876265 </v>
    <v>       0.33333333       0.66666668       0.81457065 </v>
    <v>       0.66666667       0.33333334       0.68542932 </v>
    <v>       0.66666667       0.33333334       0.98123735 </v>
    <v>       0.00000000       0.00000000       0.85209602 </v>
    <v>       0.30614601       0.00000000       0.25000000 </v>
    <v>       0.66666668       0.02718733       0.08333332 </v>
    <v>       1.00000000       0.30614600       0.25000000 </v>
    <v>       0.69385398       0.69385399       0.25000000 </v>
    <v>       0.97281270       0.63947937       0.08333332 </v>
    <v>       0.36052066       0.33333334       0.08333332 </v>
    <v>       0.97281270       0.33333334       0.58333331 </v>
    <v>       0.33333334       0.36052068       0.41666665 </v>
    <v>       0.66666669       0.63947937       0.58333331 </v>
    <v>       0.36052065       0.02718733       0.58333331 </v>
    <v>       0.63947934       0.97281271       0.41666665 </v>
    <v>       0.02718733       0.66666668       0.41666665 </v>
    <v>       0.63947932       0.66666668       0.91666672 </v>
    <v>       0.00000001       0.69385399       0.75000002 </v>
    <v>       0.33333336       0.97281271       0.91666672 </v>
    <v>       0.02718733       0.36052068       0.91666672 </v>
    <v>       0.30614600       0.30614600       0.75000002 </v>
    <v>       0.69385397       0.00000000       0.75000002 </v>
   </varray>
  </structure>
  <varray name="forces" >
   <v>      -0.00000000       0.00000000      -0.01135141 </v>
   <v>      -0.00000000      -0.00000000       0.01135141 </v>
   <v>      -0.00000000       0.00000000      -0.01135141 </v>
   <v>      -0.00000000      -0.00000000       0.01135141 </v>
   <v>      -0.00000000       0.00000000      -0.01135141 </v>
   <v>      -0.00000000      -0.00000000       0.01135141 </v>
   <v>      -0.00000000       0.00000000      -0.01135141 </v>
   <v>      -0.00000000      -0.00000000       0.01135141 </v>
   <v>      -0.00000000       0.00000000      -0.01135141 </v>
   <v>      -0.00000000      -0.00000000       0.01135141 </v>
   <v>      -0.00000000       0.00000000      -0.01135141 </v>
   <v>      -0.00000000      -0.00000000       0.01135141 </v>
   <v>      -0.00824822      -0.00000000      -0.00000000 </v>
   <v>      -0.00412411       0.00714317      -0.00000000 </v>
   <v>       0.00412411      -0.00714317      -0.00000000 </v>
   <v>       0.00412411       0.00714317      -0.00000000 </v>
   <v>      -0.00412411      -0.00714317      -0.00000000 </v>
   <v>       0.00824822       0.00000000      -0.00000000 </v>
   <v>      -0.00824822       0.00000000      -0.00000000 </v>
   <v>      -0.00412411       0.00714317      -0.00000000 </v>
   <v>       0.00412411      -0.00714317      -0.00000000 </v>
   <v>       0.00412411       0.00714317      -0.00000000 </v>
   <v>      -0.00412411      -0.00714317      -0.00000000 </v>
   <v>       0.00824822      -0.00000000      -0.00000000 </v>
   <v>      -0.00824822      -0.00000000      -0.00000000 </v>
   <v>      -0.00412411       0.00714317      -0.00000000 </v>
   <v>       0.00412411      -0.00714317      -0.00000000 </v>
   <v>       0.00412411       0.00714317      -0.00000000 </v>
   <v>      -0.00412411      -0.00714317      -0.00000000 </v>
   <v>       0.00824822       0.00000000      -0.00000000 </v>
  </varray>
  <varray name="stress" >
   <v>    -406.87216297       0.00000000       0.00000000 </v>
   <v>       0.00000000    -406.87216299       0.00000000 </v>
   <v>       0.00000000       0.00000000    -372.23528741 </v>
  </varray>
  <energy>
   <i name="e_fr_energy">   -228.78991099 </i>
   <i name="e_wo_entrp">   -228.78991099 </i>
   <i name="e_0_energy">   -228.78991099 </i>
  </energy>
  <time name="totalsc">   41.47   41.50</time>
 </calculation>
 <calculation>
  <scstep>
   <time name="dav">    2.18    2.18</time>
   <time name="total">    2.36    2.37</time>
   <energy>
    <i name="alphaZ">    243.67775989 </i>
    <i name="ewald">  -7125.12270110 </i>
    <i name="hartreedc">  -2256.21784470 </i>
    <i name="XCdc">    192.67439790 </i>
    <i name="pawpsdc">  14010.96431883 </i>
    <i name="pawaedc"> -13617.60601435 </i>
    <i name="eentropy">     -0.00000000 </i>
    <i name="bandstr">    -88.49000787 </i>
    <i name="atom">   8418.23244399 </i>
    <i name="e_fr_energy">   -221.88764740 </i>
    <i name="e_wo_entrp">   -221.88764740 </i>
    <i name="e_0_energy">   -221.88764740 </i>
   </energy>
  </scstep>
  <scstep>
   <time name="dav">    2.55    2.55</time>
   <time name="total">    2.74    2.74</time>
   <energy>
    <i name="e_fr_energy">   -221.88765093 </i>
    <i name="e_wo_entrp">   -221.88765093 </i>
    <i name="e_0_energy">   -221.88765093 </i>
   </energy>
  </scstep>
  <scstep>
   <time name="dav">    2.07    2.07</time>
   <time name="total">    2.26    2.26</time>
   <energy>
    <i name="e_fr_energy">   -221.88765084 </i>
    <i name="e_wo_entrp">   -221.88765084 </i>
    <i name="e_0_energy">   -221.88765084 </i>
   </energy>
  </scstep>
  <scstep>
   <time name="dav">    2.16    2.16</time>
   <time name="total">    2.35    2.35</time>
   <energy>
    <i name="e_fr_energy">   -221.88765059 </i>
    <i name="e_wo_entrp">   -221.88765059 </i>
    <i name="e_0_energy">   -221.88765059 </i>
   </energy>
  </scstep>
  <scstep>
   <time name="dav">    1.70    1.70</time>
   <time name="total">    1.89    1.89</time>
   <energy>
    <i name="e_fr_energy">   -221.88765058 </i>
    <i name="e_wo_entrp">   -221.88765058 </i>
    <i name="e_0_energy">   -221.88765058 </i>
   </energy>
  </scstep>
  <scstep>
   <time name="dav">    1.59    1.59</time>
   <time name="total">    1.65    1.65</time>
   <energy>
    <i name="alphaZ">    243.67775989 </i>
    <i name="ewald">  -7125.12270110 </i>
    <i name="hartreedc">  -2256.23779356 </i>
    <i name="XCdc">    192.67532614 </i>
    <i name="pawpsdc">  14011.15201778 </i>
    <i name="pawaedc"> -13617.79362549 </i>
    <i name="eentropy">     -0.00000000 </i>
    <i name="bandstr">    -88.47107819 </i>
    <i name="atom">   8418.23244399 </i>
    <i name="e_fr_energy">   -221.88765055 </i>
    <i name="e_wo_entrp">   -221.88765055 </i>
    <i name="e_0_energy">   -221.88765055 </i>
   </energy>
  </scstep>
  <structure>
   <crystal>
    <varray name="basis" >
     <v>       4.80502796       0.00000000       0.00000000 </v>
     <v>      -2.40251398       4.16127628       0.00000000 </v>
     <v>       0.00000000       0.00000000      13.11625385 </v>
    </varray>
    <i name="volume">    262.26013698 </i>
    <varray name="rec_basis" >
     <v>       0.20811533       0.12015544      -0.00000000 </v>
     <v>       0.00000000       0.24031089       0.00000000 </v>
     <v>       0.00000000      -0.00000000       0.07624128 </v>
    </varray>
   </crystal>
   <varray name="positions" >
    <v>      -0.00000000       0.00000000       0.14788729 </v>
    <v>       0.33333333       0.66666668       0.01877937 </v>
    <v>       0.33333333       0.66666668       0.31455395 </v>
    <v>       0.66666667       0.33333334       0.18544603 </v>
    <v>       0.66666667       0.33333334       0.48122061 </v>
    <v>      -0.00000000      -0.00000000       0.35211268 </v>
    <v>      -0.00000000       0.00000000       0.64788725 </v>
    <v>       0.33333333       0.66666668       0.51877935 </v>
    <v>       0.33333333       0.66666668       0.81455395 </v>
    <v>       0.66666667       0.33333334       0.68544602 </v>
    <v>       0.66666667       0.33333334       0.98122065 </v>
    <v>      -0.00000000      -0.00000000       0.85211272 </v>
    <v>       0.30611288      -0.00000000       0.25000000 </v>
    <v>       0.66666668       0.02722046       0.08333332 </v>
    <v>       1.00000000       0.30611288       0.25000000 </v>
    <v>       0.69388710       0.69388711       0.25000000 </v>
    <v>       0.97277958       0.63944624       0.08333332 </v>
    <v>       0.36055379       0.33333334       0.08333332 </v>
    <v>       0.97277958       0.33333334       0.58333331 </v>
    <v>       0.33333334       0.36055380       0.41666665 </v>
    <v>       0.66666669       0.63944624       0.58333331 </v>
    <v>       0.36055377       0.02722046       0.58333331 </v>
    <v>       0.63944622       0.97277958       0.41666665 </v>
    <v>       0.02722045       0.66666668       0.41666665 </v>
    <v>       0.63944620       0.66666668       0.91666672 </v>
    <v>       0.00000001       0.69388711       0.75000002 </v>
    <v>       0.33333336       0.97277958       0.91666672 </v>
    <v>       0.02722046       0.36055380       0.91666672 </v>
    <v>       0.30611288       0.30611288       0.75000002 </v>
    <v>       0.69388709       0.00000000       0.75000002 </v>
   </varray>
  </structure>
  <varray name="forces" >
   <v>      -0.00000000       0.00000000      -0.00844857 </v>
   <v>      -0.00000000       0.00000000       0.00844857 </v>
   <v>      -0.00000000       0.00000000      -0.00844857 </v>
   <v>      -0.00000000       0.00000000       0.00844857 </v>
   <v>      -0.00000000       0.00000000      -0.00844857 </v>
   <v>      -0.00000000       0.00000000       0.00844857 </v>
   <v>      -0.00000000       0.00000000      -0.00844857 </v>
   <v>      -0.00000000       0.00000000       0.00844857 </v>
   <v>      -0.00000000       0.00000000      -0.00844857 </v>
   <v>      -0.00000000       0.00000000       0.00844857 </v>
   <v>      -0.00000000       0.00000000      -0.00844857 </v>
   <v>      -0.00000000       0.00000000       0.00844857 </v>
   <v>      -0.00516375       0.00000000       0.00000000 </v>
   <v>      -0.00258187       0.00447194       0.00000000 </v>
   <v>       0.00258187      -0.00447194       0.00000000 </v>
   <v>       0.00258187       0.00447194       0.00000000 </v>
   <v>      -0.00258187      -0.00447194       0.00000000 </v>
   <v>       0.00516375       0.00000000       0.00000000 </v>
   <v>      -0.00516375       0.00000000       0.00000000 </v>
   <v>      -0.00258187       0.00447194       0.00000000 </v>
   <v>       0.00258187      -0.00447194       0.00000000 </v>
   <v>       0.00258187       0.00447194       0.00000000 </v>
   <v>      -0.00258187      -0.00447194       0.00000000 </v>
   <v>       0.00516375       0.00000000       0.00000000 </v>
   <v>      -0.00516375       0.00000000       0.00000000 </v>
   <v>      -0.00258187       0.00447194       0.00000000 </v>
   <v>       0.00258187      -0.00447194       0.00000000 </v>
   <v>       0.00258187       0.00447194       0.00000000 </v>
   <v>      -0.00258187      -0.00447194       0.00000000 </v>
   <v>       0.00516375       0.00000000       0.00000000 </v>
  </varray>
  <varray name="stress" >
   <v>    -406.79952630       0.00000000       0.00000000 </v>
   <v>       0.00000000    -406.79952632       0.00000000 </v>
   <v>      -0.00000000      -0.00000000    -372.27873797 </v>
  </varray>
  <energy>
   <i name="e_fr_energy">   -228.78995624 </i>
   <i name="e_wo_entrp">   -228.78995624 </i>
   <i name="e_0_energy">   -228.78995624 </i>
  </energy>
  <time name="totalsc">   15.17   15.18</time>
 </calculation>
 <calculation>
  <scstep>
   <time name="dav">    2.13    2.14</time>
   <time name="total">    2.32    2.32</time>
   <energy>
    <i name="alphaZ">    243.67775989 </i>
    <i name="ewald">  -7125.01390717 </i>
    <i name="hartreedc">  -2256.36666387 </i>
    <i name="XCdc">    192.67478805 </i>
    <i name="pawpsdc">  14011.15120181 </i>
    <i name="pawaedc"> -13617.79281087 </i>
    <i name="eentropy">     -0.00000000 </i>
    <i name="bandstr">    -88.45052779 </i>
    <i name="atom">   8418.23244399 </i>
    <i name="e_fr_energy">   -221.88771596 </i>
    <i name="e_wo_entrp">   -221.88771596 </i>
    <i name="e_0_energy">   -221.88771596 </i>
   </energy>
  </scstep>
  <scstep>
   <time name="dav">    2.55    2.55</time>
   <time name="total">    2.74    2.74</time>
   <energy>
    <i name="e_fr_energy">   -221.88773369 </i>
    <i name="e_wo_entrp">   -221.88773369 </i>
    <i name="e_0_energy">   -221.88773369 </i>
   </energy>
  </scstep>
  <scstep>
   <time name="dav">    2.49    2.49</time>
   <time name="total">    2.68    2.68</time>
   <energy>
    <i name="e_fr_energy">   -221.88773316 </i>
    <i name="e_wo_entrp">   -221.88773316 </i>
    <i name="e_0_energy">   -221.88773316 </i>
   </energy>
  </scstep>
  <scstep>
   <time name="dav">    2.29    2.29</time>
   <time name="total">    2.48    2.48</time>
   <energy>
    <i name="e_fr_energy">   -221.88773212 </i>
    <i name="e_wo_entrp">   -221.88773212 </i>
    <i name="e_0_energy">   -221.88773212 </i>
   </energy>
  </scstep>
  <scstep>
   <time name="dav">    2.28    2.28</time>
   <time name="total">    2.47    2.47</time>
   <energy>
    <i name="e_fr_energy">   -221.88773216 </i>
    <i name="e_wo_entrp">   -221.88773216 </i>
    <i name="e_0_energy">   -221.88773216 </i>
   </energy>
  </scstep>
  <scstep>
   <time name="dav">    1.65    1.65</time>
   <time name="total">    1.71    1.71</time>
   <energy>
    <i name="alphaZ">    243.67775989 </i>
    <i name="ewald">  -7125.01390717 </i>
    <i name="hartreedc">  -2256.40941796 </i>
    <i name="XCdc">    192.67673770 </i>
    <i name="pawpsdc">  14011.58694110 </i>
    <i name="pawaedc"> -13618.22841716 </i>
    <i name="eentropy">     -0.00000000 </i>
    <i name="bandstr">    -88.40987248 </i>
    <i name="atom">   8418.23244399 </i>
    <i name="e_fr_energy">   -221.88773209 </i>
    <i name="e_wo_entrp">   -221.88773209 </i>
    <i name="e_0_energy">   -221.88773209 </i>
   </energy>
  </scstep>
  <structure>
   <crystal>
    <varray name="basis" >
     <v>       4.80502796       0.00000000       0.00000000 </v>
     <v>      -2.40251398       4.16127628       0.00000000 </v>
     <v>       0.00000000       0.00000000      13.11625385 </v>
    </varray>
    <i name="volume">    262.26013698 </i>
    <varray name="rec_basis" >
     <v>       0.20811533       0.12015544      -0.00000000 </v>
     <v>       0.00000000       0.24031089       0.00000000 </v>
     <v>       0.00000000      -0.00000000       0.07624128 </v>
    </varray>
   </crystal>
   <varray name="positions" >
    <v>      -0.00000000       0.00000000       0.14784976 </v>
    <v>       0.33333333       0.66666668       0.01881690 </v>
    <v>       0.33333333       0.66666668       0.31451642 </v>
    <v>       0.66666667       0.33333334       0.18548356 </v>
    <v>       0.66666667       0.33333334       0.48118309 </v>
    <v>      -0.00000000      -0.00000000       0.35215021 </v>
    <v>      -0.00000000       0.00000000       0.64784972 </v>
    <v>       0.33333333       0.66666668       0.51881687 </v>
    <v>       0.33333333       0.66666668       0.81451642 </v>
    <v>       0.66666667       0.33333334       0.68548354 </v>
    <v>       0.66666667       0.33333334       0.98118313 </v>
    <v>      -0.00000000      -0.00000000       0.85215024 </v>
    <v>       0.30603845      -0.00000000       0.25000000 </v>
    <v>       0.66666668       0.02729489       0.08333332 </v>
    <v>       1.00000000       0.30603844       0.25000000 </v>
    <v>       0.69396153       0.69396154       0.25000000 </v>
    <v>       0.97270514       0.63937181       0.08333332 </v>
    <v>       0.36062822       0.33333334       0.08333332 </v>
    <v>       0.97270515       0.33333334       0.58333331 </v>
    <v>       0.33333334       0.36062823       0.41666665 </v>
    <v>       0.66666669       0.63937181       0.58333331 </v>
    <v>       0.36062821       0.02729489       0.58333331 </v>
    <v>       0.63937179       0.97270515       0.41666665 </v>
    <v>       0.02729489       0.66666668       0.41666665 </v>
    <v>       0.63937176       0.66666668       0.91666672 </v>
    <v>       0.00000001       0.69396154       0.75000002 </v>
    <v>       0.33333336       0.97270515       0.91666672 </v>
    <v>       0.02729489       0.36062823       0.91666672 </v>
    <v>       0.30603845       0.30603844       0.75000002 </v>
    <v>       0.69396152       0.00000000       0.75000002 </v>
   </varray>
  </structure>
  <varray name="forces" >
   <v>       0.00000000       0.00000000      -0.00047407 </v>
   <v>       0.00000000       0.00000000       0.00047407 </v>
   <v>       0.00000000       0.00000000      -0.00047407 </v>
   <v>       0.00000000       0.00000000       0.00047407 </v>
   <v>       0.00000000       0.00000000      -0.00047407 </v>
   <v>       0.00000000       0.00000000       0.00047407 </v>
   <v>       0.00000000       0.00000000      -0.00047407 </v>
   <v>       0.00000000       0.00000000       0.00047407 </v>
   <v>       0.00000000       0.00000000      -0.00047407 </v>
   <v>       0.00000000       0.00000000       0.00047407 </v>
   <v>       0.00000000       0.00000000      -0.00047407 </v>
   <v>       0.00000000       0.00000000       0.00047407 </v>
   <v>       0.00149514       0.00000000       0.00000000 </v>
   <v>       0.00074757      -0.00129483       0.00000000 </v>
   <v>      -0.00074757       0.00129483       0.00000000 </v>
   <v>      -0.00074757      -0.00129483      -0.00000000 </v>
   <v>       0.00074757       0.00129483      -0.00000000 </v>
   <v>      -0.00149514       0.00000000       0.00000000 </v>
   <v>       0.00149514       0.00000000       0.00000000 </v>
   <v>       0.00074757      -0.00129483      -0.00000000 </v>
   <v>      -0.00074757       0.00129483      -0.00000000 </v>
   <v>      -0.00074757      -0.00129483      -0.00000000 </v>
   <v>       0.00074757       0.00129483      -0.00000000 </v>
   <v>      -0.00149514       0.00000000      -0.00000000 </v>
   <v>       0.00149514       0.00000000      -0.00000000 </v>
   <v>       0.00074757      -0.00129483       0.00000000 </v>
   <v>      -0.00074757       0.00129483      -0.00000000 </v>
   <v>      -0.00074757      -0.00129483       0.00000000 </v>
   <v>       0.00074757       0.00129483      -0.00000000 </v>
   <v>      -0.00149514       0.00000000       0.00000000 </v>
  </varray>
  <varray name="stress" >
   <v>    -406.70583300       0.00000000       0.00000000 </v>
   <v>       0.00000000    -406.70583301       0.00000000 </v>
   <v>       0.00000000       0.00000000    -372.44725996 </v>
  </varray>
  <energy>
   <i name="e_fr_energy">   -228.78999714 </i>
   <i name="e_wo_entrp">   -228.78999714 </i>
   <i name="e_0_energy">   -228.78999714 </i>
  </energy>
  <time name="totalsc">   16.31   16.32</time>
 </calculation>
 <calculation>
  <scstep>
   <time name="dav">    2.15    2.15</time>
   <time name="total">    2.34    2.34</time>
   <energy>
    <i name="alphaZ">    243.67775989 </i>
    <i name="ewald">  -7125.04025886 </i>
    <i name="hartreedc">  -2256.38529901 </i>
    <i name="XCdc">    192.67643669 </i>
    <i name="pawpsdc">  14011.58864830 </i>
    <i name="pawaedc"> -13618.23012146 </i>
    <i name="eentropy">     -0.00000000 </i>
    <i name="bandstr">    -88.40733800 </i>
    <i name="atom">   8418.23244399 </i>
    <i name="e_fr_energy">   -221.88772846 </i>
    <i name="e_wo_entrp">   -221.88772846 </i>
    <i name="e_0_energy">   -221.88772846 </i>
   </energy>
  </scstep>
  <scstep>
   <time name="dav">    2.50    2.50</time>
   <time name="total">    2.69    2.69</time>
   <energy>
    <i name="e_fr_energy">   -221.88772876 </i>
    <i name="e_wo_entrp">   -221.88772876 </i>
    <i name="e_0_energy">   -221.88772876 </i>
   </energy>
  </scstep>
  <scstep>
   <time name="dav">    1.71    1.71</time>
   <time name="total">    1.89    1.89</time>
   <energy>
    <i name="e_fr_energy">   -221.88772875 </i>
    <i name="e_wo_entrp">   -221.88772875 </i>
    <i name="e_0_energy">   -221.88772875 </i>
   </energy>
  </scstep>
  <scstep>
   <time name="dav">    1.63    1.63</time>
   <time name="total">    1.81    1.82</time>
   <energy>
    <i name="e_fr_energy">   -221.88772877 </i>
    <i name="e_wo_entrp">   -221.88772877 </i>
    <i name="e_0_energy">   -221.88772877 </i>
   </energy>
  </scstep>
  <scstep>
   <time name="dav">    1.49    1.49</time>
   <time name="total">    1.68    1.68</time>
   <energy>
    <i name="e_fr_energy">   -221.88772878 </i>
    <i name="e_wo_entrp">   -221.88772878 </i>
    <i name="e_0_energy">   -221.88772878 </i>
   </energy>
  </scstep>
  <scstep>
   <time name="dav">    1.49    1.49</time>
   <time name="total">    1.54    1.54</time>
   <energy>
    <i name="alphaZ">    243.67775989 </i>
    <i name="ewald">  -7125.04025886 </i>
    <i name="hartreedc">  -2256.38282798 </i>
    <i name="XCdc">    192.67639648 </i>
    <i name="pawpsdc">  14011.49965324 </i>
    <i name="pawaedc"> -13618.14114123 </i>
    <i name="eentropy">     -0.00000000 </i>
    <i name="bandstr">    -88.40975432 </i>
    <i name="atom">   8418.23244399 </i>
    <i name="e_fr_energy">   -221.88772879 </i>
    <i name="e_wo_entrp">   -221.88772879 </i>
    <i name="e_0_energy">   -221.88772879 </i>
   </energy>
  </scstep>
  <structure>
   <crystal>
    <varray name="basis" >
     <v>       4.80502796       0.00000000       0.00000000 </v>
     <v>      -2.40251398       4.16127628       0.00000000 </v>
     <v>       0.00000000       0.00000000      13.11625385 </v>
    </varray>
    <i name="volume">    262.26013698 </i>
    <varray name="rec_basis" >
     <v>       0.20811533       0.12015544      -0.00000000 </v>
     <v>       0.00000000       0.24031089       0.00000000 </v>
     <v>       0.00000000      -0.00000000       0.07624128 </v>
    </varray>
   </crystal>
   <varray name="positions" >
    <v>      -0.00000000       0.00000000       0.14784875 </v>
    <v>       0.33333333       0.66666668       0.01881791 </v>
    <v>       0.33333333       0.66666668       0.31451541 </v>
    <v>       0.66666667       0.33333334       0.18548457 </v>
    <v>       0.66666667       0.33333334       0.48118208 </v>
    <v>      -0.00000000       0.00000000       0.35215122 </v>
    <v>      -0.00000000       0.00000000       0.64784871 </v>
    <v>       0.33333333       0.66666668       0.51881789 </v>
    <v>       0.33333333       0.66666668       0.81451541 </v>
    <v>       0.66666667       0.33333334       0.68548455 </v>
    <v>       0.66666667       0.33333334       0.98118211 </v>
    <v>      -0.00000000       0.00000000       0.85215126 </v>
    <v>       0.30604715       0.00000000       0.25000000 </v>
    <v>       0.66666668       0.02728618       0.08333332 </v>
    <v>       1.00000000       0.30604715       0.25000000 </v>
    <v>       0.69395283       0.69395284       0.25000000 </v>
    <v>       0.97271385       0.63938051       0.08333332 </v>
    <v>       0.36061951       0.33333334       0.08333332 </v>
    <v>       0.97271385       0.33333334       0.58333331 </v>
    <v>       0.33333334       0.36061953       0.41666665 </v>
    <v>       0.66666669       0.63938051       0.58333331 </v>
    <v>       0.36061950       0.02728618       0.58333331 </v>
    <v>       0.63938049       0.97271385       0.41666665 </v>
    <v>       0.02728618       0.66666668       0.41666665 </v>
    <v>       0.63938047       0.66666668       0.91666672 </v>
    <v>       0.00000001       0.69395284       0.75000002 </v>
    <v>       0.33333336       0.97271385       0.91666672 </v>
    <v>       0.02728619       0.36061953       0.91666672 </v>
    <v>       0.30604715       0.30604715       0.75000002 </v>
    <v>       0.69395282       0.00000000       0.75000002 </v>
   </varray>
  </structure>
  <varray name="forces" >
   <v>      -0.00000000      -0.00000000      -0.00014007 </v>
   <v>      -0.00000000      -0.00000000       0.00014007 </v>
   <v>      -0.00000000      -0.00000000      -0.00014007 </v>
   <v>      -0.00000000      -0.00000000       0.00014007 </v>
   <v>      -0.00000000      -0.00000000      -0.00014007 </v>
   <v>      -0.00000000      -0.00000000       0.00014007 </v>
   <v>      -0.00000000      -0.00000000      -0.00014007 </v>
   <v>      -0.00000000      -0.00000000       0.00014007 </v>
   <v>      -0.00000000      -0.00000000      -0.00014007 </v>
   <v>      -0.00000000      -0.00000000       0.00014007 </v>
   <v>      -0.00000000      -0.00000000      -0.00014007 </v>
   <v>      -0.00000000      -0.00000000       0.00014007 </v>
   <v>       0.00045171      -0.00000000      -0.00000000 </v>
   <v>       0.00022585      -0.00039119       0.00000000 </v>
   <v>      -0.00022585       0.00039119      -0.00000000 </v>
   <v>      -0.00022585      -0.00039119      -0.00000000 </v>
   <v>       0.00022585       0.00039119      -0.00000000 </v>
   <v>      -0.00045171      -0.00000000       0.00000000 </v>
   <v>       0.00045171      -0.00000000      -0.00000000 </v>
   <v>       0.00022585      -0.00039119       0.00000000 </v>
   <v>      -0.00022585       0.00039119       0.00000000 </v>
   <v>      -0.00022585      -0.00039119      -0.00000000 </v>
   <v>       0.00022585       0.00039119      -0.00000000 </v>
   <v>      -0.00045171      -0.00000000      -0.00000000 </v>
   <v>       0.00045171      -0.00000000       0.00000000 </v>
   <v>       0.00022585      -0.00039119      -0.00000000 </v>
   <v>      -0.00022585       0.00039119      -0.00000000 </v>
   <v>      -0.00022585      -0.00039119       0.00000000 </v>
   <v>       0.00022585       0.00039119      -0.00000000 </v>
   <v>      -0.00045171       0.00000000      -0.00000000 </v>
  </varray>
  <varray name="stress" >
   <v>    -406.71577877       0.00000000      -0.00000000 </v>
   <v>       0.00000000    -406.71577879      -0.00000000 </v>
   <v>       0.00000000       0.00000000    -372.43395536 </v>
  </varray>
  <energy>
   <i name="e_fr_energy">   -228.78999792 </i>
   <i name="e_wo_entrp">   -228.78999792 </i>
   <i name="e_0_energy">   -228.78999792 </i>
  </energy>
  <time name="totalsc">   13.87   13.88</time>
 </calculation>
 <calculation>
  <scstep>
   <time name="dav">    2.15    2.15</time>
   <time name="total">    2.34    2.34</time>
   <energy>
    <i name="alphaZ">    243.67775989 </i>
    <i name="ewald">  -7125.05164059 </i>
    <i name="hartreedc">  -2256.37234334 </i>
    <i name="XCdc">    192.67625963 </i>
    <i name="pawpsdc">  14011.50047434 </i>
    <i name="pawaedc"> -13618.14196130 </i>
    <i name="eentropy">     -0.00000000 </i>
    <i name="bandstr">    -88.40871969 </i>
    <i name="atom">   8418.23244399 </i>
    <i name="e_fr_energy">   -221.88772707 </i>
    <i name="e_wo_entrp">   -221.88772707 </i>
    <i name="e_0_energy">   -221.88772707 </i>
   </energy>
  </scstep>
  <scstep>
   <time name="dav">    2.20    2.20</time>
   <time name="total">    2.39    2.39</time>
   <energy>
    <i name="e_fr_energy">   -221.88772711 </i>
    <i name="e_wo_entrp">   -221.88772711 </i>
    <i name="e_0_energy">   -221.88772711 </i>
   </energy>
  </scstep>
  <scstep>
   <time name="dav">    1.50    1.50</time>
   <time name="total">    1.69    1.69</time>
   <energy>
    <i name="e_fr_energy">   -221.88772711 </i>
    <i name="e_wo_entrp">   -221.88772711 </i>
    <i name="e_0_energy">   -221.88772711 </i>
   </energy>
  </scstep>
  <scstep>
   <time name="dav">    1.47    1.47</time>
   <time name="total">    1.66    1.66</time>
   <energy>
    <i name="e_fr_energy">   -221.88772713 </i>
    <i name="e_wo_entrp">   -221.88772713 </i>
    <i name="e_0_energy">   -221.88772713 </i>
   </energy>
  </scstep>
  <scstep>
   <time name="dav">    1.47    1.47</time>
   <time name="total">    1.66    1.66</time>
   <energy>
    <i name="e_fr_energy">   -221.88772713 </i>
    <i name="e_wo_entrp">   -221.88772713 </i>
    <i name="e_0_energy">   -221.88772713 </i>
   </energy>
  </scstep>
  <scstep>
   <time name="dav">    1.47    1.47</time>
   <time name="total">    1.53    1.53</time>
   <energy>
    <i name="alphaZ">    243.67775989 </i>
    <i name="ewald">  -7125.05164059 </i>
    <i name="hartreedc">  -2256.37141444 </i>
    <i name="XCdc">    192.67625418 </i>
    <i name="pawpsdc">  14011.46247397 </i>
    <i name="pawaedc"> -13618.10396074 </i>
    <i name="eentropy">     -0.00000000 </i>
    <i name="bandstr">    -88.40964338 </i>
    <i name="atom">   8418.23244399 </i>
    <i name="e_fr_energy">   -221.88772713 </i>
    <i name="e_wo_entrp">   -221.88772713 </i>
    <i name="e_0_energy">   -221.88772713 </i>
   </energy>
  </scstep>
  <structure>
   <crystal>
    <varray name="basis" >
     <v>       4.80502796       0.00000000       0.00000000 </v>
     <v>      -2.40251398       4.16127628       0.00000000 </v>
     <v>       0.00000000       0.00000000      13.11625385 </v>
    </varray>
    <i name="volume">    262.26013698 </i>
    <varray name="rec_basis" >
     <v>       0.20811533       0.12015544      -0.00000000 </v>
     <v>       0.00000000       0.24031089       0.00000000 </v>
     <v>       0.00000000      -0.00000000       0.07624128 </v>
    </varray>
   </crystal>
   <varray name="positions" >
    <v>      -0.00000000       0.00000000       0.14784832 </v>
    <v>       0.33333333       0.66666668       0.01881835 </v>
    <v>       0.33333333       0.66666668       0.31451497 </v>
    <v>       0.66666667       0.33333334       0.18548501 </v>
    <v>       0.66666667       0.33333334       0.48118164 </v>
    <v>      -0.00000000       0.00000000       0.35215166 </v>
    <v>      -0.00000000       0.00000000       0.64784827 </v>
    <v>       0.33333333       0.66666668       0.51881832 </v>
    <v>       0.33333333       0.66666668       0.81451497 </v>
    <v>       0.66666667       0.33333334       0.68548499 </v>
    <v>       0.66666667       0.33333334       0.98118168 </v>
    <v>      -0.00000000       0.00000000       0.85215169 </v>
    <v>       0.30605091       0.00000000       0.25000000 </v>
    <v>       0.66666668       0.02728242       0.08333332 </v>
    <v>       1.00000000       0.30605091       0.25000000 </v>
    <v>       0.69394907       0.69394908       0.25000000 </v>
    <v>       0.97271761       0.63938427       0.08333332 </v>
    <v>       0.36061575       0.33333334       0.08333332 </v>
    <v>       0.97271761       0.33333334       0.58333331 </v>
    <v>       0.33333334       0.36061577       0.41666665 </v>
    <v>       0.66666669       0.63938427       0.58333331 </v>
    <v>       0.36061574       0.02728242       0.58333331 </v>
    <v>       0.63938425       0.97271761       0.41666665 </v>
    <v>       0.02728242       0.66666668       0.41666665 </v>
    <v>       0.63938423       0.66666668       0.91666672 </v>
    <v>       0.00000001       0.69394908       0.75000002 </v>
    <v>       0.33333336       0.97271761       0.91666672 </v>
    <v>       0.02728243       0.36061577       0.91666672 </v>
    <v>       0.30605091       0.30605091       0.75000002 </v>
    <v>       0.69394906       0.00000000       0.75000002 </v>
   </varray>
  </structure>
  <varray name="forces" >
   <v>      -0.00000000       0.00000000       0.00000027 </v>
   <v>       0.00000000      -0.00000000      -0.00000027 </v>
   <v>      -0.00000000       0.00000000       0.00000027 </v>
   <v>      -0.00000000      -0.00000000      -0.00000027 </v>
   <v>      -0.00000000       0.00000000       0.00000027 </v>
   <v>      -0.00000000      -0.00000000      -0.00000027 </v>
   <v>       0.00000000       0.00000000       0.00000027 </v>
   <v>      -0.00000000      -0.00000000      -0.00000027 </v>
   <v>      -0.00000000       0.00000000       0.00000027 </v>
   <v>      -0.00000000      -0.00000000      -0.00000027 </v>
   <v>       0.00000000       0.00000000       0.00000027 </v>
   <v>      -0.00000000      -0.00000000      -0.00000027 </v>
   <v>       0.00008503       0.00000000      -0.00000000 </v>
   <v>       0.00004251      -0.00007364      -0.00000000 </v>
   <v>      -0.00004251       0.00007364      -0.00000000 </v>
   <v>      -0.00004251      -0.00007364       0.00000000 </v>
   <v>       0.00004251       0.00007364      -0.00000000 </v>
   <v>      -0.00008503       0.00000000       0.00000000 </v>
   <v>       0.00008503       0.00000000      -0.00000000 </v>
   <v>       0.00004251      -0.00007364       0.00000000 </v>
   <v>      -0.00004251       0.00007364      -0.00000000 </v>
   <v>      -0.00004251      -0.00007364       0.00000000 </v>
   <v>       0.00004251       0.00007364      -0.00000000 </v>
   <v>      -0.00008503       0.00000000       0.00000000 </v>
   <v>       0.00008503      -0.00000000      -0.00000000 </v>
   <v>       0.00004251      -0.00007364      -0.00000000 </v>
   <v>      -0.00004251       0.00007364       0.00000000 </v>
   <v>      -0.00004251      -0.00007364       0.00000000 </v>
   <v>       0.00004251       0.00007364      -0.00000000 </v>
   <v>      -0.00008503       0.00000000       0.00000000 </v>
  </varray>
  <varray name="stress" >
   <v>    -406.72036271       0.00000000       0.00000000 </v>
   <v>       0.00000000    -406.72036272       0.00000000 </v>
   <v>       0.00000000       0.00000000    -372.42847219 </v>
  </varray>
  <energy>
   <i name="e_fr_energy">   -228.78999804 </i>
   <i name="e_wo_entrp">   -228.78999804 </i>
   <i name="e_0_energy">   -228.78999804 </i>
  </energy>
  <time name="totalsc">   12.82   12.83</time>
  <eigenvalues>
   <array>
    <dimension dim="1">band</dimension>
    <dimension dim="2">kpoint</dimension>
    <dimension dim="3">spin</dimension>
    <field>eigene</field>
    <field>occ</field>
    <set>
     <set comment="spin 1">
      <set comment="kpoint 1">
       <r>  -13.4083    1.0000 </r>
       <r>  -12.9633    1.0000 </r>
       <r>  -12.9633    1.0000 </r>
       <r>  -11.8854    1.0000 </r>
       <r>  -11.8854    1.0000 </r>
       <r>  -11.2000    1.0000 </r>
       <r>  -10.9327    1.0000 </r>
       <r>  -10.9327    1.0000 </r>
       <r>  -10.8695    1.0000 </r>
       <r>  -10.8695    1.0000 </r>
       <r>  -10.8695    1.0000 </r>
       <r>  -10.8695    1.0000 </r>
       <r>  -10.7171    1.0000 </r>
       <r>  -10.7170    1.0000 </r>
       <r>  -10.7170    1.0000 </r>
       <r>  -10.7170    1.0000 </r>
       <r>  -10.6254    1.0000 </r>
       <r>  -10.6254    1.0000 </r>
       <r>   -1.0991    1.0000 </r>
       <r>   -0.1309    1.0000 </r>
       <r>   -0.0880    1.0000 </r>
       <r>   -0.0880    1.0000 </r>
       <r>    0.2597    1.0000 </r>
       <r>    0.2597    1.0000 </r>
       <r>    0.3322    1.0000 </r>
       <r>    0.3323    1.0000 </r>
       <r>    0.5754    1.0000 </r>
       <r>    0.5754    1.0000 </r>
       <r>    0.7318    1.0000 </r>
       <r>    0.7319    1.0000 </r>
       <r>    0.7319    1.0000 </r>
       <r>    0.7319    1.0000 </r>
       <r>    1.3490    1.0000 </r>
       <r>    1.5025    1.0000 </r>
       <r>    1.5025    1.0000 </r>
       <r>    1.9048    1.0000 </r>
       <r>    1.9048    1.0000 </r>
       <r>    1.9048    1.0000 </r>
       <r>    1.9048    1.0000 </r>
       <r>    2.4923    1.0000 </r>
       <r>    2.7701    1.0000 </r>
       <r>    2.7702    1.0000 </r>
       <r>    2.7944    1.0000 </r>
       <r>    3.0525    1.0000 </r>
       <r>    3.0525    1.0000 </r>
       <r>    3.2624    1.0000 </r>
       <r>    3.2624    1.0000 </r>
       <r>    3.2625    1.0000 </r>
       <r>    3.2625    1.0000 </r>
       <r>    4.0644    1.0000 </r>
       <r>    4.0645    1.0000 </r>
       <r>    4.3249    1.0000 </r>
       <r>    4.3250    1.0000 </r>
       <r>    4.3787    1.0000 </r>
       <r>    4.3787    1.0000 </r>
       <r>    4.3788    1.0000 </r>
       <r>    4.3788    1.0000 </r>
       <r>    4.4586    1.0000 </r>
       <r>    4.4588    1.0000 </r>
       <r>    5.1997    1.0000 </r>
       <r>    5.1998    1.0000 </r>
       <r>    5.2001    1.0000 </r>
       <r>    5.2002    1.0000 </r>
       <r>    5.2179    1.0000 </r>
       <r>    5.2182    1.0000 </r>
       <r>    5.4955    1.0000 </r>
       <r>    5.4955    1.0000 </r>
       <r>    5.4960    1.0000 </r>
       <r>    5.4960    1.0000 </r>
       <r>    5.6646    1.0000 </r>
       <r>    5.6651    1.0000 </r>
       <r>    5.7834    1.0000 </r>
       <r>   11.4945    0.0000 </r>
       <r>   13.0525    0.0000 </r>
       <r>   13.0526    0.0000 </r>
       <r>   14.5223    0.0000 </r>
       <r>   14.5224    0.0000 </r>
       <r>   14.5730    0.0000 </r>
       <r>   16.0516    0.0000 </r>
       <r>   16.0516    0.0000 </r>
       <r>   16.0852    0.0000 </r>
       <r>   16.9425    0.0000 </r>
       <r>   16.9426    0.0000 </r>
       <r>   17.0373    0.0000 </r>
       <r>   17.0373    0.0000 </r>
       <r>   17.1481    0.0000 </r>
       <r>   17.6027    0.0000 </r>
       <r>   17.6031    0.0000 </r>
      </set>
      <set comment="kpoint 2">
       <r>  -13.2857    1.0000 </r>
       <r>  -12.8520    1.0000 </r>
       <r>  -12.8499    1.0000 </r>
       <r>  -11.8261    1.0000 </r>
       <r>  -11.8116    1.0000 </r>
       <r>  -11.2392    1.0000 </r>
       <r>  -11.1437    1.0000 </r>
       <r>  -11.0683    1.0000 </r>
       <r>  -10.9912    1.0000 </r>
       <r>  -10.9851    1.0000 </r>
       <r>  -10.9554    1.0000 </r>
       <r>  -10.8947    1.0000 </r>
       <r>  -10.8082    1.0000 </r>
       <r>  -10.7698    1.0000 </r>
       <r>  -10.6677    1.0000 </r>
       <r>  -10.6595    1.0000 </r>
       <r>  -10.6054    1.0000 </r>
       <r>  -10.6014    1.0000 </r>
       <r>   -0.9850    1.0000 </r>
       <r>   -0.3926    1.0000 </r>
       <r>   -0.1730    1.0000 </r>
       <r>   -0.0384    1.0000 </r>
       <r>    0.0151    1.0000 </r>
       <r>    0.1134    1.0000 </r>
       <r>    0.1181    1.0000 </r>
       <r>    0.1400    1.0000 </r>
       <r>    0.3506    1.0000 </r>
       <r>    0.8409    1.0000 </r>
       <r>    0.8600    1.0000 </r>
       <r>    1.0369    1.0000 </r>
       <r>    1.0961    1.0000 </r>
       <r>    1.2090    1.0000 </r>
       <r>    1.2838    1.0000 </r>
       <r>    1.3442    1.0000 </r>
       <r>    1.8220    1.0000 </r>
       <r>    1.8797    1.0000 </r>
       <r>    2.0250    1.0000 </r>
       <r>    2.1434    1.0000 </r>
       <r>    2.3445    1.0000 </r>
       <r>    2.6325    1.0000 </r>
       <r>    2.6803    1.0000 </r>
       <r>    2.9978    1.0000 </r>
       <r>    3.0839    1.0000 </r>
       <r>    3.1120    1.0000 </r>
       <r>    3.1244    1.0000 </r>
       <r>    3.2853    1.0000 </r>
       <r>    3.4006    1.0000 </r>
       <r>    3.6050    1.0000 </r>
       <r>    3.7409    1.0000 </r>
       <r>    3.8893    1.0000 </r>
       <r>    4.0017    1.0000 </r>
       <r>    4.0586    1.0000 </r>
       <r>    4.0615    1.0000 </r>
       <r>    4.0805    1.0000 </r>
       <r>    4.3306    1.0000 </r>
       <r>    4.3352    1.0000 </r>
       <r>    4.4649    1.0000 </r>
       <r>    4.4804    1.0000 </r>
       <r>    4.6719    1.0000 </r>
       <r>    4.8355    1.0000 </r>
       <r>    4.8752    1.0000 </r>
       <r>    4.9899    1.0000 </r>
       <r>    5.0156    1.0000 </r>
       <r>    5.0319    1.0000 </r>
       <r>    5.1822    1.0000 </r>
       <r>    5.2772    1.0000 </r>
       <r>    5.3587    1.0000 </r>
       <r>    5.3713    1.0000 </r>
       <r>    5.3986    1.0000 </r>
       <r>    5.4277    1.0000 </r>
       <r>    5.6469    1.0000 </r>
       <r>    5.6866    1.0000 </r>
       <r>   12.0893    0.0000 </r>
       <r>   13.4627    0.0000 </r>
       <r>   13.4635    0.0000 </r>
       <r>   14.9756    0.0000 </r>
       <r>   14.9761    0.0000 </r>
       <r>   15.0684    0.0000 </r>
       <r>   15.6182    0.0000 </r>
       <r>   16.1711    0.0000 </r>
       <r>   16.1792    0.0000 </r>
       <r>   16.2470    0.0000 </r>
       <r>   16.5412    0.0000 </r>
       <r>   16.6593    0.0000 </r>
       <r>   16.7600    0.0000 </r>
       <r>   16.8366    0.0000 </r>
       <r>   17.0181    0.0000 </r>
       <r>   17.1833    0.0000 </r>
      </set>
      <set comment="kpoint 3">
       <r>  -12.9320    1.0000 </r>
       <r>  -12.5553    1.0000 </r>
       <r>  -12.5286    1.0000 </r>
       <r>  -11.9020    1.0000 </r>
       <r>  -11.6175    1.0000 </r>
       <r>  -11.5690    1.0000 </r>
       <r>  -11.3671    1.0000 </r>
       <r>  -11.3528    1.0000 </r>
       <r>  -11.2156    1.0000 </r>
       <r>  -11.0870    1.0000 </r>
       <r>  -11.0441    1.0000 </r>
       <r>  -10.9202    1.0000 </r>
       <r>  -10.8986    1.0000 </r>
       <r>  -10.8340    1.0000 </r>
       <r>  -10.7753    1.0000 </r>
       <r>  -10.7218    1.0000 </r>
       <r>  -10.5979    1.0000 </r>
       <r>  -10.5768    1.0000 </r>
       <r>   -0.7961    1.0000 </r>
       <r>   -0.4574    1.0000 </r>
       <r>   -0.3108    1.0000 </r>
       <r>   -0.2738    1.0000 </r>
       <r>   -0.1236    1.0000 </r>
       <r>   -0.0867    1.0000 </r>
       <r>    0.0317    1.0000 </r>
       <r>    0.4138    1.0000 </r>
       <r>    0.6245    1.0000 </r>
       <r>    0.6843    1.0000 </r>
       <r>    1.1669    1.0000 </r>
       <r>    1.2289    1.0000 </r>
       <r>    1.3820    1.0000 </r>
       <r>    1.4070    1.0000 </r>
       <r>    1.4411    1.0000 </r>
       <r>    1.6610    1.0000 </r>
       <r>    1.7850    1.0000 </r>
       <r>    2.0939    1.0000 </r>
       <r>    2.2885    1.0000 </r>
       <r>    2.4366    1.0000 </r>
       <r>    2.6797    1.0000 </r>
       <r>    2.9192    1.0000 </r>
       <r>    3.0546    1.0000 </r>
       <r>    3.0561    1.0000 </r>
       <r>    3.1981    1.0000 </r>
       <r>    3.3009    1.0000 </r>
       <r>    3.4451    1.0000 </r>
       <r>    3.4700    1.0000 </r>
       <r>    3.4789    1.0000 </r>
       <r>    3.5979    1.0000 </r>
       <r>    3.7079    1.0000 </r>
       <r>    3.8474    1.0000 </r>
       <r>    4.0059    1.0000 </r>
       <r>    4.0131    1.0000 </r>
       <r>    4.0490    1.0000 </r>
       <r>    4.1288    1.0000 </r>
       <r>    4.1378    1.0000 </r>
       <r>    4.1538    1.0000 </r>
       <r>    4.3542    1.0000 </r>
       <r>    4.3842    1.0000 </r>
       <r>    4.4116    1.0000 </r>
       <r>    4.5071    1.0000 </r>
       <r>    4.6790    1.0000 </r>
       <r>    4.7692    1.0000 </r>
       <r>    4.8328    1.0000 </r>
       <r>    4.9671    1.0000 </r>
       <r>    5.0510    1.0000 </r>
       <r>    5.1644    1.0000 </r>
       <r>    5.1746    1.0000 </r>
       <r>    5.2154    1.0000 </r>
       <r>    5.2771    1.0000 </r>
       <r>    5.3011    1.0000 </r>
       <r>    5.5319    1.0000 </r>
       <r>    5.5618    1.0000 </r>
       <r>   13.3562    0.0000 </r>
       <r>   14.3306    0.0000 </r>
       <r>   14.3438    0.0000 </r>
       <r>   14.9690    0.0000 </r>
       <r>   15.1271    0.0000 </r>
       <r>   15.6674    0.0000 </r>
       <r>   15.7063    0.0000 </r>
       <r>   15.7797    0.0000 </r>
       <r>   15.9244    0.0000 </r>
       <r>   15.9917    0.0000 </r>
       <r>   15.9987    0.0000 </r>
       <r>   16.1505    0.0000 </r>
       <r>   16.1725    0.0000 </r>
       <r>   16.3232    0.0000 </r>
       <r>   16.5482    0.0000 </r>
       <r>   16.6030    0.0000 </r>
      </set>
      <set comment="kpoint 4">
       <r>  -12.4153    1.0000 </r>
       <r>  -12.4153    1.0000 </r>
       <r>  -12.2996    1.0000 </r>
       <r>  -12.0629    1.0000 </r>
       <r>  -12.0629    1.0000 </r>
       <r>  -11.6608    1.0000 </r>
       <r>  -11.4624    1.0000 </r>
       <r>  -11.2828    1.0000 </r>
       <r>  -11.1502    1.0000 </r>
       <r>  -11.1502    1.0000 </r>
       <r>  -11.0811    1.0000 </r>
       <r>  -11.0811    1.0000 </r>
       <r>  -11.0469    1.0000 </r>
       <r>  -10.7912    1.0000 </r>
       <r>  -10.7911    1.0000 </r>
       <r>  -10.7010    1.0000 </r>
       <r>  -10.7010    1.0000 </r>
       <r>  -10.5815    1.0000 </r>
       <r>   -0.7074    1.0000 </r>
       <r>   -0.7074    1.0000 </r>
       <r>   -0.3638    1.0000 </r>
       <r>   -0.1859    1.0000 </r>
       <r>   -0.1858    1.0000 </r>
       <r>    0.0637    1.0000 </r>
       <r>    0.4242    1.0000 </r>
       <r>    0.4243    1.0000 </r>
       <r>    0.7522    1.0000 </r>
       <r>    0.7523    1.0000 </r>
       <r>    1.0660    1.0000 </r>
       <r>    1.1364    1.0000 </r>
       <r>    1.5801    1.0000 </r>
       <r>    1.7036    1.0000 </r>
       <r>    1.7036    1.0000 </r>
       <r>    1.8048    1.0000 </r>
       <r>    1.9804    1.0000 </r>
       <r>    2.0585    1.0000 </r>
       <r>    2.0585    1.0000 </r>
       <r>    2.3417    1.0000 </r>
       <r>    2.3417    1.0000 </r>
       <r>    2.4959    1.0000 </r>
       <r>    3.0991    1.0000 </r>
       <r>    3.0992    1.0000 </r>
       <r>    3.2075    1.0000 </r>
       <r>    3.4081    1.0000 </r>
       <r>    3.4081    1.0000 </r>
       <r>    3.4346    1.0000 </r>
       <r>    3.6025    1.0000 </r>
       <r>    3.6025    1.0000 </r>
       <r>    3.7089    1.0000 </r>
       <r>    3.7090    1.0000 </r>
       <r>    3.9811    1.0000 </r>
       <r>    4.1946    1.0000 </r>
       <r>    4.2161    1.0000 </r>
       <r>    4.2161    1.0000 </r>
       <r>    4.3740    1.0000 </r>
       <r>    4.3740    1.0000 </r>
       <r>    4.3822    1.0000 </r>
       <r>    4.4285    1.0000 </r>
       <r>    4.5254    1.0000 </r>
       <r>    4.5255    1.0000 </r>
       <r>    4.6210    1.0000 </r>
       <r>    4.6210    1.0000 </r>
       <r>    4.7118    1.0000 </r>
       <r>    4.8127    1.0000 </r>
       <r>    4.9995    1.0000 </r>
       <r>    5.0168    1.0000 </r>
       <r>    5.0168    1.0000 </r>
       <r>    5.3150    1.0000 </r>
       <r>    5.3150    1.0000 </r>
       <r>    5.4121    1.0000 </r>
       <r>    5.4121    1.0000 </r>
       <r>    5.4621    1.0000 </r>
       <r>   14.6613    0.0000 </r>
       <r>   14.6614    0.0000 </r>
       <r>   14.7569    0.0000 </r>
       <r>   14.7569    0.0000 </r>
       <r>   15.0174    0.0000 </r>
       <r>   15.1056    0.0000 </r>
       <r>   15.1056    0.0000 </r>
       <r>   15.1728    0.0000 </r>
       <r>   15.2984    0.0000 </r>
       <r>   15.5459    0.0000 </r>
       <r>   15.5459    0.0000 </r>
       <r>   15.8102    0.0000 </r>
       <r>   16.6033    0.0000 </r>
       <r>   16.6737    0.0000 </r>
       <r>   16.7172    0.0000 </r>
       <r>   16.7458    0.0000 </r>
      </set>
      <set comment="kpoint 5">
       <r>  -13.0465    1.0000 </r>
       <r>  -12.6393    1.0000 </r>
       <r>  -12.6393    1.0000 </r>
       <r>  -11.7431    1.0000 </r>
       <r>  -11.7431    1.0000 </r>
       <r>  -11.4197    1.0000 </r>
       <r>  -11.2952    1.0000 </r>
       <r>  -11.2952    1.0000 </r>
       <r>  -11.1350    1.0000 </r>
       <r>  -11.1350    1.0000 </r>
       <r>  -11.1196    1.0000 </r>
       <r>  -10.9223    1.0000 </r>
       <r>  -10.8056    1.0000 </r>
       <r>  -10.8056    1.0000 </r>
       <r>  -10.7527    1.0000 </r>
       <r>  -10.7276    1.0000 </r>
       <r>  -10.5761    1.0000 </r>
       <r>  -10.5761    1.0000 </r>
       <r>   -0.7659    1.0000 </r>
       <r>   -0.4315    1.0000 </r>
       <r>   -0.2014    1.0000 </r>
       <r>   -0.2014    1.0000 </r>
       <r>   -0.0100    1.0000 </r>
       <r>    0.0449    1.0000 </r>
       <r>    0.0449    1.0000 </r>
       <r>    0.1627    1.0000 </r>
       <r>    0.1628    1.0000 </r>
       <r>    0.6854    1.0000 </r>
       <r>    1.2182    1.0000 </r>
       <r>    1.2182    1.0000 </r>
       <r>    1.2866    1.0000 </r>
       <r>    1.4611    1.0000 </r>
       <r>    1.5130    1.0000 </r>
       <r>    1.5131    1.0000 </r>
       <r>    1.8082    1.0000 </r>
       <r>    1.8082    1.0000 </r>
       <r>    2.3200    1.0000 </r>
       <r>    2.3200    1.0000 </r>
       <r>    2.7337    1.0000 </r>
       <r>    2.7337    1.0000 </r>
       <r>    3.0773    1.0000 </r>
       <r>    3.0773    1.0000 </r>
       <r>    3.1434    1.0000 </r>
       <r>    3.3073    1.0000 </r>
       <r>    3.5130    1.0000 </r>
       <r>    3.5390    1.0000 </r>
       <r>    3.5390    1.0000 </r>
       <r>    3.6579    1.0000 </r>
       <r>    3.6914    1.0000 </r>
       <r>    3.6914    1.0000 </r>
       <r>    3.8132    1.0000 </r>
       <r>    4.0039    1.0000 </r>
       <r>    4.0039    1.0000 </r>
       <r>    4.0957    1.0000 </r>
       <r>    4.1926    1.0000 </r>
       <r>    4.3217    1.0000 </r>
       <r>    4.3217    1.0000 </r>
       <r>    4.4484    1.0000 </r>
       <r>    4.5656    1.0000 </r>
       <r>    4.5657    1.0000 </r>
       <r>    4.6712    1.0000 </r>
       <r>    4.6712    1.0000 </r>
       <r>    4.8908    1.0000 </r>
       <r>    5.1060    1.0000 </r>
       <r>    5.1061    1.0000 </r>
       <r>    5.1453    1.0000 </r>
       <r>    5.1454    1.0000 </r>
       <r>    5.2059    1.0000 </r>
       <r>    5.3141    1.0000 </r>
       <r>    5.3141    1.0000 </r>
       <r>    5.5827    1.0000 </r>
       <r>    5.6462    1.0000 </r>
       <r>   12.9724    0.0000 </r>
       <r>   14.0711    0.0000 </r>
       <r>   14.0712    0.0000 </r>
       <r>   15.2220    0.0000 </r>
       <r>   15.5664    0.0000 </r>
       <r>   15.5665    0.0000 </r>
       <r>   15.7491    0.0000 </r>
       <r>   15.7501    0.0000 </r>
       <r>   15.7501    0.0000 </r>
       <r>   15.9102    0.0000 </r>
       <r>   16.1840    0.0000 </r>
       <r>   16.3221    0.0000 </r>
       <r>   16.3221    0.0000 </r>
       <r>   16.4096    0.0000 </r>
       <r>   16.4096    0.0000 </r>
       <r>   16.8018    0.0000 </r>
      </set>
      <set comment="kpoint 6">
       <r>  -12.6105    1.0000 </r>
       <r>  -12.3122    1.0000 </r>
       <r>  -12.2561    1.0000 </r>
       <r>  -12.0759    1.0000 </r>
       <r>  -11.7968    1.0000 </r>
       <r>  -11.6953    1.0000 </r>
       <r>  -11.5210    1.0000 </r>
       <r>  -11.2727    1.0000 </r>
       <r>  -11.2516    1.0000 </r>
       <r>  -11.2437    1.0000 </r>
       <r>  -11.2069    1.0000 </r>
       <r>  -10.9606    1.0000 </r>
       <r>  -10.9526    1.0000 </r>
       <r>  -10.8226    1.0000 </r>
       <r>  -10.8068    1.0000 </r>
       <r>  -10.7607    1.0000 </r>
       <r>  -10.6246    1.0000 </r>
       <r>  -10.5762    1.0000 </r>
       <r>   -0.5702    1.0000 </r>
       <r>   -0.4349    1.0000 </r>
       <r>   -0.1404    1.0000 </r>
       <r>   -0.1315    1.0000 </r>
       <r>   -0.0150    1.0000 </r>
       <r>   -0.0014    1.0000 </r>
       <r>    0.0791    1.0000 </r>
       <r>    0.4804    1.0000 </r>
       <r>    0.6016    1.0000 </r>
       <r>    0.7342    1.0000 </r>
       <r>    0.9010    1.0000 </r>
       <r>    1.2176    1.0000 </r>
       <r>    1.3642    1.0000 </r>
       <r>    1.4018    1.0000 </r>
       <r>    1.5944    1.0000 </r>
[...]
       <r>    0.5350    1.0000 </r>
       <r>    0.5350    1.0000 </r>
       <r>    1.7569    1.0000 </r>
       <r>    1.7569    1.0000 </r>
       <r>    1.7569    1.0000 </r>
       <r>    1.7570    1.0000 </r>
       <r>    1.7571    1.0000 </r>
       <r>    1.7571    1.0000 </r>
       <r>    2.1567    1.0000 </r>
       <r>    2.1567    1.0000 </r>
       <r>    2.1567    1.0000 </r>
       <r>    2.1567    1.0000 </r>
       <r>    2.1567    1.0000 </r>
       <r>    2.1567    1.0000 </r>
       <r>    3.7077    1.0000 </r>
       <r>    3.7077    1.0000 </r>
       <r>    3.7078    1.0000 </r>
       <r>    3.7079    1.0000 </r>
       <r>    3.7079    1.0000 </r>
       <r>    3.7079    1.0000 </r>
       <r>    4.1045    1.0000 </r>
       <r>    4.1045    1.0000 </r>
       <r>    4.1046    1.0000 </r>
       <r>    4.1046    1.0000 </r>
       <r>    4.1047    1.0000 </r>
       <r>    4.1047    1.0000 </r>
       <r>    4.5116    1.0000 </r>
       <r>    4.5116    1.0000 </r>
       <r>    4.5117    1.0000 </r>
       <r>    4.5117    1.0000 </r>
       <r>    4.5117    1.0000 </r>
       <r>    4.5118    1.0000 </r>
       <r>    4.8861    1.0000 </r>
       <r>    4.8861    1.0000 </r>
       <r>    4.8862    1.0000 </r>
       <r>    4.8862    1.0000 </r>
       <r>    4.8863    1.0000 </r>
       <r>    4.8863    1.0000 </r>
       <r>    5.3578    1.0000 </r>
       <r>    5.3579    1.0000 </r>
       <r>    5.3580    1.0000 </r>
       <r>    5.3580    1.0000 </r>
       <r>    5.3580    1.0000 </r>
       <r>    5.3580    1.0000 </r>
       <r>   14.7787    0.0000 </r>
       <r>   14.7787    0.0000 </r>
       <r>   14.7788    0.0000 </r>
       <r>   14.7788    0.0000 </r>
       <r>   14.7788    0.0000 </r>
       <r>   14.7789    0.0000 </r>
       <r>   15.3989    0.0000 </r>
       <r>   15.3989    0.0000 </r>
       <r>   15.3990    0.0000 </r>
       <r>   15.3990    0.0000 </r>
       <r>   15.3990    0.0000 </r>
       <r>   15.3990    0.0000 </r>
       <r>   16.0530    0.0000 </r>
       <r>   16.0531    0.0000 </r>
       <r>   16.0531    0.0000 </r>
       <r>   16.0531    0.0000 </r>
      </set>
     </set>
    </set>
   </array>
  </eigenvalues>
  <separator name="orbital magnetization" >
   <v name="MAGDIPOLOUT">      0.00000000      0.00000000      0.00000000</v>
  </separator>
  <dos>
   <i name="efermi">      6.08432055 </i>
   <total>
    <array>
     <dimension dim="1">gridpoints</dimension>
     <dimension dim="2">spin</dimension>
     <field>energy</field>
     <field>total</field>
     <field>integrated</field>
     <set>
      <set comment="spin 1">
       <r>   -14.9589     0.0000     0.0000 </r>
       <r>   -14.8452     0.0000     0.0000 </r>
       <r>   -14.7315     0.0000     0.0000 </r>
       <r>   -14.6177     0.0000     0.0000 </r>
       <r>   -14.5040     0.0000     0.0000 </r>
       <r>   -14.3903     0.0000     0.0000 </r>
       <r>   -14.2766     0.0000     0.0000 </r>
       <r>   -14.1629     0.0000     0.0000 </r>
       <r>   -14.0492     0.0000     0.0000 </r>
       <r>   -13.9355     0.0000     0.0000 </r>
       <r>   -13.8218     0.0000     0.0000 </r>
       <r>   -13.7081     0.0000     0.0000 </r>
       <r>   -13.5944     0.0000     0.0000 </r>
       <r>   -13.4807     0.0050     0.0006 </r>
       <r>   -13.3670     0.2357     0.0274 </r>
       <r>   -13.2532     1.6732     0.2176 </r>
       <r>   -13.1395     2.7344     0.5286 </r>
       <r>   -13.0258     1.5868     0.7090 </r>
       <r>   -12.9121     4.3404     1.2025 </r>
       <r>   -12.7984     6.0297     1.8882 </r>
       <r>   -12.6847     1.0832     2.0113 </r>
       <r>   -12.5710     6.2109     2.7176 </r>
       <r>   -12.4573     8.3141     3.6629 </r>
       <r>   -12.3436     5.9672     4.3415 </r>
       <r>   -12.2299     8.1309     5.2660 </r>
       <r>   -12.1162     8.9615     6.2850 </r>
       <r>   -12.0024    10.4659     7.4751 </r>
       <r>   -11.8887     6.0729     8.1656 </r>
       <r>   -11.7750     7.2915     8.9947 </r>
       <r>   -11.6613    10.2330    10.1583 </r>
       <r>   -11.5476     6.7966    10.9311 </r>
       <r>   -11.4339    12.9304    12.4014 </r>
       <r>   -11.3202    14.2280    14.0193 </r>
       <r>   -11.2065    26.0815    16.9850 </r>
       <r>   -11.0928    19.8025    19.2367 </r>
       <r>   -10.9791    25.4830    22.1343 </r>
       <r>   -10.8654    32.5046    25.8304 </r>
       <r>   -10.7517    28.8570    29.1117 </r>
       <r>   -10.6379    31.5294    32.6968 </r>
       <r>   -10.5242    28.3051    35.9154 </r>
       <r>   -10.4105     0.7443    36.0000 </r>
       <r>   -10.2968     0.0000    36.0000 </r>
       <r>   -10.1831     0.0000    36.0000 </r>
       <r>   -10.0694     0.0000    36.0000 </r>
       <r>    -9.9557     0.0000    36.0000 </r>
       <r>    -9.8420     0.0000    36.0000 </r>
       <r>    -9.7283     0.0000    36.0000 </r>
       <r>    -9.6146     0.0000    36.0000 </r>
       <r>    -9.5009     0.0000    36.0000 </r>
       <r>    -9.3872     0.0000    36.0000 </r>
       <r>    -9.2734     0.0000    36.0000 </r>
       <r>    -9.1597     0.0000    36.0000 </r>
       <r>    -9.0460     0.0000    36.0000 </r>
       <r>    -8.9323     0.0000    36.0000 </r>
       <r>    -8.8186     0.0000    36.0000 </r>
       <r>    -8.7049     0.0000    36.0000 </r>
       <r>    -8.5912     0.0000    36.0000 </r>
       <r>    -8.4775     0.0000    36.0000 </r>
       <r>    -8.3638     0.0000    36.0000 </r>
       <r>    -8.2501     0.0000    36.0000 </r>
       <r>    -8.1364     0.0000    36.0000 </r>
       <r>    -8.0226     0.0000    36.0000 </r>
       <r>    -7.9089     0.0000    36.0000 </r>
       <r>    -7.7952     0.0000    36.0000 </r>
       <r>    -7.6815     0.0000    36.0000 </r>
       <r>    -7.5678     0.0000    36.0000 </r>
       <r>    -7.4541     0.0000    36.0000 </r>
       <r>    -7.3404     0.0000    36.0000 </r>
       <r>    -7.2267     0.0000    36.0000 </r>
       <r>    -7.1130     0.0000    36.0000 </r>
       <r>    -6.9993     0.0000    36.0000 </r>
       <r>    -6.8856     0.0000    36.0000 </r>
       <r>    -6.7719     0.0000    36.0000 </r>
       <r>    -6.6581     0.0000    36.0000 </r>
       <r>    -6.5444     0.0000    36.0000 </r>
       <r>    -6.4307     0.0000    36.0000 </r>
       <r>    -6.3170     0.0000    36.0000 </r>
       <r>    -6.2033     0.0000    36.0000 </r>
       <r>    -6.0896     0.0000    36.0000 </r>
       <r>    -5.9759     0.0000    36.0000 </r>
       <r>    -5.8622     0.0000    36.0000 </r>
       <r>    -5.7485     0.0000    36.0000 </r>
       <r>    -5.6348     0.0000    36.0000 </r>
       <r>    -5.5211     0.0000    36.0000 </r>
       <r>    -5.4074     0.0000    36.0000 </r>
       <r>    -5.2936     0.0000    36.0000 </r>
       <r>    -5.1799     0.0000    36.0000 </r>
       <r>    -5.0662     0.0000    36.0000 </r>
       <r>    -4.9525     0.0000    36.0000 </r>
       <r>    -4.8388     0.0000    36.0000 </r>
       <r>    -4.7251     0.0000    36.0000 </r>
       <r>    -4.6114     0.0000    36.0000 </r>
       <r>    -4.4977     0.0000    36.0000 </r>
       <r>    -4.3840     0.0000    36.0000 </r>
       <r>    -4.2703     0.0000    36.0000 </r>
       <r>    -4.1566     0.0000    36.0000 </r>
       <r>    -4.0428     0.0000    36.0000 </r>
       <r>    -3.9291     0.0000    36.0000 </r>
       <r>    -3.8154     0.0000    36.0000 </r>
       <r>    -3.7017     0.0000    36.0000 </r>
       <r>    -3.5880     0.0000    36.0000 </r>
       <r>    -3.4743     0.0000    36.0000 </r>
       <r>    -3.3606     0.0000    36.0000 </r>
       <r>    -3.2469     0.0000    36.0000 </r>
       <r>    -3.1332     0.0000    36.0000 </r>
       <r>    -3.0195     0.0000    36.0000 </r>
       <r>    -2.9058     0.0000    36.0000 </r>
       <r>    -2.7921     0.0000    36.0000 </r>
       <r>    -2.6783     0.0000    36.0000 </r>
       <r>    -2.5646     0.0000    36.0000 </r>
       <r>    -2.4509     0.0000    36.0000 </r>
       <r>    -2.3372     0.0000    36.0000 </r>
       <r>    -2.2235     0.0000    36.0000 </r>
       <r>    -2.1098     0.0000    36.0000 </r>
       <r>    -1.9961     0.0000    36.0000 </r>
       <r>    -1.8824     0.0000    36.0000 </r>
       <r>    -1.7687     0.0000    36.0000 </r>
       <r>    -1.6550     0.0000    36.0000 </r>
       <r>    -1.5413     0.0000    36.0000 </r>
       <r>    -1.4276     0.0000    36.0000 </r>
       <r>    -1.3138     0.0000    36.0000 </r>
       <r>    -1.2001     0.0005    36.0001 </r>
       <r>    -1.0864     0.1588    36.0181 </r>
       <r>    -0.9727     1.0173    36.1338 </r>
       <r>    -0.8590     0.5946    36.2014 </r>
       <r>    -0.7453     2.7997    36.5198 </r>
       <r>    -0.6316     6.4708    37.2555 </r>
       <r>    -0.5179     8.7994    38.2561 </r>
       <r>    -0.4042    10.9980    39.5067 </r>
       <r>    -0.2905    16.5696    41.3908 </r>
       <r>    -0.1768    12.8449    42.8514 </r>
       <r>    -0.0630    15.8673    44.6556 </r>
       <r>     0.0507    23.3962    47.3160 </r>
       <r>     0.1644    14.0026    48.9082 </r>
       <r>     0.2781    10.8776    50.1450 </r>
       <r>     0.3918     8.9772    51.1658 </r>
       <r>     0.5055     6.6777    51.9251 </r>
       <r>     0.6192    13.8363    53.4984 </r>
       <r>     0.7329    10.6608    54.7107 </r>
       <r>     0.8466    18.1406    56.7734 </r>
       <r>     0.9603    15.4544    58.5307 </r>
       <r>     1.0740     5.4589    59.1514 </r>
       <r>     1.1877     6.3504    59.8735 </r>
       <r>     1.3015    14.2120    61.4895 </r>
       <r>     1.4152    11.8482    62.8368 </r>
       <r>     1.5289    10.6260    64.0451 </r>
       <r>     1.6426    13.5382    65.5845 </r>
       <r>     1.7563    19.6574    67.8197 </r>
       <r>     1.8700    20.1368    70.1094 </r>
       <r>     1.9837    11.0185    71.3623 </r>
       <r>     2.0974    10.3057    72.5342 </r>
       <r>     2.2111    13.3426    74.0513 </r>
       <r>     2.3248    12.3269    75.4530 </r>
       <r>     2.4385    13.5722    76.9963 </r>
       <r>     2.5522     8.2495    77.9343 </r>
       <r>     2.6660     6.1992    78.6392 </r>
       <r>     2.7797    16.0179    80.4606 </r>
       <r>     2.8934     8.0891    81.3804 </r>
       <r>     3.0071     8.2074    82.3136 </r>
       <r>     3.1208    23.2968    84.9627 </r>
       <r>     3.2345    14.5984    86.6226 </r>
       <r>     3.3482    16.5526    88.5048 </r>
       <r>     3.4619    19.1386    90.6810 </r>
       <r>     3.5756    24.6917    93.4887 </r>
       <r>     3.6893    17.5697    95.4865 </r>
       <r>     3.8030    19.8163    97.7398 </r>
       <r>     3.9168    21.9539   100.2361 </r>
       <r>     4.0305    22.0778   102.7466 </r>
       <r>     4.1442    24.7128   105.5566 </r>
       <r>     4.2579    18.5937   107.6709 </r>
       <r>     4.3716    35.8971   111.7527 </r>
       <r>     4.4853    34.0375   115.6231 </r>
       <r>     4.5990    22.8212   118.2180 </r>
       <r>     4.7127    22.6634   120.7951 </r>
       <r>     4.8264    25.1313   123.6527 </r>
       <r>     4.9401    19.6559   125.8877 </r>
       <r>     5.0538    33.1382   129.6558 </r>
       <r>     5.1675    27.5748   132.7913 </r>
       <r>     5.2813    23.0350   135.4106 </r>
       <r>     5.3950    27.0120   138.4821 </r>
       <r>     5.5087    28.3020   141.7003 </r>
       <r>     5.6224    14.1154   143.3053 </r>
       <r>     5.7361     5.7390   143.9579 </r>
       <r>     5.8498     0.3630   143.9992 </r>
       <r>     5.9635     0.0074   144.0000 </r>
       <r>     6.0772     0.0000   144.0000 </r>
       <r>     6.1909     0.0000   144.0000 </r>
       <r>     6.3046     0.0000   144.0000 </r>
       <r>     6.4183     0.0000   144.0000 </r>
       <r>     6.5320     0.0000   144.0000 </r>
       <r>     6.6458     0.0000   144.0000 </r>
       <r>     6.7595     0.0000   144.0000 </r>
       <r>     6.8732     0.0000   144.0000 </r>
       <r>     6.9869     0.0000   144.0000 </r>
       <r>     7.1006     0.0000   144.0000 </r>
       <r>     7.2143     0.0000   144.0000 </r>
       <r>     7.3280     0.0000   144.0000 </r>
       <r>     7.4417     0.0000   144.0000 </r>
       <r>     7.5554     0.0000   144.0000 </r>
       <r>     7.6691     0.0000   144.0000 </r>
       <r>     7.7828     0.0000   144.0000 </r>
       <r>     7.8966     0.0000   144.0000 </r>
       <r>     8.0103     0.0000   144.0000 </r>
       <r>     8.1240     0.0000   144.0000 </r>
       <r>     8.2377     0.0000   144.0000 </r>
       <r>     8.3514     0.0000   144.0000 </r>
       <r>     8.4651     0.0000   144.0000 </r>
       <r>     8.5788     0.0000   144.0000 </r>
       <r>     8.6925     0.0000   144.0000 </r>
       <r>     8.8062     0.0000   144.0000 </r>
       <r>     8.9199     0.0000   144.0000 </r>
       <r>     9.0336     0.0000   144.0000 </r>
       <r>     9.1473     0.0000   144.0000 </r>
       <r>     9.2611     0.0000   144.0000 </r>
       <r>     9.3748     0.0000   144.0000 </r>
       <r>     9.4885     0.0000   144.0000 </r>
       <r>     9.6022     0.0000   144.0000 </r>
       <r>     9.7159     0.0000   144.0000 </r>
       <r>     9.8296     0.0000   144.0000 </r>
       <r>     9.9433     0.0000   144.0000 </r>
       <r>    10.0570     0.0000   144.0000 </r>
       <r>    10.1707     0.0000   144.0000 </r>
       <r>    10.2844     0.0000   144.0000 </r>
       <r>    10.3981     0.0000   144.0000 </r>
       <r>    10.5118     0.0000   144.0000 </r>
       <r>    10.6256     0.0000   144.0000 </r>
       <r>    10.7393     0.0000   144.0000 </r>
       <r>    10.8530     0.0000   144.0000 </r>
       <r>    10.9667     0.0000   144.0000 </r>
       <r>    11.0804     0.0000   144.0000 </r>
       <r>    11.1941     0.0000   144.0000 </r>
       <r>    11.3078     0.0000   144.0000 </r>
       <r>    11.4215     0.0048   144.0005 </r>
       <r>    11.5352     0.2091   144.0243 </r>
       <r>    11.6489     0.0304   144.0278 </r>
       <r>    11.7626     0.0000   144.0278 </r>
       <r>    11.8764     0.0001   144.0278 </r>
       <r>    11.9901     0.1593   144.0459 </r>
       <r>    12.1038     1.2931   144.1929 </r>
       <r>    12.2175     0.5016   144.2500 </r>
       <r>    12.3312     0.0002   144.2500 </r>
       <r>    12.4449     0.0636   144.2572 </r>
       <r>    12.5586     2.5273   144.5446 </r>
       <r>    12.6723     0.3406   144.5833 </r>
       <r>    12.7860     0.0000   144.5833 </r>
       <r>    12.8997     0.0292   144.5867 </r>
       <r>    13.0134     1.3221   144.7370 </r>
       <r>    13.1271     0.5946   144.8046 </r>
       <r>    13.2409     0.3083   144.8396 </r>
       <r>    13.3546     3.2655   145.2110 </r>
       <r>    13.4683     2.4681   145.4916 </r>
       <r>    13.5820     1.6343   145.6774 </r>
       <r>    13.6957     2.5142   145.9633 </r>
       <r>    13.8094     0.0782   145.9722 </r>
       <r>    13.9231     0.0037   145.9726 </r>
       <r>    14.0368     0.8672   146.0713 </r>
       <r>    14.1505     4.0254   146.5290 </r>
       <r>    14.2642     2.9688   146.8666 </r>
       <r>    14.3779     7.3503   147.7023 </r>
       <r>    14.4916     2.9232   148.0347 </r>
       <r>    14.6054     0.9762   148.1458 </r>
       <r>    14.7191     3.3762   148.5297 </r>
       <r>    14.8328    15.0451   150.2404 </r>
       <r>    14.9465     6.8895   151.0238 </r>
       <r>    15.0602    16.0370   152.8473 </r>
       <r>    15.1739    12.2045   154.2351 </r>
       <r>    15.2876    17.2211   156.1933 </r>
       <r>    15.4013    11.2710   157.4749 </r>
       <r>    15.5150    11.4561   158.7776 </r>
       <r>    15.6287    12.4226   160.1901 </r>
       <r>    15.7424    14.3488   161.8217 </r>
       <r>    15.8562    17.9923   163.8676 </r>
       <r>    15.9699    15.8700   165.6721 </r>
       <r>    16.0836    10.5480   166.8715 </r>
       <r>    16.1973     9.7407   167.9791 </r>
       <r>    16.3110    14.5696   169.6358 </r>
       <r>    16.4247    15.5905   171.4086 </r>
       <r>    16.5384     5.9042   172.0799 </r>
       <r>    16.6521     9.0626   173.1104 </r>
       <r>    16.7658     7.9754   174.0173 </r>
       <r>    16.8795     4.5436   174.5340 </r>
       <r>    16.9932     4.0418   174.9935 </r>
       <r>    17.1069     3.1930   175.3566 </r>
       <r>    17.2207     3.0353   175.7018 </r>
       <r>    17.3344     1.9945   175.9286 </r>
       <r>    17.4481     0.1398   175.9444 </r>
       <r>    17.5618     0.0597   175.9512 </r>
       <r>    17.6755     0.4191   175.9989 </r>
       <r>    17.7892     0.0098   176.0000 </r>
       <r>    17.9029     0.0000   176.0000 </r>
       <r>    18.0166     0.0000   176.0000 </r>
       <r>    18.1303     0.0000   176.0000 </r>
       <r>    18.2440     0.0000   176.0000 </r>
       <r>    18.3577     0.0000   176.0000 </r>
       <r>    18.4714     0.0000   176.0000 </r>
       <r>    18.5852     0.0000   176.0000 </r>
       <r>    18.6989     0.0000   176.0000 </r>
       <r>    18.8126     0.0000   176.0000 </r>
       <r>    18.9263     0.0000   176.0000 </r>
       <r>    19.0400     0.0000   176.0000 </r>
       <r>    19.1537     0.0000   176.0000 </r>
      </set>
     </set>
    </array>
   </total>
  </dos>
 </calculation>
 <structure name="finalpos" >
  <crystal>
   <varray name="basis" >
    <v>       4.80502796       0.00000000       0.00000000 </v>
    <v>      -2.40251398       4.16127628       0.00000000 </v>
    <v>       0.00000000       0.00000000      13.11625385 </v>
   </varray>
   <i name="volume">    262.26013698 </i>
   <varray name="rec_basis" >
    <v>       0.20811533       0.12015544      -0.00000000 </v>
    <v>       0.00000000       0.24031089       0.00000000 </v>
    <v>       0.00000000      -0.00000000       0.07624128 </v>
   </varray>
  </crystal>
  <varray name="positions" >
   <v>      -0.00000000       0.00000000       0.14784832 </v>
   <v>       0.33333333       0.66666668       0.01881835 </v>
   <v>       0.33333333       0.66666668       0.31451497 </v>
   <v>       0.66666667       0.33333334       0.18548501 </v>
   <v>       0.66666667       0.33333334       0.48118164 </v>
   <v>      -0.00000000       0.00000000       0.35215166 </v>
   <v>      -0.00000000       0.00000000       0.64784827 </v>
   <v>       0.33333333       0.66666668       0.51881832 </v>
   <v>       0.33333333       0.66666668       0.81451497 </v>
   <v>       0.66666667       0.33333334       0.68548499 </v>
   <v>       0.66666667       0.33333334       0.98118168 </v>
   <v>      -0.00000000       0.00000000       0.85215169 </v>
   <v>       0.30605091       0.00000000       0.25000000 </v>
   <v>       0.66666668       0.02728242       0.08333332 </v>
   <v>       1.00000000       0.30605091       0.25000000 </v>
   <v>       0.69394907       0.69394908       0.25000000 </v>
   <v>       0.97271761       0.63938427       0.08333332 </v>
   <v>       0.36061575       0.33333334       0.08333332 </v>
   <v>       0.97271761       0.33333334       0.58333331 </v>
   <v>       0.33333334       0.36061577       0.41666665 </v>
   <v>       0.66666669       0.63938427       0.58333331 </v>
   <v>       0.36061574       0.02728242       0.58333331 </v>
   <v>       0.63938425       0.97271761       0.41666665 </v>
   <v>       0.02728242       0.66666668       0.41666665 </v>
   <v>       0.63938423       0.66666668       0.91666672 </v>
   <v>       0.00000001       0.69394908       0.75000002 </v>
   <v>       0.33333336       0.97271761       0.91666672 </v>
   <v>       0.02728243       0.36061577       0.91666672 </v>
   <v>       0.30605091       0.30605091       0.75000002 </v>
   <v>       0.69394906       0.00000000       0.75000002 </v>
  </varray>
 </structure>
</modeling>
