NiAl                                    
            1
     4.805028    0.000000    0.000000
    -2.402514    4.161276    0.000000
     0.000000    0.000000   13.116254
   Al   O 
    12    18
Direct configuration=     1
   0.00000000  0.00000000  0.14790399
   0.33333333  0.66666668  0.01876267
   0.33333333  0.66666668  0.31457065
   0.66666667  0.33333334  0.18542933
   0.66666667  0.33333334  0.48123732
   0.00000000  0.00000000  0.35209598
   0.00000000  0.00000000  0.64790395
   0.33333333  0.66666668  0.51876265
   0.33333333  0.66666668  0.81457065
   0.66666667  0.33333334  0.68542932
   0.66666667  0.33333334  0.98123735
   0.00000000  0.00000000  0.85209602
   0.30614601  0.00000000  0.25000000
   0.66666668  0.02718733  0.08333332
   1.00000000  0.30614600  0.25000000
   0.69385398  0.69385399  0.25000000
   0.97281270  0.63947937  0.08333332
   0.36052066  0.33333334  0.08333332
   0.97281270  0.33333334  0.58333331
   0.33333334  0.36052068  0.41666665
   0.66666669  0.63947937  0.58333331
   0.36052065  0.02718733  0.58333331
   0.63947934  0.97281271  0.41666665
   0.02718733  0.66666668  0.41666665
   0.63947932  0.66666668  0.91666672
   0.00000001  0.69385399  0.75000002
   0.33333336  0.97281271  0.91666672
   0.02718733  0.36052068  0.91666672
   0.30614600  0.30614600  0.75000002
   0.69385397  0.00000000  0.75000002
Direct configuration=     2
  -0.00000000  0.00000000  0.14788729
   0.33333333  0.66666668  0.01877937
   0.33333333  0.66666668  0.31455395
   0.66666667  0.33333334  0.18544603
   0.66666667  0.33333334  0.48122061
  -0.00000000 -0.00000000  0.35211268
  -0.00000000  0.00000000  0.64788725
   0.33333333  0.66666668  0.51877935
   0.33333333  0.66666668  0.81455395
   0.66666667  0.33333334  0.68544602
   0.66666667  0.33333334  0.98122065
  -0.00000000 -0.00000000  0.85211272
   0.30611288 -0.00000000  0.25000000
   0.66666668  0.02722046  0.08333332
   1.00000000  0.30611288  0.25000000
   0.69388710  0.69388711  0.25000000
   0.97277958  0.63944624  0.08333332
   0.36055379  0.33333334  0.08333332
   0.97277958  0.33333334  0.58333331
   0.33333334  0.36055380  0.41666665
   0.66666669  0.63944624  0.58333331
   0.36055377  0.02722046  0.58333331
   0.63944622  0.97277958  0.41666665
   0.02722045  0.66666668  0.41666665
   0.63944620  0.66666668  0.91666672
   0.00000001  0.69388711  0.75000002
   0.33333336  0.97277958  0.91666672
   0.02722046  0.36055380  0.91666672
   0.30611288  0.30611288  0.75000002
   0.69388709  0.00000000  0.75000002
Direct configuration=     3
  -0.00000000  0.00000000  0.14784976
   0.33333333  0.66666668  0.01881690
   0.33333333  0.66666668  0.31451642
   0.66666667  0.33333334  0.18548356
   0.66666667  0.33333334  0.48118309
  -0.00000000 -0.00000000  0.35215021
  -0.00000000  0.00000000  0.64784972
   0.33333333  0.66666668  0.51881687
   0.33333333  0.66666668  0.81451642
   0.66666667  0.33333334  0.68548354
   0.66666667  0.33333334  0.98118313
  -0.00000000 -0.00000000  0.85215024
   0.30603845 -0.00000000  0.25000000
   0.66666668  0.02729489  0.08333332
   1.00000000  0.30603844  0.25000000
   0.69396153  0.69396154  0.25000000
   0.97270514  0.63937181  0.08333332
   0.36062822  0.33333334  0.08333332
   0.97270515  0.33333334  0.58333331
   0.33333334  0.36062823  0.41666665
   0.66666669  0.63937181  0.58333331
   0.36062821  0.02729489  0.58333331
   0.63937179  0.97270515  0.41666665
   0.02729489  0.66666668  0.41666665
   0.63937176  0.66666668  0.91666672
   0.00000001  0.69396154  0.75000002
   0.33333336  0.97270515  0.91666672
   0.02729489  0.36062823  0.91666672
   0.30603845  0.30603844  0.75000002
   0.69396152  0.00000000  0.75000002
Direct configuration=     4
  -0.00000000  0.00000000  0.14784875
   0.33333333  0.66666668  0.01881791
   0.33333333  0.66666668  0.31451541
   0.66666667  0.33333334  0.18548457
   0.66666667  0.33333334  0.48118208
  -0.00000000  0.00000000  0.35215122
  -0.00000000  0.00000000  0.64784871
   0.33333333  0.66666668  0.51881789
   0.33333333  0.66666668  0.81451541
   0.66666667  0.33333334  0.68548455
   0.66666667  0.33333334  0.98118211
  -0.00000000  0.00000000  0.85215126
   0.30604715  0.00000000  0.25000000
   0.66666668  0.02728618  0.08333332
   1.00000000  0.30604715  0.25000000
   0.69395283  0.69395284  0.25000000
   0.97271385  0.63938051  0.08333332
   0.36061951  0.33333334  0.08333332
   0.97271385  0.33333334  0.58333331
   0.33333334  0.36061953  0.41666665
   0.66666669  0.63938051  0.58333331
   0.36061950  0.02728618  0.58333331
   0.63938049  0.97271385  0.41666665
   0.02728618  0.66666668  0.41666665
   0.63938047  0.66666668  0.91666672
   0.00000001  0.69395284  0.75000002
   0.33333336  0.97271385  0.91666672
   0.02728619  0.36061953  0.91666672
   0.30604715  0.30604715  0.75000002
   0.69395282  0.00000000  0.75000002
Direct configuration=     5
  -0.00000000  0.00000000  0.14784832
   0.33333333  0.66666668  0.01881835
   0.33333333  0.66666668  0.31451497
   0.66666667  0.33333334  0.18548501
   0.66666667  0.33333334  0.48118164
  -0.00000000  0.00000000  0.35215166
  -0.00000000  0.00000000  0.64784827
   0.33333333  0.66666668  0.51881832
   0.33333333  0.66666668  0.81451497
   0.66666667  0.33333334  0.68548499
   0.66666667  0.33333334  0.98118168
  -0.00000000  0.00000000  0.85215169
   0.30605091  0.00000000  0.25000000
   0.66666668  0.02728242  0.08333332
   1.00000000  0.30605091  0.25000000
   0.69394907  0.69394908  0.25000000
   0.97271761  0.63938427  0.08333332
   0.36061575  0.33333334  0.08333332
   0.97271761  0.33333334  0.58333331
   0.33333334  0.36061577  0.41666665
   0.66666669  0.63938427  0.58333331
   0.36061574  0.02728242  0.58333331
   0.63938425  0.97271761  0.41666665
   0.02728242  0.66666668  0.41666665
   0.63938423  0.66666668  0.91666672
   0.00000001  0.69394908  0.75000002
   0.33333336  0.97271761  0.91666672
   0.02728243  0.36061577  0.91666672
   0.30605091  0.30605091  0.75000002
   0.69394906  0.00000000  0.75000002
