       N       E                     dE             d eps       ncg     rms          rms(c)
DAV:   1     0.239071852306E+04    0.23907E+04   -0.20437E+05  3072   0.854E+02
DAV:   2    -0.703331246137E+03   -0.30940E+04   -0.29231E+04  4192   0.202E+02
DAV:   3    -0.944910364191E+03   -0.24158E+03   -0.23216E+03  4560   0.442E+01
DAV:   4    -0.955181720652E+03   -0.10271E+02   -0.10016E+02  4296   0.902E+00
DAV:   5    -0.955955712125E+03   -0.77399E+00   -0.56893E+00  5352   0.222E+00    0.421E+01
DAV:   6    -0.984174680958E+03   -0.28219E+02   -0.22165E+02  4560   0.185E+01    0.344E+01
DAV:   7    -0.939100174202E+03    0.45075E+02   -0.22621E+02  4168   0.204E+01    0.252E+01
DAV:   8    -0.967329491472E+03   -0.28229E+02   -0.13084E+02  4584   0.179E+01    0.238E+01
DAV:   9    -0.972991257617E+03   -0.56618E+01   -0.41889E+01  4232   0.207E+01    0.232E+01
DAV:  10    -0.932623561417E+03    0.40368E+02   -0.75757E+01  4688   0.134E+01    0.159E+01
DAV:  11    -0.929583147989E+03    0.30404E+01   -0.33642E+01  4440   0.633E+00    0.935E+00
DAV:  12    -0.930421933403E+03   -0.83879E+00   -0.26499E+01  3936   0.413E+00    0.985E+00
DAV:  13    -0.928907836868E+03    0.15141E+01   -0.29815E+00  4288   0.219E+00    0.747E+00
DAV:  14    -0.928882983492E+03    0.24853E-01   -0.61896E-01  3736   0.803E-01    0.629E+00
DAV:  15    -0.929014959474E+03   -0.13198E+00   -0.32968E+00  4400   0.646E-01    0.632E+00
DAV:  16    -0.928815834470E+03    0.19913E+00   -0.54049E-02  3736   0.449E-01    0.216E+00
DAV:  17    -0.929073350977E+03   -0.25752E+00   -0.51133E-01  4472   0.364E-01    0.950E+00
DAV:  18    -0.928765403226E+03    0.30795E+00   -0.49066E-01  3800   0.527E-01    0.504E+00
DAV:  19    -0.928947345168E+03   -0.18194E+00   -0.29681E-01  3576   0.408E-01    0.792E+00
DAV:  20    -0.928699389978E+03    0.24796E+00   -0.65035E-02  3344   0.247E-01    0.249E+00
DAV:  21    -0.928780630151E+03   -0.81240E-01   -0.11554E-02  3512   0.103E-01    0.210E+00
DAV:  22    -0.928854445379E+03   -0.73815E-01   -0.38505E-01  3928   0.170E-01    0.421E+00
DAV:  23    -0.928795964078E+03    0.58481E-01   -0.93861E-03  3320   0.152E-01    0.220E+00
DAV:  24    -0.928804699404E+03   -0.87353E-02   -0.90050E-03  3504   0.585E-02    0.456E-01
DAV:  25    -0.928841468988E+03   -0.36770E-01   -0.24012E-03  3304   0.620E-02    0.543E-01
DAV:  26    -0.928846029637E+03   -0.45606E-02   -0.19698E-03  3512   0.432E-02    0.686E-01
DAV:  27    -0.928844776407E+03    0.12532E-02   -0.37409E-04  3328   0.271E-02    0.191E-01
DAV:  28    -0.928847556097E+03   -0.27797E-02   -0.27377E-04  3368   0.176E-02    0.233E-01
DAV:  29    -0.928848504017E+03   -0.94792E-03   -0.11400E-04  3272   0.153E-02    0.104E-01
DAV:  30    -0.928849192396E+03   -0.68838E-03   -0.12008E-04  2952   0.900E-03    0.180E-01
DAV:  31    -0.928849598847E+03   -0.40645E-03   -0.13141E-04  2864   0.100E-02    0.169E-01
DAV:  32    -0.928849979530E+03   -0.38068E-03   -0.38521E-05  2792   0.743E-03    0.111E-01
DAV:  33    -0.928850386122E+03   -0.40659E-03   -0.58919E-05  2648   0.471E-03    0.924E-02
DAV:  34    -0.928850564362E+03   -0.17824E-03   -0.23433E-05  2720   0.615E-03    0.141E-02
DAV:  35    -0.928850631685E+03   -0.67323E-04   -0.28120E-06  2176   0.183E-03    0.149E-02
DAV:  36    -0.928850654582E+03   -0.22897E-04   -0.92143E-07  1984   0.953E-04    0.218E-02
DAV:  37    -0.928850665953E+03   -0.11371E-04   -0.96627E-07  1896   0.940E-04    0.650E-03
DAV:  38    -0.928850673814E+03   -0.78613E-05   -0.31327E-07  1768   0.852E-04    0.206E-03
DAV:  39    -0.928850674741E+03   -0.92704E-06   -0.86121E-08  1760   0.366E-04
   1 F= -.10015634E+04 E0= -.10015214E+04  d E =-.839375E-01
