<?xml version="1.0" encoding="ISO-8859-1"?>
<modeling>
 <generator>
  <i name="program" type="string">vasp </i>
  <i name="version" type="string">6.2.1  </i>
  <i name="subversion" type="string">16May21 (build Jun 16 2021 03:23:30) complex                          parallel </i>
  <i name="platform" type="string">LinuxPGI </i>
  <i name="date" type="string">2022 04 25 </i>
  <i name="time" type="string">11:32:51 </i>
 </generator>
 <incar>
  <i type="string" name="SYSTEM">NiAl</i>
  <i type="int" name="ISTART">     0</i>
  <i type="int" name="NELMIN">     6</i>
  <i name="EDIFF">      0.00000500</i>
  <i type="int" name="ISIF">     0</i>
  <i name="ENCUT">    360.00000000</i>
  <i type="string" name="LREAL">Auto</i>
  <i type="logical" name="LPLANE"> T  </i>
  <i type="int" name="ISMEAR">     0</i>
  <i name="SIGMA">      0.05000000</i>
  <i type="logical" name="LWAVE"> F  </i>
  <i type="logical" name="LCHARG"> F  </i>
  <i type="int" name="IVDW">    12</i>
 </incar>
 <primitive_cell>
  <structure name="primitive_cell" >
   <crystal>
    <varray name="basis" >
     <v>       0.00000000     -17.18057346       0.00000000 </v>
     <v>       0.00000000      -8.59028673     -14.87881307 </v>
     <v>      30.00000000       0.00000000       0.00000000 </v>
    </varray>
    <i name="volume">   7668.79622957 </i>
    <varray name="rec_basis" >
     <v>       0.00000000      -0.05820527       0.03360483 </v>
     <v>       0.00000000       0.00000000      -0.06720966 </v>
     <v>       0.03333333       0.00000000       0.00000000 </v>
    </varray>
   </crystal>
   <varray name="positions" >
    <v>       0.44444456       0.44444473       0.07873467 </v>
    <v>       0.44444419       0.77777777       0.07873467 </v>
    <v>       0.44444468       0.11111101       0.07873467 </v>
    <v>       0.77777744       0.44444473       0.07873467 </v>
    <v>       0.77777765       0.77777777       0.07873467 </v>
    <v>       0.77777756       0.11111101       0.07873467 </v>
    <v>       0.11111110       0.44444473       0.07873467 </v>
    <v>       0.11111131       0.77777777       0.07873467 </v>
    <v>       0.11111122       0.11111101       0.07873467 </v>
    <v>       0.55555520       0.55555574       0.15702600 </v>
    <v>       0.55555541       0.88888878       0.15702600 </v>
    <v>       0.55555591       0.22222203       0.15702600 </v>
    <v>       0.88888866       0.55555574       0.15702600 </v>
    <v>       0.88888887       0.88888878       0.15702600 </v>
    <v>       0.88888878       0.22222203       0.15702600 </v>
    <v>       0.22222232       0.55555574       0.15702600 </v>
    <v>       0.22222253       0.88888878       0.15702600 </v>
    <v>       0.22222245       0.22222203       0.15702600 </v>
    <v>       0.66666642       0.66666675       0.23375733 </v>
    <v>       0.66666692       0.00000000       0.23375733 </v>
    <v>       0.66666655       0.33333304       0.23375733 </v>
    <v>       0.00000008       0.66666675       0.23375733 </v>
    <v>       0.00000000       0.00000000       0.23375733 </v>
    <v>       0.00000021       0.33333304       0.23375733 </v>
    <v>       0.33333354       0.66666675       0.23375733 </v>
    <v>       0.33333346       0.00000000       0.23375733 </v>
    <v>       0.33333367       0.33333304       0.23375733 </v>
    <v>       0.77777765       0.77777777       0.31173067 </v>
    <v>       0.77777756       0.11111101       0.31173067 </v>
    <v>       0.77777744       0.44444473       0.31173067 </v>
    <v>       0.11111131       0.77777777       0.31173067 </v>
    <v>       0.11111122       0.11111101       0.31173067 </v>
    <v>       0.11111110       0.44444473       0.31173067 </v>
    <v>       0.44444419       0.77777777       0.31173067 </v>
    <v>       0.44444468       0.11111101       0.31173067 </v>
    <v>       0.44444456       0.44444473       0.31173067 </v>
    <v>       0.88888887       0.88888878       0.38970400 </v>
    <v>       0.88888878       0.22222203       0.38970400 </v>
    <v>       0.88888866       0.55555574       0.38970400 </v>
    <v>       0.22222253       0.88888878       0.38970400 </v>
    <v>       0.22222245       0.22222203       0.38970400 </v>
    <v>       0.22222232       0.55555574       0.38970400 </v>
    <v>       0.55555541       0.88888878       0.38970400 </v>
    <v>       0.55555591       0.22222203       0.38970400 </v>
    <v>       0.55555520       0.55555574       0.38970400 </v>
    <v>       0.00000000       0.00000000       0.46643533 </v>
    <v>       0.00000021       0.33333304       0.46643533 </v>
    <v>       0.00000008       0.66666675       0.46643533 </v>
    <v>       0.33333346       0.00000000       0.46643533 </v>
    <v>       0.33333367       0.33333304       0.46643533 </v>
    <v>       0.33333354       0.66666675       0.46643533 </v>
    <v>       0.66666692       0.00000000       0.46643533 </v>
    <v>       0.66666655       0.33333304       0.46643533 </v>
    <v>       0.66666642       0.66666675       0.46643533 </v>
    <v>       0.11111122       0.11111101       0.54472667 </v>
    <v>       0.11111110       0.44444473       0.54472667 </v>
    <v>       0.11111131       0.77777777       0.54472667 </v>
    <v>       0.44444468       0.11111101       0.54472667 </v>
    <v>       0.44444456       0.44444473       0.54472667 </v>
    <v>       0.44444419       0.77777777       0.54472667 </v>
    <v>       0.77777756       0.11111101       0.54472667 </v>
    <v>       0.77777744       0.44444473       0.54472667 </v>
    <v>       0.77777765       0.77777777       0.54472667 </v>
    <v>       0.27777777       0.27777753       0.07873467 </v>
    <v>       0.27777764       0.61111125       0.07873467 </v>
    <v>       0.27777785       0.94444429       0.07873467 </v>
    <v>       0.61111123       0.27777753       0.07873467 </v>
    <v>       0.61111110       0.61111125       0.07873467 </v>
    <v>       0.61111131       0.94444429       0.07873467 </v>
    <v>       0.94444469       0.27777753       0.07873467 </v>
    <v>       0.94444456       0.61111125       0.07873467 </v>
    <v>       0.94444477       0.94444429       0.07873467 </v>
    <v>       0.38888865       0.38888922       0.15702600 </v>
    <v>       0.38888886       0.72222226       0.15702600 </v>
    <v>       0.38888878       0.05555551       0.15702600 </v>
    <v>       0.72222211       0.38888922       0.15702600 </v>
    <v>       0.72222232       0.72222226       0.15702600 </v>
    <v>       0.72222224       0.05555551       0.15702600 </v>
    <v>       0.05555519       0.38888922       0.15702600 </v>
    <v>       0.05555540       0.72222226       0.15702600 </v>
    <v>       0.05555532       0.05555551       0.15702600 </v>
    <v>       0.49999988       0.50000023       0.23375733 </v>
    <v>       0.50000009       0.83333327       0.23375733 </v>
    <v>       0.50000000       0.16666652       0.23375733 </v>
    <v>       0.83333334       0.50000023       0.23375733 </v>
    <v>       0.83333355       0.83333327       0.23375733 </v>
    <v>       0.83333346       0.16666652       0.23375733 </v>
    <v>       0.16666642       0.50000023       0.23375733 </v>
    <v>       0.16666663       0.83333327       0.23375733 </v>
    <v>       0.16666654       0.16666652       0.23375733 </v>
    <v>       0.61111110       0.61111125       0.31173067 </v>
    <v>       0.61111131       0.94444429       0.31173067 </v>
    <v>       0.61111123       0.27777753       0.31173067 </v>
    <v>       0.94444456       0.61111125       0.31173067 </v>
    <v>       0.94444477       0.94444429       0.31173067 </v>
    <v>       0.94444469       0.27777753       0.31173067 </v>
    <v>       0.27777764       0.61111125       0.31173067 </v>
    <v>       0.27777785       0.94444429       0.31173067 </v>
    <v>       0.27777777       0.27777753       0.31173067 </v>
    <v>       0.72222232       0.72222226       0.38970400 </v>
    <v>       0.72222224       0.05555551       0.38970400 </v>
    <v>       0.72222211       0.38888922       0.38970400 </v>
    <v>       0.05555540       0.72222226       0.38970400 </v>
    <v>       0.05555532       0.05555551       0.38970400 </v>
    <v>       0.05555519       0.38888922       0.38970400 </v>
    <v>       0.38888886       0.72222226       0.38970400 </v>
    <v>       0.38888878       0.05555551       0.38970400 </v>
    <v>       0.38888865       0.38888922       0.38970400 </v>
    <v>       0.83333355       0.83333327       0.46643533 </v>
    <v>       0.83333346       0.16666652       0.46643533 </v>
    <v>       0.83333334       0.50000023       0.46643533 </v>
    <v>       0.16666663       0.83333327       0.46643533 </v>
    <v>       0.16666654       0.16666652       0.46643533 </v>
    <v>       0.16666642       0.50000023       0.46643533 </v>
    <v>       0.50000009       0.83333327       0.46643533 </v>
    <v>       0.50000000       0.16666652       0.46643533 </v>
    <v>       0.49999988       0.50000023       0.46643533 </v>
    <v>       0.94444477       0.94444429       0.54472667 </v>
    <v>       0.94444469       0.27777753       0.54472667 </v>
    <v>       0.94444456       0.61111125       0.54472667 </v>
    <v>       0.27777785       0.94444429       0.54472667 </v>
    <v>       0.27777777       0.27777753       0.54472667 </v>
    <v>       0.27777764       0.61111125       0.54472667 </v>
    <v>       0.61111131       0.94444429       0.54472667 </v>
    <v>       0.61111123       0.27777753       0.54472667 </v>
    <v>       0.61111110       0.61111125       0.54472667 </v>
    <v>       0.27777783       0.44444473       0.07873467 </v>
    <v>       0.27777804       0.77777777       0.07873467 </v>
    <v>       0.27777795       0.11111101       0.07873467 </v>
    <v>       0.61111071       0.44444473       0.07873467 </v>
    <v>       0.61111092       0.77777777       0.07873467 </v>
    <v>       0.61111141       0.11111101       0.07873467 </v>
    <v>       0.94444417       0.44444473       0.07873467 </v>
    <v>       0.94444438       0.77777777       0.07873467 </v>
    <v>       0.94444429       0.11111101       0.07873467 </v>
    <v>       0.38888905       0.55555574       0.15702600 </v>
    <v>       0.38888868       0.88888878       0.15702600 </v>
    <v>       0.38888918       0.22222203       0.15702600 </v>
    <v>       0.72222193       0.55555574       0.15702600 </v>
    <v>       0.72222214       0.88888878       0.15702600 </v>
    <v>       0.72222205       0.22222203       0.15702600 </v>
    <v>       0.05555559       0.55555574       0.15702600 </v>
    <v>       0.05555580       0.88888878       0.15702600 </v>
    <v>       0.05555572       0.22222203       0.15702600 </v>
    <v>       0.49999969       0.66666675       0.23375733 </v>
    <v>       0.50000019       0.00000000       0.23375733 </v>
    <v>       0.50000040       0.33333304       0.23375733 </v>
    <v>       0.83333315       0.66666675       0.23375733 </v>
    <v>       0.83333307       0.00000000       0.23375733 </v>
    <v>       0.83333328       0.33333304       0.23375733 </v>
    <v>       0.16666681       0.66666675       0.23375733 </v>
    <v>       0.16666673       0.00000000       0.23375733 </v>
    <v>       0.16666694       0.33333304       0.23375733 </v>
    <v>       0.61111092       0.77777777       0.31173067 </v>
    <v>       0.61111141       0.11111101       0.31173067 </v>
    <v>       0.61111071       0.44444473       0.31173067 </v>
    <v>       0.94444438       0.77777777       0.31173067 </v>
    <v>       0.94444429       0.11111101       0.31173067 </v>
    <v>       0.94444417       0.44444473       0.31173067 </v>
    <v>       0.27777804       0.77777777       0.31173067 </v>
    <v>       0.27777795       0.11111101       0.31173067 </v>
    <v>       0.27777783       0.44444473       0.31173067 </v>
    <v>       0.72222214       0.88888878       0.38970400 </v>
    <v>       0.72222205       0.22222203       0.38970400 </v>
    <v>       0.72222193       0.55555574       0.38970400 </v>
    <v>       0.05555580       0.88888878       0.38970400 </v>
    <v>       0.05555572       0.22222203       0.38970400 </v>
    <v>       0.05555559       0.55555574       0.38970400 </v>
    <v>       0.38888868       0.88888878       0.38970400 </v>
    <v>       0.38888918       0.22222203       0.38970400 </v>
    <v>       0.38888905       0.55555574       0.38970400 </v>
    <v>       0.83333307       0.00000000       0.46643533 </v>
    <v>       0.83333328       0.33333304       0.46643533 </v>
    <v>       0.83333315       0.66666675       0.46643533 </v>
    <v>       0.16666673       0.00000000       0.46643533 </v>
    <v>       0.16666694       0.33333304       0.46643533 </v>
    <v>       0.16666681       0.66666675       0.46643533 </v>
    <v>       0.50000019       0.00000000       0.46643533 </v>
    <v>       0.50000040       0.33333304       0.46643533 </v>
    <v>       0.49999969       0.66666675       0.46643533 </v>
    <v>       0.94444429       0.11111101       0.54472667 </v>
    <v>       0.94444417       0.44444473       0.54472667 </v>
    <v>       0.94444438       0.77777777       0.54472667 </v>
    <v>       0.27777795       0.11111101       0.54472667 </v>
    <v>       0.27777783       0.44444473       0.54472667 </v>
    <v>       0.27777804       0.77777777       0.54472667 </v>
    <v>       0.61111141       0.11111101       0.54472667 </v>
    <v>       0.61111071       0.44444473       0.54472667 </v>
    <v>       0.61111092       0.77777777       0.54472667 </v>
    <v>       0.44444450       0.27777753       0.07873467 </v>
    <v>       0.44444437       0.61111125       0.07873467 </v>
    <v>       0.44444458       0.94444429       0.07873467 </v>
    <v>       0.77777796       0.27777753       0.07873467 </v>
    <v>       0.77777783       0.61111125       0.07873467 </v>
    <v>       0.77777804       0.94444429       0.07873467 </v>
    <v>       0.11111104       0.27777753       0.07873467 </v>
    <v>       0.11111091       0.61111125       0.07873467 </v>
    <v>       0.11111112       0.94444429       0.07873467 </v>
    <v>       0.55555538       0.38888922       0.15702600 </v>
    <v>       0.55555559       0.72222226       0.15702600 </v>
    <v>       0.55555551       0.05555551       0.15702600 </v>
    <v>       0.88888884       0.38888922       0.15702600 </v>
    <v>       0.88888905       0.72222226       0.15702600 </v>
    <v>       0.88888897       0.05555551       0.15702600 </v>
    <v>       0.22222192       0.38888922       0.15702600 </v>
    <v>       0.22222213       0.72222226       0.15702600 </v>
    <v>       0.22222205       0.05555551       0.15702600 </v>
    <v>       0.66666661       0.50000023       0.23375733 </v>
    <v>       0.66666682       0.83333327       0.23375733 </v>
    <v>       0.66666673       0.16666652       0.23375733 </v>
    <v>       0.99999969       0.50000023       0.23375733 </v>
    <v>       0.99999990       0.83333327       0.23375733 </v>
    <v>       0.99999981       0.16666652       0.23375733 </v>
    <v>       0.33333315       0.50000023       0.23375733 </v>
    <v>       0.33333336       0.83333327       0.23375733 </v>
    <v>       0.33333327       0.16666652       0.23375733 </v>
    <v>       0.77777783       0.61111125       0.31173067 </v>
    <v>       0.77777804       0.94444429       0.31173067 </v>
    <v>       0.77777796       0.27777753       0.31173067 </v>
    <v>       0.11111091       0.61111125       0.31173067 </v>
    <v>       0.11111112       0.94444429       0.31173067 </v>
    <v>       0.11111104       0.27777753       0.31173067 </v>
    <v>       0.44444437       0.61111125       0.31173067 </v>
    <v>       0.44444458       0.94444429       0.31173067 </v>
    <v>       0.44444450       0.27777753       0.31173067 </v>
    <v>       0.88888905       0.72222226       0.38970400 </v>
    <v>       0.88888897       0.05555551       0.38970400 </v>
    <v>       0.88888884       0.38888922       0.38970400 </v>
    <v>       0.22222213       0.72222226       0.38970400 </v>
    <v>       0.22222205       0.05555551       0.38970400 </v>
    <v>       0.22222192       0.38888922       0.38970400 </v>
    <v>       0.55555559       0.72222226       0.38970400 </v>
    <v>       0.55555551       0.05555551       0.38970400 </v>
    <v>       0.55555538       0.38888922       0.38970400 </v>
    <v>       0.99999990       0.83333327       0.46643533 </v>
    <v>       0.99999981       0.16666652       0.46643533 </v>
    <v>       0.99999969       0.50000023       0.46643533 </v>
    <v>       0.33333336       0.83333327       0.46643533 </v>
    <v>       0.33333327       0.16666652       0.46643533 </v>
    <v>       0.33333315       0.50000023       0.46643533 </v>
    <v>       0.66666682       0.83333327       0.46643533 </v>
    <v>       0.66666673       0.16666652       0.46643533 </v>
    <v>       0.66666661       0.50000023       0.46643533 </v>
    <v>       0.11111112       0.94444429       0.54472667 </v>
    <v>       0.11111104       0.27777753       0.54472667 </v>
    <v>       0.11111091       0.61111125       0.54472667 </v>
    <v>       0.44444458       0.94444429       0.54472667 </v>
    <v>       0.44444450       0.27777753       0.54472667 </v>
    <v>       0.44444437       0.61111125       0.54472667 </v>
    <v>       0.77777804       0.94444429       0.54472667 </v>
    <v>       0.77777796       0.27777753       0.54472667 </v>
    <v>       0.77777783       0.61111125       0.54472667 </v>
    <v>       0.34003429       0.48659795       0.63466667 </v>
    <v>       0.38217494       0.40231704       0.63466667 </v>
   </varray>
  </structure>
  <varray name="primitive_index" >
   <v type="int" >        1 </v>
   <v type="int" >        2 </v>
   <v type="int" >        3 </v>
   <v type="int" >        4 </v>
   <v type="int" >        5 </v>
   <v type="int" >        6 </v>
   <v type="int" >        7 </v>
   <v type="int" >        8 </v>
   <v type="int" >        9 </v>
   <v type="int" >       10 </v>
   <v type="int" >       11 </v>
   <v type="int" >       12 </v>
   <v type="int" >       13 </v>
   <v type="int" >       14 </v>
   <v type="int" >       15 </v>
   <v type="int" >       16 </v>
   <v type="int" >       17 </v>
   <v type="int" >       18 </v>
   <v type="int" >       19 </v>
   <v type="int" >       20 </v>
   <v type="int" >       21 </v>
   <v type="int" >       22 </v>
   <v type="int" >       23 </v>
   <v type="int" >       24 </v>
   <v type="int" >       25 </v>
   <v type="int" >       26 </v>
   <v type="int" >       27 </v>
   <v type="int" >       28 </v>
   <v type="int" >       29 </v>
   <v type="int" >       30 </v>
   <v type="int" >       31 </v>
   <v type="int" >       32 </v>
   <v type="int" >       33 </v>
   <v type="int" >       34 </v>
   <v type="int" >       35 </v>
   <v type="int" >       36 </v>
   <v type="int" >       37 </v>
   <v type="int" >       38 </v>
   <v type="int" >       39 </v>
   <v type="int" >       40 </v>
   <v type="int" >       41 </v>
   <v type="int" >       42 </v>
   <v type="int" >       43 </v>
   <v type="int" >       44 </v>
   <v type="int" >       45 </v>
   <v type="int" >       46 </v>
   <v type="int" >       47 </v>
   <v type="int" >       48 </v>
   <v type="int" >       49 </v>
   <v type="int" >       50 </v>
   <v type="int" >       51 </v>
   <v type="int" >       52 </v>
   <v type="int" >       53 </v>
   <v type="int" >       54 </v>
   <v type="int" >       55 </v>
   <v type="int" >       56 </v>
   <v type="int" >       57 </v>
   <v type="int" >       58 </v>
   <v type="int" >       59 </v>
   <v type="int" >       60 </v>
   <v type="int" >       61 </v>
   <v type="int" >       62 </v>
   <v type="int" >       63 </v>
   <v type="int" >       64 </v>
   <v type="int" >       65 </v>
   <v type="int" >       66 </v>
   <v type="int" >       67 </v>
   <v type="int" >       68 </v>
   <v type="int" >       69 </v>
   <v type="int" >       70 </v>
   <v type="int" >       71 </v>
   <v type="int" >       72 </v>
   <v type="int" >       73 </v>
   <v type="int" >       74 </v>
   <v type="int" >       75 </v>
   <v type="int" >       76 </v>
   <v type="int" >       77 </v>
   <v type="int" >       78 </v>
   <v type="int" >       79 </v>
   <v type="int" >       80 </v>
   <v type="int" >       81 </v>
   <v type="int" >       82 </v>
   <v type="int" >       83 </v>
   <v type="int" >       84 </v>
   <v type="int" >       85 </v>
   <v type="int" >       86 </v>
   <v type="int" >       87 </v>
   <v type="int" >       88 </v>
   <v type="int" >       89 </v>
   <v type="int" >       90 </v>
   <v type="int" >       91 </v>
   <v type="int" >       92 </v>
   <v type="int" >       93 </v>
   <v type="int" >       94 </v>
   <v type="int" >       95 </v>
   <v type="int" >       96 </v>
   <v type="int" >       97 </v>
   <v type="int" >       98 </v>
   <v type="int" >       99 </v>
   <v type="int" >      100 </v>
   <v type="int" >      101 </v>
   <v type="int" >      102 </v>
   <v type="int" >      103 </v>
   <v type="int" >      104 </v>
   <v type="int" >      105 </v>
   <v type="int" >      106 </v>
   <v type="int" >      107 </v>
   <v type="int" >      108 </v>
   <v type="int" >      109 </v>
   <v type="int" >      110 </v>
   <v type="int" >      111 </v>
   <v type="int" >      112 </v>
   <v type="int" >      113 </v>
   <v type="int" >      114 </v>
   <v type="int" >      115 </v>
   <v type="int" >      116 </v>
   <v type="int" >      117 </v>
   <v type="int" >      118 </v>
   <v type="int" >      119 </v>
   <v type="int" >      120 </v>
   <v type="int" >      121 </v>
   <v type="int" >      122 </v>
   <v type="int" >      123 </v>
   <v type="int" >      124 </v>
   <v type="int" >      125 </v>
   <v type="int" >      126 </v>
   <v type="int" >      127 </v>
   <v type="int" >      128 </v>
   <v type="int" >      129 </v>
   <v type="int" >      130 </v>
   <v type="int" >      131 </v>
   <v type="int" >      132 </v>
   <v type="int" >      133 </v>
   <v type="int" >      134 </v>
   <v type="int" >      135 </v>
   <v type="int" >      136 </v>
   <v type="int" >      137 </v>
   <v type="int" >      138 </v>
   <v type="int" >      139 </v>
   <v type="int" >      140 </v>
   <v type="int" >      141 </v>
   <v type="int" >      142 </v>
   <v type="int" >      143 </v>
   <v type="int" >      144 </v>
   <v type="int" >      145 </v>
   <v type="int" >      146 </v>
   <v type="int" >      147 </v>
   <v type="int" >      148 </v>
   <v type="int" >      149 </v>
   <v type="int" >      150 </v>
   <v type="int" >      151 </v>
   <v type="int" >      152 </v>
   <v type="int" >      153 </v>
   <v type="int" >      154 </v>
   <v type="int" >      155 </v>
   <v type="int" >      156 </v>
   <v type="int" >      157 </v>
   <v type="int" >      158 </v>
   <v type="int" >      159 </v>
   <v type="int" >      160 </v>
   <v type="int" >      161 </v>
   <v type="int" >      162 </v>
   <v type="int" >      163 </v>
   <v type="int" >      164 </v>
   <v type="int" >      165 </v>
   <v type="int" >      166 </v>
   <v type="int" >      167 </v>
   <v type="int" >      168 </v>
   <v type="int" >      169 </v>
   <v type="int" >      170 </v>
   <v type="int" >      171 </v>
   <v type="int" >      172 </v>
   <v type="int" >      173 </v>
   <v type="int" >      174 </v>
   <v type="int" >      175 </v>
   <v type="int" >      176 </v>
   <v type="int" >      177 </v>
   <v type="int" >      178 </v>
   <v type="int" >      179 </v>
   <v type="int" >      180 </v>
   <v type="int" >      181 </v>
   <v type="int" >      182 </v>
   <v type="int" >      183 </v>
   <v type="int" >      184 </v>
   <v type="int" >      185 </v>
   <v type="int" >      186 </v>
   <v type="int" >      187 </v>
   <v type="int" >      188 </v>
   <v type="int" >      189 </v>
   <v type="int" >      190 </v>
   <v type="int" >      191 </v>
   <v type="int" >      192 </v>
   <v type="int" >      193 </v>
   <v type="int" >      194 </v>
   <v type="int" >      195 </v>
   <v type="int" >      196 </v>
   <v type="int" >      197 </v>
   <v type="int" >      198 </v>
   <v type="int" >      199 </v>
   <v type="int" >      200 </v>
   <v type="int" >      201 </v>
   <v type="int" >      202 </v>
   <v type="int" >      203 </v>
   <v type="int" >      204 </v>
   <v type="int" >      205 </v>
   <v type="int" >      206 </v>
   <v type="int" >      207 </v>
   <v type="int" >      208 </v>
   <v type="int" >      209 </v>
   <v type="int" >      210 </v>
   <v type="int" >      211 </v>
   <v type="int" >      212 </v>
   <v type="int" >      213 </v>
   <v type="int" >      214 </v>
   <v type="int" >      215 </v>
   <v type="int" >      216 </v>
   <v type="int" >      217 </v>
   <v type="int" >      218 </v>
   <v type="int" >      219 </v>
   <v type="int" >      220 </v>
   <v type="int" >      221 </v>
   <v type="int" >      222 </v>
   <v type="int" >      223 </v>
   <v type="int" >      224 </v>
   <v type="int" >      225 </v>
   <v type="int" >      226 </v>
   <v type="int" >      227 </v>
   <v type="int" >      228 </v>
   <v type="int" >      229 </v>
   <v type="int" >      230 </v>
   <v type="int" >      231 </v>
   <v type="int" >      232 </v>
   <v type="int" >      233 </v>
   <v type="int" >      234 </v>
   <v type="int" >      235 </v>
   <v type="int" >      236 </v>
   <v type="int" >      237 </v>
   <v type="int" >      238 </v>
   <v type="int" >      239 </v>
   <v type="int" >      240 </v>
   <v type="int" >      241 </v>
   <v type="int" >      242 </v>
   <v type="int" >      243 </v>
   <v type="int" >      244 </v>
   <v type="int" >      245 </v>
   <v type="int" >      246 </v>
   <v type="int" >      247 </v>
   <v type="int" >      248 </v>
   <v type="int" >      249 </v>
   <v type="int" >      250 </v>
   <v type="int" >      251 </v>
   <v type="int" >      252 </v>
   <v type="int" >      253 </v>
   <v type="int" >      254 </v>
  </varray>
 </primitive_cell>
 <kpoints>
  <generation param="Gamma">
   <v type="int" name="divisions">       2        2        1 </v>
   <v name="usershift">      0.00000000       0.00000000       0.00000000 </v>
   <v name="genvec1">      0.50000000       0.00000000       0.00000000 </v>
   <v name="genvec2">      0.00000000       0.50000000       0.00000000 </v>
   <v name="genvec3">      0.00000000       0.00000000       1.00000000 </v>
   <v name="shift">      0.00000000       0.00000000       0.00000000 </v>
  </generation>
  <varray name="kpointlist" >
   <v>       0.00000000       0.00000000       0.00000000 </v>
   <v>       0.50000000       0.00000000       0.00000000 </v>
   <v>       0.00000000       0.50000000       0.00000000 </v>
  </varray>
  <varray name="weights" >
   <v>       0.25000000 </v>
   <v>       0.50000000 </v>
   <v>       0.25000000 </v>
  </varray>
 </kpoints>
 <parameters>
  <separator name="general" >
   <i type="string" name="SYSTEM">NiAl</i>
   <i type="logical" name="LCOMPAT"> F  </i>
  </separator>
  <separator name="electronic" >
   <i type="string" name="PREC">normal</i>
   <i name="ENMAX">    360.00000000</i>
   <i name="ENAUG">   1139.60900000</i>
   <i name="EDIFF">      0.00000500</i>
   <i type="int" name="IALGO">    38</i>
   <i type="int" name="IWAVPR">    10</i>
   <i type="int" name="NBANDS">   512</i>
   <i type="int" name="NBANDSLOW">    -1</i>
   <i type="int" name="NBANDSHIGH">    -1</i>
   <i name="NELECT">    768.00000000</i>
   <i type="int" name="TURBO">     0</i>
   <i type="int" name="IRESTART">     0</i>
   <i type="int" name="NREBOOT">     0</i>
   <i type="int" name="NMIN">     0</i>
   <i name="EREF">      0.00000000</i>
   <separator name="electronic smearing" >
    <i type="int" name="ISMEAR">     0</i>
    <i name="SIGMA">      0.05000000</i>
    <i name="KSPACING">      0.50000000</i>
    <i type="logical" name="KGAMMA"> T  </i>
    <i type="logical" name="KBLOWUP"> T  </i>
   </separator>
   <separator name="electronic projectors" >
    <i type="logical" name="LREAL"> T  </i>
    <v name="ROPT">     -0.00050000     -0.00050000</v>
    <i type="int" name="LMAXPAW">  -100</i>
    <i type="int" name="LMAXMIX">     2</i>
    <i type="logical" name="NLSPLINE"> F  </i>
   </separator>
   <separator name="electronic startup" >
    <i type="int" name="ISTART">     0</i>
    <i type="int" name="ICHARG">     2</i>
    <i type="int" name="INIWAV">     1</i>
   </separator>
   <separator name="electronic spin" >
    <i type="int" name="ISPIN">     1</i>
    <i type="logical" name="LNONCOLLINEAR"> F  </i>
    <v name="MAGMOM">      1.00000000      1.00000000      1.00000000      1.00000000      1.00000000      1.00000000      1.00000000      1.00000000      1.00000000      1.00000000      1.00000000      1.00000000      1.00000000      1.00000000      1.00000000      1.00000000      1.00000000      1.00000000      1.00000000      1.00000000
      1.00000000      1.00000000      1.00000000      1.00000000      1.00000000      1.00000000      1.00000000      1.00000000      1.00000000      1.00000000      1.00000000      1.00000000      1.00000000      1.00000000      1.00000000      1.00000000      1.00000000      1.00000000      1.00000000      1.00000000
      1.00000000      1.00000000      1.00000000      1.00000000      1.00000000      1.00000000      1.00000000      1.00000000      1.00000000      1.00000000      1.00000000      1.00000000      1.00000000      1.00000000      1.00000000      1.00000000      1.00000000      1.00000000      1.00000000      1.00000000
      1.00000000      1.00000000      1.00000000      1.00000000      1.00000000      1.00000000      1.00000000      1.00000000      1.00000000      1.00000000      1.00000000      1.00000000      1.00000000      1.00000000      1.00000000      1.00000000      1.00000000      1.00000000      1.00000000      1.00000000
      1.00000000      1.00000000      1.00000000      1.00000000      1.00000000      1.00000000      1.00000000      1.00000000      1.00000000      1.00000000      1.00000000      1.00000000      1.00000000      1.00000000      1.00000000      1.00000000      1.00000000      1.00000000      1.00000000      1.00000000
      1.00000000      1.00000000      1.00000000      1.00000000      1.00000000      1.00000000      1.00000000      1.00000000      1.00000000      1.00000000      1.00000000      1.00000000      1.00000000      1.00000000      1.00000000      1.00000000      1.00000000      1.00000000      1.00000000      1.00000000
      1.00000000      1.00000000      1.00000000      1.00000000      1.00000000      1.00000000      1.00000000      1.00000000      1.00000000      1.00000000      1.00000000      1.00000000      1.00000000      1.00000000      1.00000000      1.00000000      1.00000000      1.00000000      1.00000000      1.00000000
      1.00000000      1.00000000      1.00000000      1.00000000      1.00000000      1.00000000      1.00000000      1.00000000      1.00000000      1.00000000      1.00000000      1.00000000      1.00000000      1.00000000      1.00000000      1.00000000      1.00000000      1.00000000      1.00000000      1.00000000
      1.00000000      1.00000000      1.00000000      1.00000000      1.00000000      1.00000000      1.00000000      1.00000000      1.00000000      1.00000000      1.00000000      1.00000000      1.00000000      1.00000000      1.00000000      1.00000000      1.00000000      1.00000000      1.00000000      1.00000000
      1.00000000      1.00000000      1.00000000      1.00000000      1.00000000      1.00000000      1.00000000      1.00000000      1.00000000      1.00000000      1.00000000      1.00000000      1.00000000      1.00000000      1.00000000      1.00000000      1.00000000      1.00000000      1.00000000      1.00000000
      1.00000000      1.00000000      1.00000000      1.00000000      1.00000000      1.00000000      1.00000000      1.00000000      1.00000000      1.00000000      1.00000000      1.00000000      1.00000000      1.00000000      1.00000000      1.00000000      1.00000000      1.00000000      1.00000000      1.00000000
      1.00000000      1.00000000      1.00000000      1.00000000      1.00000000      1.00000000      1.00000000      1.00000000      1.00000000      1.00000000      1.00000000      1.00000000      1.00000000      1.00000000      1.00000000      1.00000000      1.00000000      1.00000000      1.00000000      1.00000000
      1.00000000      1.00000000      1.00000000      1.00000000      1.00000000      1.00000000      1.00000000      1.00000000      1.00000000      1.00000000      1.00000000      1.00000000      1.00000000      1.00000000</v>
    <i name="NUPDOWN">     -1.00000000</i>
    <i type="logical" name="LSORBIT"> F  </i>
    <v name="SAXIS">      0.00000000      0.00000000      1.00000000</v>
    <i type="logical" name="LSPIRAL"> F  </i>
    <v name="QSPIRAL">      0.00000000      0.00000000      0.00000000</v>
    <i type="logical" name="LZEROZ"> F  </i>
   </separator>
   <separator name="electronic exchange-correlation" >
    <i type="logical" name="LASPH"> F  </i>
    <i type="logical" name="LMETAGGA"> F  </i>
   </separator>
   <separator name="electronic convergence" >
    <i type="int" name="NELM">    60</i>
    <i type="int" name="NELMDL">    -5</i>
    <i type="int" name="NELMIN">     6</i>
    <i name="ENINI">    360.00000000</i>
    <separator name="electronic convergence detail" >
     <i type="logical" name="LDIAG"> T  </i>
     <i type="logical" name="LSUBROT"> F  </i>
     <i name="WEIMIN">      0.00000000</i>
     <i name="EBREAK">      0.00000000</i>
     <i name="DEPER">      0.30000000</i>
     <i type="int" name="NRMM">     4</i>
     <i name="TIME">      0.40000000</i>
    </separator>
   </separator>
   <separator name="electronic mixer" >
    <i name="AMIX">      0.40000000</i>
    <i name="BMIX">      1.00000000</i>
    <i name="AMIN">      0.10000000</i>
    <i name="AMIX_MAG">      1.60000000</i>
    <i name="BMIX_MAG">      1.00000000</i>
    <separator name="electronic mixer details" >
     <i type="int" name="IMIX">     4</i>
     <i type="logical" name="MIXFIRST"> F  </i>
     <i type="int" name="MAXMIX">   -45</i>
     <i name="WC">    100.00000000</i>
     <i type="int" name="INIMIX">     1</i>
     <i type="int" name="MIXPRE">     1</i>
     <i type="int" name="MREMOVE">     5</i>
    </separator>
   </separator>
   <separator name="electronic dipolcorrection" >
    <i type="logical" name="LDIPOL"> F  </i>
    <i type="logical" name="LMONO"> F  </i>
    <i type="int" name="IDIPOL">     0</i>
    <i name="EPSILON">      1.00000000</i>
    <v name="DIPOL">   -100.00000000   -100.00000000   -100.00000000</v>
    <i name="EFIELD">      0.00000000</i>
   </separator>
  </separator>
  <separator name="grids" >
   <i type="int" name="NGX">    80</i>
   <i type="int" name="NGY">    80</i>
   <i type="int" name="NGZ">   140</i>
   <i type="int" name="NGXF">   160</i>
   <i type="int" name="NGYF">   160</i>
   <i type="int" name="NGZF">   280</i>
   <i type="logical" name="ADDGRID"> F  </i>
  </separator>
  <separator name="ionic" >
   <i type="int" name="NSW">     0</i>
   <i type="int" name="IBRION">    -1</i>
   <i type="int" name="MDALGO">     0</i>
   <i type="int" name="ISIF">     0</i>
   <i name="PSTRESS">      0.00000000</i>
   <i name="EDIFFG">      0.00005000</i>
   <i type="int" name="NFREE">     0</i>
   <i name="POTIM">      0.50000000</i>
   <i name="SMASS">     -3.00000000</i>
   <i name="SCALEE">      1.00000000</i>
  </separator>
  <separator name="ionic md" >
   <i name="TEBEG">      0.00010000</i>
   <i name="TEEND">      0.00010000</i>
   <i type="int" name="NBLOCK">     1</i>
   <i type="int" name="KBLOCK">     1</i>
   <i type="int" name="NPACO">   256</i>
   <i name="APACO">     16.00000000</i>
  </separator>
  <separator name="symmetry" >
   <i type="int" name="ISYM">     2</i>
   <i name="SYMPREC">      0.00001000</i>
  </separator>
  <separator name="dos" >
   <i type="int" name="LORBIT">     0</i>
   <v name="RWIGS">     -1.00000000     -1.00000000</v>
   <i type="int" name="NEDOS">   301</i>
   <i name="EMIN">     10.00000000</i>
   <i name="EMAX">    -10.00000000</i>
   <i name="EFERMI">      0.00000000</i>
  </separator>
  <separator name="writing" >
   <i type="int" name="NWRITE">     2</i>
   <i type="logical" name="LWAVE"> F  </i>
   <i type="logical" name="LDOWNSAMPLE"> F  </i>
   <i type="logical" name="LCHARG"> F  </i>
   <i type="logical" name="LPARD"> F  </i>
   <i type="logical" name="LVTOT"> F  </i>
   <i type="logical" name="LVHAR"> F  </i>
   <i type="logical" name="LELF"> F  </i>
   <i type="logical" name="LOPTICS"> F  </i>
   <v name="STM">      0.00000000      0.00000000      0.00000000      0.00000000      0.00000000      0.00000000      0.00000000</v>
  </separator>
  <separator name="performance" >
   <i type="int" name="NPAR">     1</i>
   <i type="int" name="NSIM">     4</i>
   <i type="int" name="NBLK">    -1</i>
   <i type="logical" name="LPLANE"> T  </i>
   <i type="logical" name="LSCALAPACK"> T  </i>
   <i type="logical" name="LSCAAWARE"> F  </i>
   <i type="logical" name="LSCALU"> F  </i>
   <i type="logical" name="LASYNC"> F  </i>
   <i type="logical" name="LORBITALREAL"> F  </i>
  </separator>
  <separator name="miscellaneous" >
   <i type="int" name="IDIOT">     3</i>
   <i type="int" name="PHON_NSTRUCT">    -1</i>
   <i type="logical" name="LMUSIC"> F  </i>
   <v name="POMASS">     26.98200000     16.00000000</v>
   <v name="DARWINR">      0.00000000      0.00000000</v>
   <v name="DARWINV">      1.00000000      1.00000000</v>
   <i type="logical" name="LCORR"> T  </i>
  </separator>
  <i type="logical" name="GGA_COMPAT"> T  </i>
  <i type="logical" name="LBERRY"> F  </i>
  <i type="int" name="ICORELEVEL">     0</i>
  <i type="logical" name="LDAU"> F  </i>
  <i type="int" name="I_CONSTRAINED_M">     0</i>
  <separator name="electronic exchange-correlation" >
   <i type="string" name="GGA">--</i>
   <i type="int" name="VOSKOWN">     0</i>
   <i type="logical" name="LHFCALC"> F  </i>
   <i type="string" name="PRECFOCK"></i>
   <i type="logical" name="LSYMGRAD"> F  </i>
   <i type="logical" name="LHFONE"> F  </i>
   <i type="logical" name="LRHFCALC"> F  </i>
   <i type="logical" name="LTHOMAS"> F  </i>
   <i type="logical" name="LMODELHF"> F  </i>
   <i type="logical" name="LFOCKACE"> F  </i>
   <i name="ENCUT4O">     -1.00000000</i>
   <i type="int" name="EXXOEP">     0</i>
   <i type="int" name="FOURORBIT">     0</i>
   <i name="AEXX">      0.00000000</i>
   <i name="HFALPHA">      0.00000000</i>
   <i name="MCALPHA">      0.00000000</i>
   <i name="ALDAX">      1.00000000</i>
   <i name="AGGAX">      1.00000000</i>
   <i name="ALDAC">      1.00000000</i>
   <i name="AGGAC">      1.00000000</i>
   <i type="int" name="NKREDX">     1</i>
   <i type="int" name="NKREDY">     1</i>
   <i type="int" name="NKREDZ">     1</i>
   <i type="logical" name="SHIFTRED"> F  </i>
   <i type="logical" name="ODDONLY"> F  </i>
   <i type="logical" name="EVENONLY"> F  </i>
   <i type="int" name="LMAXFOCK">     0</i>
   <i type="int" name="NMAXFOCKAE">     0</i>
   <i type="logical" name="LFOCKAEDFT"> F  </i>
   <i name="HFSCREEN">      0.00000000</i>
   <i name="HFSCREENC">      0.00000000</i>
   <i type="int" name="NBANDSGWLOW">     0</i>
  </separator>
  <separator name="vdW DFT" >
   <i type="logical" name="LUSE_VDW"> F  </i>
   <i name="Zab_VDW">     -0.84910000</i>
   <i name="PARAM1">      0.12340000</i>
   <i name="PARAM2">      1.00000000</i>
   <i name="PARAM3">      0.00000000</i>
  </separator>
  <separator name="model GW" >
   <i type="int" name="MODEL_GW">     0</i>
   <i name="MODEL_EPS0">     18.11526668</i>
   <i name="MODEL_ALPHA">      1.00000000</i>
  </separator>
  <separator name="linear response parameters" >
   <i type="logical" name="LEPSILON"> F  </i>
   <i type="logical" name="LRPA"> F  </i>
   <i type="logical" name="LNABLA"> F  </i>
   <i type="logical" name="LVEL"> F  </i>
   <i type="int" name="KINTER">     0</i>
   <i name="CSHIFT">      0.10000000</i>
   <i name="OMEGAMAX">     -1.00000000</i>
   <i name="DEG_THRESHOLD">      0.00200000</i>
   <i name="RTIME">     -0.10000000</i>
   <i name="WPLASMAI">      0.00000000</i>
   <v name="DFIELD">      0.00000000      0.00000000      0.00000000</v>
   <v name="WPLASMA">      0.00000000      0.00000000      0.00000000      0.00000000      0.00000000      0.00000000      0.00000000      0.00000000      0.00000000</v>
  </separator>
  <separator name="orbital magnetization" >
   <i type="logical" name="NUCIND"> F  </i>
   <v name="MAGPOS">      0.00000000      0.00000000      0.00000000</v>
   <i type="logical" name="LNICSALL"> T  </i>
   <i type="logical" name="ORBITALMAG"> F  </i>
   <i type="logical" name="LMAGBLOCH"> F  </i>
   <i type="logical" name="LCHIMAG"> F  </i>
   <i type="logical" name="LGAUGE"> T  </i>
   <i type="int" name="MAGATOM">     0</i>
   <v name="MAGDIPOL">      0.00000000      0.00000000      0.00000000</v>
   <v name="AVECCONST">      0.00000000      0.00000000      0.00000000</v>
  </separator>
  <separator name="response functions" >
   <i type="logical" name="LFINITE_TEMPERATURE"> F  </i>
   <i type="logical" name="LADDER"> F  </i>
   <i type="logical" name="LRPAFORCE"> F  </i>
   <i type="logical" name="LFXC"> F  </i>
   <i type="logical" name="LHARTREE"> T  </i>
   <i type="int" name="IBSE">     0</i>
   <v type="int" name="KPOINT">    -1     0     0     0</v>
   <i type="logical" name="LTCTC"> F  </i>
   <i type="logical" name="LTCTE"> F  </i>
   <i type="logical" name="LTETE"> F  </i>
   <i type="logical" name="LTRIPLET"> F  </i>
   <i type="logical" name="LFXCEPS"> F  </i>
   <i type="logical" name="LFXHEG"> F  </i>
   <i type="int" name="NATURALO">     2</i>
   <i type="logical" name="LHOLEGF"> F  </i>
   <i type="logical" name="L2ORDER"> F  </i>
   <i type="logical" name="LDMP1"> F  </i>
   <i type="logical" name="LMP2LT"> F  </i>
   <i type="logical" name="LSMP2LT"> F  </i>
   <i type="logical" name="LGWLF"> F  </i>
   <i name="ENCUTGW">     -2.00000000</i>
   <i name="ENCUTGWSOFT">     -2.00000000</i>
   <i name="ENCUTLF">     -1.00000000</i>
   <i type="logical" name="LESF_SPLINES"> F  </i>
   <i type="int" name="LMAXMP2">    -1</i>
   <i name="SCISSOR">      0.00000000</i>
   <i type="int" name="NOMEGA">     0</i>
   <i type="int" name="NOMEGAR">     0</i>
   <i type="int" name="NBANDSGW">    -1</i>
   <i type="int" name="NBANDSO">    -1</i>
   <i type="int" name="NBANDSV">    -1</i>
   <i type="int" name="NELM">     1</i>
   <i type="int" name="NELMHF">     1</i>
   <i type="int" name="DIM">     3</i>
   <i type="int" name="IESPILON">     4</i>
   <i type="int" name="ANTIRES">     0</i>
   <i name="OMEGAMAX">    -30.00000000</i>
   <i name="OMEGAMIN">    -30.00000000</i>
   <i name="OMEGATL">   -200.00000000</i>
   <i type="int" name="OMEGAGRID">     0</i>
   <i name="CSHIFT">     -0.10000000</i>
   <i type="logical" name="LSELFENERGY"> F  </i>
   <i type="logical" name="LSPECTRAL"> F  </i>
   <i type="logical" name="LSPECTRALGW"> F  </i>
   <i type="logical" name="LSINGLES"> F  </i>
   <i type="logical" name="LFERMIGW"> F  </i>
   <i type="logical" name="ODDONLYGW"> F  </i>
   <i type="logical" name="EVENONLYGW"> F  </i>
   <i type="int" name="NKREDLFX">     1</i>
   <i type="int" name="NKREDLFY">     1</i>
   <i type="int" name="NKREDLFZ">     1</i>
   <i type="int" name="MAXMEM">  2800</i>
   <i type="int" name="TELESCOPE">     0</i>
   <i type="int" name="NTAUPAR">    -1</i>
   <i type="int" name="NOMEGAPAR">    -1</i>
   <i name="DAMP_NEWTON">      0.80000001</i>
   <i name="LAMBDA">      1.00000000</i>
  </separator>
  <separator name="External order field" >
   <i name="OFIELD_KAPPA">      0.00000000</i>
   <v name="OFIELD_K">      0.00000000      0.00000000      0.00000000</v>
   <i name="OFIELD_Q6_NEAR">      0.00000000</i>
   <i name="OFIELD_Q6_FAR">      0.00000000</i>
   <i name="OFIELD_A">      0.00000000</i>
  </separator>
  <separator name="solvation model" >
   <i type="logical" name="LSOL"> F  </i>
  </separator>
 </parameters>
 <atominfo>
  <atoms>     254 </atoms>
  <types>       2 </types>
  <array name="atoms" >
   <dimension dim="1">ion</dimension>
   <field type="string">element</field>
   <field type="int">atomtype</field>
   <set>
    <rc><c>Al</c><c>   1</c></rc>
    <rc><c>Al</c><c>   1</c></rc>
    <rc><c>Al</c><c>   1</c></rc>
    <rc><c>Al</c><c>   1</c></rc>
    <rc><c>Al</c><c>   1</c></rc>
    <rc><c>Al</c><c>   1</c></rc>
    <rc><c>Al</c><c>   1</c></rc>
    <rc><c>Al</c><c>   1</c></rc>
    <rc><c>Al</c><c>   1</c></rc>
    <rc><c>Al</c><c>   1</c></rc>
    <rc><c>Al</c><c>   1</c></rc>
    <rc><c>Al</c><c>   1</c></rc>
    <rc><c>Al</c><c>   1</c></rc>
    <rc><c>Al</c><c>   1</c></rc>
    <rc><c>Al</c><c>   1</c></rc>
    <rc><c>Al</c><c>   1</c></rc>
    <rc><c>Al</c><c>   1</c></rc>
    <rc><c>Al</c><c>   1</c></rc>
    <rc><c>Al</c><c>   1</c></rc>
    <rc><c>Al</c><c>   1</c></rc>
    <rc><c>Al</c><c>   1</c></rc>
    <rc><c>Al</c><c>   1</c></rc>
    <rc><c>Al</c><c>   1</c></rc>
    <rc><c>Al</c><c>   1</c></rc>
    <rc><c>Al</c><c>   1</c></rc>
    <rc><c>Al</c><c>   1</c></rc>
    <rc><c>Al</c><c>   1</c></rc>
    <rc><c>Al</c><c>   1</c></rc>
    <rc><c>Al</c><c>   1</c></rc>
    <rc><c>Al</c><c>   1</c></rc>
    <rc><c>Al</c><c>   1</c></rc>
    <rc><c>Al</c><c>   1</c></rc>
    <rc><c>Al</c><c>   1</c></rc>
    <rc><c>Al</c><c>   1</c></rc>
    <rc><c>Al</c><c>   1</c></rc>
    <rc><c>Al</c><c>   1</c></rc>
    <rc><c>Al</c><c>   1</c></rc>
    <rc><c>Al</c><c>   1</c></rc>
    <rc><c>Al</c><c>   1</c></rc>
    <rc><c>Al</c><c>   1</c></rc>
    <rc><c>Al</c><c>   1</c></rc>
    <rc><c>Al</c><c>   1</c></rc>
    <rc><c>Al</c><c>   1</c></rc>
    <rc><c>Al</c><c>   1</c></rc>
    <rc><c>Al</c><c>   1</c></rc>
    <rc><c>Al</c><c>   1</c></rc>
    <rc><c>Al</c><c>   1</c></rc>
    <rc><c>Al</c><c>   1</c></rc>
    <rc><c>Al</c><c>   1</c></rc>
    <rc><c>Al</c><c>   1</c></rc>
    <rc><c>Al</c><c>   1</c></rc>
    <rc><c>Al</c><c>   1</c></rc>
    <rc><c>Al</c><c>   1</c></rc>
    <rc><c>Al</c><c>   1</c></rc>
    <rc><c>Al</c><c>   1</c></rc>
    <rc><c>Al</c><c>   1</c></rc>
    <rc><c>Al</c><c>   1</c></rc>
    <rc><c>Al</c><c>   1</c></rc>
    <rc><c>Al</c><c>   1</c></rc>
    <rc><c>Al</c><c>   1</c></rc>
    <rc><c>Al</c><c>   1</c></rc>
    <rc><c>Al</c><c>   1</c></rc>
    <rc><c>Al</c><c>   1</c></rc>
    <rc><c>Al</c><c>   1</c></rc>
    <rc><c>Al</c><c>   1</c></rc>
    <rc><c>Al</c><c>   1</c></rc>
    <rc><c>Al</c><c>   1</c></rc>
    <rc><c>Al</c><c>   1</c></rc>
    <rc><c>Al</c><c>   1</c></rc>
    <rc><c>Al</c><c>   1</c></rc>
    <rc><c>Al</c><c>   1</c></rc>
    <rc><c>Al</c><c>   1</c></rc>
    <rc><c>Al</c><c>   1</c></rc>
    <rc><c>Al</c><c>   1</c></rc>
    <rc><c>Al</c><c>   1</c></rc>
    <rc><c>Al</c><c>   1</c></rc>
    <rc><c>Al</c><c>   1</c></rc>
    <rc><c>Al</c><c>   1</c></rc>
    <rc><c>Al</c><c>   1</c></rc>
    <rc><c>Al</c><c>   1</c></rc>
    <rc><c>Al</c><c>   1</c></rc>
    <rc><c>Al</c><c>   1</c></rc>
    <rc><c>Al</c><c>   1</c></rc>
    <rc><c>Al</c><c>   1</c></rc>
    <rc><c>Al</c><c>   1</c></rc>
    <rc><c>Al</c><c>   1</c></rc>
    <rc><c>Al</c><c>   1</c></rc>
    <rc><c>Al</c><c>   1</c></rc>
    <rc><c>Al</c><c>   1</c></rc>
    <rc><c>Al</c><c>   1</c></rc>
    <rc><c>Al</c><c>   1</c></rc>
    <rc><c>Al</c><c>   1</c></rc>
    <rc><c>Al</c><c>   1</c></rc>
    <rc><c>Al</c><c>   1</c></rc>
    <rc><c>Al</c><c>   1</c></rc>
    <rc><c>Al</c><c>   1</c></rc>
    <rc><c>Al</c><c>   1</c></rc>
    <rc><c>Al</c><c>   1</c></rc>
    <rc><c>Al</c><c>   1</c></rc>
    <rc><c>Al</c><c>   1</c></rc>
    <rc><c>Al</c><c>   1</c></rc>
    <rc><c>Al</c><c>   1</c></rc>
    <rc><c>Al</c><c>   1</c></rc>
    <rc><c>Al</c><c>   1</c></rc>
    <rc><c>Al</c><c>   1</c></rc>
    <rc><c>Al</c><c>   1</c></rc>
    <rc><c>Al</c><c>   1</c></rc>
    <rc><c>Al</c><c>   1</c></rc>
    <rc><c>Al</c><c>   1</c></rc>
    <rc><c>Al</c><c>   1</c></rc>
    <rc><c>Al</c><c>   1</c></rc>
    <rc><c>Al</c><c>   1</c></rc>
    <rc><c>Al</c><c>   1</c></rc>
    <rc><c>Al</c><c>   1</c></rc>
    <rc><c>Al</c><c>   1</c></rc>
    <rc><c>Al</c><c>   1</c></rc>
    <rc><c>Al</c><c>   1</c></rc>
    <rc><c>Al</c><c>   1</c></rc>
    <rc><c>Al</c><c>   1</c></rc>
    <rc><c>Al</c><c>   1</c></rc>
    <rc><c>Al</c><c>   1</c></rc>
    <rc><c>Al</c><c>   1</c></rc>
    <rc><c>Al</c><c>   1</c></rc>
    <rc><c>Al</c><c>   1</c></rc>
    <rc><c>Al</c><c>   1</c></rc>
    <rc><c>Al</c><c>   1</c></rc>
    <rc><c>Al</c><c>   1</c></rc>
    <rc><c>Al</c><c>   1</c></rc>
    <rc><c>Al</c><c>   1</c></rc>
    <rc><c>Al</c><c>   1</c></rc>
    <rc><c>Al</c><c>   1</c></rc>
    <rc><c>Al</c><c>   1</c></rc>
    <rc><c>Al</c><c>   1</c></rc>
    <rc><c>Al</c><c>   1</c></rc>
    <rc><c>Al</c><c>   1</c></rc>
    <rc><c>Al</c><c>   1</c></rc>
    <rc><c>Al</c><c>   1</c></rc>
    <rc><c>Al</c><c>   1</c></rc>
    <rc><c>Al</c><c>   1</c></rc>
    <rc><c>Al</c><c>   1</c></rc>
    <rc><c>Al</c><c>   1</c></rc>
    <rc><c>Al</c><c>   1</c></rc>
    <rc><c>Al</c><c>   1</c></rc>
    <rc><c>Al</c><c>   1</c></rc>
    <rc><c>Al</c><c>   1</c></rc>
    <rc><c>Al</c><c>   1</c></rc>
    <rc><c>Al</c><c>   1</c></rc>
    <rc><c>Al</c><c>   1</c></rc>
    <rc><c>Al</c><c>   1</c></rc>
    <rc><c>Al</c><c>   1</c></rc>
    <rc><c>Al</c><c>   1</c></rc>
    <rc><c>Al</c><c>   1</c></rc>
    <rc><c>Al</c><c>   1</c></rc>
    <rc><c>Al</c><c>   1</c></rc>
    <rc><c>Al</c><c>   1</c></rc>
    <rc><c>Al</c><c>   1</c></rc>
    <rc><c>Al</c><c>   1</c></rc>
    <rc><c>Al</c><c>   1</c></rc>
    <rc><c>Al</c><c>   1</c></rc>
    <rc><c>Al</c><c>   1</c></rc>
    <rc><c>Al</c><c>   1</c></rc>
    <rc><c>Al</c><c>   1</c></rc>
    <rc><c>Al</c><c>   1</c></rc>
    <rc><c>Al</c><c>   1</c></rc>
    <rc><c>Al</c><c>   1</c></rc>
    <rc><c>Al</c><c>   1</c></rc>
    <rc><c>Al</c><c>   1</c></rc>
    <rc><c>Al</c><c>   1</c></rc>
    <rc><c>Al</c><c>   1</c></rc>
    <rc><c>Al</c><c>   1</c></rc>
    <rc><c>Al</c><c>   1</c></rc>
    <rc><c>Al</c><c>   1</c></rc>
    <rc><c>Al</c><c>   1</c></rc>
    <rc><c>Al</c><c>   1</c></rc>
    <rc><c>Al</c><c>   1</c></rc>
    <rc><c>Al</c><c>   1</c></rc>
    <rc><c>Al</c><c>   1</c></rc>
    <rc><c>Al</c><c>   1</c></rc>
    <rc><c>Al</c><c>   1</c></rc>
    <rc><c>Al</c><c>   1</c></rc>
    <rc><c>Al</c><c>   1</c></rc>
    <rc><c>Al</c><c>   1</c></rc>
    <rc><c>Al</c><c>   1</c></rc>
    <rc><c>Al</c><c>   1</c></rc>
    <rc><c>Al</c><c>   1</c></rc>
    <rc><c>Al</c><c>   1</c></rc>
    <rc><c>Al</c><c>   1</c></rc>
    <rc><c>Al</c><c>   1</c></rc>
    <rc><c>Al</c><c>   1</c></rc>
    <rc><c>Al</c><c>   1</c></rc>
    <rc><c>Al</c><c>   1</c></rc>
    <rc><c>Al</c><c>   1</c></rc>
    <rc><c>Al</c><c>   1</c></rc>
    <rc><c>Al</c><c>   1</c></rc>
    <rc><c>Al</c><c>   1</c></rc>
    <rc><c>Al</c><c>   1</c></rc>
    <rc><c>Al</c><c>   1</c></rc>
    <rc><c>Al</c><c>   1</c></rc>
    <rc><c>Al</c><c>   1</c></rc>
    <rc><c>Al</c><c>   1</c></rc>
    <rc><c>Al</c><c>   1</c></rc>
    <rc><c>Al</c><c>   1</c></rc>
    <rc><c>Al</c><c>   1</c></rc>
    <rc><c>Al</c><c>   1</c></rc>
    <rc><c>Al</c><c>   1</c></rc>
    <rc><c>Al</c><c>   1</c></rc>
    <rc><c>Al</c><c>   1</c></rc>
    <rc><c>Al</c><c>   1</c></rc>
    <rc><c>Al</c><c>   1</c></rc>
    <rc><c>Al</c><c>   1</c></rc>
    <rc><c>Al</c><c>   1</c></rc>
    <rc><c>Al</c><c>   1</c></rc>
    <rc><c>Al</c><c>   1</c></rc>
    <rc><c>Al</c><c>   1</c></rc>
    <rc><c>Al</c><c>   1</c></rc>
    <rc><c>Al</c><c>   1</c></rc>
    <rc><c>Al</c><c>   1</c></rc>
    <rc><c>Al</c><c>   1</c></rc>
    <rc><c>Al</c><c>   1</c></rc>
    <rc><c>Al</c><c>   1</c></rc>
    <rc><c>Al</c><c>   1</c></rc>
    <rc><c>Al</c><c>   1</c></rc>
    <rc><c>Al</c><c>   1</c></rc>
    <rc><c>Al</c><c>   1</c></rc>
    <rc><c>Al</c><c>   1</c></rc>
    <rc><c>Al</c><c>   1</c></rc>
    <rc><c>Al</c><c>   1</c></rc>
    <rc><c>Al</c><c>   1</c></rc>
    <rc><c>Al</c><c>   1</c></rc>
    <rc><c>Al</c><c>   1</c></rc>
    <rc><c>Al</c><c>   1</c></rc>
    <rc><c>Al</c><c>   1</c></rc>
    <rc><c>Al</c><c>   1</c></rc>
    <rc><c>Al</c><c>   1</c></rc>
    <rc><c>Al</c><c>   1</c></rc>
    <rc><c>Al</c><c>   1</c></rc>
    <rc><c>Al</c><c>   1</c></rc>
    <rc><c>Al</c><c>   1</c></rc>
    <rc><c>Al</c><c>   1</c></rc>
    <rc><c>Al</c><c>   1</c></rc>
    <rc><c>Al</c><c>   1</c></rc>
    <rc><c>Al</c><c>   1</c></rc>
    <rc><c>Al</c><c>   1</c></rc>
    <rc><c>Al</c><c>   1</c></rc>
    <rc><c>Al</c><c>   1</c></rc>
    <rc><c>Al</c><c>   1</c></rc>
    <rc><c>Al</c><c>   1</c></rc>
    <rc><c>Al</c><c>   1</c></rc>
    <rc><c>Al</c><c>   1</c></rc>
    <rc><c>Al</c><c>   1</c></rc>
    <rc><c>Al</c><c>   1</c></rc>
    <rc><c>Al</c><c>   1</c></rc>
    <rc><c>O </c><c>   2</c></rc>
    <rc><c>O </c><c>   2</c></rc>
   </set>
  </array>
  <array name="atomtypes" >
   <dimension dim="1">type</dimension>
   <field type="int">atomspertype</field>
   <field type="string">element</field>
   <field>mass</field>
   <field>valence</field>
   <field type="string">pseudopotential</field>
   <set>
    <rc><c> 252</c><c>Al</c><c>     26.98200000</c><c>      3.00000000</c><c>  PAW Al_GW 19Mar2012                   </c></rc>
    <rc><c>   2</c><c>O </c><c>     16.00000000</c><c>      6.00000000</c><c>  PAW O_GW 19Mar2012                    </c></rc>
   </set>
  </array>
 </atominfo>
 <structure name="initialpos" >
  <crystal>
   <varray name="basis" >
    <v>       0.00000000     -17.18057346       0.00000000 </v>
    <v>       0.00000000      -8.59028673     -14.87881307 </v>
    <v>      30.00000000       0.00000000       0.00000000 </v>
   </varray>
   <i name="volume">   7668.79622957 </i>
   <varray name="rec_basis" >
    <v>       0.00000000      -0.05820527       0.03360483 </v>
    <v>       0.00000000       0.00000000      -0.06720966 </v>
    <v>       0.03333333       0.00000000       0.00000000 </v>
   </varray>
  </crystal>
  <varray name="positions" >
   <v>       0.44444456       0.44444473       0.07873467 </v>
   <v>       0.44444419       0.77777777       0.07873467 </v>
   <v>       0.44444468       0.11111101       0.07873467 </v>
   <v>       0.77777744       0.44444473       0.07873467 </v>
   <v>       0.77777765       0.77777777       0.07873467 </v>
   <v>       0.77777756       0.11111101       0.07873467 </v>
   <v>       0.11111110       0.44444473       0.07873467 </v>
   <v>       0.11111131       0.77777777       0.07873467 </v>
   <v>       0.11111122       0.11111101       0.07873467 </v>
   <v>       0.55555520       0.55555574       0.15702600 </v>
   <v>       0.55555541       0.88888878       0.15702600 </v>
   <v>       0.55555591       0.22222203       0.15702600 </v>
   <v>       0.88888866       0.55555574       0.15702600 </v>
   <v>       0.88888887       0.88888878       0.15702600 </v>
   <v>       0.88888878       0.22222203       0.15702600 </v>
   <v>       0.22222232       0.55555574       0.15702600 </v>
   <v>       0.22222253       0.88888878       0.15702600 </v>
   <v>       0.22222245       0.22222203       0.15702600 </v>
   <v>       0.66666642       0.66666675       0.23375733 </v>
   <v>       0.66666692       0.00000000       0.23375733 </v>
   <v>       0.66666655       0.33333304       0.23375733 </v>
   <v>       0.00000008       0.66666675       0.23375733 </v>
   <v>       0.00000000       0.00000000       0.23375733 </v>
   <v>       0.00000021       0.33333304       0.23375733 </v>
   <v>       0.33333354       0.66666675       0.23375733 </v>
   <v>       0.33333346       0.00000000       0.23375733 </v>
   <v>       0.33333367       0.33333304       0.23375733 </v>
   <v>       0.77777765       0.77777777       0.31173067 </v>
   <v>       0.77777756       0.11111101       0.31173067 </v>
   <v>       0.77777744       0.44444473       0.31173067 </v>
   <v>       0.11111131       0.77777777       0.31173067 </v>
   <v>       0.11111122       0.11111101       0.31173067 </v>
   <v>       0.11111110       0.44444473       0.31173067 </v>
   <v>       0.44444419       0.77777777       0.31173067 </v>
   <v>       0.44444468       0.11111101       0.31173067 </v>
   <v>       0.44444456       0.44444473       0.31173067 </v>
   <v>       0.88888887       0.88888878       0.38970400 </v>
   <v>       0.88888878       0.22222203       0.38970400 </v>
   <v>       0.88888866       0.55555574       0.38970400 </v>
   <v>       0.22222253       0.88888878       0.38970400 </v>
   <v>       0.22222245       0.22222203       0.38970400 </v>
   <v>       0.22222232       0.55555574       0.38970400 </v>
   <v>       0.55555541       0.88888878       0.38970400 </v>
   <v>       0.55555591       0.22222203       0.38970400 </v>
   <v>       0.55555520       0.55555574       0.38970400 </v>
   <v>       0.00000000       0.00000000       0.46643533 </v>
   <v>       0.00000021       0.33333304       0.46643533 </v>
   <v>       0.00000008       0.66666675       0.46643533 </v>
   <v>       0.33333346       0.00000000       0.46643533 </v>
   <v>       0.33333367       0.33333304       0.46643533 </v>
   <v>       0.33333354       0.66666675       0.46643533 </v>
   <v>       0.66666692       0.00000000       0.46643533 </v>
   <v>       0.66666655       0.33333304       0.46643533 </v>
   <v>       0.66666642       0.66666675       0.46643533 </v>
   <v>       0.11111122       0.11111101       0.54472667 </v>
   <v>       0.11111110       0.44444473       0.54472667 </v>
   <v>       0.11111131       0.77777777       0.54472667 </v>
   <v>       0.44444468       0.11111101       0.54472667 </v>
   <v>       0.44444456       0.44444473       0.54472667 </v>
   <v>       0.44444419       0.77777777       0.54472667 </v>
   <v>       0.77777756       0.11111101       0.54472667 </v>
   <v>       0.77777744       0.44444473       0.54472667 </v>
   <v>       0.77777765       0.77777777       0.54472667 </v>
   <v>       0.27777777       0.27777753       0.07873467 </v>
   <v>       0.27777764       0.61111125       0.07873467 </v>
   <v>       0.27777785       0.94444429       0.07873467 </v>
   <v>       0.61111123       0.27777753       0.07873467 </v>
   <v>       0.61111110       0.61111125       0.07873467 </v>
   <v>       0.61111131       0.94444429       0.07873467 </v>
   <v>       0.94444469       0.27777753       0.07873467 </v>
   <v>       0.94444456       0.61111125       0.07873467 </v>
   <v>       0.94444477       0.94444429       0.07873467 </v>
   <v>       0.38888865       0.38888922       0.15702600 </v>
   <v>       0.38888886       0.72222226       0.15702600 </v>
   <v>       0.38888878       0.05555551       0.15702600 </v>
   <v>       0.72222211       0.38888922       0.15702600 </v>
   <v>       0.72222232       0.72222226       0.15702600 </v>
   <v>       0.72222224       0.05555551       0.15702600 </v>
   <v>       0.05555519       0.38888922       0.15702600 </v>
   <v>       0.05555540       0.72222226       0.15702600 </v>
   <v>       0.05555532       0.05555551       0.15702600 </v>
   <v>       0.49999988       0.50000023       0.23375733 </v>
   <v>       0.50000009       0.83333327       0.23375733 </v>
   <v>       0.50000000       0.16666652       0.23375733 </v>
   <v>       0.83333334       0.50000023       0.23375733 </v>
   <v>       0.83333355       0.83333327       0.23375733 </v>
   <v>       0.83333346       0.16666652       0.23375733 </v>
   <v>       0.16666642       0.50000023       0.23375733 </v>
   <v>       0.16666663       0.83333327       0.23375733 </v>
   <v>       0.16666654       0.16666652       0.23375733 </v>
   <v>       0.61111110       0.61111125       0.31173067 </v>
   <v>       0.61111131       0.94444429       0.31173067 </v>
   <v>       0.61111123       0.27777753       0.31173067 </v>
   <v>       0.94444456       0.61111125       0.31173067 </v>
   <v>       0.94444477       0.94444429       0.31173067 </v>
   <v>       0.94444469       0.27777753       0.31173067 </v>
   <v>       0.27777764       0.61111125       0.31173067 </v>
   <v>       0.27777785       0.94444429       0.31173067 </v>
   <v>       0.27777777       0.27777753       0.31173067 </v>
   <v>       0.72222232       0.72222226       0.38970400 </v>
   <v>       0.72222224       0.05555551       0.38970400 </v>
   <v>       0.72222211       0.38888922       0.38970400 </v>
   <v>       0.05555540       0.72222226       0.38970400 </v>
   <v>       0.05555532       0.05555551       0.38970400 </v>
   <v>       0.05555519       0.38888922       0.38970400 </v>
   <v>       0.38888886       0.72222226       0.38970400 </v>
   <v>       0.38888878       0.05555551       0.38970400 </v>
   <v>       0.38888865       0.38888922       0.38970400 </v>
   <v>       0.83333355       0.83333327       0.46643533 </v>
   <v>       0.83333346       0.16666652       0.46643533 </v>
   <v>       0.83333334       0.50000023       0.46643533 </v>
   <v>       0.16666663       0.83333327       0.46643533 </v>
   <v>       0.16666654       0.16666652       0.46643533 </v>
   <v>       0.16666642       0.50000023       0.46643533 </v>
   <v>       0.50000009       0.83333327       0.46643533 </v>
   <v>       0.50000000       0.16666652       0.46643533 </v>
   <v>       0.49999988       0.50000023       0.46643533 </v>
   <v>       0.94444477       0.94444429       0.54472667 </v>
   <v>       0.94444469       0.27777753       0.54472667 </v>
   <v>       0.94444456       0.61111125       0.54472667 </v>
   <v>       0.27777785       0.94444429       0.54472667 </v>
   <v>       0.27777777       0.27777753       0.54472667 </v>
   <v>       0.27777764       0.61111125       0.54472667 </v>
   <v>       0.61111131       0.94444429       0.54472667 </v>
   <v>       0.61111123       0.27777753       0.54472667 </v>
   <v>       0.61111110       0.61111125       0.54472667 </v>
   <v>       0.27777783       0.44444473       0.07873467 </v>
   <v>       0.27777804       0.77777777       0.07873467 </v>
   <v>       0.27777795       0.11111101       0.07873467 </v>
   <v>       0.61111071       0.44444473       0.07873467 </v>
   <v>       0.61111092       0.77777777       0.07873467 </v>
   <v>       0.61111141       0.11111101       0.07873467 </v>
   <v>       0.94444417       0.44444473       0.07873467 </v>
   <v>       0.94444438       0.77777777       0.07873467 </v>
   <v>       0.94444429       0.11111101       0.07873467 </v>
   <v>       0.38888905       0.55555574       0.15702600 </v>
   <v>       0.38888868       0.88888878       0.15702600 </v>
   <v>       0.38888918       0.22222203       0.15702600 </v>
   <v>       0.72222193       0.55555574       0.15702600 </v>
   <v>       0.72222214       0.88888878       0.15702600 </v>
   <v>       0.72222205       0.22222203       0.15702600 </v>
   <v>       0.05555559       0.55555574       0.15702600 </v>
   <v>       0.05555580       0.88888878       0.15702600 </v>
   <v>       0.05555572       0.22222203       0.15702600 </v>
   <v>       0.49999969       0.66666675       0.23375733 </v>
   <v>       0.50000019       0.00000000       0.23375733 </v>
   <v>       0.50000040       0.33333304       0.23375733 </v>
   <v>       0.83333315       0.66666675       0.23375733 </v>
   <v>       0.83333307       0.00000000       0.23375733 </v>
   <v>       0.83333328       0.33333304       0.23375733 </v>
   <v>       0.16666681       0.66666675       0.23375733 </v>
   <v>       0.16666673       0.00000000       0.23375733 </v>
   <v>       0.16666694       0.33333304       0.23375733 </v>
   <v>       0.61111092       0.77777777       0.31173067 </v>
   <v>       0.61111141       0.11111101       0.31173067 </v>
   <v>       0.61111071       0.44444473       0.31173067 </v>
   <v>       0.94444438       0.77777777       0.31173067 </v>
   <v>       0.94444429       0.11111101       0.31173067 </v>
   <v>       0.94444417       0.44444473       0.31173067 </v>
   <v>       0.27777804       0.77777777       0.31173067 </v>
   <v>       0.27777795       0.11111101       0.31173067 </v>
   <v>       0.27777783       0.44444473       0.31173067 </v>
   <v>       0.72222214       0.88888878       0.38970400 </v>
   <v>       0.72222205       0.22222203       0.38970400 </v>
   <v>       0.72222193       0.55555574       0.38970400 </v>
   <v>       0.05555580       0.88888878       0.38970400 </v>
   <v>       0.05555572       0.22222203       0.38970400 </v>
   <v>       0.05555559       0.55555574       0.38970400 </v>
   <v>       0.38888868       0.88888878       0.38970400 </v>
   <v>       0.38888918       0.22222203       0.38970400 </v>
   <v>       0.38888905       0.55555574       0.38970400 </v>
   <v>       0.83333307       0.00000000       0.46643533 </v>
   <v>       0.83333328       0.33333304       0.46643533 </v>
   <v>       0.83333315       0.66666675       0.46643533 </v>
   <v>       0.16666673       0.00000000       0.46643533 </v>
   <v>       0.16666694       0.33333304       0.46643533 </v>
   <v>       0.16666681       0.66666675       0.46643533 </v>
   <v>       0.50000019       0.00000000       0.46643533 </v>
   <v>       0.50000040       0.33333304       0.46643533 </v>
   <v>       0.49999969       0.66666675       0.46643533 </v>
   <v>       0.94444429       0.11111101       0.54472667 </v>
   <v>       0.94444417       0.44444473       0.54472667 </v>
   <v>       0.94444438       0.77777777       0.54472667 </v>
   <v>       0.27777795       0.11111101       0.54472667 </v>
   <v>       0.27777783       0.44444473       0.54472667 </v>
   <v>       0.27777804       0.77777777       0.54472667 </v>
   <v>       0.61111141       0.11111101       0.54472667 </v>
   <v>       0.61111071       0.44444473       0.54472667 </v>
   <v>       0.61111092       0.77777777       0.54472667 </v>
   <v>       0.44444450       0.27777753       0.07873467 </v>
   <v>       0.44444437       0.61111125       0.07873467 </v>
   <v>       0.44444458       0.94444429       0.07873467 </v>
   <v>       0.77777796       0.27777753       0.07873467 </v>
   <v>       0.77777783       0.61111125       0.07873467 </v>
   <v>       0.77777804       0.94444429       0.07873467 </v>
   <v>       0.11111104       0.27777753       0.07873467 </v>
   <v>       0.11111091       0.61111125       0.07873467 </v>
   <v>       0.11111112       0.94444429       0.07873467 </v>
   <v>       0.55555538       0.38888922       0.15702600 </v>
   <v>       0.55555559       0.72222226       0.15702600 </v>
   <v>       0.55555551       0.05555551       0.15702600 </v>
   <v>       0.88888884       0.38888922       0.15702600 </v>
   <v>       0.88888905       0.72222226       0.15702600 </v>
   <v>       0.88888897       0.05555551       0.15702600 </v>
   <v>       0.22222192       0.38888922       0.15702600 </v>
   <v>       0.22222213       0.72222226       0.15702600 </v>
   <v>       0.22222205       0.05555551       0.15702600 </v>
   <v>       0.66666661       0.50000023       0.23375733 </v>
   <v>       0.66666682       0.83333327       0.23375733 </v>
   <v>       0.66666673       0.16666652       0.23375733 </v>
   <v>       0.99999969       0.50000023       0.23375733 </v>
   <v>       0.99999990       0.83333327       0.23375733 </v>
   <v>       0.99999981       0.16666652       0.23375733 </v>
   <v>       0.33333315       0.50000023       0.23375733 </v>
   <v>       0.33333336       0.83333327       0.23375733 </v>
   <v>       0.33333327       0.16666652       0.23375733 </v>
   <v>       0.77777783       0.61111125       0.31173067 </v>
   <v>       0.77777804       0.94444429       0.31173067 </v>
   <v>       0.77777796       0.27777753       0.31173067 </v>
   <v>       0.11111091       0.61111125       0.31173067 </v>
   <v>       0.11111112       0.94444429       0.31173067 </v>
   <v>       0.11111104       0.27777753       0.31173067 </v>
   <v>       0.44444437       0.61111125       0.31173067 </v>
   <v>       0.44444458       0.94444429       0.31173067 </v>
   <v>       0.44444450       0.27777753       0.31173067 </v>
   <v>       0.88888905       0.72222226       0.38970400 </v>
   <v>       0.88888897       0.05555551       0.38970400 </v>
   <v>       0.88888884       0.38888922       0.38970400 </v>
   <v>       0.22222213       0.72222226       0.38970400 </v>
   <v>       0.22222205       0.05555551       0.38970400 </v>
   <v>       0.22222192       0.38888922       0.38970400 </v>
   <v>       0.55555559       0.72222226       0.38970400 </v>
   <v>       0.55555551       0.05555551       0.38970400 </v>
   <v>       0.55555538       0.38888922       0.38970400 </v>
   <v>       0.99999990       0.83333327       0.46643533 </v>
   <v>       0.99999981       0.16666652       0.46643533 </v>
   <v>       0.99999969       0.50000023       0.46643533 </v>
   <v>       0.33333336       0.83333327       0.46643533 </v>
   <v>       0.33333327       0.16666652       0.46643533 </v>
   <v>       0.33333315       0.50000023       0.46643533 </v>
   <v>       0.66666682       0.83333327       0.46643533 </v>
   <v>       0.66666673       0.16666652       0.46643533 </v>
   <v>       0.66666661       0.50000023       0.46643533 </v>
   <v>       0.11111112       0.94444429       0.54472667 </v>
   <v>       0.11111104       0.27777753       0.54472667 </v>
   <v>       0.11111091       0.61111125       0.54472667 </v>
   <v>       0.44444458       0.94444429       0.54472667 </v>
   <v>       0.44444450       0.27777753       0.54472667 </v>
   <v>       0.44444437       0.61111125       0.54472667 </v>
   <v>       0.77777804       0.94444429       0.54472667 </v>
   <v>       0.77777796       0.27777753       0.54472667 </v>
   <v>       0.77777783       0.61111125       0.54472667 </v>
   <v>       0.34003429       0.48659795       0.63466667 </v>
   <v>       0.38217494       0.40231704       0.63466667 </v>
  </varray>
 </structure>
 <calculation>
  <scstep>
   <time name="dav">    6.61    6.76</time>
   <time name="total">    7.07    7.23</time>
   <energy>
    <i name="alphaZ">    504.51365917 </i>
    <i name="ewald">  87194.21993528 </i>
    <i name="hartreedc">-101586.29330376 </i>
    <i name="XCdc">  -6592.54079264 </i>
    <i name="pawpsdc">  17380.74262607 </i>
    <i name="pawaedc">  -9326.59272269 </i>
    <i name="eentropy">     -0.06660029 </i>
    <i name="bandstr">    461.15837327 </i>
    <i name="atom">  14355.57734864 </i>
    <i name="e_fr_energy">   2390.71852306 </i>
    <i name="e_wo_entrp">   2390.78512335 </i>
    <i name="e_0_energy">   2390.75182320 </i>
   </energy>
  </scstep>
  <scstep>
   <time name="dav">    8.47    8.60</time>
   <time name="total">    8.47    8.61</time>
   <energy>
    <i name="e_fr_energy">   -703.33124614 </i>
    <i name="e_wo_entrp">   -703.21949316 </i>
    <i name="e_0_energy">   -703.27536965 </i>
   </energy>
  </scstep>
  <scstep>
   <time name="dav">    9.06    9.22</time>
   <time name="total">    9.06    9.22</time>
   <energy>
    <i name="e_fr_energy">   -944.91036419 </i>
    <i name="e_wo_entrp">   -944.67218923 </i>
    <i name="e_0_energy">   -944.79127671 </i>
   </energy>
  </scstep>
  <scstep>
   <time name="dav">    8.62    8.77</time>
   <time name="total">    8.63    8.77</time>
   <energy>
    <i name="e_fr_energy">   -955.18172065 </i>
    <i name="e_wo_entrp">   -954.91615900 </i>
    <i name="e_0_energy">   -955.04893983 </i>
   </energy>
  </scstep>
  <scstep>
   <time name="dav">   10.38   10.55</time>
   <time name="total">   11.19   11.37</time>
   <energy>
    <i name="e_fr_energy">   -955.95571213 </i>
    <i name="e_wo_entrp">   -955.70336022 </i>
    <i name="e_0_energy">   -955.82953617 </i>
   </energy>
  </scstep>
  <scstep>
   <time name="dav">    9.07    9.22</time>
   <time name="total">   10.31   10.49</time>
   <energy>
    <i name="e_fr_energy">   -984.17468096 </i>
    <i name="e_wo_entrp">   -983.92874193 </i>
    <i name="e_0_energy">   -984.05171145 </i>
   </energy>
  </scstep>
  <scstep>
   <time name="dav">    8.39    8.54</time>
   <time name="total">    9.64    9.81</time>
   <energy>
    <i name="e_fr_energy">   -939.10017420 </i>
    <i name="e_wo_entrp">   -938.97870393 </i>
    <i name="e_0_energy">   -939.03943907 </i>
   </energy>
  </scstep>
  <scstep>
   <time name="dav">    9.11    9.28</time>
   <time name="total">   10.36   10.55</time>
   <energy>
    <i name="e_fr_energy">   -967.32949147 </i>
    <i name="e_wo_entrp">   -967.20730733 </i>
    <i name="e_0_energy">   -967.26839940 </i>
   </energy>
  </scstep>
  <scstep>
   <time name="dav">    8.52    8.69</time>
   <time name="total">    9.79   10.01</time>
   <energy>
    <i name="e_fr_energy">   -972.99125762 </i>
    <i name="e_wo_entrp">   -972.87955084 </i>
    <i name="e_0_energy">   -972.93540423 </i>
   </energy>
  </scstep>
  <scstep>
   <time name="dav">    9.29    9.47</time>
   <time name="total">   10.54   10.76</time>
   <energy>
    <i name="e_fr_energy">   -932.62356142 </i>
    <i name="e_wo_entrp">   -932.55130191 </i>
    <i name="e_0_energy">   -932.58743166 </i>
   </energy>
  </scstep>
  <scstep>
   <time name="dav">    8.87    9.03</time>
   <time name="total">   10.15   10.34</time>
   <energy>
    <i name="e_fr_energy">   -929.58314799 </i>
    <i name="e_wo_entrp">   -929.52337484 </i>
    <i name="e_0_energy">   -929.55326141 </i>
   </energy>
  </scstep>
  <scstep>
   <time name="dav">    8.00    8.23</time>
   <time name="total">    9.27    9.52</time>
   <energy>
    <i name="e_fr_energy">   -930.42193340 </i>
    <i name="e_wo_entrp">   -930.34599060 </i>
    <i name="e_0_energy">   -930.38396200 </i>
   </energy>
  </scstep>
  <scstep>
   <time name="dav">    8.59    8.74</time>
   <time name="total">    9.87   10.05</time>
   <energy>
    <i name="e_fr_energy">   -928.90783687 </i>
    <i name="e_wo_entrp">   -928.85994011 </i>
    <i name="e_0_energy">   -928.88388849 </i>
   </energy>
  </scstep>
  <scstep>
   <time name="dav">    7.68    7.83</time>
   <time name="total">    8.97    9.16</time>
   <energy>
    <i name="e_fr_energy">   -928.88298349 </i>
    <i name="e_wo_entrp">   -928.82855129 </i>
    <i name="e_0_energy">   -928.85576739 </i>
   </energy>
  </scstep>
  <scstep>
   <time name="dav">    8.80    8.95</time>
   <time name="total">   10.09   10.27</time>
   <energy>
    <i name="e_fr_energy">   -929.01495947 </i>
    <i name="e_wo_entrp">   -928.92185623 </i>
    <i name="e_0_energy">   -928.96840785 </i>
   </energy>
  </scstep>
  <scstep>
   <time name="dav">    7.68    7.84</time>
   <time name="total">    8.99    9.17</time>
   <energy>
    <i name="e_fr_energy">   -928.81583447 </i>
    <i name="e_wo_entrp">   -928.73139842 </i>
    <i name="e_0_energy">   -928.77361644 </i>
   </energy>
  </scstep>
  <scstep>
   <time name="dav">    8.93    9.08</time>
   <time name="total">   10.26   10.45</time>
   <energy>
    <i name="e_fr_energy">   -929.07335098 </i>
    <i name="e_wo_entrp">   -929.01743271 </i>
    <i name="e_0_energy">   -929.04539184 </i>
   </energy>
  </scstep>
  <scstep>
   <time name="dav">    7.79    7.95</time>
   <time name="total">    9.12    9.28</time>
   <energy>
    <i name="e_fr_energy">   -928.76540323 </i>
    <i name="e_wo_entrp">   -928.67468061 </i>
    <i name="e_0_energy">   -928.72004192 </i>
   </energy>
  </scstep>
  <scstep>
   <time name="dav">    7.40    7.59</time>
   <time name="total">    8.75    8.94</time>
   <energy>
    <i name="e_fr_energy">   -928.94734517 </i>
    <i name="e_wo_entrp">   -928.89941078 </i>
    <i name="e_0_energy">   -928.92337797 </i>
   </energy>
  </scstep>
  <scstep>
   <time name="dav">    7.03    7.19</time>
   <time name="total">    8.39    8.58</time>
   <energy>
    <i name="e_fr_energy">   -928.69938998 </i>
    <i name="e_wo_entrp">   -928.62697820 </i>
    <i name="e_0_energy">   -928.66318409 </i>
   </energy>
  </scstep>
  <scstep>
   <time name="dav">    7.31    7.48</time>
   <time name="total">    8.67    8.85</time>
   <energy>
    <i name="e_fr_energy">   -928.78063015 </i>
    <i name="e_wo_entrp">   -928.70717854 </i>
    <i name="e_0_energy">   -928.74390435 </i>
   </energy>
  </scstep>
  <scstep>
   <time name="dav">    8.01    8.17</time>
   <time name="total">    9.39    9.58</time>
   <energy>
    <i name="e_fr_energy">   -928.85444538 </i>
    <i name="e_wo_entrp">   -928.76442472 </i>
    <i name="e_0_energy">   -928.80943505 </i>
   </energy>
  </scstep>
  <scstep>
   <time name="dav">    6.98    7.16</time>
   <time name="total">    8.38    8.58</time>
   <energy>
    <i name="e_fr_energy">   -928.79596408 </i>
    <i name="e_wo_entrp">   -928.70741148 </i>
    <i name="e_0_energy">   -928.75168778 </i>
   </energy>
  </scstep>
  <scstep>
   <time name="dav">    7.29    7.45</time>
   <time name="total">    8.69    8.87</time>
   <energy>
    <i name="e_fr_energy">   -928.80469940 </i>
    <i name="e_wo_entrp">   -928.71944516 </i>
    <i name="e_0_energy">   -928.76207228 </i>
   </energy>
  </scstep>
  <scstep>
   <time name="dav">    6.96    7.09</time>
   <time name="total">    8.39    8.54</time>
   <energy>
    <i name="e_fr_energy">   -928.84146899 </i>
    <i name="e_wo_entrp">   -928.75960120 </i>
    <i name="e_0_energy">   -928.80053509 </i>
   </energy>
  </scstep>
  <scstep>
   <time name="dav">    7.31    7.46</time>
   <time name="total">    8.76    8.95</time>
   <energy>
    <i name="e_fr_energy">   -928.84602964 </i>
    <i name="e_wo_entrp">   -928.76008730 </i>
    <i name="e_0_energy">   -928.80305847 </i>
   </energy>
  </scstep>
  <scstep>
   <time name="dav">    6.99    7.12</time>
   <time name="total">    8.45    8.61</time>
   <energy>
    <i name="e_fr_energy">   -928.84477641 </i>
    <i name="e_wo_entrp">   -928.76013412 </i>
    <i name="e_0_energy">   -928.80245527 </i>
   </energy>
  </scstep>
  <scstep>
   <time name="dav">    7.06    7.19</time>
   <time name="total">    8.56    8.72</time>
   <energy>
    <i name="e_fr_energy">   -928.84755610 </i>
    <i name="e_wo_entrp">   -928.76432275 </i>
    <i name="e_0_energy">   -928.80593943 </i>
   </energy>
  </scstep>
  <scstep>
   <time name="dav">    6.89    7.05</time>
   <time name="total">    8.40    8.60</time>
   <energy>
    <i name="e_fr_energy">   -928.84850402 </i>
    <i name="e_wo_entrp">   -928.76492653 </i>
    <i name="e_0_energy">   -928.80671527 </i>
   </energy>
  </scstep>
  <scstep>
   <time name="dav">    6.40    6.51</time>
   <time name="total">    7.92    8.08</time>
   <energy>
    <i name="e_fr_energy">   -928.84919240 </i>
    <i name="e_wo_entrp">   -928.76459071 </i>
    <i name="e_0_energy">   -928.80689155 </i>
   </energy>
  </scstep>
  <scstep>
   <time name="dav">    6.25    6.37</time>
   <time name="total">    7.78    7.95</time>
   <energy>
    <i name="e_fr_energy">   -928.84959885 </i>
    <i name="e_wo_entrp">   -928.76614161 </i>
    <i name="e_0_energy">   -928.80787023 </i>
   </energy>
  </scstep>
  <scstep>
   <time name="dav">    6.13    6.28</time>
   <time name="total">    7.72    7.91</time>
   <energy>
    <i name="e_fr_energy">   -928.84997953 </i>
    <i name="e_wo_entrp">   -928.76641296 </i>
    <i name="e_0_energy">   -928.80819624 </i>
   </energy>
  </scstep>
  <scstep>
   <time name="dav">    5.91    6.05</time>
[...]
       <r>    -1.2104    98.6214   469.5283 </r>
       <r>    -1.1087    81.7918   477.8457 </r>
       <r>    -1.0070    74.3127   485.4026 </r>
       <r>    -0.9053    96.9171   495.2582 </r>
       <r>    -0.8036   120.6058   507.5227 </r>
       <r>    -0.7020    69.5588   514.5961 </r>
       <r>    -0.6003    30.4839   517.6961 </r>
       <r>    -0.4986   107.4273   528.6204 </r>
       <r>    -0.3969   208.5382   549.8268 </r>
       <r>    -0.2952    80.1139   557.9736 </r>
       <r>    -0.1935   124.3959   570.6235 </r>
       <r>    -0.0918    40.5406   574.7461 </r>
       <r>     0.0099    47.3749   579.5637 </r>
       <r>     0.1116   109.6521   590.7143 </r>
       <r>     0.2133    93.9150   600.2646 </r>
       <r>     0.3149    76.1189   608.0051 </r>
       <r>     0.4166    85.8998   616.7404 </r>
       <r>     0.5183   140.4208   631.0198 </r>
       <r>     0.6200    66.9655   637.8296 </r>
       <r>     0.7217    40.0868   641.9060 </r>
       <r>     0.8234    57.2972   647.7326 </r>
       <r>     0.9251   144.5578   662.4328 </r>
       <r>     1.0268   232.5272   686.0786 </r>
       <r>     1.1285   107.7494   697.0357 </r>
       <r>     1.2302    76.2761   704.7923 </r>
       <r>     1.3319    65.3644   711.4392 </r>
       <r>     1.4335    90.5636   720.6487 </r>
       <r>     1.5352   135.5965   734.4376 </r>
       <r>     1.6369   184.0738   753.1562 </r>
       <r>     1.7386   120.9349   765.4541 </r>
       <r>     1.8403    56.3708   771.1865 </r>
       <r>     1.9420   121.8780   783.5804 </r>
       <r>     2.0437   142.6360   798.0851 </r>
       <r>     2.1454    73.2358   805.5325 </r>
       <r>     2.2471    76.5565   813.3176 </r>
       <r>     2.3488    56.9243   819.1062 </r>
       <r>     2.4505   119.4014   831.2482 </r>
       <r>     2.5521    95.8895   840.9993 </r>
       <r>     2.6538   133.5360   854.5787 </r>
       <r>     2.7555    63.6935   861.0557 </r>
       <r>     2.8572   111.5234   872.3966 </r>
       <r>     2.9589   312.0974   904.1340 </r>
       <r>     3.0606   138.1733   918.1849 </r>
       <r>     3.1623    42.3801   922.4945 </r>
       <r>     3.2640   103.6435   933.0341 </r>
       <r>     3.3657   131.9993   946.4572 </r>
       <r>     3.4674   146.4874   961.3536 </r>
       <r>     3.5690    72.5478   968.7310 </r>
       <r>     3.6707   105.5997   979.4695 </r>
       <r>     3.7724    82.7243   987.8818 </r>
       <r>     3.8741    87.1194   996.7410 </r>
       <r>     3.9758   173.2030  1014.3542 </r>
       <r>     4.0775    84.2909  1022.9258 </r>
       <r>     4.1792    10.2953  1023.9727 </r>
       <r>     4.2809     0.2685  1024.0000 </r>
       <r>     4.3826     0.0000  1024.0000 </r>
       <r>     4.4843     0.0000  1024.0000 </r>
       <r>     4.5860     0.0000  1024.0000 </r>
       <r>     4.6876     0.0000  1024.0000 </r>
       <r>     4.7893     0.0000  1024.0000 </r>
       <r>     4.8910     0.0000  1024.0000 </r>
       <r>     4.9927     0.0000  1024.0000 </r>
       <r>     5.0944     0.0000  1024.0000 </r>
       <r>     5.1961     0.0000  1024.0000 </r>
       <r>     5.2978     0.0000  1024.0000 </r>
       <r>     5.3995     0.0000  1024.0000 </r>
       <r>     5.5012     0.0000  1024.0000 </r>
      </set>
     </set>
    </array>
   </total>
  </dos>
 </calculation>
 <structure name="finalpos" >
  <crystal>
   <varray name="basis" >
    <v>       0.00000000     -17.18057346       0.00000000 </v>
    <v>       0.00000000      -8.59028673     -14.87881307 </v>
    <v>      30.00000000       0.00000000       0.00000000 </v>
   </varray>
   <i name="volume">   7668.79622957 </i>
   <varray name="rec_basis" >
    <v>       0.00000000      -0.05820527       0.03360483 </v>
    <v>       0.00000000       0.00000000      -0.06720966 </v>
    <v>       0.03333333       0.00000000       0.00000000 </v>
   </varray>
  </crystal>
  <varray name="positions" >
   <v>       0.44444456       0.44444473       0.07873467 </v>
   <v>       0.44444419       0.77777777       0.07873467 </v>
   <v>       0.44444468       0.11111101       0.07873467 </v>
   <v>       0.77777744       0.44444473       0.07873467 </v>
   <v>       0.77777765       0.77777777       0.07873467 </v>
   <v>       0.77777756       0.11111101       0.07873467 </v>
   <v>       0.11111110       0.44444473       0.07873467 </v>
   <v>       0.11111131       0.77777777       0.07873467 </v>
   <v>       0.11111122       0.11111101       0.07873467 </v>
   <v>       0.55555520       0.55555574       0.15702600 </v>
   <v>       0.55555541       0.88888878       0.15702600 </v>
   <v>       0.55555591       0.22222203       0.15702600 </v>
   <v>       0.88888866       0.55555574       0.15702600 </v>
   <v>       0.88888887       0.88888878       0.15702600 </v>
   <v>       0.88888878       0.22222203       0.15702600 </v>
   <v>       0.22222232       0.55555574       0.15702600 </v>
   <v>       0.22222253       0.88888878       0.15702600 </v>
   <v>       0.22222245       0.22222203       0.15702600 </v>
   <v>       0.66666642       0.66666675       0.23375733 </v>
   <v>       0.66666692       0.00000000       0.23375733 </v>
   <v>       0.66666655       0.33333304       0.23375733 </v>
   <v>       0.00000008       0.66666675       0.23375733 </v>
   <v>       0.00000000       0.00000000       0.23375733 </v>
   <v>       0.00000021       0.33333304       0.23375733 </v>
   <v>       0.33333354       0.66666675       0.23375733 </v>
   <v>       0.33333346       0.00000000       0.23375733 </v>
   <v>       0.33333367       0.33333304       0.23375733 </v>
   <v>       0.77777765       0.77777777       0.31173067 </v>
   <v>       0.77777756       0.11111101       0.31173067 </v>
   <v>       0.77777744       0.44444473       0.31173067 </v>
   <v>       0.11111131       0.77777777       0.31173067 </v>
   <v>       0.11111122       0.11111101       0.31173067 </v>
   <v>       0.11111110       0.44444473       0.31173067 </v>
   <v>       0.44444419       0.77777777       0.31173067 </v>
   <v>       0.44444468       0.11111101       0.31173067 </v>
   <v>       0.44444456       0.44444473       0.31173067 </v>
   <v>       0.88888887       0.88888878       0.38970400 </v>
   <v>       0.88888878       0.22222203       0.38970400 </v>
   <v>       0.88888866       0.55555574       0.38970400 </v>
   <v>       0.22222253       0.88888878       0.38970400 </v>
   <v>       0.22222245       0.22222203       0.38970400 </v>
   <v>       0.22222232       0.55555574       0.38970400 </v>
   <v>       0.55555541       0.88888878       0.38970400 </v>
   <v>       0.55555591       0.22222203       0.38970400 </v>
   <v>       0.55555520       0.55555574       0.38970400 </v>
   <v>       0.00000000       0.00000000       0.46643533 </v>
   <v>       0.00000021       0.33333304       0.46643533 </v>
   <v>       0.00000008       0.66666675       0.46643533 </v>
   <v>       0.33333346       0.00000000       0.46643533 </v>
   <v>       0.33333367       0.33333304       0.46643533 </v>
   <v>       0.33333354       0.66666675       0.46643533 </v>
   <v>       0.66666692       0.00000000       0.46643533 </v>
   <v>       0.66666655       0.33333304       0.46643533 </v>
   <v>       0.66666642       0.66666675       0.46643533 </v>
   <v>       0.11111122       0.11111101       0.54472667 </v>
   <v>       0.11111110       0.44444473       0.54472667 </v>
   <v>       0.11111131       0.77777777       0.54472667 </v>
   <v>       0.44444468       0.11111101       0.54472667 </v>
   <v>       0.44444456       0.44444473       0.54472667 </v>
   <v>       0.44444419       0.77777777       0.54472667 </v>
   <v>       0.77777756       0.11111101       0.54472667 </v>
   <v>       0.77777744       0.44444473       0.54472667 </v>
   <v>       0.77777765       0.77777777       0.54472667 </v>
   <v>       0.27777777       0.27777753       0.07873467 </v>
   <v>       0.27777764       0.61111125       0.07873467 </v>
   <v>       0.27777785       0.94444429       0.07873467 </v>
   <v>       0.61111123       0.27777753       0.07873467 </v>
   <v>       0.61111110       0.61111125       0.07873467 </v>
   <v>       0.61111131       0.94444429       0.07873467 </v>
   <v>       0.94444469       0.27777753       0.07873467 </v>
   <v>       0.94444456       0.61111125       0.07873467 </v>
   <v>       0.94444477       0.94444429       0.07873467 </v>
   <v>       0.38888865       0.38888922       0.15702600 </v>
   <v>       0.38888886       0.72222226       0.15702600 </v>
   <v>       0.38888878       0.05555551       0.15702600 </v>
   <v>       0.72222211       0.38888922       0.15702600 </v>
   <v>       0.72222232       0.72222226       0.15702600 </v>
   <v>       0.72222224       0.05555551       0.15702600 </v>
   <v>       0.05555519       0.38888922       0.15702600 </v>
   <v>       0.05555540       0.72222226       0.15702600 </v>
   <v>       0.05555532       0.05555551       0.15702600 </v>
   <v>       0.49999988       0.50000023       0.23375733 </v>
   <v>       0.50000009       0.83333327       0.23375733 </v>
   <v>       0.50000000       0.16666652       0.23375733 </v>
   <v>       0.83333334       0.50000023       0.23375733 </v>
   <v>       0.83333355       0.83333327       0.23375733 </v>
   <v>       0.83333346       0.16666652       0.23375733 </v>
   <v>       0.16666642       0.50000023       0.23375733 </v>
   <v>       0.16666663       0.83333327       0.23375733 </v>
   <v>       0.16666654       0.16666652       0.23375733 </v>
   <v>       0.61111110       0.61111125       0.31173067 </v>
   <v>       0.61111131       0.94444429       0.31173067 </v>
   <v>       0.61111123       0.27777753       0.31173067 </v>
   <v>       0.94444456       0.61111125       0.31173067 </v>
   <v>       0.94444477       0.94444429       0.31173067 </v>
   <v>       0.94444469       0.27777753       0.31173067 </v>
   <v>       0.27777764       0.61111125       0.31173067 </v>
   <v>       0.27777785       0.94444429       0.31173067 </v>
   <v>       0.27777777       0.27777753       0.31173067 </v>
   <v>       0.72222232       0.72222226       0.38970400 </v>
   <v>       0.72222224       0.05555551       0.38970400 </v>
   <v>       0.72222211       0.38888922       0.38970400 </v>
   <v>       0.05555540       0.72222226       0.38970400 </v>
   <v>       0.05555532       0.05555551       0.38970400 </v>
   <v>       0.05555519       0.38888922       0.38970400 </v>
   <v>       0.38888886       0.72222226       0.38970400 </v>
   <v>       0.38888878       0.05555551       0.38970400 </v>
   <v>       0.38888865       0.38888922       0.38970400 </v>
   <v>       0.83333355       0.83333327       0.46643533 </v>
   <v>       0.83333346       0.16666652       0.46643533 </v>
   <v>       0.83333334       0.50000023       0.46643533 </v>
   <v>       0.16666663       0.83333327       0.46643533 </v>
   <v>       0.16666654       0.16666652       0.46643533 </v>
   <v>       0.16666642       0.50000023       0.46643533 </v>
   <v>       0.50000009       0.83333327       0.46643533 </v>
   <v>       0.50000000       0.16666652       0.46643533 </v>
   <v>       0.49999988       0.50000023       0.46643533 </v>
   <v>       0.94444477       0.94444429       0.54472667 </v>
   <v>       0.94444469       0.27777753       0.54472667 </v>
   <v>       0.94444456       0.61111125       0.54472667 </v>
   <v>       0.27777785       0.94444429       0.54472667 </v>
   <v>       0.27777777       0.27777753       0.54472667 </v>
   <v>       0.27777764       0.61111125       0.54472667 </v>
   <v>       0.61111131       0.94444429       0.54472667 </v>
   <v>       0.61111123       0.27777753       0.54472667 </v>
   <v>       0.61111110       0.61111125       0.54472667 </v>
   <v>       0.27777783       0.44444473       0.07873467 </v>
   <v>       0.27777804       0.77777777       0.07873467 </v>
   <v>       0.27777795       0.11111101       0.07873467 </v>
   <v>       0.61111071       0.44444473       0.07873467 </v>
   <v>       0.61111092       0.77777777       0.07873467 </v>
   <v>       0.61111141       0.11111101       0.07873467 </v>
   <v>       0.94444417       0.44444473       0.07873467 </v>
   <v>       0.94444438       0.77777777       0.07873467 </v>
   <v>       0.94444429       0.11111101       0.07873467 </v>
   <v>       0.38888905       0.55555574       0.15702600 </v>
   <v>       0.38888868       0.88888878       0.15702600 </v>
   <v>       0.38888918       0.22222203       0.15702600 </v>
   <v>       0.72222193       0.55555574       0.15702600 </v>
   <v>       0.72222214       0.88888878       0.15702600 </v>
   <v>       0.72222205       0.22222203       0.15702600 </v>
   <v>       0.05555559       0.55555574       0.15702600 </v>
   <v>       0.05555580       0.88888878       0.15702600 </v>
   <v>       0.05555572       0.22222203       0.15702600 </v>
   <v>       0.49999969       0.66666675       0.23375733 </v>
   <v>       0.50000019       0.00000000       0.23375733 </v>
   <v>       0.50000040       0.33333304       0.23375733 </v>
   <v>       0.83333315       0.66666675       0.23375733 </v>
   <v>       0.83333307       0.00000000       0.23375733 </v>
   <v>       0.83333328       0.33333304       0.23375733 </v>
   <v>       0.16666681       0.66666675       0.23375733 </v>
   <v>       0.16666673       0.00000000       0.23375733 </v>
   <v>       0.16666694       0.33333304       0.23375733 </v>
   <v>       0.61111092       0.77777777       0.31173067 </v>
   <v>       0.61111141       0.11111101       0.31173067 </v>
   <v>       0.61111071       0.44444473       0.31173067 </v>
   <v>       0.94444438       0.77777777       0.31173067 </v>
   <v>       0.94444429       0.11111101       0.31173067 </v>
   <v>       0.94444417       0.44444473       0.31173067 </v>
   <v>       0.27777804       0.77777777       0.31173067 </v>
   <v>       0.27777795       0.11111101       0.31173067 </v>
   <v>       0.27777783       0.44444473       0.31173067 </v>
   <v>       0.72222214       0.88888878       0.38970400 </v>
   <v>       0.72222205       0.22222203       0.38970400 </v>
   <v>       0.72222193       0.55555574       0.38970400 </v>
   <v>       0.05555580       0.88888878       0.38970400 </v>
   <v>       0.05555572       0.22222203       0.38970400 </v>
   <v>       0.05555559       0.55555574       0.38970400 </v>
   <v>       0.38888868       0.88888878       0.38970400 </v>
   <v>       0.38888918       0.22222203       0.38970400 </v>
   <v>       0.38888905       0.55555574       0.38970400 </v>
   <v>       0.83333307       0.00000000       0.46643533 </v>
   <v>       0.83333328       0.33333304       0.46643533 </v>
   <v>       0.83333315       0.66666675       0.46643533 </v>
   <v>       0.16666673       0.00000000       0.46643533 </v>
   <v>       0.16666694       0.33333304       0.46643533 </v>
   <v>       0.16666681       0.66666675       0.46643533 </v>
   <v>       0.50000019       0.00000000       0.46643533 </v>
   <v>       0.50000040       0.33333304       0.46643533 </v>
   <v>       0.49999969       0.66666675       0.46643533 </v>
   <v>       0.94444429       0.11111101       0.54472667 </v>
   <v>       0.94444417       0.44444473       0.54472667 </v>
   <v>       0.94444438       0.77777777       0.54472667 </v>
   <v>       0.27777795       0.11111101       0.54472667 </v>
   <v>       0.27777783       0.44444473       0.54472667 </v>
   <v>       0.27777804       0.77777777       0.54472667 </v>
   <v>       0.61111141       0.11111101       0.54472667 </v>
   <v>       0.61111071       0.44444473       0.54472667 </v>
   <v>       0.61111092       0.77777777       0.54472667 </v>
   <v>       0.44444450       0.27777753       0.07873467 </v>
   <v>       0.44444437       0.61111125       0.07873467 </v>
   <v>       0.44444458       0.94444429       0.07873467 </v>
   <v>       0.77777796       0.27777753       0.07873467 </v>
   <v>       0.77777783       0.61111125       0.07873467 </v>
   <v>       0.77777804       0.94444429       0.07873467 </v>
   <v>       0.11111104       0.27777753       0.07873467 </v>
   <v>       0.11111091       0.61111125       0.07873467 </v>
   <v>       0.11111112       0.94444429       0.07873467 </v>
   <v>       0.55555538       0.38888922       0.15702600 </v>
   <v>       0.55555559       0.72222226       0.15702600 </v>
   <v>       0.55555551       0.05555551       0.15702600 </v>
   <v>       0.88888884       0.38888922       0.15702600 </v>
   <v>       0.88888905       0.72222226       0.15702600 </v>
   <v>       0.88888897       0.05555551       0.15702600 </v>
   <v>       0.22222192       0.38888922       0.15702600 </v>
   <v>       0.22222213       0.72222226       0.15702600 </v>
   <v>       0.22222205       0.05555551       0.15702600 </v>
   <v>       0.66666661       0.50000023       0.23375733 </v>
   <v>       0.66666682       0.83333327       0.23375733 </v>
   <v>       0.66666673       0.16666652       0.23375733 </v>
   <v>       0.99999969       0.50000023       0.23375733 </v>
   <v>       0.99999990       0.83333327       0.23375733 </v>
   <v>       0.99999981       0.16666652       0.23375733 </v>
   <v>       0.33333315       0.50000023       0.23375733 </v>
   <v>       0.33333336       0.83333327       0.23375733 </v>
   <v>       0.33333327       0.16666652       0.23375733 </v>
   <v>       0.77777783       0.61111125       0.31173067 </v>
   <v>       0.77777804       0.94444429       0.31173067 </v>
   <v>       0.77777796       0.27777753       0.31173067 </v>
   <v>       0.11111091       0.61111125       0.31173067 </v>
   <v>       0.11111112       0.94444429       0.31173067 </v>
   <v>       0.11111104       0.27777753       0.31173067 </v>
   <v>       0.44444437       0.61111125       0.31173067 </v>
   <v>       0.44444458       0.94444429       0.31173067 </v>
   <v>       0.44444450       0.27777753       0.31173067 </v>
   <v>       0.88888905       0.72222226       0.38970400 </v>
   <v>       0.88888897       0.05555551       0.38970400 </v>
   <v>       0.88888884       0.38888922       0.38970400 </v>
   <v>       0.22222213       0.72222226       0.38970400 </v>
   <v>       0.22222205       0.05555551       0.38970400 </v>
   <v>       0.22222192       0.38888922       0.38970400 </v>
   <v>       0.55555559       0.72222226       0.38970400 </v>
   <v>       0.55555551       0.05555551       0.38970400 </v>
   <v>       0.55555538       0.38888922       0.38970400 </v>
   <v>       0.99999990       0.83333327       0.46643533 </v>
   <v>       0.99999981       0.16666652       0.46643533 </v>
   <v>       0.99999969       0.50000023       0.46643533 </v>
   <v>       0.33333336       0.83333327       0.46643533 </v>
   <v>       0.33333327       0.16666652       0.46643533 </v>
   <v>       0.33333315       0.50000023       0.46643533 </v>
   <v>       0.66666682       0.83333327       0.46643533 </v>
   <v>       0.66666673       0.16666652       0.46643533 </v>
   <v>       0.66666661       0.50000023       0.46643533 </v>
   <v>       0.11111112       0.94444429       0.54472667 </v>
   <v>       0.11111104       0.27777753       0.54472667 </v>
   <v>       0.11111091       0.61111125       0.54472667 </v>
   <v>       0.44444458       0.94444429       0.54472667 </v>
   <v>       0.44444450       0.27777753       0.54472667 </v>
   <v>       0.44444437       0.61111125       0.54472667 </v>
   <v>       0.77777804       0.94444429       0.54472667 </v>
   <v>       0.77777796       0.27777753       0.54472667 </v>
   <v>       0.77777783       0.61111125       0.54472667 </v>
   <v>       0.34003429       0.48659795       0.63466667 </v>
   <v>       0.38217494       0.40231704       0.63466667 </v>
  </varray>
 </structure>
</modeling>
