    2    2    1    1
  0.1524313E+04  0.1450000E-08  0.1450000E-08  0.1450000E-08  0.5000000E-15
   1.0000000000000000E-004
  CAR 
 NiAl                                    
     12      1     12
 
  0.1262379E-14  0.1262379E-14  0.1262379E-14  0.1000000E+01
      1        -38.021329   1.000000
      2        -18.245340   1.000000
      3        -15.327077   1.000000
      4        -15.327077   1.000000
      5        -13.713630   1.000000
      6         -3.688610   0.500000
      7         -3.688610   0.500000
      8         -0.280284   0.000000
      9          0.331080   0.000000
     10          0.464674   0.000000
     11          0.465952   0.000000
     12          0.465952   0.000000
