       N       E                     dE             d eps       ncg     rms          rms(c)
DAV:   1     0.715496027166E+02    0.71550E+02   -0.22741E+03    48   0.330E+02
DAV:   2     0.753741484508E+01   -0.64012E+02   -0.64012E+02    36   0.128E+02
DAV:   3     0.409660773557E+01   -0.34408E+01   -0.34408E+01    24   0.336E+01
DAV:   4    -0.378103965892E+01   -0.78776E+01   -0.78776E+01    48   0.432E+00
DAV:   5    -0.533017395093E+01   -0.15491E+01   -0.15061E+01    24   0.720E+00    0.630E+01
DAV:   6    -0.489605543997E+01    0.43412E+00   -0.12902E+00    36   0.105E+01    0.384E+01
DAV:   7    -0.487437504352E+01    0.21680E-01   -0.58614E-01    24   0.669E+00    0.107E+00
DAV:   8    -0.486202875117E+01    0.12346E-01   -0.70035E-02    24   0.228E+00    0.249E-01
DAV:   9    -0.486363847489E+01   -0.16097E-02   -0.53936E-03    24   0.646E-01    0.107E-01
DAV:  10    -0.486520290031E+01   -0.15644E-02   -0.16465E-03    36   0.259E-01    0.401E-02
DAV:  11    -0.486539035850E+01   -0.18746E-03   -0.22003E-04    36   0.112E-01    0.151E-02
DAV:  12    -0.486574526434E+01   -0.35491E-03   -0.34745E-05    36   0.356E-02    0.526E-03
DAV:  13    -0.486626918875E+01   -0.52392E-03   -0.83335E-05    36   0.352E-02    0.550E-03
DAV:  14    -0.486641138653E+01   -0.14220E-03   -0.19495E-05    36   0.181E-02    0.274E-03
DAV:  15    -0.486649378485E+01   -0.82398E-04   -0.75552E-06    36   0.100E-02    0.124E-03
DAV:  16    -0.486653768035E+01   -0.43895E-04   -0.25276E-06    24   0.674E-03    0.832E-04
DAV:  17    -0.486655740836E+01   -0.19728E-04   -0.75342E-07    24   0.479E-03    0.752E-04
DAV:  18    -0.486656318237E+01   -0.57740E-05   -0.20258E-07    36   0.219E-03    0.227E-04
DAV:  19    -0.486656911046E+01   -0.59281E-05   -0.63329E-08    36   0.164E-03    0.120E-04
DAV:  20    -0.486657019714E+01   -0.10867E-05   -0.60995E-09    36   0.593E-04    0.610E-05
DAV:  21    -0.486657071113E+01   -0.51399E-06   -0.25167E-09    36   0.384E-04    0.481E-05
DAV:  22    -0.486657082735E+01   -0.11622E-06   -0.74607E-10    36   0.173E-04    0.918E-05
DAV:  23    -0.486657085287E+01   -0.25515E-07   -0.18289E-10    24   0.770E-05
   1 F= -.48738614E+01 E0= -.48456519E+01  d E =-.564190E-01
