 vasp.6.3.1 04May22 (build Jun 29 2022 13:52:15) complex                         
 executed on              LinuxNV date 2022.10.06  10:02:18
 running    6 mpi-ranks, with   12 threads/rank
 distrk:  each k-point on    6 cores,    1 groups
 distr:  one band on NCORE=   1 cores,    6 groups


--------------------------------------------------------------------------------------------------------


 INCAR:
   SYSTEM = NiAl
   ISTART = 0
   EDIFF = 1E-7
   NELMIN = 6
   IVDW = 12
   LWAVE = .FALSE.
   LCHARG = .FALSE.
   LREAL = Auto
   NCORE = 1
   LPLANE = .TRUE.
   ENCUT = 360.00 eV
   ISMEAR = 0
   SIGMA = 0.05

 POTCAR:    PAW O_GW 19Mar2012                    
 POTCAR:    PAW O_GW 19Mar2012                    
   VRHFIN =O: s2p4                                                                                  
   LEXCH  = PE                                                                                      
   EATOM  =   432.3788 eV,   31.7789 Ry                                                             
                                                                                                    
   TITEL  = PAW O_GW 19Mar2012                                                                      
   LULTRA =        F    use ultrasoft PP ?                                                          
   IUNSCR =        1    unscreen: 0-lin 1-nonlin 2-no                                               
   RPACOR =    0.800    partial core radius                                                         
   POMASS =   16.000; ZVAL   =    6.000    mass and valenz                                          
   RCORE  =    1.600    outmost cutoff radius                                                       
   RWIGS  =    1.600; RWIGS  =    0.847    wigner-seitz radius (au A)                               
   ENMAX  =  434.431; ENMIN  =  325.824 eV                                                          
   ICORE  =        3    local potential                                                             
   LCOR   =        T    correct aug charges                                                         
   LPAW   =        T    paw PP                                                                      
   EAUG   = 1139.609                                                                                
   DEXC   =    0.000                                                                                
   RMAX   =    1.629    core radius for proj-oper                                                   
   RAUG   =    1.300    factor for augmentation sphere                                              
   RDEP   =    1.652    radius for radial grids                                                     
   RDEPT  =    1.200    core radius for aug-charge                                                  
                                                                                                    
   Atomic configuration                                                                             
    5 entries                                                                                       
     n  l   j            E        occ.                                                              
     1  0  0.50      -514.6923   2.0000                                                             
     2  0  0.50       -23.9615   2.0000                                                             
     2  1  0.50        -9.0305   4.0000                                                             
     3  2  1.50        -9.5241   0.0000                                                             
     4  3  2.50        -9.5241   0.0000                                                             
   Description                                                                                      
     l       E           TYP  RCUT    TYP  RCUT                                                     
     0    -23.9615316     23  1.150                                                                 
     0    -25.3221142     23  1.150                                                                 
     0    244.9048680     23  1.300                                                                 
     1     -9.0304908     23  1.500                                                                 
     1     -6.9258396     23  1.500                                                                 
     1    122.4524340     23  1.500                                                                 
     2     13.6058260     23  1.500                                                                 
     2    190.4815640     23  1.600                                                                 
     3     54.4233040     23  1.400                                                                 
  local pseudopotential read in
  partial core-charges read in
  partial kinetic energy density read in
  kinetic energy density of atom read in
  atomic valenz-charges read in
  non local Contribution for L=            0  read in
    real space projection operators read in
  non local Contribution for L=            0  read in
    real space projection operators read in
  non local Contribution for L=            0  read in
    real space projection operators read in
  non local Contribution for L=            1  read in
    real space projection operators read in
  non local Contribution for L=            1  read in
    real space projection operators read in
  non local Contribution for L=            1  read in
    real space projection operators read in
  non local Contribution for L=            2  read in
    real space projection operators read in
  non local Contribution for L=            2  read in
    real space projection operators read in
    PAW grid and wavefunctions read in
 
   number of l-projection  operators is LMAX  =            8
   number of lm-projection operators is LMMAX =           22
 
 -----------------------------------------------------------------------------
|                                                                             |
|               ----> ADVICE to this user running VASP <----                  |
|                                                                             |
|     You have a (more or less) 'small supercell' and for smaller cells       |
|     it is recommended to use the reciprocal-space projection scheme!        |
|     The real-space optimization is not efficient for small cells and it     |
|     is also less accurate ...                                               |
|     Therefore, set LREAL=.FALSE. in the INCAR file.                         |
|                                                                             |
 -----------------------------------------------------------------------------

 Optimization of the real space projectors (new method)

 maximal supplied QI-value         = 23.62
 optimisation between [QCUT,QGAM] = [  9.68, 19.37] = [ 26.27,105.06] Ry 
 Optimized for a Real-space Cutoff    2.14 Angstroem

   l    n(q)    QCUT    max X(q) W(low)/X(q) W(high)/X(q)  e(spline) 
   0     13     9.685   116.464    0.15E-03    0.15E-03    0.47E-05
   0     13     9.685   116.329    0.15E-03    0.15E-03    0.46E-05
   0     13     9.685     0.942    0.20E-04    0.50E-04    0.17E-05
   1     12     9.685    29.046    0.36E-03    0.11E-02    0.25E-04
   1     12     9.685    24.247    0.38E-03    0.11E-02    0.26E-04
   1     12     9.685     2.381    0.13E-03    0.38E-03    0.78E-05
   2     12     9.685     2.237    0.60E-05    0.28E-04    0.14E-05
   2     12     9.685     1.850    0.17E-04    0.70E-04    0.25E-05
  PAW O_GW 19Mar2012                    :
 energy of atom  1       EATOM= -432.3788
 kinetic energy error for atom=    0.3913 (will be added to EATOM!!)
 
 
 POSCAR:  O
  positions in cartesian coordinates
  No initial velocities read in
 exchange correlation table for  LEXCH =        8
   RHO(1)=    0.500       N(1)  =     2000
   RHO(2)=  100.500       N(2)  =     4000
 


--------------------------------------------------------------------------------------------------------


 ion  position               nearest neighbor table
   1  0.000  0.000  0.000-   2 1.00
   2  0.069  0.000  0.000-   1 1.00
 
 -----------------------------------------------------------------------------
|                                                                             |
|           W    W    AA    RRRRR   N    N  II  N    N   GGGG   !!!           |
|           W    W   A  A   R    R  NN   N  II  NN   N  G    G  !!!           |
|           W    W  A    A  R    R  N N  N  II  N N  N  G       !!!           |
|           W WW W  AAAAAA  RRRRR   N  N N  II  N  N N  G  GGG   !            |
|           WW  WW  A    A  R   R   N   NN  II  N   NN  G    G                |
|           W    W  A    A  R    R  N    N  II  N    N   GGGG   !!!           |
|                                                                             |
|     The distance between some ions is very small. Please check the          |
|     nearest-neighbor list in the OUTCAR file.                               |
|     I HOPE YOU KNOW WHAT YOU ARE DOING!                                     |
|                                                                             |
 -----------------------------------------------------------------------------

  LATTYP: Found a simple cubic cell.
 ALAT       =    14.5000000000
  
  Lattice vectors:
  
 A1 = (  14.5000000000,   0.0000000000,   0.0000000000)
 A2 = (   0.0000000000,  14.5000000000,   0.0000000000)
 A3 = (   0.0000000000,   0.0000000000,  14.5000000000)


Analysis of symmetry for initial positions (statically):
=====================================================================
 Subroutine PRICEL returns:
 Original cell was already a primitive cell.
 

 Routine SETGRP: Setting up the symmetry group for a 
 simple cubic supercell.


 Subroutine GETGRP returns: Found 16 space group operations
 (whereof  8 operations were pure point group operations)
 out of a pool of 48 trial point group operations.


The static configuration has the point symmetry C_4v.
 The point group associated with its full space group is D_4h.


Analysis of symmetry for dynamics (positions and initial velocities):
=====================================================================
 Subroutine PRICEL returns:
 Original cell was already a primitive cell.
 

 Routine SETGRP: Setting up the symmetry group for a 
 simple cubic supercell.


 Subroutine GETGRP returns: Found 16 space group operations
 (whereof  8 operations were pure point group operations)
 out of a pool of 48 trial point group operations.


The dynamic configuration has the point symmetry C_4v.
 The point group associated with its full space group is D_4h.


 Subroutine INISYM returns: Found 16 space group operations
 (whereof  8 operations are pure point group operations),
 and found     1 'primitive' translations


----------------------------------------------------------------------------------------

                                     Primitive cell                                     

  volume of cell :    3048.6250

  direct lattice vectors                    reciprocal lattice vectors
    14.500000000  0.000000000  0.000000000     0.068965517  0.000000000  0.000000000
     0.000000000 14.500000000  0.000000000     0.000000000  0.068965517  0.000000000
     0.000000000  0.000000000 14.500000000     0.000000000  0.000000000  0.068965517

  length of vectors
    14.500000000 14.500000000 14.500000000     0.068965517  0.068965517  0.068965517

  position of ions in fractional coordinates (direct lattice)
     0.000000000  0.000000000  0.000000000
     0.068965517  0.000000000  0.000000000

  ion indices of the primitive-cell ions
   primitive index   ion index
                 1           1
                 2           2

----------------------------------------------------------------------------------------

 
 
 KPOINTS: Automatic generation                    

Automatic generation of k-mesh.
 Grid dimensions read from file:
 generate k-points for:    1    1    1

 Generating k-lattice:

  Cartesian coordinates                     Fractional coordinates (reciprocal lattice)
     0.068965517  0.000000000  0.000000000     1.000000000  0.000000000  0.000000000
     0.000000000  0.068965517  0.000000000     0.000000000  1.000000000  0.000000000
     0.000000000  0.000000000  0.068965517     0.000000000  0.000000000  1.000000000

  Length of vectors
     0.068965517  0.068965517  0.068965517

  Shift w.r.t. Gamma in fractional coordinates (k-lattice)
     0.000000000  0.000000000  0.000000000

 
 Subroutine IBZKPT returns following result:
 ===========================================
 
 Found      1 irreducible k-points:
 
 Following reciprocal coordinates:
            Coordinates               Weight
  0.000000  0.000000  0.000000      1.000000
 
 Following cartesian coordinates:
            Coordinates               Weight
  0.000000  0.000000  0.000000      1.000000
 


--------------------------------------------------------------------------------------------------------




 Dimension of arrays:
   k-points           NKPTS =      1   k-points in BZ     NKDIM =      1   number of bands    NBANDS=     12
   number of dos      NEDOS =    301   number of ions     NIONS =      2
   non local maximal  LDIM  =      8   non local SUM 2l+1 LMDIM =     22
   total plane-waves  NPLWV = 343000
   max r-space proj   IRMAX =   4649   max aug-charges    IRDMAX=   1404
   dimension x,y,z NGX =    70 NGY =   70 NGZ =   70
   dimension x,y,z NGXF=   140 NGYF=  140 NGZF=  140
   support grid    NGXF=   140 NGYF=  140 NGZF=  140
   ions per type =               2
   NGX,Y,Z   is equivalent  to a cutoff of   8.03,  8.03,  8.03 a.u.
   NGXF,Y,Z  is equivalent  to a cutoff of  16.05, 16.05, 16.05 a.u.

 SYSTEM =  NiAl                                    
 POSCAR =   O                                      

 Startparameter for this run:
   NWRITE =      2    write-flag & timer
   PREC   = normal    normal or accurate (medium, high low for compatibility)
   ISTART =      0    job   : 0-new  1-cont  2-samecut
   ICHARG =      2    charge: 1-file 2-atom 10-const
   ISPIN  =      1    spin polarized calculation?
   LNONCOLLINEAR =      F non collinear calculations
   LSORBIT =      F    spin-orbit coupling
   INIWAV =      1    electr: 0-lowe 1-rand  2-diag
   LASPH  =      F    aspherical Exc in radial PAW
 Electronic Relaxation 1
   ENCUT  =  360.0 eV  26.46 Ry    5.14 a.u.  22.43 22.43 22.43*2*pi/ulx,y,z
   ENINI  =  360.0     initial cutoff
   ENAUG  = 1139.6 eV  augmentation charge cutoff
   NELM   =     60;   NELMIN=  6; NELMDL= -5     # of ELM steps 
   EDIFF  = 0.1E-06   stopping-criterion for ELM
   LREAL  =      T    real-space projection
   NLSPLINE    = F    spline interpolate recip. space projectors
   LCOMPAT=      F    compatible to vasp.4.4
   GGA_COMPAT  = T    GGA compatible to vasp.4.4-vasp.4.6
   LMAXPAW     = -100 max onsite density
   LMAXMIX     =    2 max onsite mixed and CHGCAR
   VOSKOWN=      0    Vosko Wilk Nusair interpolation
   ROPT   =   -0.00050
 Ionic relaxation
   EDIFFG = 0.1E-05   stopping-criterion for IOM
   NSW    =      0    number of steps for IOM
   NBLOCK =      1;   KBLOCK =      1    inner block; outer block 
   IBRION =     -1    ionic relax: 0-MD 1-quasi-New 2-CG
   NFREE  =      0    steps in history (QN), initial steepest desc. (CG)
   ISIF   =      2    stress and relaxation
   IWAVPR =     10    prediction:  0-non 1-charg 2-wave 3-comb
   ISYM   =      2    0-nonsym 1-usesym 2-fastsym
   LCORR  =      T    Harris-Foulkes like correction to forces

   POTIM  = 0.5000    time-step for ionic-motion
   TEIN   =    0.0    initial temperature
   TEBEG  =    0.0;   TEEND  =   0.0 temperature during run
   SMASS  =  -3.00    Nose mass-parameter (am)
   estimated Nose-frequenzy (Omega)   =  0.10E-29 period in steps = 0.13E+47 mass=  -0.480E-26a.u.
   SCALEE = 1.0000    scale energy and forces
   NPACO  =    256;   APACO  = 10.0  distance and # of slots for P.C.
   PSTRESS=    0.0 pullay stress

  Mass of Ions in am
   POMASS =  16.00
  Ionic Valenz
   ZVAL   =   6.00
  Atomic Wigner-Seitz radii
   RWIGS  =  -1.00
  virtual crystal weights 
   VCA    =   1.00
   NELECT =      12.0000    total number of electrons
   NUPDOWN=      -1.0000    fix difference up-down

 DOS related values:
   EMIN   =  10.00;   EMAX   =-10.00  energy-range for DOS
   EFERMI =   0.00
   ISMEAR =     0;   SIGMA  =   0.05  broadening in eV -4-tet -1-fermi 0-gaus

 Electronic relaxation 2 (details)
   IALGO  =     38    algorithm
   LDIAG  =      T    sub-space diagonalisation (order eigenvalues)
   LSUBROT=      F    optimize rotation matrix (better conditioning)
   TURBO    =      0    0=normal 1=particle mesh
   IRESTART =      0    0=no restart 2=restart with 2 vectors
   NREBOOT  =      0    no. of reboots
   NMIN     =      0    reboot dimension
   EREF     =   0.00    reference energy to select bands
   IMIX   =      4    mixing-type and parameters
     AMIX     =   0.40;   BMIX     =  1.00
     AMIX_MAG =   1.60;   BMIX_MAG =  1.00
     AMIN     =   0.10
     WC   =   100.;   INIMIX=   1;  MIXPRE=   1;  MAXMIX= -45

 Intra band minimization:
   WEIMIN = 0.0000     energy-eigenvalue tresh-hold
   EBREAK =  0.21E-08  absolut break condition
   DEPER  =   0.30     relativ break condition  

   TIME   =   0.40     timestep for ELM

  volume/ion in A,a.u.               =    1524.31     10286.57
  Fermi-wavevector in a.u.,A,eV,Ry     =   0.258484  0.488464  0.909060  0.066814
  Thomas-Fermi vector in A             =   1.084104
 
 Write flags
   LWAVE        =      F    write WAVECAR
   LDOWNSAMPLE  =      F    k-point downsampling of WAVECAR
   LCHARG       =      F    write CHGCAR
   LVTOT        =      F    write LOCPOT, total local potential
   LVHAR        =      F    write LOCPOT, Hartree potential only
   LELF         =      F    write electronic localiz. function (ELF)
   LORBIT       =      0    0 simple, 1 ext, 2 COOP (PROOUT), +10 PAW based schemes


 Dipole corrections
   LMONO  =      F    monopole corrections only (constant potential shift)
   LDIPOL =      F    correct potential (dipole corrections)
   IDIPOL =      0    1-x, 2-y, 3-z, 4-all directions 
   EPSILON=  1.0000000 bulk dielectric constant

 Exchange correlation treatment:
   GGA     =    --    GGA type
   LEXCH   =     8    internal setting for exchange type
   LIBXC   =     F    Libxc                    
   VOSKOWN =     0    Vosko Wilk Nusair interpolation
   LHFCALC =     F    Hartree Fock is set to
   LHFONE  =     F    Hartree Fock one center treatment
   AEXX    =    0.0000 exact exchange contribution

 Linear response parameters
   LEPSILON=     F    determine dielectric tensor
   LRPA    =     F    only Hartree local field effects (RPA)
   LNABLA  =     F    use nabla operator in PAW spheres
   LVEL    =     F    velocity operator in full k-point grid
   CSHIFT  =0.1000    complex shift for real part using Kramers Kronig
   OMEGAMAX=  -1.0    maximum frequency
   DEG_THRESHOLD= 0.2000000E-02 threshold for treating states as degnerate
   RTIME   =   -0.100 relaxation time in fs
  (WPLASMAI=    0.000 imaginary part of plasma frequency in eV, 0.658/RTIME)
   DFIELD  = 0.0000000 0.0000000 0.0000000 field for delta impulse in time
 
  Optional k-point grid parameters
   LKPOINTS_OPT  =     F    use optional k-point grid
   KPOINTS_OPT_MODE=     1    mode for optional k-point grid
 
 Orbital magnetization related:
   ORBITALMAG=     F  switch on orbital magnetization
   LCHIMAG   =     F  perturbation theory with respect to B field
   DQ        =  0.001000  dq finite difference perturbation B field
   LLRAUG    =     F  two centre corrections for induced B field



--------------------------------------------------------------------------------------------------------


 Static calculation
 charge density and potential will be updated during run
 non-spin polarized calculation
 Variant of blocked Davidson
 Davidson routine will perform the subspace rotation
 perform sub-space diagonalisation
    after iterative eigenvector-optimisation
 modified Broyden-mixing scheme, WC =      100.0
 initial mixing is a Kerker type mixing with AMIX =  0.4000 and BMIX =      1.0000
 Hartree-type preconditioning will be used
 using additional bands             6
 real space projection scheme for non local part
 use partial core corrections
 calculate Harris-corrections to forces 
   (improved forces if not selfconsistent)
 use gradient corrections 
 use of overlap-Matrix (Vanderbilt PP)
 Gauss-broadening in eV      SIGMA  =   0.05


--------------------------------------------------------------------------------------------------------


  energy-cutoff  :      360.00
  volume of cell :     3048.63
      direct lattice vectors                 reciprocal lattice vectors
    14.500000000  0.000000000  0.000000000     0.068965517  0.000000000  0.000000000
     0.000000000 14.500000000  0.000000000     0.000000000  0.068965517  0.000000000
     0.000000000  0.000000000 14.500000000     0.000000000  0.000000000  0.068965517

  length of vectors
    14.500000000 14.500000000 14.500000000     0.068965517  0.068965517  0.068965517


 
 k-points in units of 2pi/SCALE and weight: Automatic generation                    
   0.00000000  0.00000000  0.00000000       1.000
 
 k-points in reciprocal lattice and weights: Automatic generation                    
   0.00000000  0.00000000  0.00000000       1.000
 
 position of ions in fractional coordinates (direct lattice) 
   0.00000000  0.00000000  0.00000000
   0.06896552  0.00000000  0.00000000
 
 position of ions in cartesian coordinates  (Angst):
   0.00000000  0.00000000  0.00000000
   1.00000000  0.00000000  0.00000000
 


--------------------------------------------------------------------------------------------------------


 k-point   1 :   0.0000 0.0000 0.0000  plane waves:   47257

 maximum and minimum number of plane-waves per node :     47257    47257

 maximum number of plane-waves:     47257
 maximum index in each direction: 
   IXMAX=   22   IYMAX=   22   IZMAX=   22
   IXMIN=  -22   IYMIN=  -22   IZMIN=  -22


 serial   3D FFT for wavefunctions
 parallel 3D FFT for charge:
    minimum data exchange during FFTs selected (reduces bandwidth)


 total amount of memory used by VASP MPI-rank0    87970. kBytes
=======================================================================

   base      :      30000. kBytes
   nonlr-proj:       2529. kBytes
   fftplans  :      17290. kBytes
   grid      :      36592. kBytes
   one-center:         46. kBytes
   wavefun   :       1513. kBytes
 
     INWAV:  cpu time      0.0041: real time      0.0007
 Broyden mixing: mesh for mixing (old mesh)
   NGX = 45   NGY = 45   NGZ = 45
  (NGX  =140   NGY  =140   NGZ  =140)
  gives a total of  91125 points

 initial charge density was supplied:
 charge density of overlapping atoms calculated
 number of electron      12.0000000 magnetization 
 keeping initial charge density in first step


--------------------------------------------------------------------------------------------------------


 Maximum index for non-local projection operator           500
 Maximum index for augmentation-charges           279 (set IRDMAX)


--------------------------------------------------------------------------------------------------------


 First call to EWALD:  gamma=   0.122
 Maximum number of real-space cells 3x 3x 3
 Maximum number of reciprocal cells 3x 3x 3

    FEWALD:  cpu time      0.1114: real time      0.0865


--------------------------------------- Iteration      1(   1)  ---------------------------------------


    POTLOK:  cpu time      3.5409: real time      1.8343
    SETDIJ:  cpu time      0.2139: real time      0.1805
     EDDAV:  cpu time      9.5684: real time      4.7818
       DOS:  cpu time      0.0001: real time      0.0001
    --------------------------------------------
      LOOP:  cpu time     13.3233: real time      6.7967

 eigenvalue-minimisations  :    48
 total energy-change (2. order) : 0.7154960E+02  (-0.2274083E+03)
 number of electron      12.0000000 magnetization 
 augmentation part       12.0000000 magnetization 

 Free energy of the ion-electron system (eV)
  ---------------------------------------------------
  alpha Z        PSCENC =         0.08965302
  Ewald energy   TEWEN  =       315.87742977
  -Hartree energ DENC   =     -1015.09216102
  -exchange      EXHF   =         0.00000000
  -V(xc)+E(xc)   XCENC  =        52.62487888
  PAW double counting   =       698.30301748     -696.69629178
  entropy T*S    EENTRO =        -0.00000000
  eigenvalues    EBANDS =      -147.53194479
  atomic energy  EATOM  =       863.97502114
  Solvation  Ediel_sol  =         0.00000000
  ---------------------------------------------------
  free energy    TOTEN  =        71.54960272 eV

  energy without entropy =       71.54960272  energy(sigma->0) =       71.54960272


--------------------------------------------------------------------------------------------------------




--------------------------------------- Iteration      1(   2)  ---------------------------------------


     EDDAV:  cpu time      6.6790: real time      3.5818
       DOS:  cpu time      0.0005: real time      0.0005
    --------------------------------------------
      LOOP:  cpu time      6.6795: real time      3.5823

 eigenvalue-minimisations  :    36
 total energy-change (2. order) :-0.6401219E+02  (-0.6401219E+02)
 number of electron      12.0000000 magnetization 
 augmentation part       12.0000000 magnetization 

 Free energy of the ion-electron system (eV)
  ---------------------------------------------------
  alpha Z        PSCENC =         0.08965302
  Ewald energy   TEWEN  =       315.87742977
  -Hartree energ DENC   =     -1015.09216102
  -exchange      EXHF   =         0.00000000
  -V(xc)+E(xc)   XCENC  =        52.62487888
  PAW double counting   =       698.30301748     -696.69629178
  entropy T*S    EENTRO =        -0.00000000
  eigenvalues    EBANDS =      -211.54413266
  atomic energy  EATOM  =       863.97502114
  Solvation  Ediel_sol  =         0.00000000
  ---------------------------------------------------
  free energy    TOTEN  =         7.53741485 eV

  energy without entropy =        7.53741485  energy(sigma->0) =        7.53741485


--------------------------------------------------------------------------------------------------------




--------------------------------------- Iteration      1(   3)  ---------------------------------------


     EDDAV:  cpu time      5.8253: real time      2.7748
       DOS:  cpu time      0.0005: real time      0.0005
    --------------------------------------------
      LOOP:  cpu time      5.8259: real time      2.7753

 eigenvalue-minimisations  :    24
 total energy-change (2. order) :-0.3440807E+01  (-0.3440807E+01)
 number of electron      12.0000000 magnetization 
 augmentation part       12.0000000 magnetization 

 Free energy of the ion-electron system (eV)
  ---------------------------------------------------
  alpha Z        PSCENC =         0.08965302
  Ewald energy   TEWEN  =       315.87742977
  -Hartree energ DENC   =     -1015.09216102
  -exchange      EXHF   =         0.00000000
  -V(xc)+E(xc)   XCENC  =        52.62487888
  PAW double counting   =       698.30301748     -696.69629178
  entropy T*S    EENTRO =        -0.00000000
  eigenvalues    EBANDS =      -214.98493977
  atomic energy  EATOM  =       863.97502114
  Solvation  Ediel_sol  =         0.00000000
  ---------------------------------------------------
  free energy    TOTEN  =         4.09660774 eV

  energy without entropy =        4.09660774  energy(sigma->0) =        4.09660774


--------------------------------------------------------------------------------------------------------




--------------------------------------- Iteration      1(   4)  ---------------------------------------


     EDDAV:  cpu time      9.0023: real time      4.7064
       DOS:  cpu time      0.0011: real time      0.0011
    --------------------------------------------
      LOOP:  cpu time      9.0035: real time      4.7075

 eigenvalue-minimisations  :    48
 total energy-change (2. order) :-0.7877647E+01  (-0.7877647E+01)
 number of electron      12.0000000 magnetization 
 augmentation part       12.0000000 magnetization 

 Free energy of the ion-electron system (eV)
  ---------------------------------------------------
  alpha Z        PSCENC =         0.08965302
  Ewald energy   TEWEN  =       315.87742977
  -Hartree energ DENC   =     -1015.09216102
  -exchange      EXHF   =         0.00000000
  -V(xc)+E(xc)   XCENC  =        52.62487888
  PAW double counting   =       698.30301748     -696.69629178
  entropy T*S    EENTRO =        -0.00000020
  eigenvalues    EBANDS =      -222.86258696
  atomic energy  EATOM  =       863.97502114
  Solvation  Ediel_sol  =         0.00000000
  ---------------------------------------------------
  free energy    TOTEN  =        -3.78103966 eV

  energy without entropy =       -3.78103946  energy(sigma->0) =       -3.78103956


--------------------------------------------------------------------------------------------------------




--------------------------------------- Iteration      1(   5)  ---------------------------------------


     EDDAV:  cpu time      5.3813: real time      2.7195
       DOS:  cpu time      0.0007: real time      0.0007
    CHARGE:  cpu time      1.4024: real time      0.7235
    MIXING:  cpu time      0.4980: real time      0.2716
    --------------------------------------------
      LOOP:  cpu time      7.2825: real time      3.7153

 eigenvalue-minimisations  :    24
 total energy-change (2. order) :-0.1549134E+01  (-0.1506125E+01)
 number of electron      11.9999999 magnetization 
 augmentation part        1.1628983 magnetization 

 Broyden mixing:
  rms(total) = 0.63009E+01    rms(broyden)= 0.62994E+01
  rms(prec ) = 0.63032E+01
  weight for this iteration     100.00

 Free energy of the ion-electron system (eV)
  ---------------------------------------------------
  alpha Z        PSCENC =         0.08965302
  Ewald energy   TEWEN  =       315.87742977
  -Hartree energ DENC   =     -1015.09216102
  -exchange      EXHF   =         0.00000000
  -V(xc)+E(xc)   XCENC  =        52.62487888
  PAW double counting   =       698.30301748     -696.69629178
  entropy T*S    EENTRO =        -0.05522746
  eigenvalues    EBANDS =      -224.35649400
  atomic energy  EATOM  =       863.97502114
  Solvation  Ediel_sol  =         0.00000000
  ---------------------------------------------------
  free energy    TOTEN  =        -5.33017395 eV

  energy without entropy =       -5.27494649  energy(sigma->0) =       -5.30256022


--------------------------------------------------------------------------------------------------------




--------------------------------------- Iteration      1(   6)  ---------------------------------------


    POTLOK:  cpu time      3.4189: real time      1.7616
    SETDIJ:  cpu time      0.3211: real time      0.1584
     EDDAV:  cpu time      6.9067: real time      3.7383
       DOS:  cpu time      0.0002: real time      0.0002
    CHARGE:  cpu time      0.9418: real time      0.4836
    MIXING:  cpu time      0.3916: real time      0.2345
    --------------------------------------------
      LOOP:  cpu time     11.9803: real time      6.3767

 eigenvalue-minimisations  :    36
 total energy-change (2. order) : 0.4341185E+00  (-0.1290159E+00)
 number of electron      11.9999998 magnetization 
 augmentation part        1.1107702 magnetization 

 Broyden mixing:
  rms(total) = 0.38386E+01    rms(broyden)= 0.38386E+01
  rms(prec ) = 0.38398E+01
  weight for this iteration     100.00

 eigenvalues of (default mixing * dielectric matrix)
  average eigenvalue GAMMA=   2.5503
  2.5503

 Free energy of the ion-electron system (eV)
  ---------------------------------------------------
  alpha Z        PSCENC =         0.08965302
  Ewald energy   TEWEN  =       315.87742977
  -Hartree energ DENC   =     -1025.60240007
  -exchange      EXHF   =         0.00000000
  -V(xc)+E(xc)   XCENC  =        53.31741337
  PAW double counting   =      1509.63400393    -1508.27092636
  entropy T*S    EENTRO =        -0.05641709
  eigenvalues    EBANDS =      -213.85983315
  atomic energy  EATOM  =       863.97502114
  Solvation  Ediel_sol  =         0.00000000
  ---------------------------------------------------
  free energy    TOTEN  =        -4.89605544 eV

  energy without entropy =       -4.83963835  energy(sigma->0) =       -4.86784689


--------------------------------------------------------------------------------------------------------




--------------------------------------- Iteration      1(   7)  ---------------------------------------


    POTLOK:  cpu time      4.1000: real time      1.9892
    SETDIJ:  cpu time      0.3459: real time      0.2144
     EDDAV:  cpu time      5.6089: real time      2.7467
       DOS:  cpu time      0.0002: real time      0.0002
    CHARGE:  cpu time      1.1687: real time      0.5517
    MIXING:  cpu time      0.4300: real time      0.2418
    --------------------------------------------
      LOOP:  cpu time     11.6536: real time      5.7440

 eigenvalue-minimisations  :    24
 total energy-change (2. order) : 0.2168040E-01  (-0.5861373E-01)
 number of electron      11.9999998 magnetization 
 augmentation part        1.0791505 magnetization 

 Broyden mixing:
  rms(total) = 0.10717E+00    rms(broyden)= 0.10709E+00
  rms(prec ) = 0.11454E+00
  weight for this iteration     100.00

 eigenvalues of (default mixing * dielectric matrix)
  average eigenvalue GAMMA=   1.9707
  1.3629  2.5785

 Free energy of the ion-electron system (eV)
  ---------------------------------------------------
  alpha Z        PSCENC =         0.08965302
  Ewald energy   TEWEN  =       315.87742977
  -Hartree energ DENC   =     -1034.12357304
  -exchange      EXHF   =         0.00000000
  -V(xc)+E(xc)   XCENC  =        53.90374176
  PAW double counting   =      3555.28737104    -3554.34046712
  entropy T*S    EENTRO =        -0.05641844
  eigenvalues    EBANDS =      -205.48713318
  atomic energy  EATOM  =       863.97502114
  Solvation  Ediel_sol  =         0.00000000
  ---------------------------------------------------
  free energy    TOTEN  =        -4.87437504 eV

  energy without entropy =       -4.81795661  energy(sigma->0) =       -4.84616583


--------------------------------------------------------------------------------------------------------




--------------------------------------- Iteration      1(   8)  ---------------------------------------


    POTLOK:  cpu time      3.7107: real time      1.8982
    SETDIJ:  cpu time      0.2728: real time      0.1464
     EDDAV:  cpu time      5.3706: real time      2.6528
       DOS:  cpu time      0.0008: real time      0.0008
    CHARGE:  cpu time      1.3777: real time      0.6432
    MIXING:  cpu time      0.5099: real time      0.2150
    --------------------------------------------
      LOOP:  cpu time     11.2425: real time      5.5564

 eigenvalue-minimisations  :    24
 total energy-change (2. order) : 0.1234629E-01  (-0.7003526E-02)
 number of electron      11.9999998 magnetization 
 augmentation part        1.0874063 magnetization 

 Broyden mixing:
  rms(total) = 0.24879E-01    rms(broyden)= 0.24844E-01
  rms(prec ) = 0.26024E-01
  weight for this iteration     100.00

 eigenvalues of (default mixing * dielectric matrix)
  average eigenvalue GAMMA=   1.7473
  2.6093  1.0413  1.5914

 Free energy of the ion-electron system (eV)
  ---------------------------------------------------
  alpha Z        PSCENC =         0.08965302
  Ewald energy   TEWEN  =       315.87742977
  -Hartree energ DENC   =     -1031.12210255
  -exchange      EXHF   =         0.00000000
  -V(xc)+E(xc)   XCENC  =        53.73031321
  PAW double counting   =      3568.13360212    -3567.18776715
  entropy T*S    EENTRO =        -0.05641894
  eigenvalues    EBANDS =      -208.30175937
  atomic energy  EATOM  =       863.97502114
  Solvation  Ediel_sol  =         0.00000000
  ---------------------------------------------------
  free energy    TOTEN  =        -4.86202875 eV

  energy without entropy =       -4.80560981  energy(sigma->0) =       -4.83381928


--------------------------------------------------------------------------------------------------------




--------------------------------------- Iteration      1(   9)  ---------------------------------------


    POTLOK:  cpu time      3.5417: real time      1.7945
    SETDIJ:  cpu time      0.3048: real time      0.1428
     EDDAV:  cpu time      5.1136: real time      2.6113
       DOS:  cpu time      0.0004: real time      0.0004
    CHARGE:  cpu time      1.0511: real time      0.5488
    MIXING:  cpu time      0.5136: real time      0.2833
    --------------------------------------------
      LOOP:  cpu time     10.5252: real time      5.3812

 eigenvalue-minimisations  :    24
 total energy-change (2. order) :-0.1609724E-02  (-0.5393624E-03)
 number of electron      11.9999998 magnetization 
 augmentation part        1.0899005 magnetization 

 Broyden mixing:
  rms(total) = 0.10698E-01    rms(broyden)= 0.10663E-01
  rms(prec ) = 0.11266E-01
  weight for this iteration     100.00

 eigenvalues of (default mixing * dielectric matrix)
  average eigenvalue GAMMA=   1.9216
  0.9833  2.5239  2.5239  1.6551

 Free energy of the ion-electron system (eV)
  ---------------------------------------------------
  alpha Z        PSCENC =         0.08965302
  Ewald energy   TEWEN  =       315.87742977
  -Hartree energ DENC   =     -1030.64317799
  -exchange      EXHF   =         0.00000000
  -V(xc)+E(xc)   XCENC  =        53.70056041
  PAW double counting   =      3572.88114958    -3571.92950017
  entropy T*S    EENTRO =        -0.05641896
  eigenvalues    EBANDS =      -208.75835528
  atomic energy  EATOM  =       863.97502114
  Solvation  Ediel_sol  =         0.00000000
  ---------------------------------------------------
  free energy    TOTEN  =        -4.86363847 eV

  energy without entropy =       -4.80721952  energy(sigma->0) =       -4.83542900


--------------------------------------------------------------------------------------------------------




--------------------------------------- Iteration      1(  10)  ---------------------------------------


    POTLOK:  cpu time      3.3807: real time      1.7354
    SETDIJ:  cpu time      0.2492: real time      0.1801
     EDDAV:  cpu time      6.8458: real time      3.4609
       DOS:  cpu time      0.0006: real time      0.0006
    CHARGE:  cpu time      1.1544: real time      0.5420
    MIXING:  cpu time      0.4647: real time      0.2610
    --------------------------------------------
      LOOP:  cpu time     12.0954: real time      6.1800

 eigenvalue-minimisations  :    36
 total energy-change (2. order) :-0.1564425E-02  (-0.1646537E-03)
 number of electron      11.9999998 magnetization 
 augmentation part        1.0887420 magnetization 

 Broyden mixing:
  rms(total) = 0.40147E-02    rms(broyden)= 0.40107E-02
  rms(prec ) = 0.48089E-02
  weight for this iteration     100.00

 eigenvalues of (default mixing * dielectric matrix)
  average eigenvalue GAMMA=   1.6999
  2.4910  2.4910  1.5631  1.1172  0.8374

 Free energy of the ion-electron system (eV)
  ---------------------------------------------------
  alpha Z        PSCENC =         0.08965302
  Ewald energy   TEWEN  =       315.87742977
  -Hartree energ DENC   =     -1030.94261455
  -exchange      EXHF   =         0.00000000
  -V(xc)+E(xc)   XCENC  =        53.71225941
  PAW double counting   =      3563.05351763    -3562.09074631
  entropy T*S    EENTRO =        -0.05641896
  eigenvalues    EBANDS =      -208.48330405
  atomic energy  EATOM  =       863.97502114
  Solvation  Ediel_sol  =         0.00000000
  ---------------------------------------------------
  free energy    TOTEN  =        -4.86520290 eV

  energy without entropy =       -4.80878394  energy(sigma->0) =       -4.83699342


--------------------------------------------------------------------------------------------------------




--------------------------------------- Iteration      1(  11)  ---------------------------------------


    POTLOK:  cpu time      3.4824: real time      1.6511
    SETDIJ:  cpu time      0.3331: real time      0.1953
     EDDAV:  cpu time      7.0104: real time      3.6083
       DOS:  cpu time      0.0007: real time      0.0007
    CHARGE:  cpu time      1.0591: real time      0.5969
    MIXING:  cpu time      0.4320: real time      0.2585
    --------------------------------------------
      LOOP:  cpu time     12.3177: real time      6.3108

 eigenvalue-minimisations  :    36
 total energy-change (2. order) :-0.1874582E-03  (-0.2200301E-04)
 number of electron      11.9999998 magnetization 
 augmentation part        1.0893259 magnetization 

 Broyden mixing:
  rms(total) = 0.15140E-02    rms(broyden)= 0.15111E-02
  rms(prec ) = 0.21930E-02
  weight for this iteration     100.00

 eigenvalues of (default mixing * dielectric matrix)
  average eigenvalue GAMMA=   1.6478
  2.5738  2.3857  1.6352  0.8873  1.2025  1.2025

 Free energy of the ion-electron system (eV)
  ---------------------------------------------------
  alpha Z        PSCENC =         0.08965302
  Ewald energy   TEWEN  =       315.87742977
  -Hartree energ DENC   =     -1030.80960242
  -exchange      EXHF   =         0.00000000
  -V(xc)+E(xc)   XCENC  =        53.70535851
  PAW double counting   =      3562.85213673    -3561.88981346
  entropy T*S    EENTRO =        -0.05641896
  eigenvalues    EBANDS =      -208.60915469
  atomic energy  EATOM  =       863.97502114
  Solvation  Ediel_sol  =         0.00000000
  ---------------------------------------------------
  free energy    TOTEN  =        -4.86539036 eV

  energy without entropy =       -4.80897140  energy(sigma->0) =       -4.83718088


--------------------------------------------------------------------------------------------------------




--------------------------------------- Iteration      1(  12)  ---------------------------------------


    POTLOK:  cpu time      3.5590: real time      1.8973
    SETDIJ:  cpu time      0.3696: real time      0.1539
     EDDAV:  cpu time      7.1711: real time      3.6119
       DOS:  cpu time      0.0008: real time      0.0008
    CHARGE:  cpu time      1.1371: real time      0.5539
    MIXING:  cpu time      0.4483: real time      0.2583
    --------------------------------------------
      LOOP:  cpu time     12.6859: real time      6.4761

 eigenvalue-minimisations  :    36
 total energy-change (2. order) :-0.3549058E-03  (-0.3474461E-05)
 number of electron      11.9999998 magnetization 
 augmentation part        1.0894144 magnetization 

 Broyden mixing:
  rms(total) = 0.52551E-03    rms(broyden)= 0.52387E-03
  rms(prec ) = 0.12642E-02
  weight for this iteration     100.00

 eigenvalues of (default mixing * dielectric matrix)
  average eigenvalue GAMMA=   1.7386
  3.1829  2.5005  2.0405  1.5533  0.9195  0.9195  1.0544

 Free energy of the ion-electron system (eV)
  ---------------------------------------------------
  alpha Z        PSCENC =         0.08965302
  Ewald energy   TEWEN  =       315.87742977
  -Hartree energ DENC   =     -1030.77489224
  -exchange      EXHF   =         0.00000000
  -V(xc)+E(xc)   XCENC  =        53.70349191
  PAW double counting   =      3564.19543300    -3563.23350224
  entropy T*S    EENTRO =        -0.05641896
  eigenvalues    EBANDS =      -208.64196067
  atomic energy  EATOM  =       863.97502114
  Solvation  Ediel_sol  =         0.00000000
  ---------------------------------------------------
  free energy    TOTEN  =        -4.86574526 eV

  energy without entropy =       -4.80932631  energy(sigma->0) =       -4.83753579


--------------------------------------------------------------------------------------------------------




--------------------------------------- Iteration      1(  13)  ---------------------------------------


    POTLOK:  cpu time      3.8050: real time      1.9199
    SETDIJ:  cpu time      0.2194: real time      0.1068
     EDDAV:  cpu time      7.2532: real time      3.7811
       DOS:  cpu time      0.0005: real time      0.0005
    CHARGE:  cpu time      1.7356: real time      0.6557
    MIXING:  cpu time      0.5944: real time      0.2674
    --------------------------------------------
      LOOP:  cpu time     13.6082: real time      6.7315

 eigenvalue-minimisations  :    36
 total energy-change (2. order) :-0.5239244E-03  (-0.8333525E-05)
 number of electron      11.9999998 magnetization 
 augmentation part        1.0894310 magnetization 

 Broyden mixing:
  rms(total) = 0.55050E-03    rms(broyden)= 0.55025E-03
  rms(prec ) = 0.78628E-03
  weight for this iteration     100.00

 eigenvalues of (default mixing * dielectric matrix)
  average eigenvalue GAMMA=   1.8384
  3.8983  2.5385  2.3169  1.5404  1.5404  1.0527  0.9099  0.9099

 Free energy of the ion-electron system (eV)
  ---------------------------------------------------
  alpha Z        PSCENC =         0.08965302
  Ewald energy   TEWEN  =       315.87742977
  -Hartree energ DENC   =     -1030.75338491
  -exchange      EXHF   =         0.00000000
  -V(xc)+E(xc)   XCENC  =        53.70165611
  PAW double counting   =      3564.47909292    -3563.51672899
  entropy T*S    EENTRO =        -0.05641896
  eigenvalues    EBANDS =      -208.66258929
  atomic energy  EATOM  =       863.97502114
  Solvation  Ediel_sol  =         0.00000000
  ---------------------------------------------------
  free energy    TOTEN  =        -4.86626919 eV

  energy without entropy =       -4.80985023  energy(sigma->0) =       -4.83805971


--------------------------------------------------------------------------------------------------------




--------------------------------------- Iteration      1(  14)  ---------------------------------------


    POTLOK:  cpu time      3.7745: real time      1.8534
    SETDIJ:  cpu time      0.2614: real time      0.1493
     EDDAV:  cpu time      7.5569: real time      3.5951
       DOS:  cpu time      0.0004: real time      0.0002
    CHARGE:  cpu time      1.1509: real time      0.5539
    MIXING:  cpu time      0.5428: real time      0.2540
    --------------------------------------------
      LOOP:  cpu time     13.2870: real time      6.4059

 eigenvalue-minimisations  :    36
 total energy-change (2. order) :-0.1421978E-03  (-0.1949464E-05)
 number of electron      11.9999998 magnetization 
 augmentation part        1.0893419 magnetization 

 Broyden mixing:
  rms(total) = 0.27422E-03    rms(broyden)= 0.27374E-03
  rms(prec ) = 0.44267E-03
  weight for this iteration     100.00

 eigenvalues of (default mixing * dielectric matrix)
  average eigenvalue GAMMA=   1.9641
  4.9659  2.5894  2.4503  2.1177  1.5038  1.1979  1.0479  0.9581  0.8461

 Free energy of the ion-electron system (eV)
  ---------------------------------------------------
  alpha Z        PSCENC =         0.08965302
  Ewald energy   TEWEN  =       315.87742977
  -Hartree energ DENC   =     -1030.77375700
  -exchange      EXHF   =         0.00000000
  -V(xc)+E(xc)   XCENC  =        53.70231464
  PAW double counting   =      3564.24640972    -3563.28421621
  entropy T*S    EENTRO =        -0.05641896
  eigenvalues    EBANDS =      -208.64284752
  atomic energy  EATOM  =       863.97502114
  Solvation  Ediel_sol  =         0.00000000
  ---------------------------------------------------
  free energy    TOTEN  =        -4.86641139 eV

  energy without entropy =       -4.80999243  energy(sigma->0) =       -4.83820191


--------------------------------------------------------------------------------------------------------




--------------------------------------- Iteration      1(  15)  ---------------------------------------


    POTLOK:  cpu time      3.3595: real time      1.8334
    SETDIJ:  cpu time      0.3629: real time      0.2413
     EDDAV:  cpu time      7.8538: real time      3.7677
       DOS:  cpu time      0.0003: real time      0.0003
    CHARGE:  cpu time      1.0597: real time      0.5126
    MIXING:  cpu time      0.3997: real time      0.2157
    --------------------------------------------
      LOOP:  cpu time     13.0359: real time      6.5710

 eigenvalue-minimisations  :    36
 total energy-change (2. order) :-0.8239832E-04  (-0.7555208E-06)
 number of electron      11.9999998 magnetization 
 augmentation part        1.0893584 magnetization 

 Broyden mixing:
  rms(total) = 0.12449E-03    rms(broyden)= 0.12442E-03
  rms(prec ) = 0.23148E-03
  weight for this iteration     100.00

 eigenvalues of (default mixing * dielectric matrix)
  average eigenvalue GAMMA=   2.1450
  6.1188  3.2820  2.5355  2.1408  1.9710  1.4455  1.1570  1.0087  0.9398  0.8510

 Free energy of the ion-electron system (eV)
  ---------------------------------------------------
  alpha Z        PSCENC =         0.08965302
  Ewald energy   TEWEN  =       315.87742977
  -Hartree energ DENC   =     -1030.77348298
  -exchange      EXHF   =         0.00000000
  -V(xc)+E(xc)   XCENC  =        53.70201142
  PAW double counting   =      3564.33556627    -3563.37339251
  entropy T*S    EENTRO =        -0.05641896
  eigenvalues    EBANDS =      -208.64288096
  atomic energy  EATOM  =       863.97502114
  Solvation  Ediel_sol  =         0.00000000
  ---------------------------------------------------
  free energy    TOTEN  =        -4.86649378 eV

  energy without entropy =       -4.81007483  energy(sigma->0) =       -4.83828431


--------------------------------------------------------------------------------------------------------




--------------------------------------- Iteration      1(  16)  ---------------------------------------


    POTLOK:  cpu time      3.6613: real time      1.8285
    SETDIJ:  cpu time      0.2592: real time      0.1477
     EDDAV:  cpu time      5.1728: real time      2.6360
       DOS:  cpu time      0.0004: real time      0.0004
    CHARGE:  cpu time      1.6478: real time      0.7406
    MIXING:  cpu time      0.4534: real time      0.2883
    --------------------------------------------
      LOOP:  cpu time     11.1949: real time      5.6417

 eigenvalue-minimisations  :    24
 total energy-change (2. order) :-0.4389550E-04  (-0.2527638E-06)
 number of electron      11.9999998 magnetization 
 augmentation part        1.0893530 magnetization 

 Broyden mixing:
  rms(total) = 0.83237E-04    rms(broyden)= 0.83228E-04
  rms(prec ) = 0.12007E-03
  weight for this iteration     100.00

 eigenvalues of (default mixing * dielectric matrix)
  average eigenvalue GAMMA=   2.2907
  7.0263  3.8380  2.5935  2.5935  2.1437  1.7049  1.3919  1.1513  0.9843  0.9223
  0.8480

 Free energy of the ion-electron system (eV)
  ---------------------------------------------------
  alpha Z        PSCENC =         0.08965302
  Ewald energy   TEWEN  =       315.87742977
  -Hartree energ DENC   =     -1030.77224972
  -exchange      EXHF   =         0.00000000
  -V(xc)+E(xc)   XCENC  =        53.70187931
  PAW double counting   =      3564.27757345    -3563.31537517
  entropy T*S    EENTRO =        -0.05641896
  eigenvalues    EBANDS =      -208.64405053
  atomic energy  EATOM  =       863.97502114
  Solvation  Ediel_sol  =         0.00000000
  ---------------------------------------------------
  free energy    TOTEN  =        -4.86653768 eV

  energy without entropy =       -4.81011872  energy(sigma->0) =       -4.83832820


--------------------------------------------------------------------------------------------------------




--------------------------------------- Iteration      1(  17)  ---------------------------------------


    POTLOK:  cpu time      3.3688: real time      1.8149
    SETDIJ:  cpu time      0.3598: real time      0.1796
     EDDAV:  cpu time      5.2664: real time      2.9193
       DOS:  cpu time      0.0003: real time      0.0004
    CHARGE:  cpu time      1.2018: real time      0.6039
    MIXING:  cpu time      0.4466: real time      0.2390
    --------------------------------------------
      LOOP:  cpu time     10.6438: real time      5.7571

 eigenvalue-minimisations  :    24
 total energy-change (2. order) :-0.1972801E-04  (-0.7534170E-07)
 number of electron      11.9999998 magnetization 
 augmentation part        1.0893610 magnetization 

 Broyden mixing:
  rms(total) = 0.75219E-04    rms(broyden)= 0.75193E-04
  rms(prec ) = 0.85018E-04
  weight for this iteration     100.00

 eigenvalues of (default mixing * dielectric matrix)
  average eigenvalue GAMMA=   2.3142
  7.9223  4.3779  2.7987  2.5279  2.0231  1.8754  1.4647  1.1233  1.0274  0.9267
  0.8513  0.8513

 Free energy of the ion-electron system (eV)
  ---------------------------------------------------
  alpha Z        PSCENC =         0.08965302
  Ewald energy   TEWEN  =       315.87742977
  -Hartree energ DENC   =     -1030.76961863
  -exchange      EXHF   =         0.00000000
  -V(xc)+E(xc)   XCENC  =        53.70171514
  PAW double counting   =      3564.25403064    -3563.29177921
  entropy T*S    EENTRO =        -0.05641896
  eigenvalues    EBANDS =      -208.64659033
  atomic energy  EATOM  =       863.97502114
  Solvation  Ediel_sol  =         0.00000000
  ---------------------------------------------------
  free energy    TOTEN  =        -4.86655741 eV

  energy without entropy =       -4.81013845  energy(sigma->0) =       -4.83834793


--------------------------------------------------------------------------------------------------------




--------------------------------------- Iteration      1(  18)  ---------------------------------------


    POTLOK:  cpu time      3.2505: real time      1.7177
    SETDIJ:  cpu time      0.2978: real time      0.1574
     EDDAV:  cpu time      7.1649: real time      3.9668
       DOS:  cpu time      0.0006: real time      0.0006
    CHARGE:  cpu time      1.0829: real time      0.4964
    MIXING:  cpu time      0.5191: real time      0.3049
    --------------------------------------------
      LOOP:  cpu time     12.3157: real time      6.6438

 eigenvalue-minimisations  :    36
 total energy-change (2. order) :-0.5774007E-05  (-0.2025844E-07)
 number of electron      11.9999998 magnetization 
 augmentation part        1.0893543 magnetization 

 Broyden mixing:
  rms(total) = 0.22688E-04    rms(broyden)= 0.22633E-04
  rms(prec ) = 0.31540E-04
  weight for this iteration     100.00

 eigenvalues of (default mixing * dielectric matrix)
  average eigenvalue GAMMA=   2.4754
  8.9660  4.9010  3.3365  2.5174  2.5174  2.0568  1.6479  1.4422  1.1025  0.9700
  0.9700  0.9087  0.8443

 Free energy of the ion-electron system (eV)
  ---------------------------------------------------
  alpha Z        PSCENC =         0.08965302
  Ewald energy   TEWEN  =       315.87742977
  -Hartree energ DENC   =     -1030.77095200
  -exchange      EXHF   =         0.00000000
  -V(xc)+E(xc)   XCENC  =        53.70177580
  PAW double counting   =      3564.28684659    -3563.32458323
  entropy T*S    EENTRO =        -0.05641896
  eigenvalues    EBANDS =      -208.64533532
  atomic energy  EATOM  =       863.97502114
  Solvation  Ediel_sol  =         0.00000000
  ---------------------------------------------------
  free energy    TOTEN  =        -4.86656318 eV

  energy without entropy =       -4.81014422  energy(sigma->0) =       -4.83835370


--------------------------------------------------------------------------------------------------------




--------------------------------------- Iteration      1(  19)  ---------------------------------------


    POTLOK:  cpu time      3.5651: real time      2.4193
    SETDIJ:  cpu time      0.3301: real time      0.1605
     EDDAV:  cpu time      7.9533: real time      4.5765
       DOS:  cpu time      0.0003: real time      0.0003
    CHARGE:  cpu time      1.2922: real time      0.6596
    MIXING:  cpu time      0.6051: real time      0.3481
    --------------------------------------------
      LOOP:  cpu time     13.7461: real time      8.1644

 eigenvalue-minimisations  :    36
 total energy-change (2. order) :-0.5928088E-05  (-0.6332934E-08)
 number of electron      11.9999998 magnetization 
 augmentation part        1.0893566 magnetization 

 Broyden mixing:
  rms(total) = 0.12026E-04    rms(broyden)= 0.12024E-04
  rms(prec ) = 0.15448E-04
  weight for this iteration     100.00

 eigenvalues of (default mixing * dielectric matrix)
  average eigenvalue GAMMA=   2.4568
  9.2303  5.2035  3.4658  2.5601  2.5601  1.9745  1.9745  1.4674  1.1995  1.0535
  0.9777  0.9777  0.8423  0.9084

 Free energy of the ion-electron system (eV)
  ---------------------------------------------------
  alpha Z        PSCENC =         0.08965302
  Ewald energy   TEWEN  =       315.87742977
  -Hartree energ DENC   =     -1030.77024031
  -exchange      EXHF   =         0.00000000
  -V(xc)+E(xc)   XCENC  =        53.70174764
  PAW double counting   =      3564.29083092    -3563.32859285
  entropy T*S    EENTRO =        -0.05641896
  eigenvalues    EBANDS =      -208.64599948
  atomic energy  EATOM  =       863.97502114
  Solvation  Ediel_sol  =         0.00000000
  ---------------------------------------------------
  free energy    TOTEN  =        -4.86656911 eV

  energy without entropy =       -4.81015015  energy(sigma->0) =       -4.83835963


--------------------------------------------------------------------------------------------------------




--------------------------------------- Iteration      1(  20)  ---------------------------------------


    POTLOK:  cpu time      3.5554: real time      1.9383
    SETDIJ:  cpu time      0.2671: real time      0.1696
     EDDAV:  cpu time      7.1389: real time      3.6215
       DOS:  cpu time      0.0011: real time      0.0011
    CHARGE:  cpu time      1.1199: real time      0.6108
    MIXING:  cpu time      0.4823: real time      0.2628
    --------------------------------------------
      LOOP:  cpu time     12.5646: real time      6.6041

 eigenvalue-minimisations  :    36
 total energy-change (2. order) :-0.1086679E-05  (-0.6099459E-09)
 number of electron      11.9999998 magnetization 
 augmentation part        1.0893554 magnetization 

 Broyden mixing:
  rms(total) = 0.61030E-05    rms(broyden)= 0.61007E-05
  rms(prec ) = 0.87559E-05
  weight for this iteration     100.00

 eigenvalues of (default mixing * dielectric matrix)
  average eigenvalue GAMMA=   2.5284
  9.4686  5.5671  3.8859  3.0712  2.5155  2.4788  1.8737  1.7550  1.4549  1.1075
  0.8427  1.0318  0.9906  0.9767  0.9063

 Free energy of the ion-electron system (eV)
  ---------------------------------------------------
  alpha Z        PSCENC =         0.08965302
  Ewald energy   TEWEN  =       315.87742977
  -Hartree energ DENC   =     -1030.77033917
  -exchange      EXHF   =         0.00000000
  -V(xc)+E(xc)   XCENC  =        53.70176048
  PAW double counting   =      3564.29021745    -3563.32798108
  entropy T*S    EENTRO =        -0.05641896
  eigenvalues    EBANDS =      -208.64591285
  atomic energy  EATOM  =       863.97502114
  Solvation  Ediel_sol  =         0.00000000
  ---------------------------------------------------
  free energy    TOTEN  =        -4.86657020 eV

  energy without entropy =       -4.81015124  energy(sigma->0) =       -4.83836072


--------------------------------------------------------------------------------------------------------




--------------------------------------- Iteration      1(  21)  ---------------------------------------


    POTLOK:  cpu time      3.8736: real time      1.8623
    SETDIJ:  cpu time      0.3256: real time      0.1853
     EDDAV:  cpu time      7.5226: real time      3.8781
       DOS:  cpu time      0.0003: real time      0.0003
    CHARGE:  cpu time      1.1845: real time      0.5520
    MIXING:  cpu time      0.4496: real time      0.2659
    --------------------------------------------
      LOOP:  cpu time     13.3563: real time      6.7439

 eigenvalue-minimisations  :    36
 total energy-change (2. order) :-0.5139934E-06  (-0.2516738E-09)
 number of electron      11.9999998 magnetization 
 augmentation part        1.0893557 magnetization 

 Broyden mixing:
  rms(total) = 0.48120E-05    rms(broyden)= 0.48115E-05
  rms(prec ) = 0.57577E-05
  weight for this iteration     100.00

 eigenvalues of (default mixing * dielectric matrix)
  average eigenvalue GAMMA=   2.5846
  9.5562  5.7084  4.4573  3.2127  2.6581  2.6581  2.4192  1.8798  1.5169  1.4414
  0.8428  1.0655  1.0655  1.0043  0.9073  0.9596

 Free energy of the ion-electron system (eV)
  ---------------------------------------------------
  alpha Z        PSCENC =         0.08965302
  Ewald energy   TEWEN  =       315.87742977
  -Hartree energ DENC   =     -1030.77026375
  -exchange      EXHF   =         0.00000000
  -V(xc)+E(xc)   XCENC  =        53.70176204
  PAW double counting   =      3564.29188036    -3563.32964015
  entropy T*S    EENTRO =        -0.05641896
  eigenvalues    EBANDS =      -208.64599418
  atomic energy  EATOM  =       863.97502114
  Solvation  Ediel_sol  =         0.00000000
  ---------------------------------------------------
  free energy    TOTEN  =        -4.86657071 eV

  energy without entropy =       -4.81015175  energy(sigma->0) =       -4.83836123


--------------------------------------------------------------------------------------------------------




--------------------------------------- Iteration      1(  22)  ---------------------------------------


    POTLOK:  cpu time      3.3565: real time      1.8337
    SETDIJ:  cpu time      0.3438: real time      0.1403
     EDDAV:  cpu time      7.0234: real time      3.5175
       DOS:  cpu time      0.0002: real time      0.0002
    CHARGE:  cpu time      1.2131: real time      0.5769
    MIXING:  cpu time      0.4775: real time      0.2716
    --------------------------------------------
      LOOP:  cpu time     12.4144: real time      6.3402

 eigenvalue-minimisations  :    36
 total energy-change (2. order) :-0.1162248E-06  (-0.7460743E-10)
 number of electron      11.9999998 magnetization 
 augmentation part        1.0893559 magnetization 

 Broyden mixing:
  rms(total) = 0.91815E-05    rms(broyden)= 0.91815E-05
  rms(prec ) = 0.92984E-05
  weight for this iteration     100.00

 eigenvalues of (default mixing * dielectric matrix)
  average eigenvalue GAMMA=   2.5931
  9.5995  6.1692  4.9496  3.5268  2.9757  2.4771  2.4771  1.8977  1.7350  1.4523
  1.1094  0.8430  1.0123  1.0123  0.9808  0.9563  0.9083

 Free energy of the ion-electron system (eV)
  ---------------------------------------------------
  alpha Z        PSCENC =         0.08965302
  Ewald energy   TEWEN  =       315.87742977
  -Hartree energ DENC   =     -1030.77012016
  -exchange      EXHF   =         0.00000000
  -V(xc)+E(xc)   XCENC  =        53.70175800
  PAW double counting   =      3564.28731981    -3563.32508061
  entropy T*S    EENTRO =        -0.05641896
  eigenvalues    EBANDS =      -208.64613284
  atomic energy  EATOM  =       863.97502114
  Solvation  Ediel_sol  =         0.00000000
  ---------------------------------------------------
  free energy    TOTEN  =        -4.86657083 eV

  energy without entropy =       -4.81015187  energy(sigma->0) =       -4.83836135


--------------------------------------------------------------------------------------------------------




--------------------------------------- Iteration      1(  23)  ---------------------------------------


    POTLOK:  cpu time      2.8103: real time      1.7428
    SETDIJ:  cpu time      0.4050: real time      0.2175
     EDDAV:  cpu time      5.3173: real time      2.6486
       DOS:  cpu time      0.0003: real time      0.0003
    --------------------------------------------
      LOOP:  cpu time      8.5330: real time      4.6091

 eigenvalue-minimisations  :    24
 total energy-change (2. order) :-0.2551542E-07  (-0.1828893E-10)
 number of electron      11.9999998 magnetization 
 augmentation part        1.0893559 magnetization 

 Free energy of the ion-electron system (eV)
  ---------------------------------------------------
  alpha Z        PSCENC =         0.08965302
  Ewald energy   TEWEN  =       315.87742977
  -Hartree energ DENC   =     -1030.77013140
  -exchange      EXHF   =         0.00000000
  -V(xc)+E(xc)   XCENC  =        53.70176054
  PAW double counting   =      3564.29073713    -3563.32849730
  entropy T*S    EENTRO =        -0.05641896
  eigenvalues    EBANDS =      -208.64612480
  atomic energy  EATOM  =       863.97502114
  Solvation  Ediel_sol  =         0.00000000
  ---------------------------------------------------
  free energy    TOTEN  =        -4.86657085 eV

  energy without entropy =       -4.81015189  energy(sigma->0) =       -4.83836137


--------------------------------------------------------------------------------------------------------




 average (electrostatic) potential at core
  the test charge radii are     0.6768
  (the norm of the test charge is              1.0000)
       1-130.2781       2-130.2779
 
 
 
 E-fermi :  -3.6886     XC(G=0):  -0.3032     alpha+bet : -0.0568

 Fermi energy:        -3.6886104858

 k-point     1 :       0.0000    0.0000    0.0000
  band No.  band energies     occupation 
      1     -38.0213      2.00000
      2     -18.2453      2.00000
      3     -15.3271      2.00000
      4     -15.3271      2.00000
      5     -13.7136      2.00000
      6      -3.6886      1.00000
      7      -3.6886      1.00000
      8      -0.2803      0.00000
      9       0.3311      0.00000
     10       0.4647      0.00000
     11       0.4660      0.00000
     12       0.4660      0.00000


--------------------------------------------------------------------------------------------------------


 soft charge-density along one line, spin component            1
         0         1         2         3         4         5         6         7         8         9
 total charge-density along one line
 
 pseudopotential strength for first ion, spin component:            1
 33.933  34.995  39.387  -0.000   0.000  -0.209  -0.000   0.000
 34.995  36.090  40.582  -0.000   0.000  -0.216  -0.000   0.000
 39.387  40.582  32.488  -0.000   0.000  -0.026  -0.000   0.000
 -0.000  -0.000  -0.000  -7.139  -0.000   0.000  -8.039  -0.000
  0.000   0.000   0.000  -0.000  -7.139   0.000  -0.000  -8.039
 -0.209  -0.216  -0.026   0.000   0.000  -7.487   0.000   0.000
 -0.000  -0.000  -0.000  -8.039  -0.000   0.000  -9.037  -0.000
  0.000   0.000   0.000  -0.000  -8.039   0.000  -0.000  -9.037
 -0.249  -0.257  -0.031   0.000   0.000  -8.443   0.000   0.000
  0.000   0.000   0.000  -1.802   0.000  -0.000  -3.057   0.000
 -0.000  -0.000  -0.000   0.000  -1.802  -0.000   0.000  -3.057
  1.137   1.176   0.400  -0.000  -0.000  -1.185  -0.000  -0.000
 -0.000  -0.000   0.000  -0.072   0.000  -0.000  -0.085   0.000
  0.000   0.000  -0.000   0.000  -0.000   0.000   0.000  -0.000
 -0.010  -0.011   0.005  -0.000   0.000   0.060  -0.000   0.000
 -0.000  -0.000   0.000   0.000  -0.072   0.000   0.000  -0.085
  0.018   0.019  -0.009  -0.000   0.000  -0.104  -0.000   0.000
 -0.000  -0.000   0.000   0.700  -0.000   0.000   0.804  -0.000
  0.000   0.000  -0.000  -0.000   0.000  -0.000  -0.000   0.000
 -0.209  -0.217   0.082   0.000  -0.000  -0.631   0.000  -0.000
 -0.000  -0.000   0.000  -0.000   0.700  -0.000  -0.000   0.804
  0.362   0.376  -0.141   0.000  -0.000   1.094   0.000  -0.000
 total augmentation occupancy for first ion, spin component:            1
 41.257 -39.312   0.005   0.000  -0.000 -30.552   0.000   0.000  24.167  -0.000   0.000  -0.103  -0.000   0.000   0.924  -0.000
-39.312  39.264  -0.033  -0.000   0.000  28.996   0.000  -0.000 -22.985   0.000   0.000   0.155   0.000   0.000  -0.968  -0.000
  0.005  -0.033   0.001   0.000   0.000   0.012   0.000   0.000  -0.028  -0.000   0.000  -0.003   0.000   0.000   0.004   0.000
 -0.000  -0.000   0.000   5.384   0.000   0.000  -3.626   0.000   0.000   0.074   0.000   0.000   0.854  -0.000   0.000   0.000
  0.000   0.000   0.000   0.000   5.384   0.000   0.000  -3.626   0.000   0.000   0.074  -0.000   0.000   0.000   0.000   0.854
-30.552  28.996   0.012   0.000   0.000  23.214   0.000  -0.000 -19.243  -0.000   0.000  -0.022   0.000   0.000  -0.553  -0.000
  0.000   0.000   0.000  -3.626   0.000   0.000   3.457   0.000   0.000  -0.024   0.000   0.000  -0.594   0.000   0.000  -0.000
  0.000   0.000   0.000   0.000  -3.626   0.000   0.000   3.457   0.000   0.000  -0.024   0.000  -0.000   0.000  -0.000  -0.594
 24.167 -22.985  -0.028  -0.000   0.000 -19.243   0.000  -0.000  17.263   0.000   0.000   0.160   0.000   0.000   0.248  -0.000
 -0.000   0.000  -0.000   0.074   0.000  -0.000  -0.024   0.000   0.000   0.002   0.000  -0.000   0.011   0.000  -0.000   0.000
  0.000   0.000   0.000   0.000   0.074   0.000   0.000  -0.024   0.000   0.000   0.002   0.000  -0.000  -0.000   0.000   0.011
 -0.103   0.155  -0.003   0.000  -0.000  -0.022   0.000   0.000   0.160  -0.000   0.000   0.018  -0.000   0.000  -0.026   0.000
 -0.000  -0.000   0.000   0.854   0.000   0.000  -0.594  -0.000   0.000   0.011  -0.000   0.000   0.136   0.000   0.000   0.000
  0.000   0.000   0.000  -0.000   0.000   0.000   0.000  -0.000   0.000   0.000  -0.000   0.000   0.000   0.000   0.000   0.000
  0.924  -0.968   0.004   0.000   0.000  -0.553   0.000   0.000   0.248  -0.000   0.000  -0.026   0.000  -0.000   0.052   0.000
 -0.000  -0.000   0.000   0.000   0.854   0.000  -0.000  -0.594  -0.000   0.000   0.011   0.000   0.000  -0.000   0.000   0.136
 -1.600   1.676  -0.008   0.000   0.000   0.957   0.000   0.000  -0.429   0.000   0.000   0.044  -0.000  -0.000  -0.090  -0.000
 -0.000   0.000   0.000   0.040   0.000   0.000  -0.038  -0.000   0.000   0.000  -0.000   0.000   0.007   0.000  -0.000  -0.000
  0.000   0.000   0.000  -0.000   0.000   0.000  -0.000  -0.000   0.000  -0.000  -0.000   0.000   0.000   0.000   0.000   0.000
  0.068  -0.067   0.000   0.000   0.000  -0.051   0.000  -0.000   0.041   0.000   0.000  -0.000  -0.000   0.000   0.002   0.000
  0.000   0.000   0.000  -0.000   0.040   0.000   0.000  -0.038   0.000   0.000   0.000   0.000  -0.000   0.000  -0.000   0.007
 -0.118   0.117  -0.000   0.000   0.000   0.088   0.000  -0.000  -0.072   0.000   0.000   0.000   0.000   0.000  -0.003   0.000


------------------------ aborting loop because EDIFF is reached ----------------------------------------


    CHARGE:  cpu time      1.3951: real time      0.6246
    FORLOC:  cpu time      0.0411: real time      0.0097
    FORNL :  cpu time      1.4691: real time      0.7321
    STRESS:  cpu time      3.2718: real time      1.9130
    FORCOR:  cpu time      3.2062: real time      1.5669
    FORHAR:  cpu time      1.0564: real time      0.6389
    MIXING:  cpu time      0.4870: real time      0.2647
    OFIELD:  cpu time      0.0000: real time      0.0000

 ---------------------------------------------------------------------------------------------

         DFTD3 V3.0 Rev 1        
 IVDW         = 12
 DF pbe       
 parameters
 VDW_S6       =    1.0000
 VDW_S8       =    0.7875
 VDW_A1       =    0.4289
 VDW_A2       =    4.4407
 k1-k3        =   16.0000    1.3333   -4.0000
 VDW_RADIUS   =   50.2022 A
 VDW_CNRADIUS =   21.1671 A
 Edisp (eV)   -0.00729

 E6    (eV) :    -0.0052
 E8    (eV) :    -0.0021
 % E8        : 28.12
    FORVDW:  cpu time      0.0056: real time      0.0056

  FORCE on cell =-STRESS in cart. coord.  units (eV):
  Direction    XX          YY          ZZ          XY          YZ          ZX
  --------------------------------------------------------------------------------------
  Alpha Z     0.08965     0.08965     0.08965
  Ewald     451.48731   -67.80494   -67.80494    -0.00000    -0.00000     0.00000
  Hartree   470.45338   280.15835   280.15835    -0.00000    -0.00000    -0.00000
  E(xc)     -60.71378   -62.20958   -62.20958    -0.00000     0.00000    -0.00000
  Local   -1169.91854  -535.79244  -535.79244     0.00000    -0.00000     0.00000
  n-local    41.07635    45.54395    45.54395     0.00000     0.00000     0.00000
  augment    28.95682    36.09402    36.09402     0.00000     0.00000     0.00000
  Kinetic   266.25384   295.78605   295.78605    -0.00000    -0.00000     0.00000
  Fock        0.00000     0.00000     0.00000     0.00000     0.00000     0.00000
  vdW        -0.00005    -0.00003    -0.00003    -0.00000     0.00000    -0.00000
  -------------------------------------------------------------------------------------
  Total      27.68499    -8.13495    -8.13495     0.00000     0.00000     0.00000
  in kB      14.54960    -4.27525    -4.27525     0.00000     0.00000     0.00000
  external pressure =        2.00 kB  Pullay stress =        0.00 kB


 VOLUME and BASIS-vectors are now :
 -----------------------------------------------------------------------------
  energy-cutoff  :      360.00
  volume of cell :     3048.63
      direct lattice vectors                 reciprocal lattice vectors
    14.500000000  0.000000000  0.000000000     0.068965517  0.000000000  0.000000000
     0.000000000 14.500000000  0.000000000     0.000000000  0.068965517  0.000000000
     0.000000000  0.000000000 14.500000000     0.000000000  0.000000000  0.068965517

  length of vectors
    14.500000000 14.500000000 14.500000000     0.068965517  0.068965517  0.068965517


 FORCES acting on ions
    electron-ion (+dipol)            ewald-force                    non-local-force                 convergence-correction
 -----------------------------------------------------------------------------------------------
   0.414E+03 -.542E-15 0.102E-13   -.518E+03 0.184E-16 -.190E-16   0.667E+02 0.000E+00 -.517E-25   -.250E-05 0.772E-14 -.985E-14
   -.414E+03 0.131E-14 -.493E-04   0.518E+03 0.363E-16 0.556E-17   -.667E+02 0.000E+00 0.103E-24   0.250E-05 0.152E-13 -.615E-14
 -----------------------------------------------------------------------------------------------
   -.468E-03 0.766E-15 -.493E-04   0.000E+00 0.547E-16 -.135E-16   0.142E-13 0.000E+00 0.517E-25   -.704E-09 0.229E-13 -.160E-13
 
 
 POSITION                                       TOTAL-FORCE (eV/Angst)
 -----------------------------------------------------------------------------------
      0.00000      0.00000      0.00000       -37.190419     -0.000000      0.000000
      1.00000      0.00000      0.00000        37.190419      0.000000     -0.000000
 -----------------------------------------------------------------------------------
    total drift:                               -0.000468      0.000000     -0.000049


--------------------------------------------------------------------------------------------------------



  FREE ENERGIE OF THE ION-ELECTRON SYSTEM (eV)
  ---------------------------------------------------
  free  energy   TOTEN  =        -4.87386137 eV

  energy  without entropy=       -4.81744241  energy(sigma->0) =       -4.84565189
 


--------------------------------------------------------------------------------------------------------


    POTLOK:  cpu time      4.2857: real time      2.1514


--------------------------------------------------------------------------------------------------------


     LOOP+:  cpu time    274.8220: real time    141.8802
    4ORBIT:  cpu time      0.0000: real time      0.0000

 total amount of memory used by VASP MPI-rank0    87970. kBytes
=======================================================================

   base      :      30000. kBytes
   nonlr-proj:       2529. kBytes
   fftplans  :      17290. kBytes
   grid      :      36592. kBytes
   one-center:         46. kBytes
   wavefun   :       1513. kBytes
 
  
  
 General timing and accounting informations for this job:
 ========================================================
  
                  Total CPU time used (sec):      321.065
                            User time (sec):      242.025
                          System time (sec):       79.039
                         Elapsed time (sec):      163.697
  
                   Maximum memory used (kb):      199276.
                   Average memory used (kb):          N/A
  
                          Minor page faults:       345821
                          Major page faults:          947
                 Voluntary context switches:        20173
