<?xml version="1.0" encoding="ISO-8859-1"?>
<modeling>
 <generator>
  <i name="program" type="string">vasp </i>
  <i name="version" type="string">6.3.1  </i>
  <i name="subversion" type="string">04May22 (build Jun 29 2022 13:52:15) complex                          parallel </i>
  <i name="platform" type="string">LinuxNV </i>
  <i name="date" type="string">2022 10 06 </i>
  <i name="time" type="string">10:02:18 </i>
 </generator>
 <incar>
  <i type="string" name="SYSTEM">NiAl</i>
  <i type="int" name="ISTART">     0</i>
  <i type="int" name="NELMIN">     6</i>
  <i name="EDIFF">      0.00000010</i>
  <i name="ENCUT">    360.00000000</i>
  <i type="string" name="LREAL">Auto</i>
  <i type="logical" name="LPLANE"> T  </i>
  <i type="int" name="ISMEAR">     0</i>
  <i name="SIGMA">      0.05000000</i>
  <i type="logical" name="LWAVE"> F  </i>
  <i type="logical" name="LCHARG"> F  </i>
  <i type="int" name="IVDW">    12</i>
 </incar>
 <primitive_cell>
  <structure name="primitive_cell" >
   <crystal>
    <varray name="basis" >
     <v>      14.50000000       0.00000000       0.00000000 </v>
     <v>       0.00000000      14.50000000       0.00000000 </v>
     <v>       0.00000000       0.00000000      14.50000000 </v>
    </varray>
    <i name="volume">   3048.62500000 </i>
    <varray name="rec_basis" >
     <v>       0.06896552       0.00000000       0.00000000 </v>
     <v>       0.00000000       0.06896552       0.00000000 </v>
     <v>       0.00000000       0.00000000       0.06896552 </v>
    </varray>
   </crystal>
   <varray name="positions" >
    <v>       0.00000000       0.00000000       0.00000000 </v>
    <v>       0.06896552       0.00000000       0.00000000 </v>
   </varray>
  </structure>
  <varray name="primitive_index" >
   <v type="int" >        1 </v>
   <v type="int" >        2 </v>
  </varray>
 </primitive_cell>
 <kpoints>
  <generation param="Gamma">
   <v type="int" name="divisions">       1        1        1 </v>
   <v name="usershift">      0.00000000       0.00000000       0.00000000 </v>
   <v name="genvec1">      1.00000000       0.00000000       0.00000000 </v>
   <v name="genvec2">      0.00000000       1.00000000       0.00000000 </v>
   <v name="genvec3">      0.00000000       0.00000000       1.00000000 </v>
   <v name="shift">      0.00000000       0.00000000       0.00000000 </v>
  </generation>
  <varray name="kpointlist" >
   <v>       0.00000000       0.00000000       0.00000000 </v>
  </varray>
  <varray name="weights" >
   <v>       1.00000000 </v>
  </varray>
 </kpoints>
 <parameters>
  <separator name="general" >
   <i type="string" name="SYSTEM">NiAl</i>
   <i type="logical" name="LCOMPAT"> F  </i>
  </separator>
  <separator name="electronic" >
   <i type="string" name="PREC">normal</i>
   <i name="ENMAX">    360.00000000</i>
   <i name="ENAUG">   1139.60900000</i>
   <i name="EDIFF">      0.00000010</i>
   <i type="int" name="IALGO">    38</i>
   <i type="int" name="IWAVPR">    10</i>
   <i type="int" name="NBANDS">    12</i>
   <i type="int" name="NBANDSLOW">    -1</i>
   <i type="int" name="NBANDSHIGH">    -1</i>
   <i name="NELECT">     12.00000000</i>
   <i type="int" name="TURBO">     0</i>
   <i type="int" name="IRESTART">     0</i>
   <i type="int" name="NREBOOT">     0</i>
   <i type="int" name="NMIN">     0</i>
   <i name="EREF">      0.00000000</i>
   <separator name="electronic smearing" >
    <i type="int" name="ISMEAR">     0</i>
    <i name="SIGMA">      0.05000000</i>
    <i name="KSPACING">      0.50000000</i>
    <i type="logical" name="KGAMMA"> T  </i>
    <i type="logical" name="KBLOWUP"> T  </i>
   </separator>
   <separator name="electronic projectors" >
    <i type="logical" name="LREAL"> T  </i>
    <v name="ROPT">     -0.00050000</v>
    <i type="int" name="LMAXPAW">  -100</i>
    <i type="int" name="LMAXMIX">     2</i>
    <i type="logical" name="NLSPLINE"> F  </i>
   </separator>
   <separator name="electronic startup" >
    <i type="int" name="ISTART">     0</i>
    <i type="int" name="ICHARG">     2</i>
    <i type="int" name="INIWAV">     1</i>
   </separator>
   <separator name="electronic spin" >
    <i type="int" name="ISPIN">     1</i>
    <i type="logical" name="LNONCOLLINEAR"> F  </i>
    <v name="MAGMOM">      1.00000000      1.00000000</v>
    <i name="NUPDOWN">     -1.00000000</i>
    <i type="logical" name="LSORBIT"> F  </i>
    <v name="SAXIS">      0.00000000      0.00000000      1.00000000</v>
    <i type="logical" name="LSPIRAL"> F  </i>
    <v name="QSPIRAL">      0.00000000      0.00000000      0.00000000</v>
    <i type="logical" name="LZEROZ"> F  </i>
   </separator>
   <separator name="electronic exchange-correlation" >
    <i type="logical" name="LASPH"> F  </i>
    <i type="logical" name="LMETAGGA"> F  </i>
   </separator>
   <separator name="electronic convergence" >
    <i type="int" name="NELM">    60</i>
    <i type="int" name="NELMDL">    -5</i>
    <i type="int" name="NELMIN">     6</i>
    <i name="ENINI">    360.00000000</i>
    <separator name="electronic convergence detail" >
     <i type="logical" name="LDIAG"> T  </i>
     <i type="logical" name="LSUBROT"> F  </i>
     <i name="WEIMIN">      0.00000000</i>
     <i name="EBREAK">      0.00000000</i>
     <i name="DEPER">      0.30000000</i>
     <i type="int" name="NRMM">     4</i>
     <i name="TIME">      0.40000000</i>
    </separator>
   </separator>
   <separator name="electronic mixer" >
    <i name="AMIX">      0.40000000</i>
    <i name="BMIX">      1.00000000</i>
    <i name="AMIN">      0.10000000</i>
    <i name="AMIX_MAG">      1.60000000</i>
    <i name="BMIX_MAG">      1.00000000</i>
    <separator name="electronic mixer details" >
     <i type="int" name="IMIX">     4</i>
     <i type="logical" name="MIXFIRST"> F  </i>
     <i type="int" name="MAXMIX">   -45</i>
     <i name="WC">    100.00000000</i>
     <i type="int" name="INIMIX">     1</i>
     <i type="int" name="MIXPRE">     1</i>
     <i type="int" name="MREMOVE">     5</i>
    </separator>
   </separator>
   <separator name="electronic dipolcorrection" >
    <i type="logical" name="LDIPOL"> F  </i>
    <i type="logical" name="LMONO"> F  </i>
    <i type="int" name="IDIPOL">     0</i>
    <i name="EPSILON">      1.00000000</i>
    <v name="DIPOL">   -100.00000000   -100.00000000   -100.00000000</v>
    <i name="EFIELD">      0.00000000</i>
   </separator>
  </separator>
  <separator name="grids" >
   <i type="int" name="NGX">    70</i>
   <i type="int" name="NGY">    70</i>
   <i type="int" name="NGZ">    70</i>
   <i type="int" name="NGXF">   140</i>
   <i type="int" name="NGYF">   140</i>
   <i type="int" name="NGZF">   140</i>
   <i type="logical" name="ADDGRID"> F  </i>
  </separator>
  <separator name="ionic" >
   <i type="int" name="NSW">     0</i>
   <i type="int" name="IBRION">    -1</i>
   <i type="int" name="MDALGO">     0</i>
   <i type="int" name="ISIF">     2</i>
   <i name="PSTRESS">      0.00000000</i>
   <i name="EDIFFG">      0.00000100</i>
   <i type="int" name="NFREE">     0</i>
   <i name="POTIM">      0.50000000</i>
   <i name="SMASS">     -3.00000000</i>
   <i name="SCALEE">      1.00000000</i>
  </separator>
  <separator name="ionic md" >
   <i name="TEBEG">      0.00010000</i>
   <i name="TEEND">      0.00010000</i>
   <i type="int" name="NBLOCK">     1</i>
   <i type="int" name="KBLOCK">     1</i>
   <i type="int" name="NPACO">   256</i>
   <i name="APACO">     10.00000000</i>
  </separator>
  <separator name="symmetry" >
   <i type="int" name="ISYM">     2</i>
   <i name="SYMPREC">      0.00001000</i>
  </separator>
  <separator name="dos" >
   <i type="int" name="LORBIT">     0</i>
   <v name="RWIGS">     -1.00000000</v>
   <i type="int" name="NEDOS">   301</i>
   <i name="EMIN">     10.00000000</i>
   <i name="EMAX">    -10.00000000</i>
   <i name="EFERMI">      0.00000000</i>
  </separator>
  <separator name="writing" >
   <i type="int" name="NWRITE">     2</i>
   <i type="logical" name="LWAVE"> F  </i>
   <i type="logical" name="LDOWNSAMPLE"> F  </i>
   <i type="logical" name="LCHARG"> F  </i>
   <i type="logical" name="LPARD"> F  </i>
   <i type="logical" name="LVTOT"> F  </i>
   <i type="logical" name="LVHAR"> F  </i>
   <i type="logical" name="LELF"> F  </i>
   <i type="logical" name="LOPTICS"> F  </i>
   <v name="STM">      0.00000000      0.00000000      0.00000000      0.00000000      0.00000000      0.00000000      0.00000000</v>
  </separator>
  <separator name="performance" >
   <i type="int" name="NPAR">     6</i>
   <i type="int" name="NSIM">     4</i>
   <i type="int" name="NBLK">    -1</i>
   <i type="logical" name="LPLANE"> T  </i>
   <i type="logical" name="LSCALAPACK"> T  </i>
   <i type="logical" name="LSCAAWARE"> F  </i>
   <i type="logical" name="LSCALU"> F  </i>
   <i type="logical" name="LASYNC"> F  </i>
   <i type="logical" name="LORBITALREAL"> F  </i>
  </separator>
  <separator name="miscellaneous" >
   <i type="int" name="IDIOT">     3</i>
   <i type="int" name="PHON_NSTRUCT">    -1</i>
   <i type="logical" name="LMUSIC"> F  </i>
   <v name="POMASS">     16.00000000</v>
   <v name="DARWINR">      0.00000000</v>
   <v name="DARWINV">      1.00000000</v>
   <i type="logical" name="LCORR"> T  </i>
  </separator>
  <i type="logical" name="GGA_COMPAT"> T  </i>
  <i type="logical" name="LBERRY"> F  </i>
  <i type="int" name="ICORELEVEL">     0</i>
  <i type="logical" name="LDAU"> F  </i>
  <i type="int" name="I_CONSTRAINED_M">     0</i>
  <separator name="electronic exchange-correlation" >
   <i type="string" name="GGA">--</i>
   <i type="int" name="VOSKOWN">     0</i>
   <i type="logical" name="LHFCALC"> F  </i>
   <i type="string" name="PRECFOCK"></i>
   <i type="logical" name="LSYMGRAD"> F  </i>
   <i type="logical" name="LHFONE"> F  </i>
   <i type="logical" name="LRHFCALC"> F  </i>
   <i type="logical" name="LTHOMAS"> F  </i>
   <i type="logical" name="LMODELHF"> F  </i>
   <i type="logical" name="LFOCKACE"> F  </i>
   <i name="ENCUT4O">     -1.00000000</i>
   <i type="int" name="EXXOEP">     0</i>
   <i type="int" name="FOURORBIT">     0</i>
   <i name="AEXX">      0.00000000</i>
   <i name="HFALPHA">      0.00000000</i>
   <i name="MCALPHA">      0.00000000</i>
   <i name="ALDAX">      1.00000000</i>
   <i name="AGGAX">      1.00000000</i>
   <i name="ALDAC">      1.00000000</i>
   <i name="AGGAC">      1.00000000</i>
   <i type="int" name="NKREDX">     1</i>
   <i type="int" name="NKREDY">     1</i>
   <i type="int" name="NKREDZ">     1</i>
   <i type="logical" name="SHIFTRED"> F  </i>
   <i type="logical" name="ODDONLY"> F  </i>
   <i type="logical" name="EVENONLY"> F  </i>
   <i type="int" name="LMAXFOCK">     0</i>
   <i type="int" name="NMAXFOCKAE">     0</i>
   <i type="logical" name="LFOCKAEDFT"> F  </i>
   <i name="HFSCREEN">      0.00000000</i>
   <i name="HFSCREENC">      0.00000000</i>
   <i type="int" name="NBANDSGWLOW">     0</i>
  </separator>
  <separator name="vdW DFT" >
   <i type="logical" name="LUSE_VDW"> F  </i>
   <i name="Zab_VDW">     -0.84910000</i>
   <i name="PARAM1">      0.12340000</i>
   <i name="PARAM2">      1.00000000</i>
   <i name="PARAM3">      0.00000000</i>
  </separator>
  <separator name="model GW" >
   <i type="int" name="MODEL_GW">     0</i>
   <i name="MODEL_EPS0">    914.58750000</i>
   <i name="MODEL_ALPHA">      1.00000000</i>
  </separator>
  <separator name="linear response parameters" >
   <i type="logical" name="LEPSILON"> F  </i>
   <i type="logical" name="LRPA"> F  </i>
   <i type="logical" name="LNABLA"> F  </i>
   <i type="logical" name="LVEL"> F  </i>
   <i name="CSHIFT">      0.10000000</i>
   <i name="OMEGAMAX">     -1.00000000</i>
   <i name="DEG_THRESHOLD">      0.00200000</i>
   <i name="RTIME">     -0.10000000</i>
   <i name="WPLASMAI">      0.00000000</i>
   <v name="DFIELD">      0.00000000      0.00000000      0.00000000</v>
   <v name="WPLASMA">      0.00000000      0.00000000      0.00000000      0.00000000      0.00000000      0.00000000      0.00000000      0.00000000      0.00000000</v>
  </separator>
  <separator name="orbital magnetization" >
   <i type="logical" name="NUCIND"> F  </i>
   <v name="MAGPOS">      0.00000000      0.00000000      0.00000000</v>
   <i type="logical" name="LNICSALL"> T  </i>
   <i type="logical" name="ORBITALMAG"> F  </i>
   <i type="logical" name="LMAGBLOCH"> F  </i>
   <i type="logical" name="LCHIMAG"> F  </i>
   <i type="logical" name="LGAUGE"> T  </i>
   <i type="int" name="MAGATOM">     0</i>
   <v name="MAGDIPOL">      0.00000000      0.00000000      0.00000000</v>
   <v name="AVECCONST">      0.00000000      0.00000000      0.00000000</v>
  </separator>
  <separator name="response functions" >
   <i type="logical" name="LFINITE_TEMPERATURE"> F  </i>
   <i type="logical" name="LADDER"> F  </i>
   <i type="logical" name="LRPAFORCE"> F  </i>
   <i type="logical" name="LFXC"> F  </i>
   <i type="logical" name="LHARTREE"> T  </i>
   <i type="int" name="IBSE">     0</i>
   <v type="int" name="KPOINT">    -1     0     0     0</v>
   <i type="logical" name="LTCTC"> F  </i>
   <i type="logical" name="LTCTE"> F  </i>
   <i type="logical" name="LTETE"> F  </i>
   <i type="logical" name="LTRIPLET"> F  </i>
   <i type="logical" name="LFXCEPS"> F  </i>
   <i type="logical" name="LFXHEG"> F  </i>
   <i type="int" name="NATURALO">     2</i>
   <i type="logical" name="LHOLEGF"> F  </i>
   <i type="logical" name="L2ORDER"> F  </i>
   <i type="logical" name="LDMP1"> F  </i>
   <i type="logical" name="LMP2LT"> F  </i>
   <i type="logical" name="LSMP2LT"> F  </i>
   <i type="logical" name="LGWLF"> F  </i>
   <i name="ENCUTGW">     -2.00000000</i>
   <i name="ENCUTGWSOFT">     -2.00000000</i>
   <i name="ENCUTLF">     -1.00000000</i>
   <i type="logical" name="LESF_SPLINES"> F  </i>
   <i type="int" name="LMAXMP2">    -1</i>
   <i name="SCISSOR">      0.00000000</i>
   <i type="int" name="NOMEGA">     0</i>
   <i type="int" name="NOMEGAR">     0</i>
   <i type="int" name="NBANDSGW">    -1</i>
   <i type="int" name="NBANDSO">    -1</i>
   <i type="int" name="NBANDSV">    -1</i>
   <i type="int" name="NELMGW">     1</i>
   <i type="int" name="NELMHF">     1</i>
   <i type="int" name="DIM">     3</i>
   <i type="int" name="IESPILON">     4</i>
   <i type="int" name="ANTIRES">     0</i>
   <i name="OMEGAMAX">    -30.00000000</i>
   <i name="OMEGAMIN">    -30.00000000</i>
   <i name="OMEGATL">   -200.00000000</i>
   <i type="int" name="OMEGAGRID">     0</i>
   <i name="CSHIFT">     -0.10000000</i>
   <i type="logical" name="LSELFENERGY"> F  </i>
   <i type="logical" name="LSPECTRAL"> F  </i>
   <i type="logical" name="LSPECTRALGW"> F  </i>
   <i type="logical" name="LSINGLES"> F  </i>
   <i type="logical" name="LFERMIGW"> F  </i>
   <i type="logical" name="ODDONLYGW"> F  </i>
   <i type="logical" name="EVENONLYGW"> F  </i>
   <i type="int" name="NKREDLFX">     1</i>
   <i type="int" name="NKREDLFY">     1</i>
   <i type="int" name="NKREDLFZ">     1</i>
   <i type="int" name="MAXMEM">  2800</i>
   <i type="int" name="TELESCOPE">     0</i>
   <i type="int" name="NTAUPAR">    -1</i>
   <i type="int" name="NOMEGAPAR">    -1</i>
   <i name="DAMP_NEWTON">      0.80000001</i>
   <i name="LAMBDA">      1.00000000</i>
  </separator>
  <separator name="External order field" >
   <i name="OFIELD_KAPPA">      0.00000000</i>
   <v name="OFIELD_K">      0.00000000      0.00000000      0.00000000</v>
   <i name="OFIELD_Q6_NEAR">      0.00000000</i>
   <i name="OFIELD_Q6_FAR">      0.00000000</i>
   <i name="OFIELD_A">      0.00000000</i>
  </separator>
  <separator name="optional k-points parameters" >
   <i type="int" name="KPOINTS_OPT_MODE">     1</i>
   <i type="logical" name="LKPOINTS_OPT"> F  </i>
  </separator>
 </parameters>
 <atominfo>
  <atoms>       2 </atoms>
  <types>       1 </types>
  <array name="atoms" >
   <dimension dim="1">ion</dimension>
   <field type="string">element</field>
   <field type="int">atomtype</field>
   <set>
    <rc><c>O </c><c>   1</c></rc>
    <rc><c>O </c><c>   1</c></rc>
   </set>
  </array>
  <array name="atomtypes" >
   <dimension dim="1">type</dimension>
   <field type="int">atomspertype</field>
   <field type="string">element</field>
   <field>mass</field>
   <field>valence</field>
   <field type="string">pseudopotential</field>
   <set>
    <rc><c>   2</c><c>O </c><c>     16.00000000</c><c>      6.00000000</c><c>  PAW O_GW 19Mar2012                    </c></rc>
   </set>
  </array>
 </atominfo>
 <structure name="initialpos" >
  <crystal>
   <varray name="basis" >
    <v>      14.50000000       0.00000000       0.00000000 </v>
    <v>       0.00000000      14.50000000       0.00000000 </v>
    <v>       0.00000000       0.00000000      14.50000000 </v>
   </varray>
   <i name="volume">   3048.62500000 </i>
   <varray name="rec_basis" >
    <v>       0.06896552       0.00000000       0.00000000 </v>
    <v>       0.00000000       0.06896552       0.00000000 </v>
    <v>       0.00000000       0.00000000       0.06896552 </v>
   </varray>
  </crystal>
  <varray name="positions" >
   <v>       0.00000000       0.00000000       0.00000000 </v>
   <v>       0.06896552       0.00000000       0.00000000 </v>
  </varray>
 </structure>
 <calculation>
  <scstep>
   <time name="dav">    9.57    4.78</time>
   <time name="total">   13.32    6.80</time>
   <energy>
    <i name="alphaZ">      0.08965302 </i>
    <i name="ewald">    315.87742977 </i>
    <i name="hartreedc">  -1015.09216102 </i>
    <i name="XCdc">     52.62487888 </i>
    <i name="pawpsdc">    698.30301748 </i>
    <i name="pawaedc">   -696.69629178 </i>
    <i name="eentropy">     -0.00000000 </i>
    <i name="bandstr">   -147.53194479 </i>
    <i name="atom">    863.97502114 </i>
    <i name="e_fr_energy">     71.54960272 </i>
    <i name="e_wo_entrp">     71.54960272 </i>
    <i name="e_0_energy">     71.54960272 </i>
   </energy>
  </scstep>
  <scstep>
   <time name="dav">    6.68    3.58</time>
   <time name="total">    6.68    3.58</time>
   <energy>
    <i name="e_fr_energy">      7.53741485 </i>
    <i name="e_wo_entrp">      7.53741485 </i>
    <i name="e_0_energy">      7.53741485 </i>
   </energy>
  </scstep>
  <scstep>
   <time name="dav">    5.83    2.77</time>
   <time name="total">    5.83    2.78</time>
   <energy>
    <i name="e_fr_energy">      4.09660774 </i>
    <i name="e_wo_entrp">      4.09660774 </i>
    <i name="e_0_energy">      4.09660774 </i>
   </energy>
  </scstep>
  <scstep>
   <time name="dav">    9.00    4.71</time>
   <time name="total">    9.00    4.71</time>
   <energy>
    <i name="e_fr_energy">     -3.78103966 </i>
    <i name="e_wo_entrp">     -3.78103946 </i>
    <i name="e_0_energy">     -3.78103956 </i>
   </energy>
  </scstep>
  <scstep>
   <time name="dav">    5.38    2.72</time>
   <time name="total">    7.28    3.72</time>
   <energy>
    <i name="e_fr_energy">     -5.33017395 </i>
    <i name="e_wo_entrp">     -5.27494649 </i>
    <i name="e_0_energy">     -5.30256022 </i>
   </energy>
  </scstep>
  <scstep>
   <time name="dav">    6.91    3.74</time>
   <time name="total">   11.98    6.38</time>
   <energy>
    <i name="e_fr_energy">     -4.89605544 </i>
    <i name="e_wo_entrp">     -4.83963835 </i>
    <i name="e_0_energy">     -4.86784689 </i>
   </energy>
  </scstep>
  <scstep>
   <time name="dav">    5.61    2.75</time>
   <time name="total">   11.65    5.74</time>
   <energy>
    <i name="e_fr_energy">     -4.87437504 </i>
    <i name="e_wo_entrp">     -4.81795661 </i>
    <i name="e_0_energy">     -4.84616583 </i>
   </energy>
  </scstep>
  <scstep>
   <time name="dav">    5.37    2.65</time>
   <time name="total">   11.24    5.56</time>
   <energy>
    <i name="e_fr_energy">     -4.86202875 </i>
    <i name="e_wo_entrp">     -4.80560981 </i>
    <i name="e_0_energy">     -4.83381928 </i>
   </energy>
  </scstep>
  <scstep>
   <time name="dav">    5.11    2.61</time>
   <time name="total">   10.53    5.38</time>
   <energy>
    <i name="e_fr_energy">     -4.86363847 </i>
    <i name="e_wo_entrp">     -4.80721952 </i>
    <i name="e_0_energy">     -4.83542900 </i>
   </energy>
  </scstep>
  <scstep>
   <time name="dav">    6.85    3.46</time>
   <time name="total">   12.10    6.18</time>
   <energy>
    <i name="e_fr_energy">     -4.86520290 </i>
    <i name="e_wo_entrp">     -4.80878394 </i>
    <i name="e_0_energy">     -4.83699342 </i>
   </energy>
  </scstep>
  <scstep>
   <time name="dav">    7.01    3.61</time>
   <time name="total">   12.32    6.31</time>
   <energy>
    <i name="e_fr_energy">     -4.86539036 </i>
    <i name="e_wo_entrp">     -4.80897140 </i>
    <i name="e_0_energy">     -4.83718088 </i>
   </energy>
  </scstep>
  <scstep>
   <time name="dav">    7.17    3.61</time>
   <time name="total">   12.69    6.48</time>
   <energy>
    <i name="e_fr_energy">     -4.86574526 </i>
    <i name="e_wo_entrp">     -4.80932631 </i>
    <i name="e_0_energy">     -4.83753579 </i>
   </energy>
  </scstep>
  <scstep>
   <time name="dav">    7.25    3.78</time>
   <time name="total">   13.61    6.73</time>
   <energy>
    <i name="e_fr_energy">     -4.86626919 </i>
    <i name="e_wo_entrp">     -4.80985023 </i>
    <i name="e_0_energy">     -4.83805971 </i>
   </energy>
  </scstep>
  <scstep>
   <time name="dav">    7.56    3.60</time>
   <time name="total">   13.29    6.41</time>
   <energy>
    <i name="e_fr_energy">     -4.86641139 </i>
    <i name="e_wo_entrp">     -4.80999243 </i>
    <i name="e_0_energy">     -4.83820191 </i>
   </energy>
  </scstep>
  <scstep>
   <time name="dav">    7.85    3.77</time>
   <time name="total">   13.04    6.57</time>
   <energy>
    <i name="e_fr_energy">     -4.86649378 </i>
    <i name="e_wo_entrp">     -4.81007483 </i>
    <i name="e_0_energy">     -4.83828431 </i>
   </energy>
  </scstep>
  <scstep>
   <time name="dav">    5.17    2.64</time>
   <time name="total">   11.19    5.64</time>
   <energy>
    <i name="e_fr_energy">     -4.86653768 </i>
    <i name="e_wo_entrp">     -4.81011872 </i>
    <i name="e_0_energy">     -4.83832820 </i>
   </energy>
  </scstep>
  <scstep>
   <time name="dav">    5.27    2.92</time>
   <time name="total">   10.64    5.76</time>
   <energy>
    <i name="e_fr_energy">     -4.86655741 </i>
    <i name="e_wo_entrp">     -4.81013845 </i>
    <i name="e_0_energy">     -4.83834793 </i>
   </energy>
  </scstep>
  <scstep>
   <time name="dav">    7.16    3.97</time>
   <time name="total">   12.32    6.64</time>
   <energy>
    <i name="e_fr_energy">     -4.86656318 </i>
    <i name="e_wo_entrp">     -4.81014422 </i>
    <i name="e_0_energy">     -4.83835370 </i>
   </energy>
  </scstep>
  <scstep>
   <time name="dav">    7.95    4.58</time>
   <time name="total">   13.75    8.16</time>
   <energy>
    <i name="e_fr_energy">     -4.86656911 </i>
    <i name="e_wo_entrp">     -4.81015015 </i>
    <i name="e_0_energy">     -4.83835963 </i>
   </energy>
  </scstep>
  <scstep>
   <time name="dav">    7.14    3.62</time>
   <time name="total">   12.56    6.60</time>
   <energy>
    <i name="e_fr_energy">     -4.86657020 </i>
    <i name="e_wo_entrp">     -4.81015124 </i>
    <i name="e_0_energy">     -4.83836072 </i>
   </energy>
  </scstep>
  <scstep>
   <time name="dav">    7.52    3.88</time>
   <time name="total">   13.36    6.74</time>
   <energy>
    <i name="e_fr_energy">     -4.86657071 </i>
    <i name="e_wo_entrp">     -4.81015175 </i>
    <i name="e_0_energy">     -4.83836123 </i>
   </energy>
  </scstep>
  <scstep>
   <time name="dav">    7.02    3.52</time>
   <time name="total">   12.41    6.34</time>
   <energy>
    <i name="e_fr_energy">     -4.86657083 </i>
    <i name="e_wo_entrp">     -4.81015187 </i>
    <i name="e_0_energy">     -4.83836135 </i>
   </energy>
  </scstep>
  <scstep>
   <time name="dav">    5.32    2.65</time>
   <time name="total">    8.53    4.61</time>
   <energy>
    <i name="alphaZ">      0.08965302 </i>
    <i name="ewald">    315.87742977 </i>
    <i name="hartreedc">  -1030.77013140 </i>
    <i name="XCdc">     53.70176054 </i>
    <i name="pawpsdc">   3564.29073713 </i>
    <i name="pawaedc">  -3563.32849730 </i>
    <i name="eentropy">     -0.05641896 </i>
    <i name="bandstr">   -208.64612480 </i>
    <i name="atom">    863.97502114 </i>
    <i name="e_fr_energy">     -4.86657085 </i>
    <i name="e_wo_entrp">     -4.81015189 </i>
    <i name="e_0_energy">     -4.83836137 </i>
   </energy>
  </scstep>
  <structure>
   <crystal>
    <varray name="basis" >
     <v>      14.50000000       0.00000000       0.00000000 </v>
     <v>       0.00000000      14.50000000       0.00000000 </v>
     <v>       0.00000000       0.00000000      14.50000000 </v>
    </varray>
    <i name="volume">   3048.62500000 </i>
    <varray name="rec_basis" >
     <v>       0.06896552       0.00000000       0.00000000 </v>
     <v>       0.00000000       0.06896552       0.00000000 </v>
     <v>       0.00000000       0.00000000       0.06896552 </v>
    </varray>
   </crystal>
   <varray name="positions" >
    <v>       0.00000000       0.00000000       0.00000000 </v>
    <v>       0.06896552       0.00000000       0.00000000 </v>
   </varray>
  </structure>
  <varray name="forces" >
   <v>     -37.19041881      -0.00000000       0.00000000 </v>
   <v>      37.19041881       0.00000000      -0.00000000 </v>
  </varray>
  <varray name="stress" >
   <v>      14.54959532      -0.00000000       0.00000000 </v>
   <v>       0.00000000      -4.27524846       0.00000000 </v>
   <v>       0.00000000       0.00000000      -4.27524846 </v>
  </varray>
  <energy>
   <i name="e_fr_energy">     -4.87386137 </i>
   <i name="e_wo_entrp">     -4.81744241 </i>
   <i name="e_0_energy">     -4.84565189 </i>
  </energy>
  <time name="totalsc">  274.82  141.88</time>
  <eigenvalues>
   <array>
    <dimension dim="1">band</dimension>
    <dimension dim="2">kpoint</dimension>
    <dimension dim="3">spin</dimension>
    <field>eigene</field>
    <field>occ</field>
    <set>
     <set comment="spin 1">
      <set comment="kpoint 1">
       <r>  -38.0213    1.0000 </r>
       <r>  -18.2453    1.0000 </r>
       <r>  -15.3271    1.0000 </r>
       <r>  -15.3271    1.0000 </r>
       <r>  -13.7136    1.0000 </r>
       <r>   -3.6886    0.5000 </r>
       <r>   -3.6886    0.5000 </r>
       <r>   -0.2803    0.0000 </r>
       <r>    0.3311    0.0000 </r>
       <r>    0.4647    0.0000 </r>
       <r>    0.4660    0.0000 </r>
       <r>    0.4660    0.0000 </r>
      </set>
     </set>
    </set>
   </array>
  </eigenvalues>
  <separator name="orbital magnetization" >
   <v name="MAGDIPOLOUT">      0.00000000      0.00000000      0.00000000</v>
  </separator>
  <dos>
   <i name="efermi">     -3.68861049 </i>
   <total>
    <array>
     <dimension dim="1">gridpoints</dimension>
     <dimension dim="2">spin</dimension>
     <field>energy</field>
     <field>total</field>
     <field>integrated</field>
     <set>
      <set comment="spin 1">
       <r>   -39.9457     0.0000     0.0000 </r>
       <r>   -39.8046     0.0000     0.0000 </r>
       <r>   -39.6635     0.0000     0.0000 </r>
       <r>   -39.5223     0.0000     0.0000 </r>
       <r>   -39.3812     0.0000     0.0000 </r>
       <r>   -39.2401     0.0000     0.0000 </r>
       <r>   -39.0990     0.0000     0.0000 </r>
       <r>   -38.9579     0.0000     0.0000 </r>
       <r>   -38.8167     0.0000     0.0000 </r>
       <r>   -38.6756     0.0000     0.0000 </r>
       <r>   -38.5345     0.0000     0.0000 </r>
       <r>   -38.3934     0.0000     0.0000 </r>
       <r>   -38.2523     0.0000     0.0000 </r>
       <r>   -38.1111     0.0785     0.0111 </r>
       <r>   -37.9700    13.0546     1.8533 </r>
       <r>   -37.8289     1.0392     2.0000 </r>
       <r>   -37.6878     0.0000     2.0000 </r>
       <r>   -37.5467     0.0000     2.0000 </r>
       <r>   -37.4055     0.0000     2.0000 </r>
       <r>   -37.2644     0.0000     2.0000 </r>
       <r>   -37.1233     0.0000     2.0000 </r>
       <r>   -36.9822     0.0000     2.0000 </r>
       <r>   -36.8411     0.0000     2.0000 </r>
       <r>   -36.6999     0.0000     2.0000 </r>
       <r>   -36.5588     0.0000     2.0000 </r>
       <r>   -36.4177     0.0000     2.0000 </r>
       <r>   -36.2766     0.0000     2.0000 </r>
       <r>   -36.1355     0.0000     2.0000 </r>
       <r>   -35.9943     0.0000     2.0000 </r>
       <r>   -35.8532     0.0000     2.0000 </r>
       <r>   -35.7121     0.0000     2.0000 </r>
       <r>   -35.5710     0.0000     2.0000 </r>
       <r>   -35.4299     0.0000     2.0000 </r>
       <r>   -35.2887     0.0000     2.0000 </r>
       <r>   -35.1476     0.0000     2.0000 </r>
       <r>   -35.0065     0.0000     2.0000 </r>
       <r>   -34.8654     0.0000     2.0000 </r>
       <r>   -34.7243     0.0000     2.0000 </r>
       <r>   -34.5831     0.0000     2.0000 </r>
       <r>   -34.4420     0.0000     2.0000 </r>
       <r>   -34.3009     0.0000     2.0000 </r>
       <r>   -34.1598     0.0000     2.0000 </r>
       <r>   -34.0187     0.0000     2.0000 </r>
       <r>   -33.8775     0.0000     2.0000 </r>
       <r>   -33.7364     0.0000     2.0000 </r>
       <r>   -33.5953     0.0000     2.0000 </r>
       <r>   -33.4542     0.0000     2.0000 </r>
       <r>   -33.3131     0.0000     2.0000 </r>
       <r>   -33.1719     0.0000     2.0000 </r>
       <r>   -33.0308     0.0000     2.0000 </r>
       <r>   -32.8897     0.0000     2.0000 </r>
       <r>   -32.7486     0.0000     2.0000 </r>
       <r>   -32.6075     0.0000     2.0000 </r>
       <r>   -32.4663     0.0000     2.0000 </r>
       <r>   -32.3252     0.0000     2.0000 </r>
       <r>   -32.1841     0.0000     2.0000 </r>
       <r>   -32.0430     0.0000     2.0000 </r>
       <r>   -31.9019     0.0000     2.0000 </r>
       <r>   -31.7607     0.0000     2.0000 </r>
       <r>   -31.6196     0.0000     2.0000 </r>
       <r>   -31.4785     0.0000     2.0000 </r>
       <r>   -31.3374     0.0000     2.0000 </r>
       <r>   -31.1963     0.0000     2.0000 </r>
       <r>   -31.0551     0.0000     2.0000 </r>
       <r>   -30.9140     0.0000     2.0000 </r>
       <r>   -30.7729     0.0000     2.0000 </r>
       <r>   -30.6318     0.0000     2.0000 </r>
       <r>   -30.4907     0.0000     2.0000 </r>
       <r>   -30.3495     0.0000     2.0000 </r>
       <r>   -30.2084     0.0000     2.0000 </r>
       <r>   -30.0673     0.0000     2.0000 </r>
       <r>   -29.9262     0.0000     2.0000 </r>
       <r>   -29.7851     0.0000     2.0000 </r>
       <r>   -29.6439     0.0000     2.0000 </r>
       <r>   -29.5028     0.0000     2.0000 </r>
       <r>   -29.3617     0.0000     2.0000 </r>
       <r>   -29.2206     0.0000     2.0000 </r>
       <r>   -29.0795     0.0000     2.0000 </r>
       <r>   -28.9383     0.0000     2.0000 </r>
       <r>   -28.7972     0.0000     2.0000 </r>
       <r>   -28.6561     0.0000     2.0000 </r>
       <r>   -28.5150     0.0000     2.0000 </r>
       <r>   -28.3739     0.0000     2.0000 </r>
       <r>   -28.2327     0.0000     2.0000 </r>
       <r>   -28.0916     0.0000     2.0000 </r>
       <r>   -27.9505     0.0000     2.0000 </r>
       <r>   -27.8094     0.0000     2.0000 </r>
       <r>   -27.6683     0.0000     2.0000 </r>
       <r>   -27.5271     0.0000     2.0000 </r>
       <r>   -27.3860     0.0000     2.0000 </r>
       <r>   -27.2449     0.0000     2.0000 </r>
       <r>   -27.1038     0.0000     2.0000 </r>
       <r>   -26.9626     0.0000     2.0000 </r>
       <r>   -26.8215     0.0000     2.0000 </r>
       <r>   -26.6804     0.0000     2.0000 </r>
       <r>   -26.5393     0.0000     2.0000 </r>
       <r>   -26.3982     0.0000     2.0000 </r>
       <r>   -26.2570     0.0000     2.0000 </r>
       <r>   -26.1159     0.0000     2.0000 </r>
       <r>   -25.9748     0.0000     2.0000 </r>
       <r>   -25.8337     0.0000     2.0000 </r>
       <r>   -25.6926     0.0000     2.0000 </r>
       <r>   -25.5514     0.0000     2.0000 </r>
       <r>   -25.4103     0.0000     2.0000 </r>
       <r>   -25.2692     0.0000     2.0000 </r>
       <r>   -25.1281     0.0000     2.0000 </r>
       <r>   -24.9870     0.0000     2.0000 </r>
       <r>   -24.8458     0.0000     2.0000 </r>
       <r>   -24.7047     0.0000     2.0000 </r>
       <r>   -24.5636     0.0000     2.0000 </r>
       <r>   -24.4225     0.0000     2.0000 </r>
       <r>   -24.2814     0.0000     2.0000 </r>
       <r>   -24.1402     0.0000     2.0000 </r>
       <r>   -23.9991     0.0000     2.0000 </r>
       <r>   -23.8580     0.0000     2.0000 </r>
       <r>   -23.7169     0.0000     2.0000 </r>
       <r>   -23.5758     0.0000     2.0000 </r>
       <r>   -23.4346     0.0000     2.0000 </r>
       <r>   -23.2935     0.0000     2.0000 </r>
       <r>   -23.1524     0.0000     2.0000 </r>
       <r>   -23.0113     0.0000     2.0000 </r>
       <r>   -22.8702     0.0000     2.0000 </r>
       <r>   -22.7290     0.0000     2.0000 </r>
       <r>   -22.5879     0.0000     2.0000 </r>
       <r>   -22.4468     0.0000     2.0000 </r>
       <r>   -22.3057     0.0000     2.0000 </r>
       <r>   -22.1646     0.0000     2.0000 </r>
       <r>   -22.0234     0.0000     2.0000 </r>
       <r>   -21.8823     0.0000     2.0000 </r>
       <r>   -21.7412     0.0000     2.0000 </r>
       <r>   -21.6001     0.0000     2.0000 </r>
       <r>   -21.4590     0.0000     2.0000 </r>
       <r>   -21.3178     0.0000     2.0000 </r>
       <r>   -21.1767     0.0000     2.0000 </r>
       <r>   -21.0356     0.0000     2.0000 </r>
       <r>   -20.8945     0.0000     2.0000 </r>
       <r>   -20.7534     0.0000     2.0000 </r>
       <r>   -20.6122     0.0000     2.0000 </r>
       <r>   -20.4711     0.0000     2.0000 </r>
       <r>   -20.3300     0.0000     2.0000 </r>
       <r>   -20.1889     0.0000     2.0000 </r>
       <r>   -20.0478     0.0000     2.0000 </r>
       <r>   -19.9066     0.0000     2.0000 </r>
       <r>   -19.7655     0.0000     2.0000 </r>
       <r>   -19.6244     0.0000     2.0000 </r>
       <r>   -19.4833     0.0000     2.0000 </r>
       <r>   -19.3422     0.0000     2.0000 </r>
       <r>   -19.2010     0.0000     2.0000 </r>
       <r>   -19.0599     0.0000     2.0000 </r>
       <r>   -18.9188     0.0000     2.0000 </r>
       <r>   -18.7777     0.0000     2.0000 </r>
       <r>   -18.6366     0.0000     2.0000 </r>
       <r>   -18.4954     0.0000     2.0000 </r>
       <r>   -18.3543     0.0145     2.0021 </r>
       <r>   -18.2132    11.5824     3.6366 </r>
       <r>   -18.0721     2.5754     4.0000 </r>
       <r>   -17.9310     0.0000     4.0000 </r>
       <r>   -17.7898     0.0000     4.0000 </r>
       <r>   -17.6487     0.0000     4.0000 </r>
       <r>   -17.5076     0.0000     4.0000 </r>
       <r>   -17.3665     0.0000     4.0000 </r>
       <r>   -17.2254     0.0000     4.0000 </r>
       <r>   -17.0842     0.0000     4.0000 </r>
       <r>   -16.9431     0.0000     4.0000 </r>
       <r>   -16.8020     0.0000     4.0000 </r>
       <r>   -16.6609     0.0000     4.0000 </r>
       <r>   -16.5198     0.0000     4.0000 </r>
       <r>   -16.3786     0.0000     4.0000 </r>
       <r>   -16.2375     0.0000     4.0000 </r>
       <r>   -16.0964     0.0000     4.0000 </r>
       <r>   -15.9553     0.0000     4.0000 </r>
       <r>   -15.8142     0.0000     4.0000 </r>
       <r>   -15.6730     0.0000     4.0000 </r>
       <r>   -15.5319     0.0000     4.0000 </r>
       <r>   -15.3908     1.0127     4.1429 </r>
       <r>   -15.2497    26.9266     7.9428 </r>
       <r>   -15.1086     0.4054     8.0000 </r>
       <r>   -14.9674     0.0000     8.0000 </r>
       <r>   -14.8263     0.0000     8.0000 </r>
       <r>   -14.6852     0.0000     8.0000 </r>
       <r>   -14.5441     0.0000     8.0000 </r>
       <r>   -14.4030     0.0000     8.0000 </r>
       <r>   -14.2618     0.0000     8.0000 </r>
       <r>   -14.1207     0.0000     8.0000 </r>
       <r>   -13.9796     0.0000     8.0000 </r>
       <r>   -13.8385     0.0029     8.0004 </r>
       <r>   -13.6974     9.5951     9.3545 </r>
       <r>   -13.5562     4.5742    10.0000 </r>
       <r>   -13.4151     0.0001    10.0000 </r>
       <r>   -13.2740     0.0000    10.0000 </r>
       <r>   -13.1329     0.0000    10.0000 </r>
       <r>   -12.9918     0.0000    10.0000 </r>
       <r>   -12.8506     0.0000    10.0000 </r>
       <r>   -12.7095     0.0000    10.0000 </r>
       <r>   -12.5684     0.0000    10.0000 </r>
       <r>   -12.4273     0.0000    10.0000 </r>
       <r>   -12.2862     0.0000    10.0000 </r>
       <r>   -12.1450     0.0000    10.0000 </r>
       <r>   -12.0039     0.0000    10.0000 </r>
       <r>   -11.8628     0.0000    10.0000 </r>
       <r>   -11.7217     0.0000    10.0000 </r>
       <r>   -11.5806     0.0000    10.0000 </r>
       <r>   -11.4394     0.0000    10.0000 </r>
       <r>   -11.2983     0.0000    10.0000 </r>
       <r>   -11.1572     0.0000    10.0000 </r>
       <r>   -11.0161     0.0000    10.0000 </r>
       <r>   -10.8750     0.0000    10.0000 </r>
       <r>   -10.7338     0.0000    10.0000 </r>
       <r>   -10.5927     0.0000    10.0000 </r>
       <r>   -10.4516     0.0000    10.0000 </r>
       <r>   -10.3105     0.0000    10.0000 </r>
       <r>   -10.1694     0.0000    10.0000 </r>
       <r>   -10.0282     0.0000    10.0000 </r>
       <r>    -9.8871     0.0000    10.0000 </r>
       <r>    -9.7460     0.0000    10.0000 </r>
       <r>    -9.6049     0.0000    10.0000 </r>
       <r>    -9.4638     0.0000    10.0000 </r>
       <r>    -9.3226     0.0000    10.0000 </r>
       <r>    -9.1815     0.0000    10.0000 </r>
       <r>    -9.0404     0.0000    10.0000 </r>
       <r>    -8.8993     0.0000    10.0000 </r>
       <r>    -8.7582     0.0000    10.0000 </r>
       <r>    -8.6170     0.0000    10.0000 </r>
       <r>    -8.4759     0.0000    10.0000 </r>
       <r>    -8.3348     0.0000    10.0000 </r>
       <r>    -8.1937     0.0000    10.0000 </r>
       <r>    -8.0526     0.0000    10.0000 </r>
       <r>    -7.9114     0.0000    10.0000 </r>
       <r>    -7.7703     0.0000    10.0000 </r>
       <r>    -7.6292     0.0000    10.0000 </r>
       <r>    -7.4881     0.0000    10.0000 </r>
       <r>    -7.3470     0.0000    10.0000 </r>
       <r>    -7.2058     0.0000    10.0000 </r>
       <r>    -7.0647     0.0000    10.0000 </r>
       <r>    -6.9236     0.0000    10.0000 </r>
       <r>    -6.7825     0.0000    10.0000 </r>
       <r>    -6.6414     0.0000    10.0000 </r>
       <r>    -6.5002     0.0000    10.0000 </r>
       <r>    -6.3591     0.0000    10.0000 </r>
       <r>    -6.2180     0.0000    10.0000 </r>
       <r>    -6.0769     0.0000    10.0000 </r>
       <r>    -5.9358     0.0000    10.0000 </r>
       <r>    -5.7946     0.0000    10.0000 </r>
       <r>    -5.6535     0.0000    10.0000 </r>
       <r>    -5.5124     0.0000    10.0000 </r>
       <r>    -5.3713     0.0000    10.0000 </r>
       <r>    -5.2302     0.0000    10.0000 </r>
       <r>    -5.0890     0.0000    10.0000 </r>
       <r>    -4.9479     0.0000    10.0000 </r>
       <r>    -4.8068     0.0000    10.0000 </r>
       <r>    -4.6657     0.0000    10.0000 </r>
       <r>    -4.5246     0.0000    10.0000 </r>
       <r>    -4.3834     0.0000    10.0000 </r>
       <r>    -4.2423     0.0000    10.0000 </r>
       <r>    -4.1012     0.0000    10.0000 </r>
       <r>    -3.9601     0.0000    10.0000 </r>
       <r>    -3.8190     0.0032    10.0005 </r>
       <r>    -3.6778    17.5598    12.4785 </r>
       <r>    -3.5367    10.7814    14.0000 </r>
       <r>    -3.3956     0.0002    14.0000 </r>
       <r>    -3.2545     0.0000    14.0000 </r>
       <r>    -3.1134     0.0000    14.0000 </r>
       <r>    -2.9722     0.0000    14.0000 </r>
       <r>    -2.8311     0.0000    14.0000 </r>
       <r>    -2.6900     0.0000    14.0000 </r>
       <r>    -2.5489     0.0000    14.0000 </r>
       <r>    -2.4078     0.0000    14.0000 </r>
       <r>    -2.2666     0.0000    14.0000 </r>
       <r>    -2.1255     0.0000    14.0000 </r>
       <r>    -1.9844     0.0000    14.0000 </r>
       <r>    -1.8433     0.0000    14.0000 </r>
       <r>    -1.7022     0.0000    14.0000 </r>
       <r>    -1.5610     0.0000    14.0000 </r>
       <r>    -1.4199     0.0000    14.0000 </r>
       <r>    -1.2788     0.0000    14.0000 </r>
       <r>    -1.1377     0.0000    14.0000 </r>
       <r>    -0.9966     0.0000    14.0000 </r>
       <r>    -0.8554     0.0000    14.0000 </r>
       <r>    -0.7143     0.0000    14.0000 </r>
       <r>    -0.5732     0.0000    14.0000 </r>
       <r>    -0.4321     0.0001    14.0000 </r>
       <r>    -0.2910     5.4037    14.7626 </r>
       <r>    -0.1498     8.7669    15.9998 </r>
       <r>    -0.0087     0.0016    16.0000 </r>
       <r>     0.1324     0.0000    16.0000 </r>
       <r>     0.2735     0.7334    16.1035 </r>
       <r>     0.4146    16.5015    18.4322 </r>
       <r>     0.5558    39.2266    23.9678 </r>
       <r>     0.6969     0.2279    24.0000 </r>
       <r>     0.8380     0.0000    24.0000 </r>
       <r>     0.9791     0.0000    24.0000 </r>
       <r>     1.1202     0.0000    24.0000 </r>
       <r>     1.2614     0.0000    24.0000 </r>
       <r>     1.4025     0.0000    24.0000 </r>
       <r>     1.5436     0.0000    24.0000 </r>
       <r>     1.6847     0.0000    24.0000 </r>
       <r>     1.8258     0.0000    24.0000 </r>
       <r>     1.9670     0.0000    24.0000 </r>
       <r>     2.1081     0.0000    24.0000 </r>
       <r>     2.2492     0.0000    24.0000 </r>
       <r>     2.3903     0.0000    24.0000 </r>
      </set>
     </set>
    </array>
   </total>
  </dos>
 </calculation>
 <structure name="finalpos" >
  <crystal>
   <varray name="basis" >
    <v>      14.50000000       0.00000000       0.00000000 </v>
    <v>       0.00000000      14.50000000       0.00000000 </v>
    <v>       0.00000000       0.00000000      14.50000000 </v>
   </varray>
   <i name="volume">   3048.62500000 </i>
   <varray name="rec_basis" >
    <v>       0.06896552       0.00000000       0.00000000 </v>
    <v>       0.00000000       0.06896552       0.00000000 </v>
    <v>       0.00000000       0.00000000       0.06896552 </v>
   </varray>
  </crystal>
  <varray name="positions" >
   <v>       0.00000000       0.00000000       0.00000000 </v>
   <v>       0.06896552       0.00000000       0.00000000 </v>
  </varray>
 </structure>
</modeling>
