ITEM: TIMESTEP
0
ITEM: NUMBER OF ATOMS
4
ITEM: BOX BOUNDS pp pp pp
0.0000000000000000e+00 1.4500000000000000e+01
0.0000000000000000e+00 1.4500000000000000e+01
0.0000000000000000e+00 1.4500000000000000e+01
ITEM: ATOMS id type xs ys zs
1 1 0 0 0
2 1 0.0832414 0 0
3 1 0 0 0.124138
4 1 0.0832414 0 0.124138
ITEM: TIMESTEP
10
ITEM: NUMBER OF ATOMS
4
ITEM: BOX BOUNDS pp pp pp
0.0000000000000000e+00 1.4500000000000000e+01
0.0000000000000000e+00 1.4500000000000000e+01
0.0000000000000000e+00 1.4500000000000000e+01
ITEM: ATOMS id type xs ys zs
1 1 -0.0050765 -0.00127501 0.0182362
2 1 0.0872153 0.000449351 0.01665
3 1 -0.00476256 0.00104259 0.107406
4 1 0.0891066 -0.00021693 0.105984
ITEM: TIMESTEP
20
ITEM: NUMBER OF ATOMS
4
ITEM: BOX BOUNDS pp pp pp
0.0000000000000000e+00 1.4500000000000000e+01
0.0000000000000000e+00 1.4500000000000000e+01
0.0000000000000000e+00 1.4500000000000000e+01
ITEM: ATOMS id type xs ys zs
1 1 -0.0194646 -0.00289951 0.0285364
2 1 0.100244 0.000959308 0.0253144
3 1 -0.0177349 0.00237293 0.0988386
4 1 0.103439 -0.000432729 0.0955864
ITEM: TIMESTEP
30
ITEM: NUMBER OF ATOMS
4
ITEM: BOX BOUNDS pp pp pp
0.0000000000000000e+00 1.4500000000000000e+01
0.0000000000000000e+00 1.4500000000000000e+01
0.0000000000000000e+00 1.4500000000000000e+01
ITEM: ATOMS id type xs ys zs
1 1 -0.00904354 -0.00457608 0.0236603
2 1 0.0885913 0.00072768 0.0192318
3 1 -0.00450683 0.00400617 0.104885
4 1 0.0914418 -0.000157766 0.100498
ITEM: TIMESTEP
40
ITEM: NUMBER OF ATOMS
4
ITEM: BOX BOUNDS pp pp pp
0.0000000000000000e+00 1.4500000000000000e+01
0.0000000000000000e+00 1.4500000000000000e+01
0.0000000000000000e+00 1.4500000000000000e+01
ITEM: ATOMS id type xs ys zs
1 1 -0.00361645 -0.00730719 0.00535628
2 1 0.0810829 0.00034485 -0.000993101
3 1 0.00226183 0.00668817 0.124899
4 1 0.0867545 0.000274172 0.119013
ITEM: TIMESTEP
50
ITEM: NUMBER OF ATOMS
4
ITEM: BOX BOUNDS pp pp pp
0.0000000000000000e+00 1.4500000000000000e+01
0.0000000000000000e+00 1.4500000000000000e+01
0.0000000000000000e+00 1.4500000000000000e+01
ITEM: ATOMS id type xs ys zs
1 1 -0.00396729 -0.00698128 0.0179677
2 1 0.0817268 0.000561028 0.00933172
3 1 0.000782348 0.00618067 0.114354
4 1 0.0879409 0.000239577 0.106623
ITEM: TIMESTEP
60
ITEM: NUMBER OF ATOMS
4
ITEM: BOX BOUNDS pp pp pp
0.0000000000000000e+00 1.4500000000000000e+01
0.0000000000000000e+00 1.4500000000000000e+01
0.0000000000000000e+00 1.4500000000000000e+01
ITEM: ATOMS id type xs ys zs
1 1 -0.0198926 -0.00743358 0.0276787
2 1 0.0941913 0.00103285 0.018916
3 1 -0.012086 0.00588754 0.104994
4 1 0.10427 0.000513192 0.096687
ITEM: TIMESTEP
70
ITEM: NUMBER OF ATOMS
4
ITEM: BOX BOUNDS pp pp pp
0.0000000000000000e+00 1.4500000000000000e+01
0.0000000000000000e+00 1.4500000000000000e+01
0.0000000000000000e+00 1.4500000000000000e+01
ITEM: ATOMS id type xs ys zs
1 1 -0.0146309 -0.00786831 0.0242453
2 1 0.0874508 -0.000563807 0.0147071
3 1 -0.00377195 0.00634356 0.109131
4 1 0.0974348 0.00208856 0.100192
ITEM: TIMESTEP
80
ITEM: NUMBER OF ATOMS
4
ITEM: BOX BOUNDS pp pp pp
0.0000000000000000e+00 1.4500000000000000e+01
0.0000000000000000e+00 1.4500000000000000e+01
0.0000000000000000e+00 1.4500000000000000e+01
ITEM: ATOMS id type xs ys zs
1 1 -0.000878212 -0.00884388 0.0117955
2 1 0.0721458 -0.0033869 0.000973039
3 1 0.0103071 0.0078109 0.122752
4 1 0.084908 0.00441988 0.112756
ITEM: TIMESTEP
90
ITEM: NUMBER OF ATOMS
4
ITEM: BOX BOUNDS pp pp pp
0.0000000000000000e+00 1.4500000000000000e+01
0.0000000000000000e+00 1.4500000000000000e+01
0.0000000000000000e+00 1.4500000000000000e+01
ITEM: ATOMS id type xs ys zs
1 1 -0.00106419 -0.00842687 0.0155902
2 1 0.0712618 -0.00384305 0.00486708
3 1 0.0108719 0.0069653 0.119282
4 1 0.0854133 0.00530462 0.108537
ITEM: TIMESTEP
100
ITEM: NUMBER OF ATOMS
4
ITEM: BOX BOUNDS pp pp pp
0.0000000000000000e+00 1.4500000000000000e+01
0.0000000000000000e+00 1.4500000000000000e+01
0.0000000000000000e+00 1.4500000000000000e+01
ITEM: ATOMS id type xs ys zs
1 1 -0.0189202 -0.00815467 0.0253155
2 1 0.08835 -0.00341806 0.0106149
3 1 -0.00550399 0.00540681 0.113809
4 1 0.102557 0.00616592 0.0985364
ITEM: TIMESTEP
110
ITEM: NUMBER OF ATOMS
4
ITEM: BOX BOUNDS pp pp pp
0.0000000000000000e+00 1.4500000000000000e+01
0.0000000000000000e+00 1.4500000000000000e+01
0.0000000000000000e+00 1.4500000000000000e+01
ITEM: ATOMS id type xs ys zs
1 1 -0.0208887 -0.00813927 0.0266698
2 1 0.0890344 -0.00451653 0.0104582
3 1 -0.00577905 0.00517523 0.11388
4 1 0.104116 0.00748057 0.0972681
ITEM: TIMESTEP
120
ITEM: NUMBER OF ATOMS
4
ITEM: BOX BOUNDS pp pp pp
0.0000000000000000e+00 1.4500000000000000e+01
0.0000000000000000e+00 1.4500000000000000e+01
0.0000000000000000e+00 1.4500000000000000e+01
ITEM: ATOMS id type xs ys zs
1 1 -0.00346568 -0.00823704 0.0192095
2 1 0.069966 -0.00753302 0.00447335
3 1 0.0123932 0.00639855 0.119709
4 1 0.0875892 0.00937151 0.104884
ITEM: TIMESTEP
130
ITEM: NUMBER OF ATOMS
4
ITEM: BOX BOUNDS pp pp pp
0.0000000000000000e+00 1.4500000000000000e+01
0.0000000000000000e+00 1.4500000000000000e+01
0.0000000000000000e+00 1.4500000000000000e+01
ITEM: ATOMS id type xs ys zs
1 1 -0.00446894 -0.00893275 0.014072
2 1 0.0682196 -0.00951587 -0.00161491
3 1 0.0143891 0.00688446 0.126889
4 1 0.088343 0.0115642 0.108929
ITEM: TIMESTEP
140
ITEM: NUMBER OF ATOMS
4
ITEM: BOX BOUNDS pp pp pp
0.0000000000000000e+00 1.4500000000000000e+01
0.0000000000000000e+00 1.4500000000000000e+01
0.0000000000000000e+00 1.4500000000000000e+01
ITEM: ATOMS id type xs ys zs
1 1 -0.0175416 -0.00728998 0.0297999
2 1 0.0809914 -0.00757907 0.0120679
3 1 0.00281066 0.00344936 0.113324
4 1 0.100222 0.0114197 0.0930845
ITEM: TIMESTEP
150
ITEM: NUMBER OF ATOMS
4
ITEM: BOX BOUNDS pp pp pp
0.0000000000000000e+00 1.4500000000000000e+01
0.0000000000000000e+00 1.4500000000000000e+01
0.0000000000000000e+00 1.4500000000000000e+01
ITEM: ATOMS id type xs ys zs
1 1 -0.0257131 -0.00678001 0.0364102
2 1 0.0889068 -0.00780675 0.0149012
3 1 -0.0059269 0.00196158 0.110532
4 1 0.109216 0.0126252 0.0864325
ITEM: TIMESTEP
160
ITEM: NUMBER OF ATOMS
4
ITEM: BOX BOUNDS pp pp pp
0.0000000000000000e+00 1.4500000000000000e+01
0.0000000000000000e+00 1.4500000000000000e+01
0.0000000000000000e+00 1.4500000000000000e+01
ITEM: ATOMS id type xs ys zs
1 1 -0.0102291 -0.00762585 0.0283634
2 1 0.0749423 -0.01153 0.00475113
3 1 0.00766042 0.00502634 0.120271
4 1 0.0941092 0.0141295 0.0948905
ITEM: TIMESTEP
170
ITEM: NUMBER OF ATOMS
4
ITEM: BOX BOUNDS pp pp pp
0.0000000000000000e+00 1.4500000000000000e+01
0.0000000000000000e+00 1.4500000000000000e+01
0.0000000000000000e+00 1.4500000000000000e+01
ITEM: ATOMS id type xs ys zs
1 1 -0.0117876 -0.0104058 0.0156671
2 1 0.0711478 -0.0151331 -0.00855766
3 1 0.0122508 0.00790101 0.134986
4 1 0.0948718 0.0176379 0.10618
ITEM: TIMESTEP
180
ITEM: NUMBER OF ATOMS
4
ITEM: BOX BOUNDS pp pp pp
0.0000000000000000e+00 1.4500000000000000e+01
0.0000000000000000e+00 1.4500000000000000e+01
0.0000000000000000e+00 1.4500000000000000e+01
ITEM: ATOMS id type xs ys zs
1 1 -0.0165776 -0.00852384 0.0365957
2 1 0.0805683 -0.0102084 0.00685482
3 1 0.00375604 0.00507521 0.118376
4 1 0.0987361 0.013657 0.0864496
ITEM: TIMESTEP
190
ITEM: NUMBER OF ATOMS
4
ITEM: BOX BOUNDS pp pp pp
0.0000000000000000e+00 1.4500000000000000e+01
0.0000000000000000e+00 1.4500000000000000e+01
0.0000000000000000e+00 1.4500000000000000e+01
ITEM: ATOMS id type xs ys zs
1 1 -0.0308391 -0.00927601 0.0473076
2 1 0.0875907 -0.0071237 0.0172017
3 1 -0.00358519 0.00301082 0.107076
4 1 0.113316 0.0133889 0.0766901
ITEM: TIMESTEP
200
ITEM: NUMBER OF ATOMS
4
ITEM: BOX BOUNDS pp pp pp
0.0000000000000000e+00 1.4500000000000000e+01
0.0000000000000000e+00 1.4500000000000000e+01
0.0000000000000000e+00 1.4500000000000000e+01
ITEM: ATOMS id type xs ys zs
1 1 -0.0265186 -0.0119875 0.0397418
2 1 0.0789082 -0.0102633 0.00810147
3 1 0.00183932 0.00692232 0.116882
4 1 0.112254 0.0153285 0.083551
ITEM: TIMESTEP
210
ITEM: NUMBER OF ATOMS
4
ITEM: BOX BOUNDS pp pp pp
0.0000000000000000e+00 1.4500000000000000e+01
0.0000000000000000e+00 1.4500000000000000e+01
0.0000000000000000e+00 1.4500000000000000e+01
ITEM: ATOMS id type xs ys zs
1 1 -0.0209915 -0.015759 0.0259217
2 1 0.0729999 -0.0164111 -0.0140315
3 1 0.00874649 0.0138616 0.139336
4 1 0.105728 0.0183085 0.0970494
ITEM: TIMESTEP
220
ITEM: NUMBER OF ATOMS
4
ITEM: BOX BOUNDS pp pp pp
0.0000000000000000e+00 1.4500000000000000e+01
0.0000000000000000e+00 1.4500000000000000e+01
0.0000000000000000e+00 1.4500000000000000e+01
ITEM: ATOMS id type xs ys zs
1 1 -0.0121848 -0.0130062 0.0384047
2 1 0.0759296 -0.0150326 -0.0129303
3 1 0.0080248 0.014099 0.137005
4 1 0.0947132 0.0139399 0.0857966
ITEM: TIMESTEP
230
ITEM: NUMBER OF ATOMS
4
ITEM: BOX BOUNDS pp pp pp
0.0000000000000000e+00 1.4500000000000000e+01
0.0000000000000000e+00 1.4500000000000000e+01
0.0000000000000000e+00 1.4500000000000000e+01
ITEM: ATOMS id type xs ys zs
1 1 -0.0202306 -0.0120165 0.0542766
2 1 0.0832415 -0.0113823 -0.00571026
3 1 0.00245282 0.0121048 0.12755
4 1 0.101019 0.011294 0.0721591
ITEM: TIMESTEP
240
ITEM: NUMBER OF ATOMS
4
ITEM: BOX BOUNDS pp pp pp
0.0000000000000000e+00 1.4500000000000000e+01
0.0000000000000000e+00 1.4500000000000000e+01
0.0000000000000000e+00 1.4500000000000000e+01
ITEM: ATOMS id type xs ys zs
1 1 -0.0180103 -0.0154132 0.0469679
2 1 0.0660565 -0.0105629 0.00568712
3 1 0.00996136 0.0128847 0.121155
4 1 0.108475 0.0130915 0.0744657
ITEM: TIMESTEP
250
ITEM: NUMBER OF ATOMS
4
ITEM: BOX BOUNDS pp pp pp
0.0000000000000000e+00 1.4500000000000000e+01
0.0000000000000000e+00 1.4500000000000000e+01
0.0000000000000000e+00 1.4500000000000000e+01
ITEM: ATOMS id type xs ys zs
1 1 -0.0110631 -0.0203825 0.0327069
2 1 0.0486034 -0.0147135 -0.00161876
3 1 0.0238995 0.0192291 0.130478
4 1 0.105043 0.0158669 0.0867099
ITEM: TIMESTEP
260
ITEM: NUMBER OF ATOMS
4
ITEM: BOX BOUNDS pp pp pp
0.0000000000000000e+00 1.4500000000000000e+01
0.0000000000000000e+00 1.4500000000000000e+01
0.0000000000000000e+00 1.4500000000000000e+01
ITEM: ATOMS id type xs ys zs
1 1 -0.00807728 -0.0196145 0.0409797
2 1 0.0512017 -0.0164803 -0.0143432
3 1 0.0257786 0.0218043 0.136361
4 1 0.0975798 0.0142905 0.0852786
ITEM: TIMESTEP
270
ITEM: NUMBER OF ATOMS
4
ITEM: BOX BOUNDS pp pp pp
0.0000000000000000e+00 1.4500000000000000e+01
0.0000000000000000e+00 1.4500000000000000e+01
0.0000000000000000e+00 1.4500000000000000e+01
ITEM: ATOMS id type xs ys zs
1 1 -0.0271009 -0.0209622 0.0582674
2 1 0.0666043 -0.0143271 -0.0222897
3 1 0.0190363 0.0208396 0.136095
4 1 0.107943 0.0144497 0.0762033
ITEM: TIMESTEP
280
ITEM: NUMBER OF ATOMS
4
ITEM: BOX BOUNDS pp pp pp
0.0000000000000000e+00 1.4500000000000000e+01
0.0000000000000000e+00 1.4500000000000000e+01
0.0000000000000000e+00 1.4500000000000000e+01
ITEM: ATOMS id type xs ys zs
1 1 0.950377 0.97509 0.0669364
2 1 0.0766309 0.987135 0.974077
3 1 0.0165404 0.0204942 0.135917
4 1 0.122935 0.0172808 0.0713458
ITEM: TIMESTEP
290
ITEM: NUMBER OF ATOMS
4
ITEM: BOX BOUNDS pp pp pp
0.0000000000000000e+00 1.4500000000000000e+01
0.0000000000000000e+00 1.4500000000000000e+01
0.0000000000000000e+00 1.4500000000000000e+01
ITEM: ATOMS id type xs ys zs
1 1 0.927439 0.972251 0.0787445
2 1 0.0904477 0.989866 0.973018
3 1 0.0300443 0.0180846 0.123047
4 1 0.118552 0.0197986 0.0734667
ITEM: TIMESTEP
300
ITEM: NUMBER OF ATOMS
4
ITEM: BOX BOUNDS pp pp pp
0.0000000000000000e+00 1.4500000000000000e+01
0.0000000000000000e+00 1.4500000000000000e+01
0.0000000000000000e+00 1.4500000000000000e+01
ITEM: ATOMS id type xs ys zs
1 1 0.914338 0.973479 0.0939377
2 1 0.105968 0.993945 0.976221
3 1 0.0339936 0.0115272 0.106774
4 1 0.112182 0.0210488 0.0713438
ITEM: TIMESTEP
310
ITEM: NUMBER OF ATOMS
4
ITEM: BOX BOUNDS pp pp pp
0.0000000000000000e+00 1.4500000000000000e+01
0.0000000000000000e+00 1.4500000000000000e+01
0.0000000000000000e+00 1.4500000000000000e+01
ITEM: ATOMS id type xs ys zs
1 1 0.917944 0.980315 0.111676
2 1 0.123103 0.99816 0.978541
3 1 0.0162122 -0.000656166 0.0922986
4 1 0.109224 0.0221815 0.0657599
ITEM: TIMESTEP
320
ITEM: NUMBER OF ATOMS
4
ITEM: BOX BOUNDS pp pp pp
0.0000000000000000e+00 1.4500000000000000e+01
0.0000000000000000e+00 1.4500000000000000e+01
0.0000000000000000e+00 1.4500000000000000e+01
ITEM: ATOMS id type xs ys zs
1 1 0.924011 0.987755 0.129291
2 1 0.141325 1.00203 0.978718
3 1 -0.00520723 -0.0133695 0.0791745
4 1 0.106354 0.0235896 0.061093
ITEM: TIMESTEP
330
ITEM: NUMBER OF ATOMS
4
ITEM: BOX BOUNDS pp pp pp
0.0000000000000000e+00 1.4500000000000000e+01
0.0000000000000000e+00 1.4500000000000000e+01
0.0000000000000000e+00 1.4500000000000000e+01
ITEM: ATOMS id type xs ys zs
1 1 0.927832 0.994911 0.147984
2 1 0.160747 0.00599544 0.977911
3 1 0.976595 0.974959 0.0657251
4 1 0.101308 0.0241338 0.056655
ITEM: TIMESTEP
340
ITEM: NUMBER OF ATOMS
4
ITEM: BOX BOUNDS pp pp pp
0.0000000000000000e+00 1.4500000000000000e+01
0.0000000000000000e+00 1.4500000000000000e+01
0.0000000000000000e+00 1.4500000000000000e+01
ITEM: ATOMS id type xs ys zs
1 1 0.932469 1.00135 0.164382
2 1 0.177748 0.0101464 0.979186
3 1 0.972616 0.969905 0.0534509
4 1 0.0836488 0.0185975 0.0512577
ITEM: TIMESTEP
350
ITEM: NUMBER OF ATOMS
4
ITEM: BOX BOUNDS pp pp pp
0.0000000000000000e+00 1.4500000000000000e+01
0.0000000000000000e+00 1.4500000000000000e+01
0.0000000000000000e+00 1.4500000000000000e+01
ITEM: ATOMS id type xs ys zs
1 1 0.938094 1.00537 0.174477
2 1 0.187685 0.0148674 0.985588
3 1 0.971282 0.96962 0.0490355
4 1 0.0694215 0.0101446 0.0391753
ITEM: TIMESTEP
360
ITEM: NUMBER OF ATOMS
4
ITEM: BOX BOUNDS pp pp pp
0.0000000000000000e+00 1.4500000000000000e+01
0.0000000000000000e+00 1.4500000000000000e+01
0.0000000000000000e+00 1.4500000000000000e+01
ITEM: ATOMS id type xs ys zs
1 1 0.944936 1.0077 0.178879
2 1 0.180042 0.0189351 1.0003
3 1 0.972623 0.972466 0.0497653
4 1 0.0688817 0.000901836 0.0193334
ITEM: TIMESTEP
370
ITEM: NUMBER OF ATOMS
4
ITEM: BOX BOUNDS pp pp pp
0.0000000000000000e+00 1.4500000000000000e+01
0.0000000000000000e+00 1.4500000000000000e+01
0.0000000000000000e+00 1.4500000000000000e+01
ITEM: ATOMS id type xs ys zs
1 1 0.955777 0.00684751 0.169936
2 1 0.167316 0.0221659 0.0157808
3 1 0.973035 0.978855 0.0613205
4 1 0.0703547 0.992131 0.0012386
ITEM: TIMESTEP
380
ITEM: NUMBER OF ATOMS
4
ITEM: BOX BOUNDS pp pp pp
0.0000000000000000e+00 1.4500000000000000e+01
0.0000000000000000e+00 1.4500000000000000e+01
0.0000000000000000e+00 1.4500000000000000e+01
ITEM: ATOMS id type xs ys zs
1 1 0.967212 0.00455571 0.155852
2 1 0.151285 0.0243394 0.0305319
3 1 0.975147 0.987026 0.0765944
4 1 0.0728381 0.984079 -0.0147025
ITEM: TIMESTEP
390
ITEM: NUMBER OF ATOMS
4
ITEM: BOX BOUNDS pp pp pp
0.0000000000000000e+00 1.4500000000000000e+01
0.0000000000000000e+00 1.4500000000000000e+01
0.0000000000000000e+00 1.4500000000000000e+01
ITEM: ATOMS id type xs ys zs
1 1 0.979956 0.00355043 0.146381
2 1 0.134544 0.0255079 0.043076
3 1 0.993066 0.992418 0.0681464
4 1 0.0589171 0.978524 -0.00932706
ITEM: TIMESTEP
400
ITEM: NUMBER OF ATOMS
4
ITEM: BOX BOUNDS pp pp pp
0.0000000000000000e+00 1.4500000000000000e+01
0.0000000000000000e+00 1.4500000000000000e+01
0.0000000000000000e+00 1.4500000000000000e+01
ITEM: ATOMS id type xs ys zs
1 1 0.991384 0.00351945 0.143292
2 1 0.137138 0.0314022 0.0530734
3 1 0.992241 0.992519 0.0570683
4 1 0.0457197 0.972559 -0.00515807
ITEM: TIMESTEP
410
ITEM: NUMBER OF ATOMS
4
ITEM: BOX BOUNDS pp pp pp
0.0000000000000000e+00 1.4500000000000000e+01
0.0000000000000000e+00 1.4500000000000000e+01
0.0000000000000000e+00 1.4500000000000000e+01
ITEM: ATOMS id type xs ys zs
1 1 1.00213 0.00404082 0.14389
2 1 0.13683 0.0276326 0.0468635
3 1 0.967462 0.988342 0.0494566
4 1 0.0600642 0.979984 0.00806553
ITEM: TIMESTEP
420
ITEM: NUMBER OF ATOMS
4
ITEM: BOX BOUNDS pp pp pp
0.0000000000000000e+00 1.4500000000000000e+01
0.0000000000000000e+00 1.4500000000000000e+01
0.0000000000000000e+00 1.4500000000000000e+01
ITEM: ATOMS id type xs ys zs
1 1 1.01082 0.00437227 0.143671
2 1 0.135953 0.0230565 0.039538
3 1 0.944855 0.984536 0.0442374
4 1 0.0748566 0.988035 0.0208292
ITEM: TIMESTEP
430
ITEM: NUMBER OF ATOMS
4
ITEM: BOX BOUNDS pp pp pp
0.0000000000000000e+00 1.4500000000000000e+01
0.0000000000000000e+00 1.4500000000000000e+01
0.0000000000000000e+00 1.4500000000000000e+01
ITEM: ATOMS id type xs ys zs
1 1 0.975702 0.000278252 0.134804
2 1 0.143612 0.022441 0.0325777
3 1 0.976236 0.988747 0.0693067
4 1 0.070933 0.988534 0.0115878
ITEM: TIMESTEP
440
ITEM: NUMBER OF ATOMS
4
ITEM: BOX BOUNDS pp pp pp
0.0000000000000000e+00 1.4500000000000000e+01
0.0000000000000000e+00 1.4500000000000000e+01
0.0000000000000000e+00 1.4500000000000000e+01
ITEM: ATOMS id type xs ys zs
1 1 0.932804 -0.000759105 0.148226
2 1 0.156432 0.0237992 0.02591
3 1 1.01907 0.991111 0.0795696
4 1 0.0581795 0.985849 -0.00543004
ITEM: TIMESTEP
450
ITEM: NUMBER OF ATOMS
4
ITEM: BOX BOUNDS pp pp pp
0.0000000000000000e+00 1.4500000000000000e+01
0.0000000000000000e+00 1.4500000000000000e+01
0.0000000000000000e+00 1.4500000000000000e+01
ITEM: ATOMS id type xs ys zs
1 1 0.893908 0.99806 0.159596
2 1 0.161359 0.0216861 0.0120151
3 1 0.0522567 0.992357 0.0966792
4 1 0.0589594 0.987898 0.979985
ITEM: TIMESTEP
460
ITEM: NUMBER OF ATOMS
4
ITEM: BOX BOUNDS pp pp pp
0.0000000000000000e+00 1.4500000000000000e+01
0.0000000000000000e+00 1.4500000000000000e+01
0.0000000000000000e+00 1.4500000000000000e+01
ITEM: ATOMS id type xs ys zs
1 1 0.856408 0.996762 0.169734
2 1 0.172407 0.0201872 -0.0198565
3 1 0.0674217 0.98769 0.0881546
4 1 0.0702457 0.99536 1.01024
ITEM: TIMESTEP
470
ITEM: NUMBER OF ATOMS
4
ITEM: BOX BOUNDS pp pp pp
0.0000000000000000e+00 1.4500000000000000e+01
0.0000000000000000e+00 1.4500000000000000e+01
0.0000000000000000e+00 1.4500000000000000e+01
ITEM: ATOMS id type xs ys zs
1 1 0.818909 0.995465 0.179872
2 1 0.181585 0.018604 0.947042
3 1 0.077772 0.97958 0.0825128
4 1 0.0882169 1.00635 0.0388488
ITEM: TIMESTEP
480
ITEM: NUMBER OF ATOMS
4
ITEM: BOX BOUNDS pp pp pp
0.0000000000000000e+00 1.4500000000000000e+01
0.0000000000000000e+00 1.4500000000000000e+01
0.0000000000000000e+00 1.4500000000000000e+01
ITEM: ATOMS id type xs ys zs
1 1 0.781409 0.994168 0.19001
2 1 0.167116 0.0132404 0.93677
3 1 0.0863449 0.96236 0.0924556
4 1 0.131613 1.03023 0.0290403
ITEM: TIMESTEP
490
ITEM: NUMBER OF ATOMS
4
ITEM: BOX BOUNDS pp pp pp
0.0000000000000000e+00 1.4500000000000000e+01
0.0000000000000000e+00 1.4500000000000000e+01
0.0000000000000000e+00 1.4500000000000000e+01
ITEM: ATOMS id type xs ys zs
1 1 0.74391 0.99287 0.200149
2 1 0.151722 0.00851366 0.928632
3 1 0.0954114 0.945942 0.102674
4 1 0.17544 0.0526734 0.0168206
ITEM: TIMESTEP
500
ITEM: NUMBER OF ATOMS
4
ITEM: BOX BOUNDS pp pp pp
0.0000000000000000e+00 1.4500000000000000e+01
0.0000000000000000e+00 1.4500000000000000e+01
0.0000000000000000e+00 1.4500000000000000e+01
ITEM: ATOMS id type xs ys zs
1 1 0.70641 0.991573 0.210287
2 1 0.13808 0.00618052 0.924842
3 1 0.105739 0.931284 0.111349
4 1 0.216253 0.070962 0.00179815
ITEM: TIMESTEP
510
ITEM: NUMBER OF ATOMS
4
ITEM: BOX BOUNDS pp pp pp
0.0000000000000000e+00 1.4500000000000000e+01
0.0000000000000000e+00 1.4500000000000000e+01
0.0000000000000000e+00 1.4500000000000000e+01
ITEM: ATOMS id type xs ys zs
1 1 0.668911 0.990276 0.220425
2 1 0.132022 0.010091 0.928409
3 1 0.116067 0.916626 0.120024
4 1 0.249483 0.083007 -0.0205822
ITEM: TIMESTEP
520
ITEM: NUMBER OF ATOMS
4
ITEM: BOX BOUNDS pp pp pp
0.0000000000000000e+00 1.4500000000000000e+01
0.0000000000000000e+00 1.4500000000000000e+01
0.0000000000000000e+00 1.4500000000000000e+01
ITEM: ATOMS id type xs ys zs
1 1 0.631411 0.988979 0.230563
2 1 0.130761 0.0172173 0.934688
3 1 0.126395 0.901968 0.128699
4 1 0.277915 0.0918361 0.954326
ITEM: TIMESTEP
530
ITEM: NUMBER OF ATOMS
4
ITEM: BOX BOUNDS pp pp pp
0.0000000000000000e+00 1.4500000000000000e+01
0.0000000000000000e+00 1.4500000000000000e+01
0.0000000000000000e+00 1.4500000000000000e+01
ITEM: ATOMS id type xs ys zs
1 1 0.593912 0.987681 0.240701
2 1 0.129657 0.0244354 0.941022
3 1 0.136723 0.88731 0.137374
4 1 0.306191 0.100573 0.929179
ITEM: TIMESTEP
540
ITEM: NUMBER OF ATOMS
4
ITEM: BOX BOUNDS pp pp pp
0.0000000000000000e+00 1.4500000000000000e+01
0.0000000000000000e+00 1.4500000000000000e+01
0.0000000000000000e+00 1.4500000000000000e+01
ITEM: ATOMS id type xs ys zs
1 1 0.556412 0.986384 0.250839
2 1 0.128553 0.0316536 0.947355
3 1 0.147051 0.872652 0.146049
4 1 0.334467 0.109311 0.904033
ITEM: TIMESTEP
550
ITEM: NUMBER OF ATOMS
4
ITEM: BOX BOUNDS pp pp pp
0.0000000000000000e+00 1.4500000000000000e+01
0.0000000000000000e+00 1.4500000000000000e+01
0.0000000000000000e+00 1.4500000000000000e+01
ITEM: ATOMS id type xs ys zs
1 1 0.518913 0.985087 0.260977
2 1 0.127449 0.0388717 0.953688
3 1 0.157378 0.857993 0.154723
4 1 0.362743 0.118048 0.878887
ITEM: TIMESTEP
560
ITEM: NUMBER OF ATOMS
4
ITEM: BOX BOUNDS pp pp pp
0.0000000000000000e+00 1.4500000000000000e+01
0.0000000000000000e+00 1.4500000000000000e+01
0.0000000000000000e+00 1.4500000000000000e+01
ITEM: ATOMS id type xs ys zs
1 1 0.481413 0.98379 0.271115
2 1 0.126345 0.0460898 0.960022
3 1 0.167706 0.843335 0.163398
4 1 0.391018 0.126785 0.853741
ITEM: TIMESTEP
570
ITEM: NUMBER OF ATOMS
4
ITEM: BOX BOUNDS pp pp pp
0.0000000000000000e+00 1.4500000000000000e+01
0.0000000000000000e+00 1.4500000000000000e+01
0.0000000000000000e+00 1.4500000000000000e+01
ITEM: ATOMS id type xs ys zs
1 1 0.443914 0.982492 0.281253
2 1 0.125241 0.0533079 0.966355
3 1 0.178034 0.828677 0.172073
4 1 0.419294 0.135523 0.828595
ITEM: TIMESTEP
580
ITEM: NUMBER OF ATOMS
4
ITEM: BOX BOUNDS pp pp pp
0.0000000000000000e+00 1.4500000000000000e+01
0.0000000000000000e+00 1.4500000000000000e+01
0.0000000000000000e+00 1.4500000000000000e+01
ITEM: ATOMS id type xs ys zs
1 1 0.406414 0.981195 0.291391
2 1 0.124137 0.0605261 0.972688
3 1 0.188362 0.814019 0.180748
4 1 0.44757 0.14426 0.803448
ITEM: TIMESTEP
590
ITEM: NUMBER OF ATOMS
4
ITEM: BOX BOUNDS pp pp pp
0.0000000000000000e+00 1.4500000000000000e+01
0.0000000000000000e+00 1.4500000000000000e+01
0.0000000000000000e+00 1.4500000000000000e+01
ITEM: ATOMS id type xs ys zs
1 1 0.368915 0.979898 0.301529
2 1 0.123033 0.0677442 0.979021
3 1 0.19869 0.799361 0.189423
4 1 0.475846 0.152997 0.778302
ITEM: TIMESTEP
600
ITEM: NUMBER OF ATOMS
4
ITEM: BOX BOUNDS pp pp pp
0.0000000000000000e+00 1.4500000000000000e+01
0.0000000000000000e+00 1.4500000000000000e+01
0.0000000000000000e+00 1.4500000000000000e+01
ITEM: ATOMS id type xs ys zs
1 1 0.331415 0.978601 0.311668
2 1 0.121929 0.0749623 0.985355
3 1 0.209018 0.784702 0.198098
4 1 0.504122 0.161735 0.753156
ITEM: TIMESTEP
610
ITEM: NUMBER OF ATOMS
4
ITEM: BOX BOUNDS pp pp pp
0.0000000000000000e+00 1.4500000000000000e+01
0.0000000000000000e+00 1.4500000000000000e+01
0.0000000000000000e+00 1.4500000000000000e+01
ITEM: ATOMS id type xs ys zs
1 1 0.293916 0.977303 0.321806
2 1 0.120824 0.0821805 0.991688
3 1 0.219345 0.770044 0.206773
4 1 0.532397 0.170472 0.72801
ITEM: TIMESTEP
620
ITEM: NUMBER OF ATOMS
4
ITEM: BOX BOUNDS pp pp pp
0.0000000000000000e+00 1.4500000000000000e+01
0.0000000000000000e+00 1.4500000000000000e+01
0.0000000000000000e+00 1.4500000000000000e+01
ITEM: ATOMS id type xs ys zs
1 1 0.256416 0.976006 0.331944
2 1 0.11972 0.0893986 0.998021
3 1 0.229673 0.755386 0.215447
4 1 0.560673 0.179209 0.702864
ITEM: TIMESTEP
630
ITEM: NUMBER OF ATOMS
4
ITEM: BOX BOUNDS pp pp pp
0.0000000000000000e+00 1.4500000000000000e+01
0.0000000000000000e+00 1.4500000000000000e+01
0.0000000000000000e+00 1.4500000000000000e+01
ITEM: ATOMS id type xs ys zs
1 1 0.218916 0.974709 0.342082
2 1 0.118616 0.0966167 1.00435
3 1 0.240001 0.740728 0.224122
4 1 0.588949 0.187947 0.677717
ITEM: TIMESTEP
640
ITEM: NUMBER OF ATOMS
4
ITEM: BOX BOUNDS pp pp pp
0.0000000000000000e+00 1.4500000000000000e+01
0.0000000000000000e+00 1.4500000000000000e+01
0.0000000000000000e+00 1.4500000000000000e+01
ITEM: ATOMS id type xs ys zs
1 1 0.181417 0.973411 0.35222
2 1 0.117512 0.103835 0.0106878
3 1 0.250329 0.72607 0.232797
4 1 0.617225 0.196684 0.652571
ITEM: TIMESTEP
650
ITEM: NUMBER OF ATOMS
4
ITEM: BOX BOUNDS pp pp pp
0.0000000000000000e+00 1.4500000000000000e+01
0.0000000000000000e+00 1.4500000000000000e+01
0.0000000000000000e+00 1.4500000000000000e+01
ITEM: ATOMS id type xs ys zs
1 1 0.143917 0.972114 0.362358
2 1 0.116408 0.111053 0.0170211
3 1 0.260657 0.711412 0.241472
4 1 0.6455 0.205421 0.627425
ITEM: TIMESTEP
660
ITEM: NUMBER OF ATOMS
4
ITEM: BOX BOUNDS pp pp pp
0.0000000000000000e+00 1.4500000000000000e+01
0.0000000000000000e+00 1.4500000000000000e+01
0.0000000000000000e+00 1.4500000000000000e+01
ITEM: ATOMS id type xs ys zs
1 1 0.106418 0.970817 0.372496
2 1 0.115304 0.118271 0.0233544
3 1 0.270985 0.696753 0.250147
4 1 0.673776 0.214159 0.602279
ITEM: TIMESTEP
670
ITEM: NUMBER OF ATOMS
4
ITEM: BOX BOUNDS pp pp pp
0.0000000000000000e+00 1.4500000000000000e+01
0.0000000000000000e+00 1.4500000000000000e+01
0.0000000000000000e+00 1.4500000000000000e+01
ITEM: ATOMS id type xs ys zs
1 1 0.0689184 0.96952 0.382634
2 1 0.1142 0.125489 0.0296877
3 1 0.281312 0.682095 0.258822
4 1 0.702052 0.222896 0.577132
ITEM: TIMESTEP
680
ITEM: NUMBER OF ATOMS
4
ITEM: BOX BOUNDS pp pp pp
0.0000000000000000e+00 1.4500000000000000e+01
0.0000000000000000e+00 1.4500000000000000e+01
0.0000000000000000e+00 1.4500000000000000e+01
ITEM: ATOMS id type xs ys zs
1 1 0.0314189 0.968222 0.392772
2 1 0.113096 0.132707 0.0360209
3 1 0.29164 0.667437 0.267496
4 1 0.730328 0.231633 0.551986
ITEM: TIMESTEP
690
ITEM: NUMBER OF ATOMS
4
ITEM: BOX BOUNDS pp pp pp
0.0000000000000000e+00 1.4500000000000000e+01
0.0000000000000000e+00 1.4500000000000000e+01
0.0000000000000000e+00 1.4500000000000000e+01
ITEM: ATOMS id type xs ys zs
1 1 -0.00608066 0.966925 0.40291
2 1 0.111992 0.139925 0.0423542
3 1 0.301968 0.652779 0.276171
4 1 0.758604 0.240371 0.52684
ITEM: TIMESTEP
700
ITEM: NUMBER OF ATOMS
4
ITEM: BOX BOUNDS pp pp pp
0.0000000000000000e+00 1.4500000000000000e+01
0.0000000000000000e+00 1.4500000000000000e+01
0.0000000000000000e+00 1.4500000000000000e+01
ITEM: ATOMS id type xs ys zs
1 1 0.95642 0.965628 0.413048
2 1 0.110888 0.147144 0.0486875
3 1 0.312296 0.638121 0.284846
4 1 0.786879 0.249108 0.501694
ITEM: TIMESTEP
710
ITEM: NUMBER OF ATOMS
4
ITEM: BOX BOUNDS pp pp pp
0.0000000000000000e+00 1.4500000000000000e+01
0.0000000000000000e+00 1.4500000000000000e+01
0.0000000000000000e+00 1.4500000000000000e+01
ITEM: ATOMS id type xs ys zs
1 1 0.91892 0.964331 0.423187
2 1 0.109784 0.154362 0.0550208
3 1 0.322624 0.623463 0.293521
4 1 0.815155 0.257845 0.476548
ITEM: TIMESTEP
720
ITEM: NUMBER OF ATOMS
4
ITEM: BOX BOUNDS pp pp pp
0.0000000000000000e+00 1.4500000000000000e+01
0.0000000000000000e+00 1.4500000000000000e+01
0.0000000000000000e+00 1.4500000000000000e+01
ITEM: ATOMS id type xs ys zs
1 1 0.881421 0.963033 0.433325
2 1 0.108679 0.16158 0.061354
3 1 0.332952 0.608804 0.302196
4 1 0.843431 0.266582 0.451401
ITEM: TIMESTEP
730
ITEM: NUMBER OF ATOMS
4
ITEM: BOX BOUNDS pp pp pp
0.0000000000000000e+00 1.4500000000000000e+01
0.0000000000000000e+00 1.4500000000000000e+01
0.0000000000000000e+00 1.4500000000000000e+01
ITEM: ATOMS id type xs ys zs
1 1 0.843921 0.961736 0.443463
2 1 0.107575 0.168798 0.0676873
3 1 0.343279 0.594146 0.310871
4 1 0.871707 0.27532 0.426255
ITEM: TIMESTEP
740
ITEM: NUMBER OF ATOMS
4
ITEM: BOX BOUNDS pp pp pp
0.0000000000000000e+00 1.4500000000000000e+01
0.0000000000000000e+00 1.4500000000000000e+01
0.0000000000000000e+00 1.4500000000000000e+01
ITEM: ATOMS id type xs ys zs
1 1 0.806422 0.960439 0.453601
2 1 0.106471 0.176016 0.0740206
3 1 0.353607 0.579488 0.319545
4 1 0.899982 0.284057 0.401109
ITEM: TIMESTEP
750
ITEM: NUMBER OF ATOMS
4
ITEM: BOX BOUNDS pp pp pp
0.0000000000000000e+00 1.4500000000000000e+01
0.0000000000000000e+00 1.4500000000000000e+01
0.0000000000000000e+00 1.4500000000000000e+01
ITEM: ATOMS id type xs ys zs
1 1 0.768922 0.959141 0.463739
2 1 0.105367 0.183234 0.0803539
3 1 0.363935 0.56483 0.32822
4 1 0.928258 0.292794 0.375963
ITEM: TIMESTEP
760
ITEM: NUMBER OF ATOMS
4
ITEM: BOX BOUNDS pp pp pp
0.0000000000000000e+00 1.4500000000000000e+01
0.0000000000000000e+00 1.4500000000000000e+01
0.0000000000000000e+00 1.4500000000000000e+01
ITEM: ATOMS id type xs ys zs
1 1 0.731423 0.957844 0.473877
2 1 0.104263 0.190452 0.0866872
3 1 0.374263 0.550172 0.336895
4 1 0.956534 0.301532 0.350817
ITEM: TIMESTEP
770
ITEM: NUMBER OF ATOMS
4
ITEM: BOX BOUNDS pp pp pp
0.0000000000000000e+00 1.4500000000000000e+01
0.0000000000000000e+00 1.4500000000000000e+01
0.0000000000000000e+00 1.4500000000000000e+01
ITEM: ATOMS id type xs ys zs
1 1 0.693923 0.956547 0.484015
2 1 0.103159 0.197671 0.0930204
3 1 0.384591 0.535513 0.34557
4 1 0.98481 0.310269 0.32567
ITEM: TIMESTEP
780
ITEM: NUMBER OF ATOMS
4
ITEM: BOX BOUNDS pp pp pp
0.0000000000000000e+00 1.4500000000000000e+01
0.0000000000000000e+00 1.4500000000000000e+01
0.0000000000000000e+00 1.4500000000000000e+01
ITEM: ATOMS id type xs ys zs
1 1 0.656424 0.95525 0.494153
2 1 0.102055 0.204889 0.0993537
3 1 0.394919 0.520855 0.354245
4 1 1.01309 0.319006 0.300524
ITEM: TIMESTEP
790
ITEM: NUMBER OF ATOMS
4
ITEM: BOX BOUNDS pp pp pp
0.0000000000000000e+00 1.4500000000000000e+01
0.0000000000000000e+00 1.4500000000000000e+01
0.0000000000000000e+00 1.4500000000000000e+01
ITEM: ATOMS id type xs ys zs
1 1 0.618924 0.953952 0.504291
2 1 0.100951 0.212107 0.105687
3 1 0.405247 0.506197 0.36292
4 1 0.0413613 0.327744 0.275378
ITEM: TIMESTEP
800
ITEM: NUMBER OF ATOMS
4
ITEM: BOX BOUNDS pp pp pp
0.0000000000000000e+00 1.4500000000000000e+01
0.0000000000000000e+00 1.4500000000000000e+01
0.0000000000000000e+00 1.4500000000000000e+01
ITEM: ATOMS id type xs ys zs
1 1 0.581425 0.952655 0.514429
2 1 0.0998468 0.219325 0.11202
3 1 0.415574 0.491539 0.371594
4 1 0.0696371 0.336481 0.250232
ITEM: TIMESTEP
810
ITEM: NUMBER OF ATOMS
4
ITEM: BOX BOUNDS pp pp pp
0.0000000000000000e+00 1.4500000000000000e+01
0.0000000000000000e+00 1.4500000000000000e+01
0.0000000000000000e+00 1.4500000000000000e+01
ITEM: ATOMS id type xs ys zs
1 1 0.543925 0.951358 0.524567
2 1 0.0987427 0.226543 0.118354