ITEM: TIMESTEP
0
ITEM: NUMBER OF ATOMS
4
ITEM: BOX BOUNDS pp pp pp
0.0000000000000000e+00 1.4500000000000000e+01
0.0000000000000000e+00 1.4500000000000000e+01
0.0000000000000000e+00 1.4500000000000000e+01
ITEM: ATOMS id type xs ys zs
1 1 0 0 0
2 1 0.0832414 0 0
3 1 0 0 0.103448
4 1 0.0832414 0 0.103448
ITEM: TIMESTEP
10
ITEM: NUMBER OF ATOMS
4
ITEM: BOX BOUNDS pp pp pp
0.0000000000000000e+00 1.4500000000000000e+01
0.0000000000000000e+00 1.4500000000000000e+01
0.0000000000000000e+00 1.4500000000000000e+01
ITEM: ATOMS id type xs ys zs
1 1 -0.00283968 -0.00131094 0.00350653
2 1 0.0848037 0.000467884 0.00145839
3 1 -0.00237211 0.00107946 0.101245
4 1 0.0868908 -0.000236406 0.100686
ITEM: TIMESTEP
20
ITEM: NUMBER OF ATOMS
4
ITEM: BOX BOUNDS pp pp pp
0.0000000000000000e+00 1.4500000000000000e+01
0.0000000000000000e+00 1.4500000000000000e+01
0.0000000000000000e+00 1.4500000000000000e+01
ITEM: ATOMS id type xs ys zs
1 1 -0.00759994 -0.00277471 0.00914215
2 1 0.0883086 0.00109825 0.00547279
3 1 -0.00614113 0.00229205 0.0969041
4 1 0.0919153 -0.000615597 0.0953775
ITEM: TIMESTEP
30
ITEM: NUMBER OF ATOMS
4
ITEM: BOX BOUNDS pp pp pp
0.0000000000000000e+00 1.4500000000000000e+01
0.0000000000000000e+00 1.4500000000000000e+01
0.0000000000000000e+00 1.4500000000000000e+01
ITEM: ATOMS id type xs ys zs
1 1 -0.0114171 -0.00462974 0.0124876
2 1 0.0913595 0.00200209 0.0073523
3 1 -0.00884361 0.00389218 0.095373
4 1 0.095384 -0.00126453 0.0916837
ITEM: TIMESTEP
40
ITEM: NUMBER OF ATOMS
4
ITEM: BOX BOUNDS pp pp pp
0.0000000000000000e+00 1.4500000000000000e+01
0.0000000000000000e+00 1.4500000000000000e+01
0.0000000000000000e+00 1.4500000000000000e+01
ITEM: ATOMS id type xs ys zs
1 1 -0.010777 -0.00718152 0.012379
2 1 0.0892836 0.00337469 0.00690048
3 1 -0.00609605 0.00622578 0.0965314
4 1 0.0940723 -0.00241895 0.0910857
ITEM: TIMESTEP
50
ITEM: NUMBER OF ATOMS
4
ITEM: BOX BOUNDS pp pp pp
0.0000000000000000e+00 1.4500000000000000e+01
0.0000000000000000e+00 1.4500000000000000e+01
0.0000000000000000e+00 1.4500000000000000e+01
ITEM: ATOMS id type xs ys zs
1 1 -0.00859584 -0.0107963 0.00804601
2 1 0.0855649 0.00546651 0.00169528
3 1 -0.00177775 0.00967079 0.102067
4 1 0.0912915 -0.00434099 0.0950878
ITEM: TIMESTEP
60
ITEM: NUMBER OF ATOMS
4
ITEM: BOX BOUNDS pp pp pp
0.0000000000000000e+00 1.4500000000000000e+01
0.0000000000000000e+00 1.4500000000000000e+01
0.0000000000000000e+00 1.4500000000000000e+01
ITEM: ATOMS id type xs ys zs
1 1 -0.00498512 -0.0153304 0.00519558
2 1 0.0799576 0.00880859 -0.00197074
3 1 0.00390001 0.0141247 0.10523
4 1 0.0876103 -0.00760288 0.0984412
ITEM: TIMESTEP
70
ITEM: NUMBER OF ATOMS
4
ITEM: BOX BOUNDS pp pp pp
0.0000000000000000e+00 1.4500000000000000e+01
0.0000000000000000e+00 1.4500000000000000e+01
0.0000000000000000e+00 1.4500000000000000e+01
ITEM: ATOMS id type xs ys zs
1 1 -0.00404321 -0.0212008 0.0053926
2 1 0.0774917 0.0139794 -0.00419601
3 1 0.00565669 0.0200458 0.106079
4 1 0.0873776 -0.0128244 0.0996206
ITEM: TIMESTEP
80
ITEM: NUMBER OF ATOMS
4
ITEM: BOX BOUNDS pp pp pp
0.0000000000000000e+00 1.4500000000000000e+01
0.0000000000000000e+00 1.4500000000000000e+01
0.0000000000000000e+00 1.4500000000000000e+01
ITEM: ATOMS id type xs ys zs
1 1 -0.00616248 -0.0282802 0.00919582
2 1 0.0785235 0.0209508 -0.00381029
3 1 0.00344938 0.027221 0.103749
4 1 0.0906724 -0.0198916 0.0977623
ITEM: TIMESTEP
90
ITEM: NUMBER OF ATOMS
4
ITEM: BOX BOUNDS pp pp pp
0.0000000000000000e+00 1.4500000000000000e+01
0.0000000000000000e+00 1.4500000000000000e+01
0.0000000000000000e+00 1.4500000000000000e+01
ITEM: ATOMS id type xs ys zs
1 1 -0.00919994 -0.0348808 0.0154475
2 1 0.0812981 0.0277626 -0.00165778
3 1 -0.000334972 0.0338336 0.0996781
4 1 0.0947195 -0.0267155 0.0934287
ITEM: TIMESTEP
100
ITEM: NUMBER OF ATOMS
4
ITEM: BOX BOUNDS pp pp pp
0.0000000000000000e+00 1.4500000000000000e+01
0.0000000000000000e+00 1.4500000000000000e+01
0.0000000000000000e+00 1.4500000000000000e+01
ITEM: ATOMS id type xs ys zs
1 1 -0.0114399 -0.0389813 0.022287
2 1 0.0835709 0.0321051 0.00190398
3 1 -0.0023472 0.0372698 0.0947573
4 1 0.096699 -0.0303936 0.0879483
ITEM: TIMESTEP
110
ITEM: NUMBER OF ATOMS
4
ITEM: BOX BOUNDS pp pp pp
0.0000000000000000e+00 1.4500000000000000e+01
0.0000000000000000e+00 1.4500000000000000e+01
0.0000000000000000e+00 1.4500000000000000e+01
ITEM: ATOMS id type xs ys zs
1 1 -0.0115496 -0.041148 0.030028
2 1 0.0846766 0.0343975 0.00720079
3 1 -0.00470779 0.0400825 0.0890248
4 1 0.0980635 -0.033332 0.080643
ITEM: TIMESTEP
120
ITEM: NUMBER OF ATOMS
4
ITEM: BOX BOUNDS pp pp pp
0.0000000000000000e+00 1.4500000000000000e+01
0.0000000000000000e+00 1.4500000000000000e+01
0.0000000000000000e+00 1.4500000000000000e+01
ITEM: ATOMS id type xs ys zs
1 1 -0.0126261 -0.0449004 0.0378716
2 1 0.0864493 0.0381965 0.0121704
3 1 -0.0046766 0.0421119 0.0830835
4 1 0.0973361 -0.035408 0.0737711
ITEM: TIMESTEP
130
ITEM: NUMBER OF ATOMS
4
ITEM: BOX BOUNDS pp pp pp
0.0000000000000000e+00 1.4500000000000000e+01
0.0000000000000000e+00 1.4500000000000000e+01
0.0000000000000000e+00 1.4500000000000000e+01
ITEM: ATOMS id type xs ys zs
1 1 -0.00875334 -0.0474725 0.0449264
2 1 0.082986 0.0414123 0.0180768
3 1 -0.00436314 0.047039 0.0764496
4 1 0.0966133 -0.0409788 0.0674437
ITEM: TIMESTEP
140
ITEM: NUMBER OF ATOMS
4
ITEM: BOX BOUNDS pp pp pp
0.0000000000000000e+00 1.4500000000000000e+01
0.0000000000000000e+00 1.4500000000000000e+01
0.0000000000000000e+00 1.4500000000000000e+01
ITEM: ATOMS id type xs ys zs
1 1 0.995569 0.948285 0.0518729
2 1 0.0795048 0.0470633 0.0227265
3 1 0.999811 0.0498364 0.0698532
4 1 0.0915986 0.954816 0.062444
ITEM: TIMESTEP
150
ITEM: NUMBER OF ATOMS
4
ITEM: BOX BOUNDS pp pp pp
0.0000000000000000e+00 1.4500000000000000e+01
0.0000000000000000e+00 1.4500000000000000e+01
0.0000000000000000e+00 1.4500000000000000e+01
ITEM: ATOMS id type xs ys zs
1 1 1.00058 0.947517 0.0572266
2 1 0.0761338 0.0495594 0.0259208
3 1 1.00218 0.0516213 0.0653786
4 1 0.0875857 0.951302 0.0583705
ITEM: TIMESTEP
160
ITEM: NUMBER OF ATOMS
4
ITEM: BOX BOUNDS pp pp pp
0.0000000000000000e+00 1.4500000000000000e+01
0.0000000000000000e+00 1.4500000000000000e+01
0.0000000000000000e+00 1.4500000000000000e+01
ITEM: ATOMS id type xs ys zs
1 1 1.00068 0.947886 0.0620741
2 1 0.0780716 0.0506001 0.0259974
3 1 0.999584 0.0517364 0.0642425
4 1 0.0881484 0.949777 0.0545826
ITEM: TIMESTEP
170
ITEM: NUMBER OF ATOMS
4
ITEM: BOX BOUNDS pp pp pp
0.0000000000000000e+00 1.4500000000000000e+01
0.0000000000000000e+00 1.4500000000000000e+01
0.0000000000000000e+00 1.4500000000000000e+01
ITEM: ATOMS id type xs ys zs
1 1 0.99812 0.951735 0.0657505
2 1 0.0822178 0.0474498 0.0247929
3 1 0.997 0.046223 0.0653118
4 1 0.0891451 0.954592 0.0510413
ITEM: TIMESTEP
180
ITEM: NUMBER OF ATOMS
4
ITEM: BOX BOUNDS pp pp pp
0.0000000000000000e+00 1.4500000000000000e+01
0.0000000000000000e+00 1.4500000000000000e+01
0.0000000000000000e+00 1.4500000000000000e+01
ITEM: ATOMS id type xs ys zs
1 1 0.995929 0.95721 0.0678391
2 1 0.084783 0.0416694 0.023452
3 1 0.992399 0.0429427 0.067783
4 1 0.093372 0.958178 0.0478225
ITEM: TIMESTEP
190
ITEM: NUMBER OF ATOMS
4
ITEM: BOX BOUNDS pp pp pp
0.0000000000000000e+00 1.4500000000000000e+01
0.0000000000000000e+00 1.4500000000000000e+01
0.0000000000000000e+00 1.4500000000000000e+01
ITEM: ATOMS id type xs ys zs
1 1 0.992742 0.956543 0.069946
2 1 0.0869127 0.04111 0.02034
3 1 0.992184 0.0418885 0.0695434
4 1 0.0946444 0.960458 0.0470672
ITEM: TIMESTEP
200
ITEM: NUMBER OF ATOMS
4
ITEM: BOX BOUNDS pp pp pp
0.0000000000000000e+00 1.4500000000000000e+01
0.0000000000000000e+00 1.4500000000000000e+01
0.0000000000000000e+00 1.4500000000000000e+01
ITEM: ATOMS id type xs ys zs
1 1 0.994837 0.954127 0.0691034
2 1 0.082453 0.0418969 0.0181477
3 1 0.995796 0.0448435 0.0704341
4 1 0.0933969 0.959132 0.0492113
ITEM: TIMESTEP
210
ITEM: NUMBER OF ATOMS
4
ITEM: BOX BOUNDS pp pp pp
0.0000000000000000e+00 1.4500000000000000e+01
0.0000000000000000e+00 1.4500000000000000e+01
0.0000000000000000e+00 1.4500000000000000e+01
ITEM: ATOMS id type xs ys zs
1 1 0.999267 0.950422 0.0662456
2 1 0.0745115 0.0440292 0.0154622
3 1 1.00106 0.0502488 0.0715907
4 1 0.0916487 0.9553 0.0535979
ITEM: TIMESTEP
220
ITEM: NUMBER OF ATOMS
4
ITEM: BOX BOUNDS pp pp pp
0.0000000000000000e+00 1.4500000000000000e+01
0.0000000000000000e+00 1.4500000000000000e+01
0.0000000000000000e+00 1.4500000000000000e+01
ITEM: ATOMS id type xs ys zs
1 1 0.999909 0.945215 0.0636608
2 1 0.0693437 0.0476454 0.00952344
3 1 1.00699 0.0536644 0.0745647
4 1 0.0902367 0.953476 0.0591477
ITEM: TIMESTEP
230
ITEM: NUMBER OF ATOMS
4
ITEM: BOX BOUNDS pp pp pp
0.0000000000000000e+00 1.4500000000000000e+01
0.0000000000000000e+00 1.4500000000000000e+01
0.0000000000000000e+00 1.4500000000000000e+01
ITEM: ATOMS id type xs ys zs
1 1 0.999879 0.946659 0.0583971
2 1 0.0638112 0.0442604 0.00361247
3 1 1.01 0.0554306 0.0808039
4 1 0.0927934 0.95365 0.0640831
ITEM: TIMESTEP
240
ITEM: NUMBER OF ATOMS
4
ITEM: BOX BOUNDS pp pp pp
0.0000000000000000e+00 1.4500000000000000e+01
0.0000000000000000e+00 1.4500000000000000e+01
0.0000000000000000e+00 1.4500000000000000e+01
ITEM: ATOMS id type xs ys zs
1 1 0.994324 0.946287 0.0553577
2 1 0.0626605 0.0427467 -0.0057365
3 1 1.01269 0.0535892 0.0886549
4 1 0.0968072 0.957377 0.0686204
ITEM: TIMESTEP
250
ITEM: NUMBER OF ATOMS
4
ITEM: BOX BOUNDS pp pp pp
0.0000000000000000e+00 1.4500000000000000e+01
0.0000000000000000e+00 1.4500000000000000e+01
0.0000000000000000e+00 1.4500000000000000e+01
ITEM: ATOMS id type xs ys zs
1 1 0.991142 0.949983 0.0512024
2 1 0.0603084 0.0362197 -0.0101976
3 1 1.01342 0.0526426 0.0956223
4 1 0.101611 0.961155 0.0702694
ITEM: TIMESTEP
260
ITEM: NUMBER OF ATOMS
4
ITEM: BOX BOUNDS pp pp pp
0.0000000000000000e+00 1.4500000000000000e+01
0.0000000000000000e+00 1.4500000000000000e+01
0.0000000000000000e+00 1.4500000000000000e+01
ITEM: ATOMS id type xs ys zs
1 1 0.986285 0.951285 0.0502334
2 1 0.0600193 0.0326911 -0.0128614
3 1 1.01605 0.0493734 0.0986438
4 1 0.104124 0.96665 0.0708807
ITEM: TIMESTEP
270
ITEM: NUMBER OF ATOMS
4
ITEM: BOX BOUNDS pp pp pp
0.0000000000000000e+00 1.4500000000000000e+01
0.0000000000000000e+00 1.4500000000000000e+01
0.0000000000000000e+00 1.4500000000000000e+01
ITEM: ATOMS id type xs ys zs
1 1 0.984949 0.956129 0.0494797
2 1 0.0597269 0.0262183 -0.0134513
3 1 1.01497 0.0468702 0.102406
4 1 0.106833 0.970783 0.0684625
ITEM: TIMESTEP
280
ITEM: NUMBER OF ATOMS
4
ITEM: BOX BOUNDS pp pp pp
0.0000000000000000e+00 1.4500000000000000e+01
0.0000000000000000e+00 1.4500000000000000e+01
0.0000000000000000e+00 1.4500000000000000e+01
ITEM: ATOMS id type xs ys zs
1 1 0.979705 0.960466 0.0513248
2 1 0.0623773 0.020705 -0.0133888
3 1 1.01646 0.0401626 0.103306
4 1 0.107943 0.978666 0.0656548
ITEM: TIMESTEP
290
ITEM: NUMBER OF ATOMS
4
ITEM: BOX BOUNDS pp pp pp
0.0000000000000000e+00 1.4500000000000000e+01
0.0000000000000000e+00 1.4500000000000000e+01
0.0000000000000000e+00 1.4500000000000000e+01
ITEM: ATOMS id type xs ys zs
1 1 0.979574 0.96672 0.0509596
2 1 0.0632392 0.0129691 -0.0151804
3 1 1.01698 0.034211 0.107844
4 1 0.10669 0.9861 0.0632732
ITEM: TIMESTEP
300
ITEM: NUMBER OF ATOMS
4
ITEM: BOX BOUNDS pp pp pp
0.0000000000000000e+00 1.4500000000000000e+01
0.0000000000000000e+00 1.4500000000000000e+01
0.0000000000000000e+00 1.4500000000000000e+01
ITEM: ATOMS id type xs ys zs
1 1 0.977678 0.971864 0.0472422
2 1 0.0589797 0.0058199 -0.014151
3 1 1.02119 0.0287371 0.109199
4 1 0.108635 0.993579 0.0646066
ITEM: TIMESTEP
310
ITEM: NUMBER OF ATOMS
4
ITEM: BOX BOUNDS pp pp pp
0.0000000000000000e+00 1.4500000000000000e+01
0.0000000000000000e+00 1.4500000000000000e+01
0.0000000000000000e+00 1.4500000000000000e+01
ITEM: ATOMS id type xs ys zs
1 1 0.981257 0.976384 0.0417784
2 1 0.0519697 -0.00108672 -0.0152729
3 1 1.027 0.0252386 0.11242
4 1 0.106253 0.999464 0.0679709
ITEM: TIMESTEP
320
ITEM: NUMBER OF ATOMS
4
ITEM: BOX BOUNDS pp pp pp
0.0000000000000000e+00 1.4500000000000000e+01
0.0000000000000000e+00 1.4500000000000000e+01
0.0000000000000000e+00 1.4500000000000000e+01
ITEM: ATOMS id type xs ys zs
1 1 0.980478 0.978689 0.0367127
2 1 0.0461022 0.993992 0.984844
3 1 0.0318398 0.0228561 0.114035
4 1 0.108063 0.00446279 0.0713048
ITEM: TIMESTEP
330
ITEM: NUMBER OF ATOMS
4
ITEM: BOX BOUNDS pp pp pp
0.0000000000000000e+00 1.4500000000000000e+01
0.0000000000000000e+00 1.4500000000000000e+01
0.0000000000000000e+00 1.4500000000000000e+01
ITEM: ATOMS id type xs ys zs
1 1 0.980396 0.980595 0.0370424
2 1 0.0452065 0.9916 0.986257
3 1 0.0331802 0.0209175 0.113676
4 1 0.1077 0.00688766 0.0699213
ITEM: TIMESTEP
340
ITEM: NUMBER OF ATOMS
4
ITEM: BOX BOUNDS pp pp pp
0.0000000000000000e+00 1.4500000000000000e+01
0.0000000000000000e+00 1.4500000000000000e+01
0.0000000000000000e+00 1.4500000000000000e+01
ITEM: ATOMS id type xs ys zs
1 1 0.979795 0.982183 0.0428093
2 1 0.050035 0.99093 0.985799
3 1 0.0303964 0.0198743 0.114504
4 1 0.106256 0.00701193 0.063784
ITEM: TIMESTEP
350
ITEM: NUMBER OF ATOMS
4
ITEM: BOX BOUNDS pp pp pp
0.0000000000000000e+00 1.4500000000000000e+01
0.0000000000000000e+00 1.4500000000000000e+01
0.0000000000000000e+00 1.4500000000000000e+01
ITEM: ATOMS id type xs ys zs
1 1 0.975102 0.982223 0.0492929
2 1 0.0560755 0.99207 0.987812
3 1 0.0267876 0.019055 0.112556
4 1 0.108517 0.00665152 0.0572364
ITEM: TIMESTEP
360
ITEM: NUMBER OF ATOMS
4
ITEM: BOX BOUNDS pp pp pp
0.0000000000000000e+00 1.4500000000000000e+01
0.0000000000000000e+00 1.4500000000000000e+01
0.0000000000000000e+00 1.4500000000000000e+01
ITEM: ATOMS id type xs ys zs
1 1 0.975642 0.981604 0.0532881
2 1 0.0591031 0.992811 0.986412
3 1 0.0250303 0.0203174 0.11358
4 1 0.106708 0.00526801 0.0536162
ITEM: TIMESTEP
370
ITEM: NUMBER OF ATOMS
4
ITEM: BOX BOUNDS pp pp pp
0.0000000000000000e+00 1.4500000000000000e+01
0.0000000000000000e+00 1.4500000000000000e+01
0.0000000000000000e+00 1.4500000000000000e+01
ITEM: ATOMS id type xs ys zs
1 1 0.977233 0.978937 0.0526505
2 1 0.0552007 0.994109 0.987
3 1 0.0280183 0.022892 0.111732
4 1 0.106031 0.00406133 0.0555134
ITEM: TIMESTEP
380
ITEM: NUMBER OF ATOMS
4
ITEM: BOX BOUNDS pp pp pp
0.0000000000000000e+00 1.4500000000000000e+01
0.0000000000000000e+00 1.4500000000000000e+01
0.0000000000000000e+00 1.4500000000000000e+01
ITEM: ATOMS id type xs ys zs
1 1 0.97823 0.97418 0.0490268
2 1 0.0472011 0.995171 0.984022
3 1 0.0327505 0.0280598 0.112618
4 1 0.108301 0.00258926 0.0612301
ITEM: TIMESTEP
390
ITEM: NUMBER OF ATOMS
4
ITEM: BOX BOUNDS pp pp pp
0.0000000000000000e+00 1.4500000000000000e+01
0.0000000000000000e+00 1.4500000000000000e+01
0.0000000000000000e+00 1.4500000000000000e+01
ITEM: ATOMS id type xs ys zs
1 1 0.982915 0.96912 0.0465358
2 1 0.0392811 0.99811 0.982636
3 1 0.0361727 0.0339116 0.111391
4 1 0.108114 -0.00114095 0.0663336
ITEM: TIMESTEP
400
ITEM: NUMBER OF ATOMS
4
ITEM: BOX BOUNDS pp pp pp
0.0000000000000000e+00 1.4500000000000000e+01
0.0000000000000000e+00 1.4500000000000000e+01
0.0000000000000000e+00 1.4500000000000000e+01
ITEM: ATOMS id type xs ys zs
1 1 0.984072 0.962587 0.0477283
2 1 0.0348964 1.00388 0.983046
3 1 0.0362515 0.0398518 0.107465
4 1 0.111263 -0.00632162 0.0686577
ITEM: TIMESTEP
410
ITEM: NUMBER OF ATOMS
4
ITEM: BOX BOUNDS pp pp pp
0.0000000000000000e+00 1.4500000000000000e+01
0.0000000000000000e+00 1.4500000000000000e+01
0.0000000000000000e+00 1.4500000000000000e+01
ITEM: ATOMS id type xs ys zs
1 1 0.987397 0.956456 0.0533956
2 1 0.0347868 1.01034 0.980301
3 1 0.0335673 0.0463902 0.106173
4 1 0.110732 -0.0131867 0.0670267
ITEM: TIMESTEP
420
ITEM: NUMBER OF ATOMS
4
ITEM: BOX BOUNDS pp pp pp
0.0000000000000000e+00 1.4500000000000000e+01
0.0000000000000000e+00 1.4500000000000000e+01
0.0000000000000000e+00 1.4500000000000000e+01
ITEM: ATOMS id type xs ys zs
1 1 0.986157 0.94953 0.0588143
2 1 0.0359997 1.01689 0.980182
3 1 0.0313413 0.051603 0.10295
4 1 0.112985 -0.0180256 0.0649506
ITEM: TIMESTEP
430
ITEM: NUMBER OF ATOMS
4
ITEM: BOX BOUNDS pp pp pp
0.0000000000000000e+00 1.4500000000000000e+01
0.0000000000000000e+00 1.4500000000000000e+01
0.0000000000000000e+00 1.4500000000000000e+01
ITEM: ATOMS id type xs ys zs
1 1 0.990007 0.946355 0.0634146
2 1 0.0369033 1.02081 0.979185
3 1 0.0300272 0.0548885 0.101622
4 1 0.109546 -0.022056 0.0626749
ITEM: TIMESTEP
440
ITEM: NUMBER OF ATOMS
4
ITEM: BOX BOUNDS pp pp pp
0.0000000000000000e+00 1.4500000000000000e+01
0.0000000000000000e+00 1.4500000000000000e+01
0.0000000000000000e+00 1.4500000000000000e+01
ITEM: ATOMS id type xs ys zs
1 1 0.99181 0.946557 0.0659481
2 1 0.0351449 1.02352 0.982056
3 1 0.0272366 0.0562176 0.0976593
4 1 0.112292 -0.0262929 0.0612333
ITEM: TIMESTEP
450
ITEM: NUMBER OF ATOMS
4
ITEM: BOX BOUNDS pp pp pp
0.0000000000000000e+00 1.4500000000000000e+01
0.0000000000000000e+00 1.4500000000000000e+01
0.0000000000000000e+00 1.4500000000000000e+01
ITEM: ATOMS id type xs ys zs
1 1 0.996844 0.945233 0.0699131
2 1 0.0357738 1.02605 0.981194
3 1 0.0261686 0.0577224 0.0965066
4 1 0.107696 -0.0290055 0.0592826
ITEM: TIMESTEP
460
ITEM: NUMBER OF ATOMS
4
ITEM: BOX BOUNDS pp pp pp
0.0000000000000000e+00 1.4500000000000000e+01
0.0000000000000000e+00 1.4500000000000000e+01
0.0000000000000000e+00 1.4500000000000000e+01
ITEM: ATOMS id type xs ys zs
1 1 1.002 0.944172 0.0735406
2 1 0.0362923 1.02938 0.984845
3 1 0.0235858 0.0602204 0.0922768
4 1 0.104609 -0.0337767 0.0562339
ITEM: TIMESTEP
470
ITEM: NUMBER OF ATOMS
4
ITEM: BOX BOUNDS pp pp pp
0.0000000000000000e+00 1.4500000000000000e+01
0.0000000000000000e+00 1.4500000000000000e+01
0.0000000000000000e+00 1.4500000000000000e+01
ITEM: ATOMS id type xs ys zs
1 1 1.00827 0.944094 0.0792656
2 1 0.0363629 1.03589 0.988665
3 1 0.0210578 0.0590782 0.0847182
4 1 0.100788 -0.0390631 0.0542476
ITEM: TIMESTEP
480
ITEM: NUMBER OF ATOMS
4
ITEM: BOX BOUNDS pp pp pp
0.0000000000000000e+00 1.4500000000000000e+01
0.0000000000000000e+00 1.4500000000000000e+01
0.0000000000000000e+00 1.4500000000000000e+01
ITEM: ATOMS id type xs ys zs
1 1 1.01315 0.94647 0.0836384
2 1 0.0380138 1.0379 0.995167
3 1 0.0176476 0.058188 0.0785413
4 1 0.0976726 -0.0425557 0.0495498
ITEM: TIMESTEP
490
ITEM: NUMBER OF ATOMS
4
ITEM: BOX BOUNDS pp pp pp
0.0000000000000000e+00 1.4500000000000000e+01
0.0000000000000000e+00 1.4500000000000000e+01
0.0000000000000000e+00 1.4500000000000000e+01
ITEM: ATOMS id type xs ys zs
1 1 1.01403 0.94871 0.0906975
2 1 0.0421358 1.03889 0.995987
3 1 0.0139783 0.0554593 0.0771966
4 1 0.0963342 -0.0430555 0.0430153
ITEM: TIMESTEP
500
ITEM: NUMBER OF ATOMS
4
ITEM: BOX BOUNDS pp pp pp
0.0000000000000000e+00 1.4500000000000000e+01
0.0000000000000000e+00 1.4500000000000000e+01
0.0000000000000000e+00 1.4500000000000000e+01
ITEM: ATOMS id type xs ys zs
1 1 0.013595 0.955527 0.0947296
2 1 0.0473942 0.0337241 0.996105
3 1 0.0107872 0.0502188 0.0806586
4 1 0.0947064 0.960531 0.0354029
ITEM: TIMESTEP
510
ITEM: NUMBER OF ATOMS
4
ITEM: BOX BOUNDS pp pp pp
0.0000000000000000e+00 1.4500000000000000e+01
0.0000000000000000e+00 1.4500000000000000e+01
0.0000000000000000e+00 1.4500000000000000e+01
ITEM: ATOMS id type xs ys zs
1 1 0.0124666 0.96002 0.0992557
2 1 0.0524414 0.0295706 0.992189
3 1 0.00738283 0.0472458 0.0862282
4 1 0.0941919 0.963163 0.0292234
ITEM: TIMESTEP
520
ITEM: NUMBER OF ATOMS
4
ITEM: BOX BOUNDS pp pp pp
0.0000000000000000e+00 1.4500000000000000e+01
0.0000000000000000e+00 1.4500000000000000e+01
0.0000000000000000e+00 1.4500000000000000e+01
ITEM: ATOMS id type xs ys zs
1 1 0.013819 0.961621 0.0996066
2 1 0.0526607 0.027419 0.990023
3 1 0.0079841 0.0458353 0.0882453
4 1 0.0920189 0.965125 0.0290215
ITEM: TIMESTEP
530
ITEM: NUMBER OF ATOMS
4
ITEM: BOX BOUNDS pp pp pp
0.0000000000000000e+00 1.4500000000000000e+01
0.0000000000000000e+00 1.4500000000000000e+01
0.0000000000000000e+00 1.4500000000000000e+01
ITEM: ATOMS id type xs ys zs
1 1 0.0173212 0.959058 0.0963912
2 1 0.0470243 0.0285444 0.990045
3 1 0.00951489 0.0501761 0.087523
4 1 0.0926224 0.962221 0.0329373
ITEM: TIMESTEP
540
ITEM: NUMBER OF ATOMS
4
ITEM: BOX BOUNDS pp pp pp
0.0000000000000000e+00 1.4500000000000000e+01
0.0000000000000000e+00 1.4500000000000000e+01
0.0000000000000000e+00 1.4500000000000000e+01
ITEM: ATOMS id type xs ys zs
1 1 0.0194302 0.952191 0.0948932
2 1 0.0388919 0.0330378 0.988627
3 1 0.0146138 0.0549366 0.0832714
4 1 0.0935469 0.959834 0.0401045
ITEM: TIMESTEP
550
ITEM: NUMBER OF ATOMS
4
ITEM: BOX BOUNDS pp pp pp
0.0000000000000000e+00 1.4500000000000000e+01
0.0000000000000000e+00 1.4500000000000000e+01
0.0000000000000000e+00 1.4500000000000000e+01
ITEM: ATOMS id type xs ys zs
1 1 0.019329 0.94911 0.0897633
2 1 0.0298649 0.0326105 0.991973
3 1 0.020008 0.0598118 0.0799724
4 1 0.0972809 0.958467 0.045188
ITEM: TIMESTEP
560
ITEM: NUMBER OF ATOMS
4
ITEM: BOX BOUNDS pp pp pp
0.0000000000000000e+00 1.4500000000000000e+01
0.0000000000000000e+00 1.4500000000000000e+01
0.0000000000000000e+00 1.4500000000000000e+01
ITEM: ATOMS id type xs ys zs
1 1 0.0150294 0.945142 0.0890102
2 1 0.0228863 0.0314328 0.990768
3 1 0.027245 0.0613436 0.0793708
4 1 0.101322 0.962081 0.0477475
ITEM: TIMESTEP
570
ITEM: NUMBER OF ATOMS
4
ITEM: BOX BOUNDS pp pp pp
0.0000000000000000e+00 1.4500000000000000e+01
0.0000000000000000e+00 1.4500000000000000e+01
0.0000000000000000e+00 1.4500000000000000e+01
ITEM: ATOMS id type xs ys zs
1 1 0.00926394 0.94446 0.0862548
2 1 0.0173012 0.0248423 0.990437
3 1 0.0333363 0.0644304 0.082591
4 1 0.106581 0.966268 0.0476142
ITEM: TIMESTEP
580
ITEM: NUMBER OF ATOMS
4
ITEM: BOX BOUNDS pp pp pp
0.0000000000000000e+00 1.4500000000000000e+01
0.0000000000000000e+00 1.4500000000000000e+01
0.0000000000000000e+00 1.4500000000000000e+01
ITEM: ATOMS id type xs ys zs
1 1 0.00490652 0.9444 0.084224
2 1 0.0116217 0.019635 0.988019
3 1 0.0403375 0.0648107 0.0860304
4 1 0.109617 0.971154 0.0486234
ITEM: TIMESTEP
590
ITEM: NUMBER OF ATOMS
4
ITEM: BOX BOUNDS pp pp pp
0.0000000000000000e+00 1.4500000000000000e+01
0.0000000000000000e+00 1.4500000000000000e+01
0.0000000000000000e+00 1.4500000000000000e+01
ITEM: ATOMS id type xs ys zs
1 1 0.00302538 0.945517 0.0806266
2 1 0.00593053 0.0147589 0.988321
3 1 0.0460806 0.0649506 0.0874272
4 1 0.111446 0.974774 0.0505222
ITEM: TIMESTEP
600
ITEM: NUMBER OF ATOMS
4
ITEM: BOX BOUNDS pp pp pp
0.0000000000000000e+00 1.4500000000000000e+01
0.0000000000000000e+00 1.4500000000000000e+01
0.0000000000000000e+00 1.4500000000000000e+01
ITEM: ATOMS id type xs ys zs
1 1 0.000664452 0.945179 0.0765558
2 1 0.00224433 0.0108124 0.991812
3 1 0.0532358 0.0630977 0.0855486
4 1 0.110338 0.980911 0.0529802
ITEM: TIMESTEP
610
ITEM: NUMBER OF ATOMS
4
ITEM: BOX BOUNDS pp pp pp
0.0000000000000000e+00 1.4500000000000000e+01
0.0000000000000000e+00 1.4500000000000000e+01
0.0000000000000000e+00 1.4500000000000000e+01
ITEM: ATOMS id type xs ys zs
1 1 -0.000947824 0.947032 0.0714588
2 1 -0.00291164 0.00695018 0.996671
3 1 0.0596027 0.0588055 0.0820806
4 1 0.11074 0.987212 0.0566862
ITEM: TIMESTEP
620
ITEM: NUMBER OF ATOMS
4
ITEM: BOX BOUNDS pp pp pp
0.0000000000000000e+00 1.4500000000000000e+01
0.0000000000000000e+00 1.4500000000000000e+01
0.0000000000000000e+00 1.4500000000000000e+01
ITEM: ATOMS id type xs ys zs
1 1 -0.000490795 0.946709 0.0677757
2 1 -0.00540908 0.00438235 1.00082
3 1 0.0644698 0.0594705 0.080035
4 1 0.107913 0.989438 0.0582704
ITEM: TIMESTEP
630
ITEM: NUMBER OF ATOMS
4
ITEM: BOX BOUNDS pp pp pp
0.0000000000000000e+00 1.4500000000000000e+01
0.0000000000000000e+00 1.4500000000000000e+01
0.0000000000000000e+00 1.4500000000000000e+01
ITEM: ATOMS id type xs ys zs
1 1 0.00148567 0.945456 0.0685782
2 1 -0.00778279 0.00754321 1.0027
3 1 0.0616652 0.0609684 0.0765021
4 1 0.111115 0.986033 0.0591205
ITEM: TIMESTEP
640
ITEM: NUMBER OF ATOMS
4
ITEM: BOX BOUNDS pp pp pp
0.0000000000000000e+00 1.4500000000000000e+01
0.0000000000000000e+00 1.4500000000000000e+01
0.0000000000000000e+00 1.4500000000000000e+01
ITEM: ATOMS id type xs ys zs
1 1 0.00743994 0.942468 0.0723795
2 1 -0.00461987 0.0137487 1.00464
3 1 0.0554788 0.0653237 0.0728631
4 1 0.108184 0.97846 0.0570183
ITEM: TIMESTEP
650
ITEM: NUMBER OF ATOMS
4
ITEM: BOX BOUNDS pp pp pp
0.0000000000000000e+00 1.4500000000000000e+01
0.0000000000000000e+00 1.4500000000000000e+01
0.0000000000000000e+00 1.4500000000000000e+01
ITEM: ATOMS id type xs ys zs
1 1 0.0158502 0.941089 0.0770653
2 1 -0.00432178 0.0220638 1.00443
3 1 0.0480713 0.067492 0.0690066
4 1 0.106883 0.969355 0.0563983
ITEM: TIMESTEP
660
ITEM: NUMBER OF ATOMS
4
ITEM: BOX BOUNDS pp pp pp
0.0000000000000000e+00 1.4500000000000000e+01
0.0000000000000000e+00 1.4500000000000000e+01
0.0000000000000000e+00 1.4500000000000000e+01
ITEM: ATOMS id type xs ys zs
1 1 0.0219877 0.940535 0.0812635
2 1 -0.000990389 0.0255447 1.00509
3 1 0.0443276 0.06755 0.0669932
4 1 0.101158 0.96637 0.0535519
ITEM: TIMESTEP
670
ITEM: NUMBER OF ATOMS
4
ITEM: BOX BOUNDS pp pp pp
0.0000000000000000e+00 1.4500000000000000e+01
0.0000000000000000e+00 1.4500000000000000e+01
0.0000000000000000e+00 1.4500000000000000e+01
ITEM: ATOMS id type xs ys zs
1 1 0.0229861 0.943052 0.0850992
2 1 -0.0014663 0.0251662 1.00285
3 1 0.0435669 0.0668246 0.0692652
4 1 0.101396 0.964957 0.0496853
ITEM: TIMESTEP
680
ITEM: NUMBER OF ATOMS
4
ITEM: BOX BOUNDS pp pp pp
0.0000000000000000e+00 1.4500000000000000e+01
0.0000000000000000e+00 1.4500000000000000e+01
0.0000000000000000e+00 1.4500000000000000e+01
ITEM: ATOMS id type xs ys zs
1 1 0.0189885 0.944616 0.0901382
2 1 -0.00235448 0.0205377 0.998912
3 1 0.0461423 0.0673192 0.0743984
4 1 0.103706 0.967527 0.0434478
ITEM: TIMESTEP
690
ITEM: NUMBER OF ATOMS
4
ITEM: BOX BOUNDS pp pp pp
0.0000000000000000e+00 1.4500000000000000e+01
0.0000000000000000e+00 1.4500000000000000e+01
0.0000000000000000e+00 1.4500000000000000e+01
ITEM: ATOMS id type xs ys zs
1 1 0.0135313 0.947245 0.0938701
2 1 -0.00321049 0.0144226 0.996268
3 1 0.0489748 0.0682758 0.0802422
4 1 0.107187 0.970057 0.0365159
ITEM: TIMESTEP
700
ITEM: NUMBER OF ATOMS
4
ITEM: BOX BOUNDS pp pp pp
0.0000000000000000e+00 1.4500000000000000e+01
0.0000000000000000e+00 1.4500000000000000e+01
0.0000000000000000e+00 1.4500000000000000e+01
ITEM: ATOMS id type xs ys zs
1 1 0.0102547 0.949895 0.0979833
2 1 -0.00464249 0.0108116 0.993397
3 1 0.0518333 0.0654512 0.0831961
4 1 0.109037 0.973842 0.0323204
ITEM: TIMESTEP
710
ITEM: NUMBER OF ATOMS
4
ITEM: BOX BOUNDS pp pp pp
0.0000000000000000e+00 1.4500000000000000e+01
0.0000000000000000e+00 1.4500000000000000e+01
0.0000000000000000e+00 1.4500000000000000e+01
ITEM: ATOMS id type xs ys zs
1 1 0.00741159 0.952149 0.0991179
2 1 -0.00478122 0.00533496 0.992786
3 1 0.0558931 0.0645579 0.0863002
4 1 0.107959 0.977959 0.0286925
ITEM: TIMESTEP
720
ITEM: NUMBER OF ATOMS
4
ITEM: BOX BOUNDS pp pp pp
0.0000000000000000e+00 1.4500000000000000e+01
0.0000000000000000e+00 1.4500000000000000e+01
0.0000000000000000e+00 1.4500000000000000e+01
ITEM: ATOMS id type xs ys zs
1 1 0.00349694 0.957465 0.0970007
2 1 -0.00561707 -0.00149577 0.996149
3 1 0.0592779 0.0615674 0.0887418
4 1 0.109325 0.982463 0.0250054
ITEM: TIMESTEP
730
ITEM: NUMBER OF ATOMS
4
ITEM: BOX BOUNDS pp pp pp
0.0000000000000000e+00 1.4500000000000000e+01
0.0000000000000000e+00 1.4500000000000000e+01
0.0000000000000000e+00 1.4500000000000000e+01
ITEM: ATOMS id type xs ys zs
1 1 0.000702867 0.963929 0.0926931
2 1 -0.00503091 -0.00922533 1.0011
3 1 0.0637813 0.0566169 0.089902
4 1 0.10703 0.98868 0.0232019
ITEM: TIMESTEP
740
ITEM: NUMBER OF ATOMS
4
ITEM: BOX BOUNDS pp pp pp
0.0000000000000000e+00 1.4500000000000000e+01
0.0000000000000000e+00 1.4500000000000000e+01
0.0000000000000000e+00 1.4500000000000000e+01
ITEM: ATOMS id type xs ys zs
1 1 0.996619 0.970547 0.092216
2 1 0.99617 0.98309 0.00317674
3 1 0.0683011 0.0503201 0.0913475
4 1 0.105393 0.996043 0.0201563
ITEM: TIMESTEP
750
ITEM: NUMBER OF ATOMS
4
ITEM: BOX BOUNDS pp pp pp
0.0000000000000000e+00 1.4500000000000000e+01
0.0000000000000000e+00 1.4500000000000000e+01
0.0000000000000000e+00 1.4500000000000000e+01
ITEM: ATOMS id type xs ys zs
1 1 0.996552 0.977951 0.0943584
2 1 1.00083 0.977807 0.00256916
3 1 0.0697776 0.0431443 0.0926203
4 1 0.0993251 1.0011 0.0173486
ITEM: TIMESTEP
760
ITEM: NUMBER OF ATOMS
4
ITEM: BOX BOUNDS pp pp pp
0.0000000000000000e+00 1.4500000000000000e+01
0.0000000000000000e+00 1.4500000000000000e+01
0.0000000000000000e+00 1.4500000000000000e+01
ITEM: ATOMS id type xs ys zs
1 1 0.995898 0.984207 0.0999406
2 1 1.0063 0.973548 -0.000708944
3 1 0.0702227 0.0382349 0.095903
4 1 0.0940643 1.00401 0.0117618
ITEM: TIMESTEP
770
ITEM: NUMBER OF ATOMS
4
ITEM: BOX BOUNDS pp pp pp
0.0000000000000000e+00 1.4500000000000000e+01
0.0000000000000000e+00 1.4500000000000000e+01
0.0000000000000000e+00 1.4500000000000000e+01
ITEM: ATOMS id type xs ys zs
1 1 0.996575 0.988876 0.102222
2 1 1.01124 0.970982 -0.00114829
3 1 0.0702921 0.0343879 0.0978834
4 1 0.088373 1.00575 0.00793947
ITEM: TIMESTEP
780
ITEM: NUMBER OF ATOMS
4
ITEM: BOX BOUNDS pp pp pp
0.0000000000000000e+00 1.4500000000000000e+01
0.0000000000000000e+00 1.4500000000000000e+01
0.0000000000000000e+00 1.4500000000000000e+01
ITEM: ATOMS id type xs ys zs
1 1 0.995879 0.990889 0.100537
2 1 1.01189 0.967801 0.00138157
3 1 0.0731236 0.0326037 0.0989943
4 1 0.0855855 1.00871 0.00598356
ITEM: TIMESTEP
790
ITEM: NUMBER OF ATOMS
4
ITEM: BOX BOUNDS pp pp pp
0.0000000000000000e+00 1.4500000000000000e+01
0.0000000000000000e+00 1.4500000000000000e+01
0.0000000000000000e+00 1.4500000000000000e+01
ITEM: ATOMS id type xs ys zs
1 1 0.992445 0.990773 0.0968912
2 1 1.0092 0.964019 0.0074506
3 1 0.0779577 0.0313251 0.098107
4 1 0.0868756 1.01388 0.00444772
ITEM: TIMESTEP
800
ITEM: NUMBER OF ATOMS
4
ITEM: BOX BOUNDS pp pp pp
0.0000000000000000e+00 1.4500000000000000e+01
0.0000000000000000e+00 1.4500000000000000e+01
0.0000000000000000e+00 1.4500000000000000e+01
ITEM: ATOMS id type xs ys zs
1 1 0.991237 0.991664 0.0905257
2 1 1.00647 0.959753 0.0142397
3 1 0.0827289 0.0292014 0.0964752
4 1 0.0860448 1.01938 0.005656
ITEM: TIMESTEP
810
ITEM: NUMBER OF ATOMS
4
ITEM: BOX BOUNDS pp pp pp
0.0000000000000000e+00 1.4500000000000000e+01
0.0000000000000000e+00 1.4500000000000000e+01
0.0000000000000000e+00 1.4500000000000000e+01