  254  254    1    1
  0.2268316E+02  0.1514622E-08  0.1514622E-08  0.2900000E-08  0.5000000E-15
   1.0000000000000000E-004
  CAR 
 NiAl                                    
   2532      4   1519
 
  0.1262379E-14  0.1262379E-14  0.1262379E-14  0.2500000E+00
    1      -21.675288   1.000000
    2      -14.947663   1.000000
    3       -9.214955   1.000000
    4       -8.685286   1.000000
    5       -8.307234   1.000000
    6       -8.307199   1.000000
    7       -8.307188   1.000000
    8       -8.307171   1.000000
    9       -8.307161   1.000000
   10       -8.307147   1.000000
   11       -7.856232   1.000000
   12       -7.801086   1.000000
   13       -7.801065   1.000000
   14       -7.801046   1.000000
   15       -7.800997   1.000000
   16       -7.800980   1.000000
   17       -7.800888   1.000000
   18       -7.012769   1.000000
   19       -7.012705   1.000000
   20       -7.012687   1.000000
   21       -7.012538   1.000000
   22       -7.012525   1.000000
   23       -7.012321   1.000000
   24       -6.825720   1.000000
   25       -6.666775   1.000000
   26       -6.666767   1.000000
   27       -6.666766   1.000000
   28       -6.666759   1.000000
   29       -6.666738   1.000000
   30       -6.666728   1.000000
   31       -6.244012   1.000000
   32       -6.244009   1.000000
   33       -6.243997   1.000000
   34       -6.243992   1.000000
   35       -6.243974   1.000000
   36       -6.243965   1.000000
   37       -6.040817   1.000000
   38       -6.040727   1.000000
   39       -6.040714   1.000000
   40       -6.040461   1.000000
   41       -6.040444   1.000000
   42       -6.040130   1.000000
   43       -6.036149   1.000000
   44       -6.036140   1.000000
   45       -6.036133   1.000000
   46       -6.036131   1.000000
   47       -6.036123   1.000000
   48       -6.036117   1.000000
   49       -5.947740   1.000000
   50       -5.800844   1.000000
   51       -5.701036   1.000000
   52       -5.701032   1.000000
   53       -5.701030   1.000000
   54       -5.701028   1.000000
   55       -5.701016   1.000000
   56       -5.701010   1.000000
   57       -5.610823   1.000000
   58       -5.610818   1.000000
   59       -5.610808   1.000000
   60       -5.610788   1.000000
   61       -5.610778   1.000000
   62       -5.610764   1.000000
   63       -5.243608   1.000000
   64       -5.243605   1.000000
   65       -5.243592   1.000000
   66       -5.243586   1.000000
   67       -5.243574   1.000000
   68       -5.243551   1.000000
   69       -5.145650   1.000000
   70       -5.090015   1.000000
   71       -5.089913   1.000000
   72       -5.089902   1.000000
   73       -5.089596   1.000000
   74       -5.089574   1.000000
   75       -5.089225   1.000000
   76       -4.955904   1.000000
   77       -4.898369   1.000000
   78       -4.898368   1.000000
   79       -4.898308   1.000000
   80       -4.879620   1.000000
   81       -4.879606   1.000000
   82       -4.879602   1.000000
   83       -4.879568   1.000000
   84       -4.879561   1.000000
   85       -4.879548   1.000000
   86       -4.775781   1.000000
   87       -4.775777   1.000000
   88       -4.775769   1.000000
   89       -4.775764   1.000000
   90       -4.775712   1.000000
   91       -4.775696   1.000000
   92       -4.742290   1.000000
   93       -4.742283   1.000000
   94       -4.742190   1.000000
   95       -4.666171   1.000000
   96       -4.666158   1.000000
   97       -4.666151   1.000000
   98       -4.666143   1.000000
   99       -4.666124   1.000000
  100       -4.666107   1.000000
  101       -4.666093   1.000000
  102       -4.666088   1.000000
  103       -4.666084   1.000000
  104       -4.666079   1.000000
  105       -4.666078   1.000000
  106       -4.666070   1.000000
  107       -4.620268   1.000000
  108       -4.620266   1.000000
  109       -4.620199   1.000000
  110       -4.533875   1.000000
  111       -4.533869   1.000000
  112       -4.533771   1.000000
  113       -4.511978   1.000000
  114       -4.511915   1.000000
  115       -4.511904   1.000000
  116       -4.511725   1.000000
  117       -4.511692   1.000000
  118       -4.511657   1.000000
  119       -4.467656   1.000000
  120       -4.467650   1.000000
  121       -4.467643   1.000000
  122       -4.467640   1.000000
  123       -4.467615   1.000000
  124       -4.467608   1.000000
  125       -4.467598   1.000000
  126       -4.467593   1.000000
  127       -4.467582   1.000000
  128       -4.467578   1.000000
  129       -4.467554   1.000000
  130       -4.467554   1.000000
  131       -4.433182   1.000000
  132       -4.433164   1.000000
  133       -4.433160   1.000000
  134       -4.433152   1.000000
  135       -4.433139   1.000000
  136       -4.433131   1.000000
  137       -4.433124   1.000000
  138       -4.433114   1.000000
  139       -4.433111   1.000000
  140       -4.433097   1.000000
  141       -4.433094   1.000000
  142       -4.433091   1.000000
  143       -4.408277   1.000000
  144       -4.406993   1.000000
  145       -4.388294   1.000000
  146       -4.388248   1.000000
  147       -4.388231   1.000000
  148       -4.388160   1.000000
  149       -4.388108   1.000000
  150       -4.387503   1.000000
  151       -4.351948   1.000000
  152       -4.351945   1.000000
  153       -4.351919   1.000000
  154       -4.351910   1.000000
  155       -4.351816   1.000000
  156       -4.351808   1.000000
  157       -4.332185   1.000000
  158       -4.332179   1.000000
  159       -4.332078   1.000000
  160       -4.295111   1.000000
  161       -4.295101   1.000000
  162       -4.295100   1.000000
  163       -4.295095   1.000000
  164       -4.295091   1.000000
  165       -4.295081   1.000000
  166       -4.295067   1.000000
  167       -4.295061   1.000000
  168       -4.295052   1.000000
  169       -4.295046   1.000000
  170       -4.295025   1.000000
  171       -4.295013   1.000000
  172       -4.224942   1.000000
  173       -4.224932   1.000000
  174       -4.224921   1.000000
  175       -4.224893   1.000000
  176       -4.224879   1.000000
  177       -4.224834   1.000000
  178       -4.185944   1.000000
  179       -4.185944   1.000000
  180       -4.185774   1.000000
  181       -4.117549   1.000000
  182       -4.117543   1.000000
  183       -4.117433   1.000000
  184       -4.095172   1.000000
  185       -4.095164   1.000000
  186       -4.095150   1.000000
  187       -4.095143   1.000000
  188       -4.095131   1.000000
  189       -4.095128   1.000000
  190       -4.095119   1.000000
  191       -4.095113   1.000000
  192       -4.095089   1.000000
  193       -4.095083   1.000000
  194       -4.095075   1.000000
  195       -4.095069   1.000000
  196       -4.032114   1.000000
  197       -4.032110   1.000000
  198       -4.031974   1.000000
  199       -3.977708   1.000000
  200       -3.977707   1.000000
  201       -3.977559   1.000000
  202       -3.975241   1.000000
  203       -3.975240   1.000000
  204       -3.975227   1.000000
  205       -3.975223   1.000000
  206       -3.975086   1.000000
  207       -3.975082   1.000000
  208       -3.905995   1.000000
  209       -3.905981   1.000000
  210       -3.905978   1.000000
  211       -3.905970   1.000000
  212       -3.905968   1.000000
  213       -3.905958   1.000000
  214       -3.905937   1.000000
  215       -3.905924   1.000000
  216       -3.905800   1.000000
  217       -3.905780   1.000000
  218       -3.905768   1.000000
  219       -3.905759   1.000000
  220       -3.899825   1.000000
  221       -3.899813   1.000000
  222       -3.899807   1.000000
  223       -3.899795   1.000000
  224       -3.899672   1.000000
  225       -3.899662   1.000000
  226       -3.846774   1.000000
  227       -3.846762   1.000000
  228       -3.846743   1.000000
  229       -3.846735   1.000000
  230       -3.846717   1.000000
  231       -3.846712   1.000000
  232       -3.846698   1.000000
  233       -3.846687   1.000000
  234       -3.846681   1.000000
  235       -3.846675   1.000000
  236       -3.846653   1.000000
  237       -3.846646   1.000000
  238       -3.823744   1.000000
  239       -3.823741   1.000000
  240       -3.823695   1.000000
  241       -3.823689   1.000000
  242       -3.823681   1.000000
  243       -3.823673   1.000000
  244       -3.784380   1.000000
  245       -3.784368   1.000000
  246       -3.784363   1.000000
  247       -3.784354   1.000000
  248       -3.784263   1.000000
  249       -3.784253   1.000000
  250       -3.780564   1.000000
  251       -3.780560   1.000000
  252       -3.780482   1.000000
  253       -3.780476   1.000000
  254       -3.772272   1.000000
  255       -3.772267   1.000000
  256       -3.717777   1.000000
  257       -3.717761   1.000000
  258       -3.717757   1.000000
  259       -3.717751   1.000000
  260       -3.717750   1.000000
  261       -3.717742   1.000000
  262       -3.717737   1.000000
  263       -3.717721   1.000000
  264       -3.717616   1.000000
  265       -3.717602   1.000000
  266       -3.717561   1.000000
  267       -3.717552   1.000000
  268       -3.708978   1.000000
  269       -3.708978   1.000000
  270       -3.708874   1.000000
  271       -3.684539   1.000000
  272       -3.684533   1.000000
  273       -3.684484   1.000000
  274       -3.684477   1.000000
  275       -3.662279   1.000000
  276       -3.662275   1.000000
  277       -3.662263   1.000000
  278       -3.662257   1.000000
  279       -3.662090   1.000000
  280       -3.662074   1.000000
  281       -3.650888   1.000000
  282       -3.650886   1.000000
  283       -3.640610   1.000000
  284       -3.640604   1.000000
  285       -3.640531   1.000000
  286       -3.640525   1.000000
  287       -3.638749   1.000000
  288       -3.638747   1.000000
  289       -3.635495   1.000000
  290       -3.635490   1.000000
  291       -3.635459   1.000000
  292       -3.635456   1.000000
  293       -3.635448   1.000000
  294       -3.635444   1.000000
  295       -3.566807   1.000000
  296       -3.566799   1.000000
  297       -3.566619   1.000000
  298       -3.566618   1.000000
  299       -3.559308   1.000000
  300       -3.559292   1.000000
  301       -3.559251   1.000000
  302       -3.559248   1.000000
  303       -3.559209   1.000000
  304       -3.559201   1.000000
  305       -3.559193   1.000000
  306       -3.559188   1.000000
  307       -3.559144   1.000000
  308       -3.559140   1.000000
  309       -3.559120   1.000000
  310       -3.559112   1.000000
  311       -3.487773   1.000000
  312       -3.487768   1.000000
  313       -3.487708   1.000000
  314       -3.487702   1.000000
  315       -3.487698   1.000000
  316       -3.487696   1.000000
  317       -3.451594   1.000000
  318       -3.451590   1.000000
  319       -3.451574   1.000000
  320       -3.451561   1.000000
  321       -3.451548   1.000000
  322       -3.451537   1.000000
  323       -3.451523   1.000000
  324       -3.451510   1.000000
  325       -3.451446   1.000000
  326       -3.451421   1.000000
  327       -3.451405   1.000000
  328       -3.451390   1.000000
  329       -3.441036   1.000000
  330       -3.441024   1.000000
  331       -3.440966   1.000000
  332       -3.440956   1.000000
  333       -3.440949   1.000000
  334       -3.440941   1.000000
  335       -3.433696   1.000000
  336       -3.433692   1.000000
  337       -3.433674   1.000000
  338       -3.433668   1.000000
  339       -3.433565   1.000000
  340       -3.433547   1.000000
  341       -3.345738   1.000000
  342       -3.345737   1.000000
  343       -3.345708   1.000000
  344       -3.306046   1.000000
  345       -3.306036   1.000000
  346       -3.305972   1.000000
  347       -3.305963   1.000000
  348       -3.305960   1.000000
  349       -3.305953   1.000000
  350       -3.294502   1.000000
  351       -3.294497   1.000000
  352       -3.271521   1.000000
  353       -3.271518   1.000000
  354       -3.271458   1.000000
  355       -3.271449   1.000000
  356       -3.271425   1.000000
  357       -3.271421   1.000000
  358       -3.271412   1.000000
  359       -3.271408   1.000000
  360       -3.271382   1.000000
  361       -3.271374   1.000000
  362       -3.271354   1.000000
  363       -3.271335   1.000000
  364       -3.262149   1.000000
  365       -3.262144   1.000000
  366       -3.200345   1.000000
  367       -3.200341   1.000000
  368       -3.200313   1.000000
  369       -3.200302   1.000000
  370       -3.200271   1.000000
  371       -3.200246   1.000000
  372       -3.175109   1.000000
  373       -3.175107   1.000000
  374       -3.175022   1.000000
  375       -3.175016   1.000000
  376       -3.175010   1.000000
  377       -3.175006   1.000000
  378       -3.174607   1.000000
  379       -3.174600   1.000000
  380       -3.174573   1.000000
  381       -3.174569   1.000000
  382       -3.174493   1.000000
  383       -3.174472   1.000000
  384       -3.122917   1.000000
  385       -3.122914   1.000000
  386       -3.122880   1.000000
  387       -3.122879   1.000000
  388       -3.122865   1.000000
  389       -3.122859   1.000000
  390       -3.122851   1.000000
  391       -3.122848   1.000000
  392       -3.122811   1.000000
  393       -3.122799   1.000000
  394       -3.122783   1.000000
  395       -3.122765   1.000000
  396       -3.067820   1.000000
  397       -3.067808   1.000000
  398       -3.067720   1.000000
  399       -3.067711   1.000000
  400       -3.067704   1.000000
  401       -3.067698   1.000000
  402       -3.008646   1.000000
  403       -3.008638   1.000000
  404       -3.008552   1.000000
  405       -3.008532   1.000000
  406       -3.008500   1.000000
  407       -3.008477   1.000000
  408       -2.998576   1.000000
  409       -2.998574   1.000000
  410       -2.998563   1.000000
  411       -2.998556   1.000000
  412       -2.998516   1.000000
  413       -2.998494   1.000000
  414       -2.972245   1.000000
  415       -2.972234   1.000000
  416       -2.972232   1.000000
  417       -2.972225   1.000000
  418       -2.972214   1.000000
  419       -2.972204   1.000000
  420       -2.965708   1.000000
  421       -2.965702   1.000000
  422       -2.965604   1.000000
  423       -2.965593   1.000000
  424       -2.965565   1.000000
  425       -2.965547   1.000000
  426       -2.942422   1.000000
  427       -2.942417   1.000000
  428       -2.942412   1.000000
  429       -2.942391   1.000000
  430       -2.942385   1.000000
  431       -2.942373   1.000000
  432       -2.938345   1.000000
  433       -2.938339   1.000000
  434       -2.938336   1.000000
  435       -2.938319   1.000000
  436       -2.938300   1.000000
  437       -2.938296   1.000000
  438       -2.938272   1.000000
  439       -2.938270   1.000000
  440       -2.938247   1.000000
  441       -2.938240   1.000000
  442       -2.938228   1.000000
  443       -2.938220   1.000000
  444       -2.874706   1.000000
  445       -2.874698   1.000000
  446       -2.874656   1.000000
  447       -2.865250   1.000000
  448       -2.865246   1.000000
  449       -2.865237   1.000000
  450       -2.865228   1.000000
  451       -2.865207   1.000000
  452       -2.865205   1.000000
  453       -2.865195   1.000000
  454       -2.865191   1.000000
  455       -2.865185   1.000000
  456       -2.865178   1.000000
  457       -2.865167   1.000000
  458       -2.865155   1.000000
  459       -2.861638   1.000000
  460       -2.861625   1.000000
  461       -2.861599   1.000000
  462       -2.861576   1.000000
  463       -2.861513   1.000000
  464       -2.861488   1.000000
  465       -2.824234   1.000000
  466       -2.824231   1.000000
  467       -2.824101   1.000000
  468       -2.824091   1.000000
  469       -2.774188   1.000000
  470       -2.774182   1.000000
  471       -2.774167   1.000000
  472       -2.774155   1.000000
  473       -2.774139   1.000000
  474       -2.774133   1.000000
  475       -2.770919   1.000000
  476       -2.770916   1.000000
  477       -2.768732   1.000000
  478       -2.768723   1.000000
  479       -2.768697   1.000000
  480       -2.768688   1.000000
  481       -2.768664   1.000000
  482       -2.768650   1.000000
  483       -2.768147   1.000000
  484       -2.768132   1.000000
  485       -2.768031   1.000000
  486       -2.768021   1.000000
  487       -2.768017   1.000000
  488       -2.768006   1.000000
  489       -2.762490   1.000000
  490       -2.762481   1.000000
  491       -2.762472   1.000000
  492       -2.762466   1.000000
  493       -2.762462   1.000000
  494       -2.762443   1.000000
  495       -2.762440   1.000000
  496       -2.762436   1.000000
  497       -2.762432   1.000000
  498       -2.762412   1.000000
  499       -2.762410   1.000000
  500       -2.762402   1.000000
  501       -2.710181   1.000000
  502       -2.710178   1.000000
  503       -2.710133   1.000000
  504       -2.710061   1.000000
  505       -2.709973   1.000000
  506       -2.709841   1.000000
  507       -2.702277   1.000000
  508       -2.702276   1.000000
  509       -2.702232   1.000000
  510       -2.702228   1.000000
  511       -2.702224   1.000000
  512       -2.702217   1.000000
  513       -2.676474   1.000000
  514       -2.676473   1.000000
  515       -2.676320   1.000000
  516       -2.676310   1.000000
  517       -2.666194   1.000000
  518       -2.647841   1.000000
  519       -2.647830   1.000000
  520       -2.647760   1.000000
  521       -2.647733   1.000000
  522       -2.647706   1.000000
  523       -2.647666   1.000000
  524       -2.626976   1.000000
  525       -2.603391   1.000000
  526       -2.603378   1.000000
  527       -2.603347   1.000000
  528       -2.603342   1.000000
  529       -2.603336   1.000000
  530       -2.603327   1.000000
  531       -2.603286   1.000000
  532       -2.603265   1.000000
  533       -2.603262   1.000000
  534       -2.603254   1.000000
  535       -2.603240   1.000000
  536       -2.603217   1.000000
  537       -2.586057   1.000000
  538       -2.586033   1.000000
  539       -2.585983   1.000000
  540       -2.585903   1.000000
  541       -2.585875   1.000000
  542       -2.585794   1.000000
  543       -2.560216   1.000000
  544       -2.560213   1.000000
  545       -2.560070   1.000000
  546       -2.545084   1.000000
  547       -2.545050   1.000000
  548       -2.544991   1.000000
  549       -2.544899   1.000000
  550       -2.544804   1.000000
  551       -2.544594   1.000000
  552       -2.531621   1.000000
  553       -2.531603   1.000000
  554       -2.531588   1.000000
  555       -2.531582   1.000000
  556       -2.531568   1.000000
  557       -2.531554   1.000000
  558       -2.531544   1.000000
  559       -2.531540   1.000000
  560       -2.531534   1.000000
  561       -2.531523   1.000000
  562       -2.531521   1.000000
  563       -2.531512   1.000000
  564       -2.522196   1.000000
  565       -2.522169   1.000000
  566       -2.522139   1.000000
  567       -2.522074   1.000000
  568       -2.522051   1.000000
  569       -2.521991   1.000000
  570       -2.521711   1.000000
  571       -2.521636   1.000000
  572       -2.521630   1.000000
  573       -2.470932   1.000000
  574       -2.470929   1.000000
  575       -2.470896   1.000000
  576       -2.470894   1.000000
  577       -2.470824   1.000000
  578       -2.470811   1.000000
  579       -2.469681   1.000000
  580       -2.469516   1.000000
  581       -2.468075   1.000000
  582       -2.467855   1.000000
  583       -2.456285   1.000000
  584       -2.456283   1.000000
  585       -2.456260   1.000000
  586       -2.456235   1.000000
  587       -2.456126   1.000000
  588       -2.456091   1.000000
  589       -2.438256   1.000000
  590       -2.427751   1.000000
  591       -2.427739   1.000000
  592       -2.427737   1.000000
  593       -2.427728   1.000000
  594       -2.427722   1.000000
  595       -2.427710   1.000000
  596       -2.414486   1.000000
  597       -2.414473   1.000000
  598       -2.414470   1.000000
  599       -2.414460   1.000000
  600       -2.414414   1.000000
  601       -2.414411   1.000000
  602       -2.409295   1.000000
  603       -2.409293   1.000000
  604       -2.409115   1.000000
  605       -2.395543   1.000000
  606       -2.395535   1.000000
  607       -2.395473   1.000000
  608       -2.395460   1.000000
  609       -2.395455   1.000000
  610       -2.395445   1.000000
  611       -2.379991   1.000000
  612       -2.379770   1.000000
  613       -2.355112   1.000000
  614       -2.355099   1.000000
  615       -2.355075   1.000000
  616       -2.350930   1.000000
  617       -2.350923   1.000000
  618       -2.350916   1.000000
  619       -2.350910   1.000000
  620       -2.350821   1.000000
  621       -2.350812   1.000000
  622       -2.350511   1.000000
  623       -2.335188   1.000000
  624       -2.335010   1.000000
  625       -2.320654   1.000000
  626       -2.320649   1.000000
  627       -2.320564   1.000000
  628       -2.320549   1.000000
  629       -2.320538   1.000000
  630       -2.320533   1.000000
  631       -2.313871   1.000000
  632       -2.313867   1.000000
  633       -2.313859   1.000000
  634       -2.297016   1.000000
  635       -2.297008   1.000000
  636       -2.296998   1.000000
  637       -2.296996   1.000000
  638       -2.296861   1.000000
  639       -2.296846   1.000000
  640       -2.285808   1.000000
  641       -2.285734   1.000000
  642       -2.285729   1.000000
  643       -2.273345   1.000000
  644       -2.273125   1.000000
  645       -2.272809   1.000000
  646       -2.272797   1.000000
  647       -2.271819   1.000000
  648       -2.271813   1.000000
  649       -2.268703   1.000000
  650       -2.268701   1.000000
  651       -2.268674   1.000000
  652       -2.268667   1.000000
  653       -2.268658   1.000000
  654       -2.268649   1.000000
  655       -2.268627   1.000000
  656       -2.268612   1.000000
  657       -2.268596   1.000000
  658       -2.268590   1.000000
  659       -2.268583   1.000000
  660       -2.268547   1.000000
  661       -2.259448   1.000000
  662       -2.259443   1.000000
  663       -2.259437   1.000000
  664       -2.259433   1.000000
  665       -2.259329   1.000000
  666       -2.259315   1.000000
  667       -2.253970   1.000000
  668       -2.253963   1.000000
  669       -2.253941   1.000000
  670       -2.253938   1.000000
  671       -2.253826   1.000000
  672       -2.253824   1.000000
  673       -2.207550   1.000000
  674       -2.207539   1.000000
  675       -2.207487   1.000000
  676       -2.207480   1.000000
  677       -2.207353   1.000000
  678       -2.207334   1.000000
  679       -2.201307   1.000000
  680       -2.185560   1.000000
  681       -2.185553   1.000000
  682       -2.185490   1.000000
  683       -2.185482   1.000000
  684       -2.185472   1.000000
  685       -2.185467   1.000000
  686       -2.160876   1.000000
  687       -2.160876   1.000000
  688       -2.159609   1.000000
  689       -2.159599   1.000000
  690       -2.155713   1.000000
  691       -2.155698   1.000000
  692       -2.155664   1.000000
  693       -2.155653   1.000000
  694       -2.155613   1.000000
  695       -2.155600   1.000000
  696       -2.155547   1.000000
  697       -2.155536   1.000000
  698       -2.155509   1.000000
  699       -2.155484   1.000000
  700       -2.155374   1.000000
  701       -2.155327   1.000000
  702       -2.150157   1.000000
  703       -2.149951   1.000000
  704       -2.141504   1.000000
  705       -2.141498   1.000000
  706       -2.141425   1.000000
  707       -2.141416   1.000000
  708       -2.141408   1.000000
  709       -2.141398   1.000000
  710       -2.141341   1.000000
  711       -2.141332   1.000000
  712       -2.141331   1.000000
  713       -2.141328   1.000000
  714       -2.141275   1.000000
  715       -2.141268   1.000000
  716       -2.138227   1.000000
  717       -2.138010   1.000000
  718       -2.115630   1.000000
  719       -2.115614   1.000000
  720       -2.115485   1.000000
  721       -2.115458   1.000000
  722       -2.115454   1.000000
  723       -2.115438   1.000000
  724       -2.091017   1.000000
  725       -2.090994   1.000000
  726       -2.090965   1.000000
  727       -2.090944   1.000000
  728       -2.090914   1.000000
  729       -2.090869   1.000000
  730       -2.069385   1.000000
  731       -2.069376   1.000000
  732       -2.069344   1.000000
  733       -2.069335   1.000000
  734       -2.069268   1.000000
  735       -2.069262   1.000000
  736       -2.069243   1.000000
  737       -2.069223   1.000000
  738       -2.069122   1.000000
  739       -2.069098   1.000000
  740       -2.069054   1.000000
  741       -2.069020   1.000000
  742       -2.025964   1.000000
  743       -2.025955   1.000000
  744       -2.025815   1.000000
  745       -2.025808   1.000000
  746       -2.025789   1.000000
  747       -2.025776   1.000000
  748       -2.018551   1.000000
  749       -2.018528   1.000000
  750       -2.018501   1.000000
  751       -2.018417   1.000000
  752       -2.018395   1.000000
  753       -2.018292   1.000000
  754       -1.970444   1.000000
  755       -1.970435   1.000000
  756       -1.970430   1.000000
  757       -1.970421   1.000000
  758       -1.970389   1.000000
  759       -1.970383   1.000000
  760       -1.970349   1.000000
  761       -1.970336   1.000000
  762       -1.970258   1.000000
  763       -1.970217   1.000000
  764       -1.970213   1.000000
  765       -1.970174   1.000000
  766       -1.966502   1.000000
  767       -1.966500   1.000000
  768       -1.966455   1.000000
  769       -1.966447   1.000000
  770       -1.966426   1.000000
  771       -1.966408   1.000000
  772       -1.959952   1.000000
  773       -1.959951   1.000000
  774       -1.959892   1.000000
  775       -1.959889   1.000000
  776       -1.959868   1.000000
  777       -1.959854   1.000000
  778       -1.928150   1.000000
  779       -1.928072   1.000000
  780       -1.928064   1.000000
  781       -1.924402   1.000000
  782       -1.924392   1.000000
  783       -1.924280   1.000000
  784       -1.924258   1.000000
  785       -1.924252   1.000000
  786       -1.924235   1.000000
  787       -1.903624   1.000000
  788       -1.903579   1.000000
  789       -1.903525   1.000000
  790       -1.903496   1.000000
  791       -1.903446   1.000000
  792       -1.903371   1.000000
  793       -1.899422   1.000000
  794       -1.899418   1.000000
  795       -1.899285   1.000000
  796       -1.899280   1.000000
  797       -1.899271   1.000000
  798       -1.899257   1.000000
  799       -1.878702   1.000000
  800       -1.878696   1.000000
  801       -1.878626   1.000000
  802       -1.878614   1.000000
  803       -1.878603   1.000000
  804       -1.878600   1.000000
  805       -1.870266   1.000000
  806       -1.870249   1.000000
  807       -1.870226   1.000000
  808       -1.870215   1.000000
  809       -1.870150   1.000000
  810       -1.870117   1.000000
  811       -1.870106   1.000000
  812       -1.870095   1.000000
  813       -1.869987   1.000000
  814       -1.869932   1.000000
  815       -1.869891   1.000000
  816       -1.869847   1.000000
  817       -1.831228   1.000000
  818       -1.831217   1.000000
  819       -1.831183   1.000000
  820       -1.831168   1.000000
  821       -1.831138   1.000000
  822       -1.831116   1.000000
  823       -1.831083   1.000000
  824       -1.831036   1.000000
  825       -1.830964   1.000000
  826       -1.830912   1.000000
  827       -1.830861   1.000000
  828       -1.830823   1.000000
  829       -1.797785   1.000000
  830       -1.797782   1.000000
  831       -1.797640   1.000000
  832       -1.797630   1.000000
  833       -1.797619   1.000000
  834       -1.797606   1.000000
  835       -1.796361   1.000000
  836       -1.796303   1.000000
  837       -1.796301   1.000000
  838       -1.792432   1.000000
  839       -1.792424   1.000000
  840       -1.792421   1.000000
  841       -1.792412   1.000000
  842       -1.792406   1.000000
  843       -1.792402   1.000000
  844       -1.780864   1.000000
  845       -1.780855   1.000000
  846       -1.780779   1.000000
  847       -1.780773   1.000000
  848       -1.780758   1.000000
  849       -1.780752   1.000000
  850       -1.771009   1.000000
  851       -1.770850   1.000000
  852       -1.770779   1.000000
  853       -1.770262   1.000000
  854       -1.770185   1.000000
  855       -1.769475   1.000000
  856       -1.766862   1.000000
  857       -1.766789   1.000000
  858       -1.766746   1.000000
  859       -1.766701   1.000000
  860       -1.766654   1.000000
  861       -1.766524   1.000000
  862       -1.747467   1.000000
  863       -1.747429   1.000000
  864       -1.747421   1.000000
  865       -1.712939   1.000000
  866       -1.712912   1.000000
  867       -1.712894   1.000000
  868       -1.712851   1.000000
  869       -1.712829   1.000000
  870       -1.712783   1.000000
  871       -1.682366   1.000000
  872       -1.682362   1.000000
  873       -1.682341   1.000000
  874       -1.682329   1.000000
  875       -1.682325   1.000000
  876       -1.682311   1.000000
  877       -1.682300   1.000000
  878       -1.682281   1.000000
  879       -1.682279   1.000000
  880       -1.682263   1.000000
  881       -1.682256   1.000000
  882       -1.682232   1.000000
  883       -1.669142   1.000000
  884       -1.659583   1.000000
  885       -1.659206   1.000000
  886       -1.659187   1.000000
  887       -1.658015   1.000000
  888       -1.657957   1.000000
  889       -1.655910   1.000000
  890       -1.610212   1.000000
  891       -1.610210   1.000000
  892       -1.610087   1.000000
  893       -1.610081   1.000000
  894       -1.610079   1.000000
  895       -1.610067   1.000000
  896       -1.555159   1.000000
  897       -1.555135   1.000000
  898       -1.555126   1.000000
  899       -1.555089   1.000000
  900       -1.555083   1.000000
  901       -1.555058   1.000000