       N       E                     dE             d eps       ncg     rms          rms(c)
DAV:   1     0.223145425257E+05    0.22315E+05   -0.98494E+05 12200   0.134E+03
DAV:   2     0.955110970603E+02   -0.22219E+05   -0.21235E+05 12152   0.469E+02
DAV:   3    -0.133502787901E+04   -0.14305E+04   -0.11986E+04 13504   0.131E+02
DAV:   4    -0.156017995223E+04   -0.22515E+03   -0.18780E+03 21112   0.489E+01
DAV:   5    -0.157116462629E+04   -0.10985E+02   -0.10479E+02 18440   0.116E+01    0.142E+02
DAV:   6    -0.193927311188E+04   -0.36811E+03   -0.28171E+03 15760   0.166E+02    0.289E+02
DAV:   7    -0.174703743728E+04    0.19224E+03   -0.10496E+03 13272   0.141E+02    0.235E+02
DAV:   8    -0.200578644528E+04   -0.25875E+03   -0.61631E+02 16304   0.124E+02    0.302E+02
DAV:   9    -0.188983449720E+04    0.11595E+03   -0.26845E+02 13912   0.983E+01    0.271E+02
DAV:  10    -0.166638667384E+04    0.22345E+03   -0.33316E+02 16856   0.741E+01    0.212E+02
DAV:  11    -0.153803456409E+04    0.12835E+03   -0.26238E+02 14336   0.711E+01    0.170E+02
DAV:  12    -0.158652847102E+04   -0.48494E+02   -0.43968E+02 16480   0.101E+02    0.203E+02
DAV:  13    -0.150407405860E+04    0.82454E+02   -0.24783E+02 15696   0.668E+01    0.150E+02
DAV:  14    -0.151285703336E+04   -0.87830E+01   -0.16932E+02 14248   0.802E+01    0.183E+02
DAV:  15    -0.147072477039E+04    0.42132E+02   -0.97007E+01 13304   0.577E+01    0.182E+02
DAV:  16    -0.140890346945E+04    0.61821E+02   -0.11382E+02 19656   0.431E+01    0.137E+02
DAV:  17    -0.142856999039E+04   -0.19667E+02   -0.39595E+01 13152   0.410E+01    0.157E+02
DAV:  18    -0.135238037953E+04    0.76190E+02   -0.29131E+01 13232   0.296E+01    0.817E+01
DAV:  19    -0.134208949071E+04    0.10291E+02   -0.16419E+01 13096   0.228E+01    0.694E+01
DAV:  20    -0.133903336099E+04    0.30561E+01   -0.98911E+00 13176   0.176E+01    0.662E+01
DAV:  21    -0.133391386072E+04    0.51195E+01   -0.68235E+00 13224   0.141E+01    0.522E+01
DAV:  22    -0.133226695217E+04    0.16469E+01   -0.52424E+00 13120   0.121E+01    0.490E+01
DAV:  23    -0.133025078055E+04    0.20162E+01   -0.39623E+00 13160   0.106E+01    0.464E+01
DAV:  24    -0.132987473860E+04    0.37604E+00   -0.28000E+00 13184   0.904E+00    0.478E+01
DAV:  25    -0.132924996959E+04    0.62477E+00   -0.24306E+00 13328   0.853E+00    0.452E+01
DAV:  26    -0.132874768650E+04    0.50228E+00   -0.31051E+00 13456   0.927E+00    0.390E+01
DAV:  27    -0.132718292411E+04    0.15648E+01   -0.22958E+00 13456   0.848E+00    0.342E+01
DAV:  28    -0.132771436730E+04   -0.53144E+00   -0.18779E+00 13624   0.780E+00    0.387E+01
DAV:  29    -0.133205121103E+04   -0.43368E+01   -0.22561E+00 13552   0.102E+01    0.567E+01
DAV:  30    -0.133035181075E+04    0.16994E+01   -0.19062E+00 13448   0.792E+00    0.513E+01
DAV:  31    -0.132812008790E+04    0.22317E+01   -0.10266E+00 13472   0.495E+00    0.436E+01
DAV:  32    -0.132729043725E+04    0.82965E+00   -0.61295E-01 13432   0.369E+00    0.414E+01
DAV:  33    -0.132603034996E+04    0.12601E+01   -0.78120E-01 13504   0.454E+00    0.293E+01
DAV:  34    -0.132539971009E+04    0.63064E+00   -0.66614E-01 13504   0.444E+00    0.239E+01
DAV:  35    -0.132468537319E+04    0.71434E+00   -0.51595E-01 13512   0.375E+00    0.173E+01
DAV:  36    -0.132485167597E+04   -0.16630E+00   -0.52504E-01 13552   0.343E+00    0.195E+01
DAV:  37    -0.132494519551E+04   -0.93520E-01   -0.45449E-01 13448   0.315E+00    0.199E+01
DAV:  38    -0.132483533637E+04    0.10986E+00   -0.36054E-01 13424   0.287E+00    0.188E+01
DAV:  39    -0.132503385526E+04   -0.19852E+00   -0.44357E-01 13624   0.364E+00    0.192E+01
DAV:  40    -0.132503095757E+04    0.28977E-02   -0.41140E-01 13560   0.360E+00    0.182E+01
DAV:  41    -0.132497062320E+04    0.60334E-01   -0.32891E-01 13696   0.305E+00    0.178E+01
DAV:  42    -0.132513827459E+04   -0.16765E+00   -0.29054E-01 13648   0.304E+00    0.186E+01
DAV:  43    -0.132487538180E+04    0.26289E+00   -0.19618E-01 13544   0.221E+00    0.180E+01
DAV:  44    -0.132462294686E+04    0.25243E+00   -0.10088E-01 13536   0.138E+00    0.165E+01
DAV:  45    -0.132450900782E+04    0.11394E+00   -0.50878E-02 13560   0.114E+00    0.158E+01
DAV:  46    -0.132436263768E+04    0.14637E+00   -0.50110E-02 13592   0.108E+00    0.147E+01
DAV:  47    -0.132422307741E+04    0.13956E+00   -0.55767E-02 13584   0.116E+00    0.141E+01
DAV:  48    -0.132410741304E+04    0.11566E+00   -0.47608E-02 13680   0.113E+00    0.126E+01
DAV:  49    -0.132404598287E+04    0.61430E-01   -0.42218E-02 13768   0.970E-01    0.961E+00
DAV:  50    -0.132414422875E+04   -0.98246E-01   -0.96459E-02 13728   0.957E-01    0.102E+01
DAV:  51    -0.132437742884E+04   -0.23320E+00   -0.20909E-01 21960   0.132E+00    0.116E+01
DAV:  52    -0.132434103935E+04    0.36389E-01   -0.46337E-02 15064   0.103E+00    0.115E+01
DAV:  53    -0.132433288457E+04    0.81548E-02   -0.40465E-02 14208   0.917E-01    0.109E+01
DAV:  54    -0.132429167646E+04    0.41208E-01   -0.21662E-02 14112   0.735E-01    0.104E+01
DAV:  55    -0.132425067061E+04    0.41006E-01   -0.21210E-02 14152   0.842E-01    0.103E+01
DAV:  56    -0.132424342923E+04    0.72414E-02   -0.38504E-02 14920   0.110E+00    0.101E+01
DAV:  57    -0.132418446230E+04    0.58967E-01   -0.33388E-02 14456   0.105E+00    0.102E+01
DAV:  58    -0.132412556998E+04    0.58892E-01   -0.29698E-02 14464   0.959E-01    0.955E+00
DAV:  59    -0.132403827412E+04    0.87296E-01   -0.30573E-02 14280   0.736E-01    0.702E+00
DAV:  60    -0.132407377690E+04   -0.35503E-01   -0.44477E-02 14160   0.519E-01    0.707E+00
DAV:  61    -0.132414423991E+04   -0.70463E-01   -0.32312E-02 18272   0.890E-01    0.608E+00
DAV:  62    -0.132410017521E+04    0.44065E-01   -0.78009E-02 15480   0.938E-01    0.337E+00
DAV:  63    -0.132416164222E+04   -0.61467E-01   -0.32191E-02 14456   0.567E-01    0.613E+00
DAV:  64    -0.132410506091E+04    0.56581E-01   -0.57242E-03 13960   0.368E-01    0.580E+00
DAV:  65    -0.132408607652E+04    0.18984E-01   -0.80052E-03 14280   0.383E-01    0.362E+00
DAV:  66    -0.132412316278E+04   -0.37086E-01   -0.75630E-02 14376   0.480E-01    0.491E+00
DAV:  67    -0.132412470335E+04   -0.15406E-02   -0.60684E-03 13920   0.392E-01    0.381E+00
DAV:  68    -0.132411285874E+04    0.11845E-01   -0.21107E-03 14424   0.253E-01    0.339E+00
DAV:  69    -0.132411366634E+04   -0.80760E-03   -0.64205E-03 14152   0.240E-01    0.157E+00
DAV:  70    -0.132413858693E+04   -0.24921E-01   -0.12901E-02 13584   0.204E-01    0.191E+00
DAV:  71    -0.132414610745E+04   -0.75205E-02   -0.21775E-03 14216   0.257E-01    0.257E+00
DAV:  72    -0.132413211832E+04    0.13989E-01   -0.16511E-03 13816   0.236E-01    0.144E+00
DAV:  73    -0.132413798892E+04   -0.58706E-02   -0.10614E-03 14136   0.139E-01    0.709E-01
DAV:  74    -0.132414562867E+04   -0.76397E-02   -0.62849E-04 13696   0.121E-01    0.447E-01
DAV:  75    -0.132414860030E+04   -0.29716E-02   -0.47423E-04 13704   0.114E-01    0.378E-01
DAV:  76    -0.132415059800E+04   -0.19977E-02   -0.20452E-03 14368   0.167E-01    0.150E+00
DAV:  77    -0.132414506279E+04    0.55352E-02   -0.12312E-03 13758   0.157E-01    0.799E-01
DAV:  78    -0.132414774741E+04   -0.26846E-02   -0.35006E-04 13860   0.827E-02    0.381E-01
DAV:  79    -0.132415010996E+04   -0.23625E-02   -0.17985E-04 13936   0.546E-02    0.173E-01
DAV:  80    -0.132415208960E+04   -0.19796E-02   -0.20949E-04 14101   0.687E-02    0.295E-01
DAV:  81    -0.132415240972E+04   -0.32012E-03   -0.21955E-04 14200   0.792E-02    0.362E-01
DAV:  82    -0.132415295541E+04   -0.54568E-03   -0.14604E-04 14094   0.658E-02    0.213E-01
DAV:  83    -0.132415347517E+04   -0.51976E-03   -0.76201E-05 13704   0.393E-02    0.265E-01
DAV:  84    -0.132415404169E+04   -0.56652E-03   -0.75500E-05 14595   0.378E-02    0.338E-01
DAV:  85    -0.132415446469E+04   -0.42300E-03   -0.61242E-05 13681   0.378E-02    0.338E-01
DAV:  86    -0.132415421980E+04    0.24489E-03   -0.31237E-04 13802   0.528E-02    0.259E-01
DAV:  87    -0.132415507647E+04   -0.85668E-03   -0.83683E-05 13392   0.490E-02    0.215E-01
DAV:  88    -0.132415547354E+04   -0.39707E-03   -0.51257E-05 12284   0.300E-02    0.297E-01
DAV:  89    -0.132415569002E+04   -0.21647E-03   -0.45554E-05 12132   0.273E-02    0.408E-01
DAV:  90    -0.132415564460E+04    0.45416E-04   -0.47176E-05 12555   0.294E-02    0.318E-01
DAV:  91    -0.132415590684E+04   -0.26224E-03   -0.20061E-04 13544   0.480E-02    0.273E-01
DAV:  92    -0.132415658926E+04   -0.68242E-03   -0.88919E-05 13832   0.445E-02    0.236E-01
DAV:  93    -0.132415655341E+04    0.35848E-04   -0.25858E-05 11193   0.205E-02    0.246E-01
DAV:  94    -0.132415662372E+04   -0.70308E-04   -0.24720E-05 10018   0.198E-02    0.170E-01
DAV:  95    -0.132415680708E+04   -0.18337E-03   -0.17434E-05  8826   0.188E-02    0.116E-01
DAV:  96    -0.132415689283E+04   -0.85748E-04   -0.37359E-05  7850   0.247E-02    0.126E-01
DAV:  97    -0.132415704803E+04   -0.15520E-03   -0.25792E-05  8664   0.250E-02    0.104E-01
DAV:  98    -0.132415704468E+04    0.33467E-05   -0.90169E-06  7864   0.133E-02
   1 F= -.14213367E+04 E0= -.14205628E+04  d E =-.154773E+01
