         265
 Energy:  -1274.7042102999999     
 X   0.00000000       0.00000000       0.00000000    
 X   14.2799997       0.00000000       0.00000000    
 X   0.00000000       14.2799997       0.00000000    
 X   0.00000000       0.00000000       14.2799997    
 X   14.2799997       14.2799997       0.00000000    
 X   14.2799997       0.00000000       14.2799997    
 X   0.00000000       14.2799997       14.2799997    
 X   14.2799997       14.2799997       14.2799997    
 Ni   0.00000000       0.00000000       0.00000000    
 Ni   0.00000000       1.78499997       1.78499997    
 Ni   1.78499997       0.00000000       1.78499997    
 Ni   1.78499997       1.78499997       0.00000000    
 Ni   0.00000000       0.00000000       3.56999993    
 Ni   0.00000000       1.78499997       5.35500002    
 Ni   1.78499997       0.00000000       5.35500002    
 Ni   1.78499997       1.78499997       3.56999993    
 Ni   0.00000000       0.00000000       7.13999987    
 Ni   0.00000000       1.78499997       8.92500019    
 Ni   1.78499997       0.00000000       8.92500019    
 Ni   1.78499997       1.78499997       7.13999987    
 Ni   0.00000000       0.00000000       10.7100000    
 Ni   0.00000000       1.78499997       12.4949999    
 Ni   1.78499997       0.00000000       12.4949999    
 Ni   1.78499997       1.78499997       10.7100000    
 Ni   0.00000000       3.56999993       0.00000000    
 Ni   0.00000000       5.35500002       1.78499997    
 Ni   1.78499997       3.56999993       1.78499997    
 Ni   1.78499997       5.35500002       0.00000000    
 Ni   0.00000000       3.56999993       3.56999993    
 Ni   0.00000000       5.35500002       5.35500002    
 Ni   1.78499997       3.56999993       5.35500002    
 Ni   1.78499997       5.35500002       3.56999993    
 Ni   0.00000000       3.56999993       7.13999987    
 Ni   0.00000000       5.35500002       8.92500019    
 Ni   1.78499997       3.56999993       8.92500019    
 Ni   1.78499997       5.35500002       7.13999987    
 Ni   0.00000000       3.56999993       10.7100000    
 Ni   0.00000000       5.35500002       12.4949999    
 Ni   1.78499997       3.56999993       12.4949999    
 Ni   1.78499997       5.35500002       10.7100000    
 Ni   0.00000000       7.13999987       0.00000000    
 Ni   0.00000000       8.92500019       1.78499997    
 Ni   1.78499997       7.13999987       1.78499997    
 Ni   1.78499997       8.92500019       0.00000000    
 Ni   0.00000000       7.13999987       3.56999993    
 Ni   0.00000000       8.92500019       5.35500002    
 Ni   1.78499997       7.13999987       5.35500002    
 Ni   1.78499997       8.92500019       3.56999993    
 Ni   0.00000000       7.13999987       7.13999987    
 Ni   0.00000000       8.92500019       8.92500019    
 Ni   1.78499997       7.13999987       8.92500019    
 Ni   1.78499997       8.92500019       7.13999987    
 Ni   0.00000000       7.13999987       10.7100000    
 Ni   0.00000000       8.92500019       12.4949999    
 Ni   1.78499997       7.13999987       12.4949999    
 Ni   1.78499997       8.92500019       10.7100000    
 Ni   0.00000000       10.7100000       0.00000000    
 Ni   0.00000000       12.4949999       1.78499997    
 Ni   1.78499997       10.7100000       1.78499997    
 Ni   1.78499997       12.4949999       0.00000000    
 Ni   0.00000000       10.7100000       3.56999993    
 Ni   0.00000000       12.4949999       5.35500002    
 Ni   1.78499997       10.7100000       5.35500002    
 Ni   1.78499997       12.4949999       3.56999993    
 Ni   0.00000000       10.7100000       7.13999987    
 Ni   0.00000000       12.4949999       8.92500019    
 Ni   1.78499997       10.7100000       8.92500019    
 Ni   1.78499997       12.4949999       7.13999987    
 Ni   0.00000000       10.7100000       10.7100000    
 Ni   0.00000000       12.4949999       12.4949999    
 Ni   1.78499997       10.7100000       12.4949999    
 Ni   1.78499997       12.4949999       10.7100000    
 Ni   3.56999993       0.00000000       0.00000000    
 Ni   3.56999993       1.78499997       1.78499997    
 Ni   5.35500002       0.00000000       1.78499997    
 Ni   5.35500002       1.78499997       0.00000000    
 Ni   3.56999993       0.00000000       3.56999993    
 Ni   3.56999993       1.78499997       5.35500002    
 Ni   5.35500002       0.00000000       5.35500002    
 Ni   5.35500002       1.78499997       3.56999993    
 Ni   3.56999993       0.00000000       7.13999987    
 Ni   3.56999993       1.78499997       8.92500019    
 Ni   5.35500002       0.00000000       8.92500019    
 Ni   5.35500002       1.78499997       7.13999987    
 Ni   3.56999993       0.00000000       10.7100000    
 Ni   3.56999993       1.78499997       12.4949999    
 Ni   5.35500002       0.00000000       12.4949999    
 Ni   5.35500002       1.78499997       10.7100000    
 Ni   3.56999993       3.56999993       0.00000000    
 Ni   3.56999993       5.35500002       1.78499997    
 Ni   5.35500002       3.56999993       1.78499997    
 Ni   5.35500002       5.35500002       0.00000000    
 Ni   3.56999993       3.56999993       3.56999993    
 Ni   3.56999993       5.35500002       5.35500002    
 Ni   5.35500002       3.56999993       5.35500002    
 Ni   5.35500002       5.35500002       3.56999993    
 Ni   3.56999993       3.56999993       7.13999987    
 Ni   3.56999993       5.35500002       8.92500019    
 Ni   5.35500002       3.56999993       8.92500019    
 Ni   5.35500002       5.35500002       7.13999987    
 Ni   3.56999993       3.56999993       10.7100000    
 Ni   3.56999993       5.35500002       12.4949999    
 Ni   5.35500002       3.56999993       12.4949999    
 Ni   5.35500002       5.35500002       10.7100000    
 Ni   3.56999993       7.13999987       0.00000000    
 Ni   3.56999993       8.92500019       1.78499997    
 Ni   5.35500002       7.13999987       1.78499997    
 Ni   5.35500002       8.92500019       0.00000000    
 Ni   3.56999993       7.13999987       3.56999993    
 Ni   3.56999993       8.92500019       5.35500002    
 Ni   5.35500002       7.13999987       5.35500002    
 Ni   5.35500002       8.92500019       3.56999993    
 Ni   3.56999993       7.13999987       7.13999987    
 Ni   3.56999993       8.92500019       8.92500019    
 Ni   5.35500002       7.13999987       8.92500019    
 Ni   5.35500002       8.92500019       7.13999987    
 Ni   3.56999993       7.13999987       10.7100000    
 Ni   3.56999993       8.92500019       12.4949999    
 Ni   5.35500002       7.13999987       12.4949999    
 Ni   5.35500002       8.92500019       10.7100000    
 Ni   3.56999993       10.7100000       0.00000000    
 Ni   3.56999993       12.4949999       1.78499997    
 Ni   5.35500002       10.7100000       1.78499997    
 Ni   5.35500002       12.4949999       0.00000000    
 Ni   3.56999993       10.7100000       3.56999993    
 Ni   3.56999993       12.4949999       5.35500002    
 Ni   5.35500002       10.7100000       5.35500002    
 Ni   5.35500002       12.4949999       3.56999993    
 Ni   3.56999993       10.7100000       7.13999987    
 Ni   3.56999993       12.4949999       8.92500019    
 Ni   5.35500002       10.7100000       8.92500019    
 Ni   5.35500002       12.4949999       7.13999987    
 Ni   3.56999993       10.7100000       10.7100000    
 Ni   3.56999993       12.4949999       12.4949999    
 Ni   5.35500002       10.7100000       12.4949999    
 Ni   5.35500002       12.4949999       10.7100000    
 Ni   7.13999987       0.00000000       0.00000000    
 Ni   7.13999987       1.78499997       1.78499997    
 Ni   8.92500019       0.00000000       1.78499997    
 Ni   8.92500019       1.78499997       0.00000000    
 Ni   7.13999987       0.00000000       3.56999993    
 Ni   7.13999987       1.78499997       5.35500002    
 Ni   8.92500019       0.00000000       5.35500002    
 Ni   8.92500019       1.78499997       3.56999993    
 Ni   7.13999987       0.00000000       7.13999987    
 Ni   7.13999987       1.78499997       8.92500019    
 Ni   8.92500019       0.00000000       8.92500019    
 Ni   8.92500019       1.78499997       7.13999987    
 Ni   7.13999987       0.00000000       10.7100000    
 Ni   7.13999987       1.78499997       12.4949999    
 Ni   8.92500019       0.00000000       12.4949999    
 Ni   8.92500019       1.78499997       10.7100000    
 Ni   7.13999987       3.56999993       0.00000000    
 Ni   7.13999987       5.35500002       1.78499997    
 Ni   8.92500019       3.56999993       1.78499997    
 Ni   8.92500019       5.35500002       0.00000000    
 Ni   7.13999987       3.56999993       3.56999993    
 Ni   7.13999987       5.35500002       5.35500002    
 Ni   8.92500019       3.56999993       5.35500002    
 Ni   8.92500019       5.35500002       3.56999993    
 Ni   7.13999987       3.56999993       7.13999987    
 Ni   7.13999987       5.35500002       8.92500019    
 Ni   8.92500019       3.56999993       8.92500019    
 Ni   8.92500019       5.35500002       7.13999987    
 Ni   7.13999987       3.56999993       10.7100000    
 Ni   7.13999987       5.35500002       12.4949999    
 Ni   8.92500019       3.56999993       12.4949999    
 Ni   8.92500019       5.35500002       10.7100000    
 Ni   7.13999987       7.13999987       0.00000000    
 Ni   7.13999987       8.92500019       1.78499997    
 Ni   8.92500019       7.13999987       1.78499997    
 Ni   8.92500019       8.92500019       0.00000000    
 Ni   7.13999987       7.13999987       3.56999993    
 Ni   7.13999987       8.92500019       5.35500002    
 Ni   8.92500019       7.13999987       5.35500002    
 Ni   8.92500019       8.92500019       3.56999993    
 Ni   7.13999987       7.13999987       7.13999987    
 Ni   7.13999987       8.92500019       8.92500019    
 Ni   8.92500019       7.13999987       8.92500019    
 Ni   8.92500019       8.92500019       7.13999987    
 Ni   7.13999987       7.13999987       10.7100000    
 Ni   7.13999987       8.92500019       12.4949999    
 Ni   8.92500019       7.13999987       12.4949999    
 Ni   8.92500019       8.92500019       10.7100000    
 Ni   7.13999987       10.7100000       0.00000000    
 Ni   7.13999987       12.4949999       1.78499997    
 Ni   8.92500019       10.7100000       1.78499997    
 Ni   8.92500019       12.4949999       0.00000000    
 Ni   7.13999987       10.7100000       3.56999993    
 Ni   7.13999987       12.4949999       5.35500002    
 Ni   8.92500019       10.7100000       5.35500002    
 Ni   8.92500019       12.4949999       3.56999993    
 Ni   7.13999987       10.7100000       7.13999987    
 Ni   7.13999987       12.4949999       8.92500019    
 Ni   8.92500019       10.7100000       8.92500019    
 Ni   8.92500019       12.4949999       7.13999987    
 Ni   7.13999987       10.7100000       10.7100000    
 Ni   7.13999987       12.4949999       12.4949999    
 Ni   8.92500019       10.7100000       12.4949999    
 Ni   8.92500019       12.4949999       10.7100000    
 Ni   10.7100000       0.00000000       0.00000000    
 Ni   10.7100000       1.78499997       1.78499997    
 Ni   12.4949999       0.00000000       1.78499997    
 Ni   12.4949999       1.78499997       0.00000000    
 Ni   10.7100000       0.00000000       3.56999993    
 Ni   10.7100000       1.78499997       5.35500002    
 Ni   12.4949999       0.00000000       5.35500002    
 Ni   12.4949999       1.78499997       3.56999993    
 Ni   10.7100000       0.00000000       7.13999987    
 Ni   10.7100000       1.78499997       8.92500019    
 Ni   12.4949999       0.00000000       8.92500019    
 Ni   12.4949999       1.78499997       7.13999987    
 Ni   10.7100000       0.00000000       10.7100000    
 Ni   10.7100000       1.78499997       12.4949999    
 Ni   12.4949999       0.00000000       12.4949999    
 Ni   12.4949999       1.78499997       10.7100000    
 Ni   10.7100000       3.56999993       0.00000000    
 Ni   10.7100000       5.35500002       1.78499997    
 Ni   12.4949999       3.56999993       1.78499997    
 Ni   12.4949999       5.35500002       0.00000000    
 Ni   10.7100000       3.56999993       3.56999993    
 Ni   10.7100000       5.35500002       5.35500002    
 Ni   12.4949999       3.56999993       5.35500002    
 Ni   12.4949999       5.35500002       3.56999993    
 Ni   10.7100000       3.56999993       7.13999987    
 Ni   10.7100000       5.35500002       8.92500019    
 Ni   12.4949999       3.56999993       8.92500019    
 Ni   12.4949999       5.35500002       7.13999987    
 Ni   10.7100000       3.56999993       10.7100000    
 Ni   10.7100000       5.35500002       12.4949999    
 Ni   12.4949999       3.56999993       12.4949999    
 Ni   12.4949999       5.35500002       10.7100000    
 Ni   10.7100000       7.13999987       0.00000000    
 Ni   10.7100000       8.92500019       1.78499997    
 Ni   12.4949999       7.13999987       1.78499997    
 Ni   12.4949999       8.92500019       0.00000000    
 Ni   10.7100000       7.13999987       3.56999993    
 Ni   10.7100000       8.92500019       5.35500002    
 Ni   12.4949999       7.13999987       5.35500002    
 Ni   12.4949999       8.92500019       3.56999993    
 Ni   10.7100000       7.13999987       7.13999987    
 Ni   10.7100000       8.92500019       8.92500019    
 Ni   12.4949999       7.13999987       8.92500019    
 Ni   12.4949999       8.92500019       7.13999987    
 Ni   10.7100000       7.13999987       10.7100000    
 Ni   10.7100000       8.92500019       12.4949999    
 Ni   12.4949999       7.13999987       12.4949999    
 Ni   12.4949999       8.92500019       10.7100000    
 Ni   10.7100000       10.7100000       0.00000000    
 Ni   10.7100000       12.4949999       1.78499997    
 Ni   12.4949999       10.7100000       1.78499997    
 Ni   12.4949999       12.4949999       0.00000000    
 Ni   10.7100000       10.7100000       3.56999993    
 Ni   10.7100000       12.4949999       5.35500002    
 Ni   12.4949999       10.7100000       5.35500002    
 Ni   12.4949999       12.4949999       3.56999993    
 Ni   10.7100000       10.7100000       7.13999987    
 Ni   10.7100000       12.4949999       8.92500019    
 Ni   12.4949999       10.7100000       8.92500019    
 Ni   12.4949999       12.4949999       7.13999987    
 Ni   10.7100000       10.7100000       10.7100000    
 Ni   10.7100000       12.4949999       12.4949999    
 Ni   12.4949999       10.7100000       12.4949999    
 Ni   12.4949999       12.4949999       10.7100000    
 O    1.78499997       0.00000000       0.00000000    
         265
 Energy:  -1275.2982750000001     
 X   0.00000000       0.00000000       0.00000000    
 X   14.2799997       0.00000000       0.00000000    
 X   0.00000000       14.2799997       0.00000000    
 X   0.00000000       0.00000000       14.2799997    
 X   14.2799997       14.2799997       0.00000000    
 X   14.2799997       0.00000000       14.2799997    
 X   0.00000000       14.2799997       14.2799997    
 X   14.2799997       14.2799997       14.2799997    
 Ni  -4.93800007E-02   0.00000000       0.00000000    
 Ni  -5.09000011E-03   1.79008996       1.79008996    
 Ni   1.78499997       0.00000000       1.83438003    
 Ni   1.78499997       1.83438003       0.00000000    
 Ni  -1.59999996E-04   0.00000000       3.57056999    
 Ni   4.99999987E-05   1.78495002       5.35485983    
 Ni   1.78499997       0.00000000       5.35535002    
 Ni   1.78499997       1.78515995       3.57056999    
 Ni  -9.00000014E-05   0.00000000       7.13999987    
 Ni   4.99999987E-05   1.78495002       8.92514038    
 Ni   1.78499997       0.00000000       8.92465019    
 Ni   1.78499997       1.78508997       7.13999987    
 Ni  -1.59999996E-04   0.00000000       10.7094297    
 Ni  -5.09000011E-03   1.79008996       12.4899101    
 Ni   1.78499997       0.00000000       12.4456196    
 Ni   1.78499997       1.78515995       10.7094297    
 Ni  -1.59999996E-04   3.57056999       0.00000000    
 Ni   4.99999987E-05   5.35485983       1.78495002    
 Ni   1.78499997       3.57056999       1.78515995    
 Ni   1.78499997       5.35535002       0.00000000    
 Ni   3.00000014E-04   3.56975007       3.56975007    
 Ni  -1.99999995E-05   5.35500002       5.35500002    
 Ni   1.78499997       3.57019997       5.35521984    
 Ni   1.78499997       5.35521984       3.57019997    
 Ni   9.99999975E-06   3.56999993       7.13999987    
 Ni  -1.99999995E-05   5.35500002       8.92500019    
 Ni   1.78499997       3.57019997       8.92477989    
 Ni   1.78499997       5.35511017       7.13999987    
 Ni   3.00000014E-04   3.56975007       10.7102499    
 Ni   4.99999987E-05   5.35485983       12.4950504    
 Ni   1.78499997       3.57056999       12.4948397    
 Ni   1.78499997       5.35521984       10.7097998    
 Ni  -9.00000014E-05   7.13999987       0.00000000    
 Ni   4.99999987E-05   8.92514038       1.78495002    
 Ni   1.78499997       7.13999987       1.78508997    
 Ni   1.78499997       8.92465019       0.00000000    
 Ni   9.99999975E-06   7.13999987       3.56999993    
 Ni  -1.99999995E-05   8.92500019       5.35500002    
 Ni   1.78499997       7.13999987       5.35511017    
 Ni   1.78499997       8.92477989       3.57019997    
 Ni  -7.00000019E-05   7.13999987       7.13999987    
 Ni  -1.99999995E-05   8.92500019       8.92500019    
 Ni   1.78499997       7.13999987       8.92488956    
 Ni   1.78499997       8.92488956       7.13999987    
 Ni   9.99999975E-06   7.13999987       10.7100000    
 Ni   4.99999987E-05   8.92514038       12.4950504    
 Ni   1.78499997       7.13999987       12.4949102    
 Ni   1.78499997       8.92477989       10.7097998    
 Ni  -1.59999996E-04   10.7094297       0.00000000    
 Ni  -5.09000011E-03   12.4899101       1.79008996    
 Ni   1.78499997       10.7094297       1.78515995    
 Ni   1.78499997       12.4456196       0.00000000    
 Ni   3.00000014E-04   10.7102499       3.56975007    
 Ni   4.99999987E-05   12.4950504       5.35485983    
 Ni   1.78499997       10.7097998       5.35521984    
 Ni   1.78499997       12.4948397       3.57056999    
 Ni   9.99999975E-06   10.7100000       7.13999987    
 Ni   4.99999987E-05   12.4950504       8.92514038    
 Ni   1.78499997       10.7097998       8.92477989    
 Ni   1.78499997       12.4949102       7.13999987    
 Ni   3.00000014E-04   10.7102499       10.7102499    
 Ni  -5.09000011E-03   12.4899101       12.4899101    
 Ni   1.78499997       10.7094297       12.4948397    
 Ni   1.78499997       12.4948397       10.7094297    
 Ni   3.61938000       0.00000000       0.00000000    
 Ni   3.57508993       1.79008996       1.79008996    
 Ni   5.35556984       0.00000000       1.78515995    
 Ni   5.35556984       1.78515995       0.00000000    
 Ni   3.57015991       0.00000000       3.57056999    
 Ni   3.56995010       1.78495002       5.35485983    
 Ni   5.35519981       0.00000000       5.35521984    
 Ni   5.35475016       1.78470004       3.56975007    
 Ni   3.57009006       0.00000000       7.13999987    
 Ni   3.56995010       1.78495002       8.92514038    
 Ni   5.35519981       0.00000000       8.92477989    
 Ni   5.35500002       1.78498995       7.13999987    
 Ni   3.57015991       0.00000000       10.7094297    
 Ni   3.57508993       1.79008996       12.4899101    
 Ni   5.35556984       0.00000000       12.4948397    
 Ni   5.35475016       1.78470004       10.7102499    
 Ni   3.57015991       3.57056999       0.00000000    
 Ni   3.56995010       5.35485983       1.78495002    
 Ni   5.35475016       3.56975007       1.78470004    
 Ni   5.35519981       5.35521984       0.00000000    
 Ni   3.56970000       3.56975007       3.56975007    
 Ni   3.57001996       5.35500002       5.35500002    
 Ni   5.35507011       3.57007003       5.35509014    
 Ni   5.35507011       5.35509014       3.57007003    
 Ni   3.56998992       3.56999993       7.13999987    
 Ni   3.57001996       5.35500002       8.92500019    
 Ni   5.35507011       3.57007003       8.92490959    
 Ni   5.35502005       5.35501003       7.13999987    
 Ni   3.56970000       3.56975007       10.7102499    
 Ni   3.56995010       5.35485983       12.4950504    
 Ni   5.35475016       3.56975007       12.4953003    
 Ni   5.35507011       5.35509014       10.7099304    
 Ni   3.57009006       7.13999987       0.00000000    
 Ni   3.56995010       8.92514038       1.78495002    
 Ni   5.35500002       7.13999987       1.78498995    
 Ni   5.35519981       8.92477989       0.00000000    
 Ni   3.56998992       7.13999987       3.56999993    
 Ni   3.57001996       8.92500019       5.35500002    
 Ni   5.35502005       7.13999987       5.35501003    
 Ni   5.35507011       8.92490959       3.57007003    
 Ni   3.57007003       7.13999987       7.13999987    
 Ni   3.57001996       8.92500019       8.92500019    
 Ni   5.35502005       7.13999987       8.92498970    
 Ni   5.35502005       8.92498970       7.13999987    
 Ni   3.56998992       7.13999987       10.7100000    
 Ni   3.56995010       8.92514038       12.4950504    
 Ni   5.35500002       7.13999987       12.4950104    
 Ni   5.35507011       8.92490959       10.7099304    
 Ni   3.57015991       10.7094297       0.00000000    
 Ni   3.57508993       12.4899101       1.79008996    
 Ni   5.35475016       10.7102499       1.78470004    
 Ni   5.35556984       12.4948397       0.00000000    
 Ni   3.56970000       10.7102499       3.56975007    
 Ni   3.56995010       12.4950504       5.35485983    
 Ni   5.35507011       10.7099304       5.35509014    
 Ni   5.35475016       12.4953003       3.56975007    
 Ni   3.56998992       10.7100000       7.13999987    
 Ni   3.56995010       12.4950504       8.92514038    
 Ni   5.35507011       10.7099304       8.92490959    
 Ni   5.35500002       12.4950104       7.13999987    
 Ni   3.56970000       10.7102499       10.7102499    
 Ni   3.57508993       12.4899101       12.4899101    
 Ni   5.35475016       10.7102499       12.4953003    
 Ni   5.35475016       12.4953003       10.7102499    
 Ni   7.14034986       0.00000000       0.00000000    
 Ni   7.13986015       1.78495002       1.78495002    
 Ni   8.92500019       0.00000000       1.78508997    
 Ni   8.92500019       1.78508997       0.00000000    
 Ni   7.14022017       0.00000000       3.57019997    
 Ni   7.13999987       1.78501999       5.35500002    
 Ni   8.92500019       0.00000000       5.35511017    
 Ni   8.92500019       1.78498995       3.56999993    
 Ni   7.14011002       0.00000000       7.13999987    
 Ni   7.13999987       1.78501999       8.92500019    
 Ni   8.92500019       0.00000000       8.92488956    
 Ni   8.92500019       1.78506994       7.13999987    
 Ni   7.14022017       0.00000000       10.7097998    
 Ni   7.13986015       1.78495002       12.4950504    
 Ni   8.92500019       0.00000000       12.4949102    
 Ni   8.92500019       1.78498995       10.7100000    
 Ni   7.14022017       3.57019997       0.00000000    
 Ni   7.13999987       5.35500002       1.78501999    
 Ni   8.92500019       3.56999993       1.78498995    
 Ni   8.92500019       5.35511017       0.00000000    
 Ni   7.14008999       3.57007003       3.57007003    
 Ni   7.14004993       5.35505009       5.35505009    
 Ni   8.92500019       3.57001996       5.35501003    
 Ni   8.92500019       5.35501003       3.57001996    
 Ni   7.14000988       3.57001996       7.13999987    
 Ni   7.14004993       5.35505009       8.92494965    
 Ni   8.92500019       3.57001996       8.92498970    
 Ni   8.92500019       5.35493994       7.13999987    
 Ni   7.14008999       3.57007003       10.7099304    
 Ni   7.13999987       5.35500002       12.4949799    
 Ni   8.92500019       3.56999993       12.4950104    
 Ni   8.92500019       5.35501003       10.7099800    
 Ni   7.14011002       7.13999987       0.00000000    
 Ni   7.13999987       8.92500019       1.78501999    
 Ni   8.92500019       7.13999987       1.78506994    
 Ni   8.92500019       8.92488956       0.00000000    
 Ni   7.14000988       7.13999987       3.57001996    
 Ni   7.14004993       8.92494965       5.35505009    
 Ni   8.92500019       7.13999987       5.35493994    
 Ni   8.92500019       8.92498970       3.57001996    
 Ni   7.13993979       7.13999987       7.13999987    
 Ni   7.14004993       8.92494965       8.92494965    
 Ni   8.92500019       7.13999987       8.92506027    
 Ni   8.92500019       8.92506027       7.13999987    
 Ni   7.14000988       7.13999987       10.7099800    
 Ni   7.13999987       8.92500019       12.4949799    
 Ni   8.92500019       7.13999987       12.4949303    
 Ni   8.92500019       8.92498970       10.7099800    
 Ni   7.14022017       10.7097998       0.00000000    
 Ni   7.13986015       12.4950504       1.78495002    
 Ni   8.92500019       10.7100000       1.78498995    
 Ni   8.92500019       12.4949102       0.00000000    
 Ni   7.14008999       10.7099304       3.57007003    
 Ni   7.13999987       12.4949799       5.35500002    
 Ni   8.92500019       10.7099800       5.35501003    
 Ni   8.92500019       12.4950104       3.56999993    
 Ni   7.14000988       10.7099800       7.13999987    
 Ni   7.13999987       12.4949799       8.92500019    
 Ni   8.92500019       10.7099800       8.92498970    
 Ni   8.92500019       12.4949303       7.13999987    
 Ni   7.14008999       10.7099304       10.7099304    
 Ni   7.13986015       12.4950504       12.4950504    
 Ni   8.92500019       10.7100000       12.4950104    
 Ni   8.92500019       12.4950104       10.7100000    
 Ni   10.7096500       0.00000000       0.00000000    
 Ni   10.7101402       1.78495002       1.78495002    
 Ni   12.4944296       0.00000000       1.78515995    
 Ni   12.4944296       1.78515995       0.00000000    
 Ni   10.7097797       0.00000000       3.57019997    
 Ni   10.7100000       1.78501999       5.35500002    
 Ni   12.4947996       0.00000000       5.35521984    
 Ni   12.4952497       1.78470004       3.56975007    
 Ni   10.7098904       0.00000000       7.13999987    
 Ni   10.7100000       1.78501999       8.92500019    
 Ni   12.4947996       0.00000000       8.92477989    
 Ni   12.4949999       1.78498995       7.13999987    
 Ni   10.7097797       0.00000000       10.7097998    
 Ni   10.7101402       1.78495002       12.4950504    
 Ni   12.4944296       0.00000000       12.4948397    
 Ni   12.4952497       1.78470004       10.7102499    
 Ni   10.7097797       3.57019997       0.00000000    
 Ni   10.7100000       5.35500002       1.78501999    
 Ni   12.4952497       3.56975007       1.78470004    
 Ni   12.4947996       5.35521984       0.00000000    
 Ni   10.7099104       3.57007003       3.57007003    
 Ni   10.7099504       5.35505009       5.35505009    
 Ni   12.4949303       3.57007003       5.35509014    
 Ni   12.4949303       5.35509014       3.57007003    
 Ni   10.7099895       3.57001996       7.13999987    
 Ni   10.7099504       5.35505009       8.92494965    
 Ni   12.4949303       3.57007003       8.92490959    
 Ni   12.4949799       5.35501003       7.13999987    
 Ni   10.7099104       3.57007003       10.7099304    
 Ni   10.7100000       5.35500002       12.4949799    
 Ni   12.4952497       3.56975007       12.4953003    
 Ni   12.4949303       5.35509014       10.7099304    
 Ni   10.7098904       7.13999987       0.00000000    
 Ni   10.7100000       8.92500019       1.78501999    
 Ni   12.4949999       7.13999987       1.78498995    
 Ni   12.4947996       8.92477989       0.00000000    
 Ni   10.7099895       7.13999987       3.57001996    
 Ni   10.7099504       8.92494965       5.35505009    
 Ni   12.4949799       7.13999987       5.35501003    
 Ni   12.4949303       8.92490959       3.57007003    
 Ni   10.7100601       7.13999987       7.13999987    
 Ni   10.7099504       8.92494965       8.92494965    
 Ni   12.4949799       7.13999987       8.92498970    
 Ni   12.4949799       8.92498970       7.13999987    
 Ni   10.7099895       7.13999987       10.7099800    
 Ni   10.7100000       8.92500019       12.4949799    
 Ni   12.4949999       7.13999987       12.4950104    
 Ni   12.4949303       8.92490959       10.7099304    
 Ni   10.7097797       10.7097998       0.00000000    
 Ni   10.7101402       12.4950504       1.78495002    
 Ni   12.4952497       10.7102499       1.78470004    
 Ni   12.4944296       12.4948397       0.00000000    
 Ni   10.7099104       10.7099304       3.57007003    
 Ni   10.7100000       12.4949799       5.35500002    
 Ni   12.4949303       10.7099304       5.35509014    
 Ni   12.4952497       12.4953003       3.56975007    
 Ni   10.7099895       10.7099800       7.13999987    
 Ni   10.7100000       12.4949799       8.92500019    
 Ni   12.4949303       10.7099304       8.92490959    
 Ni   12.4949999       12.4950104       7.13999987    
 Ni   10.7099104       10.7099304       10.7099304    
 Ni   10.7101402       12.4950504       12.4950504    
 Ni   12.4952497       10.7102499       12.4953003    
 Ni   12.4952497       12.4953003       10.7102499    
 O    1.78499997       0.00000000       0.00000000    
         265
 Energy:  -1275.5518896000001     
 X   0.00000000       0.00000000       0.00000000    
 X   14.2799997       0.00000000       0.00000000    
 X   0.00000000       14.2799997       0.00000000    
 X   0.00000000       0.00000000       14.2799997    
 X   14.2799997       14.2799997       0.00000000    
 X   14.2799997       0.00000000       14.2799997    
 X   0.00000000       14.2799997       14.2799997    
 X   14.2799997       14.2799997       14.2799997    
 Ni -0.131569996       0.00000000       0.00000000    
 Ni  -1.35700004E-02   1.79857004       1.79857004    
 Ni   1.78499997       0.00000000       1.91656995    
 Ni   1.78499997       1.91656995       0.00000000    
 Ni  -4.19999997E-04   0.00000000       3.57151008    