       N       E                     dE             d eps       ncg     rms          rms(c)
DAV:   1     0.240327387866E+05    0.24033E+05   -0.99559E+05 12448   0.163E+03
DAV:   2     0.342092561688E+03   -0.23691E+05   -0.23029E+05 12312   0.500E+02
DAV:   3    -0.143278536058E+04   -0.17749E+04   -0.14971E+04 12944   0.166E+02
DAV:   4    -0.163746224471E+04   -0.20468E+03   -0.17491E+03 21480   0.498E+01
DAV:   5    -0.164470508129E+04   -0.72428E+01   -0.70626E+01 16632   0.115E+01    0.142E+02
DAV:   6    -0.150329455638E+04    0.14141E+03   -0.32423E+03 13156   0.105E+02    0.145E+02
DAV:   7    -0.144808225602E+04    0.55212E+02   -0.46640E+02 12720   0.689E+01    0.136E+02
DAV:   8    -0.154635240045E+04   -0.98270E+02   -0.22279E+02 13408   0.926E+01    0.162E+02
DAV:   9    -0.171639698901E+04   -0.17004E+03   -0.18764E+02 14792   0.923E+01    0.226E+02
DAV:  10    -0.170475941919E+04    0.11638E+02   -0.14629E+02 13944   0.746E+01    0.204E+02
DAV:  11    -0.152923509746E+04    0.17552E+03   -0.10508E+02 12992   0.530E+01    0.134E+02
DAV:  12    -0.146969912266E+04    0.59536E+02   -0.77033E+01 13328   0.549E+01    0.119E+02
DAV:  13    -0.145023870860E+04    0.19460E+02   -0.80483E+01 14000   0.556E+01    0.109E+02
DAV:  14    -0.140699297865E+04    0.43246E+02   -0.40080E+01 13736   0.378E+01    0.716E+01
DAV:  15    -0.139737800260E+04    0.96150E+01   -0.29050E+01 13384   0.249E+01    0.500E+01
DAV:  16    -0.139562325175E+04    0.17548E+01   -0.14919E+01 13224   0.185E+01    0.413E+01
DAV:  17    -0.139514753218E+04    0.47572E+00   -0.10365E+01 13272   0.175E+01    0.437E+01
DAV:  18    -0.139277310460E+04    0.23744E+01   -0.42733E+00 18056   0.568E+00    0.326E+01
DAV:  19    -0.139233969741E+04    0.43341E+00   -0.10782E+00 17128   0.261E+00    0.314E+01
DAV:  20    -0.139280009082E+04   -0.46039E+00   -0.13611E+00 14936   0.541E+00    0.326E+01
DAV:  21    -0.139425798619E+04   -0.14579E+01   -0.15075E+00 15160   0.707E+00    0.351E+01
DAV:  22    -0.139340286671E+04    0.85512E+00   -0.68039E-01 15072   0.385E+00    0.335E+01
DAV:  23    -0.139267925728E+04    0.72361E+00   -0.32660E-01 15408   0.280E+00    0.320E+01
DAV:  24    -0.139033088551E+04    0.23484E+01   -0.92235E-01 17152   0.538E+00    0.219E+01
DAV:  25    -0.138912501254E+04    0.12059E+01   -0.70975E-01 19760   0.380E+00    0.146E+01
DAV:  26    -0.138872487925E+04    0.40013E+00   -0.54040E-01 18120   0.265E+00    0.109E+01
DAV:  27    -0.138886491259E+04   -0.14003E+00   -0.26729E-01 13928   0.199E+00    0.122E+01
DAV:  28    -0.138881256057E+04    0.52352E-01   -0.72449E-02 13144   0.901E-01    0.114E+01
DAV:  29    -0.138870478483E+04    0.10778E+00   -0.38843E-02 15312   0.102E+00    0.996E+00
DAV:  30    -0.138843571016E+04    0.26907E+00   -0.10976E-01 20792   0.163E+00    0.560E+00
DAV:  31    -0.138843027698E+04    0.54332E-02   -0.80895E-02 19664   0.110E+00    0.537E+00
DAV:  32    -0.138834766545E+04    0.82612E-01   -0.77136E-02 17424   0.123E+00    0.186E+00
DAV:  33    -0.138834762286E+04    0.42588E-04   -0.40654E-02 16848   0.597E-01    0.168E+00
DAV:  34    -0.138834382785E+04    0.37950E-02   -0.15314E-02 13024   0.390E-01    0.142E+00
DAV:  35    -0.138833874670E+04    0.50811E-02   -0.55982E-03 15032   0.349E-01    0.743E-01
DAV:  36    -0.138833861683E+04    0.12986E-03   -0.19012E-03 13192   0.139E-01    0.663E-01
DAV:  37    -0.138833778327E+04    0.83356E-03   -0.11675E-03 16320   0.120E-01    0.489E-01
DAV:  38    -0.138833717223E+04    0.61105E-03   -0.54671E-04 20000   0.753E-02    0.243E-01
DAV:  39    -0.138833712270E+04    0.49527E-04   -0.24410E-04 20040   0.457E-02    0.199E-01
DAV:  40    -0.138833703870E+04    0.83996E-04   -0.12723E-04 14160   0.432E-02    0.114E-01
DAV:  41    -0.138833703006E+04    0.86456E-05   -0.52970E-05 13120   0.191E-02    0.116E-01
DAV:  42    -0.138833700921E+04    0.20849E-04   -0.14044E-05 13928   0.140E-02    0.701E-02
DAV:  43    -0.138833700218E+04    0.70272E-05   -0.14499E-05 16256   0.174E-02    0.307E-02
DAV:  44    -0.138833700004E+04    0.21439E-05   -0.68339E-06 14776   0.115E-02    0.164E-02
DAV:  45    -0.138833700073E+04   -0.68804E-06   -0.31197E-06 19104   0.313E-03    0.190E-02
DAV:  46    -0.138833699995E+04    0.77282E-06   -0.51949E-07 12072   0.286E-03    0.135E-02
DAV:  47    -0.138833700037E+04   -0.41781E-06   -0.20028E-07  8088   0.175E-03    0.122E-02
DAV:  48    -0.138833700021E+04    0.16499E-06   -0.21024E-07  7032   0.228E-03    0.365E-03
DAV:  49    -0.138833700036E+04   -0.15566E-06   -0.12028E-07  6352   0.897E-04    0.330E-03
DAV:  50    -0.138833700037E+04   -0.87966E-08   -0.63936E-08  6368   0.391E-04
   1 F= -.15019698E+04 E0= -.15011994E+04  d E =-.150197E+04
       N       E                     dE             d eps       ncg     rms          rms(c)
DAV:   1    -0.138868156545E+04   -0.34457E+00   -0.17261E+02 12318   0.113E+01    0.361E+00
DAV:   2    -0.139055464322E+04   -0.18731E+01   -0.33019E+00 14232   0.714E+00    0.194E+01
DAV:   3    -0.138941421295E+04    0.11404E+01   -0.21077E+00 13792   0.787E+00    0.138E+01
DAV:   4    -0.138913045426E+04    0.28376E+00   -0.68546E-01 16272   0.339E+00    0.897E+00
DAV:   5    -0.138912108044E+04    0.93738E-02   -0.26905E-01 14800   0.215E+00    0.860E+00
DAV:   6    -0.138914482737E+04   -0.23747E-01   -0.27118E-01 15152   0.263E+00    0.757E+00
DAV:   7    -0.138894927531E+04    0.19555E+00   -0.14753E-01 14336   0.216E+00    0.238E+00
DAV:   8    -0.138893918543E+04    0.10090E-01   -0.42830E-02 15600   0.928E-01    0.206E+00
DAV:   9    -0.138898402567E+04   -0.44840E-01   -0.34168E-02 15464   0.994E-01    0.467E+00
DAV:  10    -0.138894946170E+04    0.34564E-01   -0.32797E-02 14272   0.996E-01    0.253E+00
DAV:  11    -0.138893764234E+04    0.11819E-01   -0.17523E-02 15016   0.790E-01    0.162E+00
DAV:  12    -0.138894949811E+04   -0.11856E-01   -0.23979E-02 16624   0.841E-01    0.228E+00
DAV:  13    -0.138893188453E+04    0.17614E-01   -0.16501E-02 15752   0.712E-01    0.841E-01
DAV:  14    -0.138893122845E+04    0.65608E-03   -0.45471E-03 16784   0.286E-01    0.818E-01
DAV:  15    -0.138892908236E+04    0.21461E-02   -0.18357E-03 14872   0.208E-01    0.341E-01
DAV:  16    -0.138893118340E+04   -0.21010E-02   -0.22614E-03 17088   0.253E-01    0.818E-01
DAV:  17    -0.138892977768E+04    0.14057E-02   -0.18387E-03 15928   0.251E-01    0.538E-01
DAV:  18    -0.138892874832E+04    0.10294E-02   -0.68346E-04 15338   0.149E-01    0.120E-01
DAV:  19    -0.138892875807E+04   -0.97493E-05   -0.27209E-04 18952   0.461E-02    0.129E-01
DAV:  20    -0.138892870065E+04    0.57415E-04   -0.11471E-04 14120   0.483E-02    0.377E-02
DAV:  21    -0.138892870047E+04    0.18853E-06   -0.30409E-05 17784   0.145E-02    0.385E-02
DAV:  22    -0.138892869806E+04    0.24094E-05   -0.97728E-06 13424   0.145E-02    0.290E-02
DAV:  23    -0.138892869560E+04    0.24601E-05   -0.47002E-06 14112   0.808E-03    0.115E-02
DAV:  24    -0.138892869714E+04   -0.15446E-05   -0.34341E-06 16376   0.814E-03    0.226E-02
DAV:  25    -0.138892869512E+04    0.20209E-05   -0.23073E-06 14258   0.791E-03    0.522E-03
DAV:  26    -0.138892869505E+04    0.65498E-07   -0.43989E-07 11232   0.169E-03
   2 F= -.15025591E+04 E0= -.15017864E+04  d E =-.589317E+00
       N       E                     dE             d eps       ncg     rms          rms(c)
DAV:   1    -0.138834447388E+04    0.58422E+00   -0.48950E+02 12318   0.194E+01    0.585E+00
DAV:   2    -0.139493167543E+04   -0.65872E+01   -0.11357E+01 15264   0.136E+01    0.323E+01
DAV:   3    -0.139130134000E+04    0.36303E+01   -0.64563E+00 13928   0.142E+01    0.294E+01
DAV:   4    -0.138980353634E+04    0.14978E+01   -0.21979E+00 15584   0.616E+00    0.164E+01
DAV:   5    -0.138933312564E+04    0.47041E+00   -0.79102E-01 15096   0.359E+00    0.767E+00
DAV:   6    -0.138951295216E+04   -0.17983E+00   -0.48584E-01 15314   0.323E+00    0.104E+01
DAV:   7    -0.138939357904E+04    0.11937E+00   -0.40769E-01 14008   0.293E+00    0.857E+00
DAV:   8    -0.138925285255E+04    0.14073E+00   -0.16842E-01 14256   0.209E+00    0.504E+00
DAV:   9    -0.138936533371E+04   -0.11248E+00   -0.16093E-01 15432   0.228E+00    0.750E+00
DAV:  10    -0.138922429701E+04    0.14104E+00   -0.17019E-01 14960   0.207E+00    0.326E+00
DAV:  11    -0.138919550473E+04    0.28792E-01   -0.34130E-02 14152   0.870E-01    0.195E+00
DAV:  12    -0.138918612598E+04    0.93788E-02   -0.12164E-02 13440   0.498E-01    0.141E+00
DAV:  13    -0.138921225601E+04   -0.26130E-01   -0.26366E-02 15536   0.849E-01    0.304E+00
DAV:  14    -0.138921436321E+04   -0.21072E-02   -0.35259E-02 15216   0.106E+00    0.290E+00
DAV:  15    -0.138919170719E+04    0.22656E-01   -0.18637E-02 15224   0.744E-01    0.163E+00
DAV:  16    -0.138919129017E+04    0.41702E-03   -0.58754E-03 17208   0.348E-01    0.168E+00
DAV:  17    -0.138918391350E+04    0.73767E-02   -0.32766E-03 16000   0.316E-01    0.887E-01
DAV:  18    -0.138918268035E+04    0.12331E-02   -0.15599E-03 15594   0.177E-01    0.687E-01
DAV:  19    -0.138918194778E+04    0.73257E-03   -0.79182E-04 16200   0.847E-02    0.468E-01
DAV:  20    -0.138918186696E+04    0.80825E-04   -0.32862E-04 14952   0.592E-02    0.438E-01
DAV:  21    -0.138918140641E+04    0.46055E-03   -0.14328E-04 17216   0.518E-02    0.234E-01
DAV:  22    -0.138918142362E+04   -0.17211E-04   -0.21586E-04 19032   0.609E-02    0.230E-01
DAV:  23    -0.138918123803E+04    0.18559E-03   -0.15248E-04 16784   0.592E-02    0.602E-02
DAV:  24    -0.138918124398E+04   -0.59537E-05   -0.68317E-05 20680   0.222E-02    0.651E-02
DAV:  25    -0.138918123069E+04    0.13292E-04   -0.23657E-05 14096   0.211E-02    0.186E-02
DAV:  26    -0.138918123165E+04   -0.95969E-06   -0.60639E-06 16368   0.637E-03    0.231E-02
DAV:  27    -0.138918123135E+04    0.30203E-06   -0.32018E-06 12802   0.754E-03    0.205E-02
DAV:  28    -0.138918123024E+04    0.11043E-05   -0.93739E-07 12640   0.422E-03    0.133E-02
DAV:  29    -0.138918122970E+04    0.54214E-06   -0.33491E-07  9688   0.240E-03    0.680E-03
DAV:  30    -0.138918122965E+04    0.54810E-07   -0.35270E-07 10248   0.108E-03
   3 F= -.15028106E+04 E0= -.15020334E+04  d E =-.840778E+00
       N       E                     dE             d eps       ncg     rms          rms(c)
DAV:   1    -0.138918252896E+04   -0.12993E-02   -0.10422E+01 12339   0.285E+00    0.521E-01
DAV:   2    -0.138924126947E+04   -0.58741E-01   -0.10843E-01 13586   0.109E+00    0.404E+00
DAV:   3    -0.138920494851E+04    0.36321E-01   -0.55685E-02 13458   0.115E+00    0.241E+00
DAV:   4    -0.138919610548E+04    0.88430E-02   -0.17182E-02 14208   0.522E-01    0.141E+00
DAV:   5    -0.138919542812E+04    0.67736E-03   -0.89308E-03 15376   0.376E-01    0.115E+00
DAV:   6    -0.138919582706E+04   -0.39894E-03   -0.56356E-03 14616   0.384E-01    0.106E+00
DAV:   7    -0.138919243738E+04    0.33897E-02   -0.39742E-03 14328   0.347E-01    0.469E-01
DAV:   8    -0.138919545203E+04   -0.30147E-02   -0.27736E-03 17480   0.288E-01    0.113E+00
DAV:   9    -0.138919457282E+04    0.87921E-03   -0.21638E-03 15440   0.286E-01    0.101E+00
DAV:  10    -0.138919194160E+04    0.26312E-02   -0.13031E-03 15624   0.222E-01    0.261E-01
DAV:  11    -0.138919213610E+04   -0.19449E-03   -0.69435E-04 16936   0.143E-01    0.342E-01
DAV:  12    -0.138919192339E+04    0.21271E-03   -0.48986E-04 15696   0.126E-01    0.247E-01
DAV:  13    -0.138919171820E+04    0.20520E-03   -0.24598E-04 15026   0.828E-02    0.882E-02
DAV:  14    -0.138919176486E+04   -0.46663E-04   -0.10913E-04 16578   0.519E-02    0.143E-01
DAV:  15    -0.138919170297E+04    0.61890E-04   -0.68807E-05 14938   0.429E-02    0.614E-02
DAV:  16    -0.138919169076E+04    0.12205E-04   -0.18360E-05 14912   0.191E-02    0.253E-02
DAV:  17    -0.138919169656E+04   -0.57927E-05   -0.12302E-05 16152   0.154E-02    0.436E-02
DAV:  18    -0.138919168974E+04    0.68160E-05   -0.83149E-06 14088   0.148E-02    0.897E-03
DAV:  19    -0.138919169027E+04   -0.52786E-06   -0.34889E-06 19792   0.480E-03    0.129E-02
DAV:  20    -0.138919168970E+04    0.56777E-06   -0.10238E-06 12746   0.466E-03    0.446E-03
DAV:  21    -0.138919168963E+04    0.67877E-07   -0.21551E-07  7002   0.161E-03
   4 F= -.15028209E+04 E0= -.15020444E+04  d E =-.851088E+00
       N       E                     dE             d eps       ncg     rms          rms(c)
DAV:   1    -0.138919163221E+04    0.57486E-04   -0.41050E-01 12340   0.564E-01    0.112E-01
DAV:   2    -0.138919419067E+04   -0.25585E-02   -0.41405E-03 13394   0.234E-01    0.832E-01
DAV:   3    -0.138919252575E+04    0.16649E-02   -0.22196E-03 13330   0.248E-01    0.481E-01
DAV:   4    -0.138919220887E+04    0.31688E-03   -0.62264E-04 14408   0.108E-01    0.319E-01
DAV:   5    -0.138919215045E+04    0.58419E-04   -0.37397E-04 14912   0.789E-02    0.244E-01
DAV:   6    -0.138919222342E+04   -0.72965E-04   -0.26272E-04 14656   0.895E-02    0.252E-01
DAV:   7    -0.138919200905E+04    0.21437E-03   -0.18351E-04 14384   0.799E-02    0.884E-02
DAV:   8    -0.138919208773E+04   -0.78681E-04   -0.84403E-05 17120   0.526E-02    0.194E-01
DAV:   9    -0.138919209805E+04   -0.10323E-04   -0.88184E-05 15480   0.529E-02    0.203E-01
DAV:  10    -0.138919199072E+04    0.10734E-03   -0.50012E-05 15096   0.441E-02    0.531E-02
DAV:  11    -0.138919198724E+04    0.34805E-05   -0.17968E-05 15792   0.239E-02    0.459E-02
DAV:  12    -0.138919199249E+04   -0.52500E-05   -0.14062E-05 15296   0.217E-02    0.580E-02
DAV:  13    -0.138919198153E+04    0.10961E-04   -0.10577E-05 14760   0.192E-02    0.206E-02
DAV:  14    -0.138919198473E+04   -0.32050E-05   -0.57098E-06 17936   0.127E-02    0.363E-02
DAV:  15    -0.138919198057E+04    0.41585E-05   -0.33583E-06 15760   0.106E-02    0.152E-02
DAV:  16    -0.138919197972E+04    0.85093E-06   -0.83942E-07 13498   0.457E-03    0.492E-03
DAV:  17    -0.138919197996E+04   -0.23449E-06   -0.46867E-07 10874   0.317E-03    0.860E-03
DAV:  18    -0.138919197975E+04    0.20182E-06   -0.35483E-07  9706   0.284E-03    0.164E-03
DAV:  19    -0.138919197977E+04   -0.21173E-07   -0.80752E-08  6303   0.907E-04
   5 F= -.15028212E+04 E0= -.15020448E+04  d E =-.851363E+00
       N       E                     dE             d eps       ncg     rms          rms(c)
DAV:   1    -0.138921575897E+04   -0.23779E-01   -0.11278E+01 12328   0.337E+00    0.681E-01
DAV:   2    -0.138960744852E+04   -0.39169E+00   -0.23806E-01 13696   0.242E+00    0.112E+01
DAV:   3    -0.138929207871E+04    0.31537E+00   -0.17310E-01 13648   0.233E+00    0.515E+00
DAV:   4    -0.138923159395E+04    0.60485E-01   -0.48586E-02 14256   0.950E-01    0.142E+00
DAV:   5    -0.138923091711E+04    0.67684E-03   -0.18415E-02 14904   0.551E-01    0.134E+00
DAV:   6    -0.138924220508E+04   -0.11288E-01   -0.13160E-02 14480   0.582E-01    0.244E+00
DAV:   7    -0.138922905533E+04    0.13150E-01   -0.91448E-03 13872   0.535E-01    0.875E-01
DAV:   8    -0.138922669424E+04    0.23611E-02   -0.27453E-03 14040   0.261E-01    0.309E-01
DAV:   9    -0.138922815693E+04   -0.14627E-02   -0.18925E-03 14440   0.228E-01    0.693E-01
DAV:  10    -0.138922653255E+04    0.16244E-02   -0.15959E-03 13984   0.220E-01    0.189E-01
DAV:  11    -0.138922648687E+04    0.45682E-04   -0.41644E-04 16338   0.853E-02    0.165E-01
DAV:  12    -0.138922656304E+04   -0.76166E-04   -0.25197E-04 15058   0.733E-02    0.208E-01
DAV:  13    -0.138922642483E+04    0.13820E-03   -0.16780E-04 14394   0.658E-02    0.709E-02
DAV:  14    -0.138922647015E+04   -0.45321E-04   -0.71181E-05 17136   0.410E-02    0.131E-01
DAV:  15    -0.138922643225E+04    0.37900E-04   -0.54807E-05 15328   0.400E-02    0.757E-02
DAV:  16    -0.138922641577E+04    0.16478E-04   -0.24200E-05 15320   0.260E-02    0.366E-02
DAV:  17    -0.138922641594E+04   -0.16887E-06   -0.11767E-05 14912   0.151E-02    0.351E-02
DAV:  18    -0.138922641131E+04    0.46325E-05   -0.72057E-06 13856   0.130E-02    0.946E-03
DAV:  19    -0.138922641159E+04   -0.27427E-06   -0.24893E-06 19040   0.359E-03    0.110E-02
DAV:  20    -0.138922641136E+04    0.22350E-06   -0.56636E-07 10818   0.365E-03    0.763E-03
DAV:  21    -0.138922641123E+04    0.13115E-06   -0.25597E-07  7322   0.179E-03    0.338E-03
DAV:  22    -0.138922641123E+04   -0.24665E-08   -0.12867E-07  6367   0.154E-03
   6 F= -.15028548E+04 E0= -.15020785E+04  d E =-.336917E-01
       N       E                     dE             d eps       ncg     rms          rms(c)
DAV:   1    -0.138916242356E+04    0.63988E-01   -0.10143E+02 12320   0.101E+01    0.220E+00
DAV:   2    -0.139245601798E+04   -0.32936E+01   -0.21533E+00 13656   0.770E+00    0.276E+01
DAV:   3    -0.138990094903E+04    0.25551E+01   -0.13438E+00 13728   0.738E+00    0.159E+01
DAV:   4    -0.138931852416E+04    0.58242E+00   -0.46536E-01 14400   0.296E+00    0.392E+00
DAV:   5    -0.138931816117E+04    0.36299E-03   -0.19600E-01 15176   0.165E+00    0.387E+00
DAV:   6    -0.138938355071E+04   -0.65390E-01   -0.13432E-01 14336   0.163E+00    0.618E+00
DAV:   7    -0.138930240622E+04    0.81144E-01   -0.84057E-02 13792   0.147E+00    0.270E+00
DAV:   8    -0.138928880474E+04    0.13601E-01   -0.29039E-02 14400   0.821E-01    0.155E+00
DAV:   9    -0.138929688543E+04   -0.80807E-02   -0.23010E-02 14368   0.740E-01    0.203E+00
DAV:  10    -0.138928287621E+04    0.14009E-01   -0.15724E-02 14000   0.648E-01    0.656E-01
DAV:  11    -0.138928222072E+04    0.65548E-03   -0.39739E-03 16098   0.269E-01    0.543E-01
DAV:  12    -0.138928227336E+04   -0.52636E-04   -0.24966E-03 14528   0.226E-01    0.559E-01
DAV:  13    -0.138928153960E+04    0.73376E-03   -0.17042E-03 14266   0.208E-01    0.317E-01
DAV:  14    -0.138928242347E+04   -0.88387E-03   -0.10835E-03 15864   0.171E-01    0.573E-01
DAV:  15    -0.138928135861E+04    0.10649E-02   -0.83358E-04 14960   0.156E-01    0.146E-01
DAV:  16    -0.138928136541E+04   -0.68001E-05   -0.22784E-04 17322   0.682E-02    0.155E-01
DAV:  17    -0.138928129595E+04    0.69467E-04   -0.12547E-04 14746   0.523E-02    0.690E-02
DAV:  18    -0.138928129155E+04    0.43946E-05   -0.44306E-05 15192   0.282E-02    0.586E-02
DAV:  19    -0.138928128162E+04    0.99296E-05   -0.20026E-05 13480   0.178E-02    0.225E-02
DAV:  20    -0.138928128503E+04   -0.34107E-05   -0.95213E-06 15904   0.116E-02    0.344E-02
DAV:  21    -0.138928128125E+04    0.37811E-05   -0.61076E-06 14152   0.114E-02    0.126E-02
DAV:  22    -0.138928128088E+04    0.36633E-06   -0.22690E-06 17920   0.363E-03    0.692E-03
DAV:  23    -0.138928128077E+04    0.11334E-06   -0.53261E-07 11176   0.305E-03    0.435E-03
DAV:  24    -0.138928128074E+04    0.30588E-07   -0.17263E-07  6663   0.144E-03
   7 F= -.15029087E+04 E0= -.15021322E+04  d E =-.875821E-01
       N       E                     dE             d eps       ncg     rms          rms(c)
DAV:   1    -0.138927846157E+04    0.28192E-02   -0.47469E+00 12320   0.219E+00    0.425E-01
DAV:   2    -0.138943065436E+04   -0.15219E+00   -0.96648E-02 13608   0.150E+00    0.717E+00
DAV:   3    -0.138930792991E+04    0.12272E+00   -0.85179E-02 13576   0.145E+00    0.318E+00
DAV:   4    -0.138928483772E+04    0.23092E-01   -0.21785E-02 14128   0.591E-01    0.896E-01
DAV:   5    -0.138928469178E+04    0.14593E-03   -0.71373E-03 14552   0.347E-01    0.863E-01
DAV:   6    -0.138928911152E+04   -0.44197E-02   -0.53169E-03 14320   0.367E-01    0.154E+00
DAV:   7    -0.138928377076E+04    0.53408E-02   -0.35014E-03 13792   0.336E-01    0.514E-01
DAV:   8    -0.138928294137E+04    0.82940E-03   -0.10730E-03 13872   0.159E-01    0.192E-01
DAV:   9    -0.138928351012E+04   -0.56875E-03   -0.73439E-04 14256   0.142E-01    0.431E-01
DAV:  10    -0.138928288033E+04    0.62978E-03   -0.61967E-04 13824   0.137E-01    0.116E-01
DAV:  11    -0.138928286694E+04    0.13399E-04   -0.16123E-04 16514   0.520E-02    0.105E-01
DAV:  12    -0.138928289091E+04   -0.23974E-04   -0.92087E-05 15170   0.451E-02    0.124E-01
DAV:  13    -0.138928284182E+04    0.49087E-04   -0.60531E-05 14522   0.399E-02    0.413E-02
DAV:  14    -0.138928286029E+04   -0.18465E-04   -0.28600E-05 17088   0.258E-02    0.797E-02
DAV:  15    -0.138928284319E+04    0.17097E-04   -0.20296E-05 15392   0.251E-02    0.411E-02
DAV:  16    -0.138928283892E+04    0.42641E-05   -0.76160E-06 15664   0.141E-02    0.228E-02
DAV:  17    -0.138928283869E+04    0.23325E-06   -0.40046E-06 14712   0.874E-03    0.192E-02
DAV:  18    -0.138928283736E+04    0.13362E-05   -0.23261E-06 13800   0.727E-03    0.605E-03
DAV:  19    -0.138928283746E+04   -0.10549E-06   -0.68363E-07 12738   0.217E-03    0.695E-03
DAV:  20    -0.138928283739E+04    0.70555E-07   -0.30059E-07  8615   0.238E-03
   8 F= -.15029104E+04 E0= -.15021337E+04  d E =-.891931E-01
       N       E                     dE             d eps       ncg     rms          rms(c)
DAV:   1    -0.138928657527E+04   -0.37378E-02   -0.91342E+00 12312   0.312E+00    0.653E-01
DAV:   2    -0.138999350461E+04   -0.70693E+00   -0.34716E-01 13624   0.284E+00    0.166E+01
DAV:   3    -0.138935122959E+04    0.64228E+00   -0.23994E-01 13760   0.271E+00    0.444E+00
DAV:   4    -0.138929627090E+04    0.54959E-01   -0.43744E-02 16072   0.881E-01    0.966E-01
DAV:   5    -0.138931677633E+04   -0.20505E-01   -0.24690E-02 15632   0.720E-01    0.284E+00
DAV:   6    -0.138930391915E+04    0.12857E-01   -0.18291E-02 14056   0.701E-01    0.187E+00
DAV:   7    -0.138929458610E+04    0.93330E-02   -0.70309E-03 13960   0.437E-01    0.399E-01
DAV:   8    -0.138929557460E+04   -0.98850E-03   -0.29891E-03 15256   0.243E-01    0.681E-01
DAV:   9    -0.138929442703E+04    0.11476E-02   -0.20058E-03 13920   0.214E-01    0.317E-01
DAV:  10    -0.138929405506E+04    0.37196E-03   -0.60482E-04 13506   0.112E-01    0.113E-01
DAV:  11    -0.138929419990E+04   -0.14484E-03   -0.27748E-04 15360   0.712E-02    0.230E-01
DAV:  12    -0.138929406026E+04    0.13964E-03   -0.19092E-04 13936   0.689E-02    0.827E-02
DAV:  13    -0.138929406864E+04   -0.83834E-05   -0.65016E-05 14528   0.387E-02    0.905E-02
DAV:  14    -0.138929406686E+04    0.17814E-05   -0.44851E-05 13888   0.336E-02    0.817E-02
DAV:  15    -0.138929404995E+04    0.16913E-04   -0.23938E-05 13784   0.266E-02    0.376E-02
DAV:  16    -0.138929406079E+04   -0.10847E-04   -0.17548E-05 15600   0.215E-02    0.624E-02
DAV:  17    -0.138929404617E+04    0.14624E-04   -0.13274E-05 14568   0.202E-02    0.119E-02
DAV:  18    -0.138929404895E+04   -0.27779E-05   -0.64032E-06 20570   0.964E-03    0.282E-02
DAV:  19    -0.138929404591E+04    0.30330E-05   -0.27149E-06 15506   0.885E-03    0.489E-03
DAV:  20    -0.138929404608E+04   -0.16864E-06   -0.71833E-07 13464   0.297E-03    0.801E-03
DAV:  21    -0.138929404588E+04    0.20664E-06   -0.42687E-07 10927   0.293E-03    0.250E-03
DAV:  22    -0.138929404592E+04   -0.39319E-07   -0.99409E-08  6335   0.126E-03
   9 F= -.15029217E+04 E0= -.15021448E+04  d E =-.113390E-01
       N       E                     dE             d eps       ncg     rms          rms(c)
DAV:   1    -0.138926823014E+04    0.25816E-01   -0.40970E+01 12312   0.662E+00    0.141E+00
DAV:   2    -0.139223118099E+04   -0.29630E+01   -0.12976E+00 13576   0.610E+00    0.313E+01
DAV:   3    -0.138961329358E+04    0.26179E+01   -0.87971E-01 13640   0.569E+00    0.105E+01
DAV:   4    -0.138931203238E+04    0.30126E+00   -0.19614E-01 15072   0.202E+00    0.184E+00
DAV:   5    -0.138937347238E+04   -0.61440E-01   -0.10597E-01 15416   0.140E+00    0.496E+00
DAV:   6    -0.138935240341E+04    0.21069E-01   -0.80173E-02 13984   0.138E+00    0.421E+00
DAV:   7    -0.138930890300E+04    0.43500E-01   -0.43201E-02 13856   0.100E+00    0.125E+00
DAV:   8    -0.138930872469E+04    0.17830E-03   -0.15119E-02 14832   0.555E-01    0.119E+00
DAV:   9    -0.138930798502E+04    0.73967E-03   -0.91016E-03 13888   0.456E-01    0.105E+00
DAV:  10    -0.138930404141E+04    0.39436E-02   -0.41535E-03 13672   0.326E-01    0.234E-01
DAV:  11    -0.138930471556E+04   -0.67415E-03   -0.14491E-03 16528   0.157E-01    0.510E-01
DAV:  12    -0.138930404405E+04    0.67151E-03   -0.98899E-04 14136   0.148E-01    0.194E-01
DAV:  13    -0.138930403471E+04    0.93425E-05   -0.37094E-04 13992   0.915E-02    0.181E-01
DAV:  14    -0.138930401649E+04    0.18219E-04   -0.21380E-04 13752   0.663E-02    0.142E-01
DAV:  15    -0.138930396174E+04    0.54752E-04   -0.11780E-04 13744   0.552E-02    0.687E-02
DAV:  16    -0.138930397504E+04   -0.13305E-04   -0.40944E-05 15368   0.297E-02    0.937E-02
DAV:  17    -0.138930395240E+04    0.22638E-04   -0.30211E-05 14152   0.277E-02    0.357E-02
DAV:  18    -0.138930395664E+04   -0.42346E-05   -0.17297E-05 16792   0.165E-02    0.434E-02
DAV:  19    -0.138930394966E+04    0.69812E-05   -0.10478E-05 14010   0.158E-02    0.127E-02
DAV:  20    -0.138930395043E+04   -0.77744E-06   -0.40684E-06 19800   0.582E-03    0.164E-02
DAV:  21    -0.138930394951E+04    0.91935E-06   -0.11862E-06 13402   0.545E-03    0.516E-03
DAV:  22    -0.138930394954E+04   -0.25917E-07   -0.34262E-07  9362   0.207E-03
  10 F= -.15029325E+04 E0= -.15021549E+04  d E =-.221265E-01
       N       E                     dE             d eps       ncg     rms          rms(c)
DAV:   1    -0.138930329236E+04    0.65715E-03   -0.71565E-01 12318   0.875E-01    0.180E-01
DAV:   2    -0.138935963755E+04   -0.56345E-01   -0.31770E-02 13536   0.783E-01    0.490E+00
DAV:   3    -0.138930765966E+04    0.51978E-01   -0.31439E-02 13600   0.756E-01    0.112E+00
DAV:   4    -0.138930407521E+04    0.35844E-02   -0.33707E-03 16616   0.231E-01    0.297E-01
DAV:   5    -0.138930587138E+04   -0.17962E-02   -0.19300E-03 15800   0.210E-01    0.833E-01
DAV:   6    -0.138930452799E+04    0.13434E-02   -0.14181E-03 14016   0.203E-01    0.484E-01
DAV:   7    -0.138930389764E+04    0.63036E-03   -0.39952E-04 14080   0.111E-01    0.956E-02
DAV:   8    -0.138930399136E+04   -0.93718E-04   -0.20378E-04 15160   0.651E-02    0.196E-01
DAV:   9    -0.138930388077E+04    0.11059E-03   -0.13947E-04 14064   0.582E-02    0.634E-02
DAV:  10    -0.138930386862E+04    0.12150E-04   -0.37765E-05 14064   0.249E-02    0.349E-02
DAV:  11    -0.138930387885E+04   -0.10230E-04   -0.18983E-05 14376   0.194E-02    0.618E-02
DAV:  12    -0.138930386794E+04    0.10909E-04   -0.15251E-05 13736   0.197E-02    0.206E-02
DAV:  13    -0.138930386986E+04   -0.19211E-05   -0.50261E-06 15384   0.111E-02    0.293E-02
DAV:  14    -0.138930386954E+04    0.31998E-06   -0.38199E-06 14368   0.110E-02    0.266E-02
DAV:  15    -0.138930386746E+04    0.20782E-05   -0.20894E-06 14186   0.824E-03    0.987E-03
DAV:  16    -0.138930386844E+04   -0.97721E-06   -0.15706E-06 16480   0.630E-03    0.180E-02
DAV:  17    -0.138930386718E+04    0.12545E-05   -0.11325E-06 14490   0.596E-03    0.276E-03
DAV:  18    -0.138930386732E+04   -0.13355E-06   -0.25563E-07  7522   0.242E-03    0.651E-03
DAV:  19    -0.138930386717E+04    0.14637E-06   -0.20944E-07  7098   0.224E-03    0.137E-03
DAV:  20    -0.138930386719E+04   -0.20445E-07   -0.64413E-08  6327   0.941E-04
  11 F= -.15029326E+04 E0= -.15021549E+04  d E =-.222243E-01
       N       E                     dE             d eps       ncg     rms          rms(c)
DAV:   1    -0.138930225299E+04    0.16142E-02   -0.76632E+00 12312   0.289E+00    0.624E-01
DAV:   2    -0.139023569816E+04   -0.93345E+00   -0.39115E-01 13816   0.301E+00    0.208E+01
DAV:   3    -0.138933424846E+04    0.90145E+00   -0.30215E-01 13856   0.285E+00    0.228E+00
DAV:   4    -0.138931464110E+04    0.19607E-01   -0.35412E-02 19048   0.716E-01    0.170E+00
DAV:   5    -0.138933475372E+04   -0.20113E-01   -0.22946E-02 16464   0.786E-01    0.282E+00
DAV:   6    -0.138930903231E+04    0.25721E-01   -0.16870E-02 14424   0.743E-01    0.459E-01
DAV:   7    -0.138930854634E+04    0.48597E-03   -0.29236E-03 15832   0.215E-01    0.449E-01
DAV:   8    -0.138930990752E+04   -0.13612E-02   -0.15552E-03 15048   0.208E-01    0.813E-01
DAV:   9    -0.138930821681E+04    0.16907E-02   -0.12285E-03 14160   0.192E-01    0.204E-01
DAV:  10    -0.138930807142E+04    0.14539E-03   -0.30524E-04 14920   0.726E-02    0.902E-02
DAV:  11    -0.138930819076E+04   -0.11934E-03   -0.17962E-04 15424   0.606E-02    0.201E-01
DAV:  12    -0.138930807537E+04    0.11539E-03   -0.13485E-04 14096   0.605E-02    0.661E-02
DAV:  13    -0.138930808643E+04   -0.11059E-04   -0.52633E-05 15608   0.358E-02    0.840E-02
DAV:  14    -0.138930807542E+04    0.11008E-04   -0.35936E-05 14514   0.298E-02    0.548E-02
DAV:  15    -0.138930806725E+04    0.81660E-05   -0.15440E-05 14066   0.206E-02    0.313E-02
DAV:  16    -0.138930807275E+04   -0.55011E-05   -0.96248E-06 15808   0.152E-02    0.502E-02
DAV:  17    -0.138930806485E+04    0.79041E-05   -0.65771E-06 14336   0.141E-02    0.959E-03
DAV:  18    -0.138930806591E+04   -0.10548E-05   -0.31411E-06 18282   0.696E-03    0.182E-02
DAV:  19    -0.138930806458E+04    0.13221E-05   -0.15160E-06 13962   0.613E-03    0.305E-03
DAV:  20    -0.138930806469E+04   -0.10774E-06   -0.37541E-07  9271   0.196E-03    0.580E-03
DAV:  21    -0.138930806460E+04    0.92841E-07   -0.20201E-07  7455   0.195E-03
  12 F= -.15029369E+04 E0= -.15021592E+04  d E =-.435992E-02
       N       E                     dE             d eps       ncg     rms          rms(c)
DAV:   1    -0.138930405487E+04    0.40098E-02   -0.65435E+00 12312   0.267E+00    0.577E-01
DAV:   2    -0.139010109974E+04   -0.79704E+00   -0.33859E-01 13832   0.278E+00    0.192E+01
DAV:   3    -0.138933122334E+04    0.76988E+00   -0.22190E-01 13888   0.264E+00    0.207E+00
DAV:   4    -0.138931488713E+04    0.16336E-01   -0.29986E-02 19064   0.662E-01    0.160E+00
DAV:   5    -0.138933221514E+04   -0.17328E-01   -0.19392E-02 16448   0.730E-01    0.263E+00
DAV:   6    -0.138930984287E+04    0.22372E-01   -0.15136E-02 14416   0.689E-01    0.421E-01
DAV:   7    -0.138930945818E+04    0.38469E-03   -0.24980E-03 15824   0.199E-01    0.429E-01
DAV:   8    -0.138931058983E+04   -0.11316E-02   -0.13474E-03 15120   0.193E-01    0.748E-01
DAV:   9    -0.138930914114E+04    0.14487E-02   -0.10178E-03 14280   0.178E-01    0.183E-01
DAV:  10    -0.138930902411E+04    0.11703E-03   -0.26566E-04 15264   0.664E-02    0.841E-02
DAV:  11    -0.138930912452E+04   -0.10041E-03   -0.15042E-04 15216   0.556E-02    0.185E-01
DAV:  12    -0.138930902567E+04    0.98846E-04   -0.11717E-04 14040   0.557E-02    0.584E-02
DAV:  13    -0.138930903821E+04   -0.12539E-04   -0.46101E-05 15976   0.335E-02    0.803E-02
DAV:  14    -0.138930902650E+04    0.11716E-04   -0.31162E-05 14786   0.279E-02    0.491E-02
DAV:  15    -0.138930902008E+04    0.64202E-05   -0.12886E-05 14234   0.186E-02    0.289E-02
DAV:  16    -0.138930902001E+04    0.66371E-07   -0.60346E-06 15048   0.109E-02    0.265E-02
DAV:  17    -0.138930901806E+04    0.19536E-05   -0.34195E-06 14138   0.894E-03    0.105E-02
DAV:  18    -0.138930901899E+04   -0.92923E-06   -0.21498E-06 16216   0.641E-03    0.174E-02
DAV:  19    -0.138930901783E+04    0.11561E-05   -0.13004E-06 13522   0.573E-03    0.307E-03
DAV:  20    -0.138930901792E+04   -0.93707E-07   -0.30841E-07  8554   0.172E-03
  13 F= -.15029382E+04 E0= -.15021603E+04  d E =-.558318E-02
       N       E                     dE             d eps       ncg     rms          rms(c)
DAV:   1    -0.138930857427E+04    0.44356E-03   -0.46064E-01 12318   0.707E-01    0.152E-01
DAV:   2    -0.138936436119E+04   -0.55787E-01   -0.27979E-02 13832   0.733E-01    0.511E+00
DAV:   3    -0.138931044828E+04    0.53913E-01   -0.26578E-02 13880   0.707E-01    0.496E-01
DAV:   4    -0.138930946309E+04    0.98519E-03   -0.19667E-03 18960   0.177E-01    0.481E-01
DAV:   5    -0.138931073488E+04   -0.12718E-02   -0.13052E-03 16320   0.198E-01    0.754E-01
DAV:   6    -0.138930899364E+04    0.17412E-02   -0.94886E-04 14248   0.186E-01    0.135E-01
DAV:   7    -0.138930895880E+04    0.34839E-04   -0.16897E-04 15912   0.525E-02    0.131E-01
DAV:   8    -0.138930901636E+04   -0.57555E-04   -0.10620E-04 15208   0.537E-02    0.168E-01
DAV:   9    -0.138930892517E+04    0.91188E-04   -0.75210E-05 14312   0.480E-02    0.348E-02
DAV:  10    -0.138930892250E+04    0.26691E-05   -0.19955E-05 16752   0.156E-02    0.250E-02
DAV:  11    -0.138930892559E+04   -0.30881E-05   -0.87993E-06 14648   0.122E-02    0.367E-02
DAV:  12    -0.138930892186E+04    0.37241E-05   -0.54986E-06 13768   0.118E-02    0.133E-02
DAV:  13    -0.138930892463E+04   -0.27698E-05   -0.37296E-06 17360   0.982E-03    0.291E-02
DAV:  14    -0.138930892211E+04    0.25246E-05   -0.25119E-06 15456   0.907E-03    0.118E-02
DAV:  15    -0.138930892183E+04    0.27309E-06   -0.70733E-07 12810   0.434E-03    0.881E-03
DAV:  16    -0.138930892233E+04   -0.49824E-06   -0.60659E-07 12154   0.442E-03    0.142E-02
DAV:  17    -0.138930892166E+04    0.67266E-06   -0.47286E-07 11274   0.410E-03    0.229E-03
DAV:  18    -0.138930892170E+04   -0.37544E-07   -0.10346E-07  6327   0.146E-03
  14 F= -.15029382E+04 E0= -.15021603E+04  d E =-.557804E-02
       N       E                     dE             d eps       ncg     rms          rms(c)
DAV:   1    -0.138930771659E+04    0.12051E-02   -0.28416E+00 12323   0.175E+00    0.378E-01
DAV:   2    -0.138960913219E+04   -0.30142E+00   -0.12988E-01 13720   0.169E+00    0.122E+01
DAV:   3    -0.138932131121E+04    0.28782E+00   -0.12418E-01 13736   0.162E+00    0.170E+00
DAV:   4    -0.138931164366E+04    0.96676E-02   -0.13094E-02 17624   0.459E-01    0.808E-01
DAV:   5    -0.138932200545E+04   -0.10362E-01   -0.84046E-03 16032   0.479E-01    0.206E+00
DAV:   6    -0.138931318470E+04    0.88207E-02   -0.68316E-03 14312   0.465E-01    0.102E+00
DAV:   7    -0.138931027849E+04    0.29062E-02   -0.19901E-03 14184   0.239E-01    0.239E-01
DAV:   8    -0.138931028328E+04   -0.47902E-05   -0.87783E-04 15144   0.125E-01    0.255E-01
DAV:   9    -0.138931020376E+04    0.79524E-04   -0.49988E-04 13760   0.100E-01    0.204E-01
DAV:  10    -0.138931007223E+04    0.13153E-03   -0.18556E-04 13544   0.650E-02    0.602E-02
DAV:  11    -0.138931010356E+04   -0.31332E-04   -0.78767E-05 15664   0.370E-02    0.107E-01
DAV:  12    -0.138931007171E+04    0.31851E-04   -0.51741E-05 14176   0.352E-02    0.403E-02
DAV:  13    -0.138931007955E+04   -0.78349E-05   -0.20105E-05 15352   0.223E-02    0.617E-02
DAV:  14    -0.138931007722E+04    0.23226E-05   -0.15866E-05 14736   0.214E-02    0.511E-02
DAV:  15    -0.138931006937E+04    0.78565E-05   -0.81388E-06 14200   0.161E-02    0.195E-02
DAV:  16    -0.138931007223E+04   -0.28633E-05   -0.54111E-06 16434   0.115E-02    0.327E-02
DAV:  17    -0.138931006847E+04    0.37634E-05   -0.36905E-06 14858   0.105E-02    0.888E-03
DAV:  18    -0.138931006839E+04    0.72214E-07   -0.11957E-06 15448   0.431E-03    0.804E-03
DAV:  19    -0.138931006826E+04    0.13117E-06   -0.44932E-07 10210   0.256E-03    0.350E-03
DAV:  20    -0.138931006829E+04   -0.27132E-07   -0.15756E-07  6626   0.184E-03
  15 F= -.15029395E+04 E0= -.15021615E+04  d E =-.131444E-02
       N       E                     dE             d eps       ncg     rms          rms(c)
DAV:   1    -0.138930953778E+04    0.53048E-03   -0.45755E-01 12326   0.703E-01    0.152E-01
DAV:   2    -0.138935765505E+04   -0.48117E-01   -0.24761E-02 13728   0.680E-01    0.481E+00
DAV:   3    -0.138931189958E+04    0.45755E-01   -0.22844E-02 13752   0.659E-01    0.699E-01
DAV:   4    -0.138931015594E+04    0.17436E-02   -0.20645E-03 17672   0.185E-01    0.314E-01
DAV:   5    -0.138931170347E+04   -0.15475E-02   -0.11923E-03 16032   0.189E-01    0.789E-01
DAV:   6    -0.138931039840E+04    0.13051E-02   -0.10151E-03 14240   0.183E-01    0.407E-01
DAV:   7    -0.138930994708E+04    0.45132E-03   -0.26575E-04 14112   0.927E-02    0.920E-02
DAV:   8    -0.138930995125E+04   -0.41667E-05   -0.12919E-04 15232   0.496E-02    0.104E-01
DAV:   9    -0.138930993666E+04    0.14588E-04   -0.76197E-05 13928   0.400E-02    0.801E-02
DAV:  10    -0.138930991652E+04    0.20138E-04   -0.28536E-05 13656   0.256E-02    0.240E-02
DAV:  11    -0.138930992163E+04   -0.51039E-05   -0.12314E-05 15488   0.149E-02    0.427E-02
DAV:  12    -0.138930991636E+04    0.52654E-05   -0.83559E-06 14104   0.142E-02    0.153E-02
DAV:  13    -0.138930991780E+04   -0.14364E-05   -0.31409E-06 15280   0.878E-03    0.252E-02
DAV:  14    -0.138930991703E+04    0.76402E-06   -0.23918E-06 14440   0.831E-03    0.180E-02
DAV:  15    -0.138930991612E+04    0.91669E-06   -0.11201E-06 13768   0.584E-03    0.783E-03
DAV:  16    -0.138930991656E+04   -0.44207E-06   -0.76957E-07 13034   0.453E-03    0.128E-02
DAV:  17    -0.138930991597E+04    0.58613E-06   -0.57550E-07 11562   0.419E-03    0.310E-03
DAV:  18    -0.138930991598E+04   -0.84619E-08   -0.12732E-07  6447   0.168E-03
  16 F= -.15029394E+04 E0= -.15021615E+04  d E =-.124421E-02
       N       E                     dE             d eps       ncg     rms          rms(c)
DAV:   1    -0.138930980635E+04    0.10962E-03   -0.33260E-02 12326   0.190E-01    0.407E-02
DAV:   2    -0.138931323217E+04   -0.34258E-02   -0.17514E-03 13720   0.182E-01    0.127E+00
DAV:   3    -0.138930997978E+04    0.32524E-02   -0.19731E-03 13776   0.177E-01    0.187E-01
DAV:   4    -0.138930985063E+04    0.12916E-03   -0.11115E-04 17840   0.495E-02    0.827E-02
DAV:   5    -0.138930995752E+04   -0.10689E-03   -0.78380E-05 16080   0.502E-02    0.206E-01
DAV:   6    -0.138930986791E+04    0.89616E-04   -0.65337E-05 14248   0.486E-02    0.108E-01
DAV:   7    -0.138930983645E+04    0.31460E-04   -0.17564E-05 14072   0.245E-02    0.260E-02
DAV:   8    -0.138930983631E+04    0.13794E-06   -0.93384E-06 15280   0.133E-02    0.266E-02
DAV:   9    -0.138930983558E+04    0.72646E-06   -0.52453E-06 13920   0.104E-02    0.220E-02
DAV:  10    -0.138930983407E+04    0.15106E-05   -0.20597E-06 13576   0.694E-03    0.621E-03
DAV:  11    -0.138930983446E+04   -0.38459E-06   -0.82924E-07 13058   0.406E-03    0.116E-02
DAV:  12    -0.138930983407E+04    0.38574E-06   -0.62339E-07 11778   0.394E-03    0.409E-03
DAV:  13    -0.138930983418E+04   -0.10630E-06   -0.18903E-07  6543   0.236E-03    0.679E-03
DAV:  14    -0.138930983412E+04    0.52976E-07   -0.15224E-07  6367   0.218E-03
  17 F= -.15029393E+04 E0= -.15021614E+04  d E =-.118593E-02
       N       E                     dE             d eps       ncg     rms          rms(c)
DAV:   1    -0.138930947716E+04    0.35701E-03   -0.61242E-01 12342   0.808E-01    0.177E-01
DAV:   2    -0.138935874994E+04   -0.49273E-01   -0.24958E-02 13664   0.704E-01    0.483E+00
DAV:   3    -0.138931357189E+04    0.45178E-01   -0.25070E-02 13624   0.682E-01    0.110E+00
DAV:   4    -0.138931023936E+04    0.33325E-02   -0.31566E-03 15752   0.227E-01    0.309E-01
DAV:   5    -0.138931138300E+04   -0.11436E-02   -0.14597E-03 15568   0.194E-01    0.663E-01
DAV:   6    -0.138931045159E+04    0.93140E-03   -0.12048E-03 14112   0.184E-01    0.376E-01
DAV:   7    -0.138931008537E+04    0.36622E-03   -0.30447E-04 13928   0.953E-02    0.154E-01
DAV:   8    -0.138931002520E+04    0.60175E-04   -0.12899E-04 14056   0.515E-02    0.632E-02
DAV:   9    -0.138931003786E+04   -0.12664E-04   -0.78046E-05 13680   0.337E-02    0.821E-02
DAV:  10    -0.138931001730E+04    0.20562E-04   -0.41530E-05 13360   0.302E-02    0.281E-02
DAV:  11    -0.138931002510E+04   -0.78034E-05   -0.15715E-05 16208   0.174E-02    0.529E-02
DAV:  12    -0.138931001850E+04    0.65975E-05   -0.11204E-05 14482   0.171E-02    0.273E-02
DAV:  13    -0.138931001731E+04    0.11889E-05   -0.45052E-06 15226   0.107E-02    0.203E-02
DAV:  14    -0.138931002130E+04   -0.39860E-05   -0.42560E-06 15624   0.118E-02    0.384E-02
DAV:  15    -0.138931001634E+04    0.49646E-05   -0.32099E-06 14882   0.110E-02    0.827E-03
DAV:  16    -0.138931001639E+04   -0.55486E-07   -0.83549E-07 14832   0.407E-03
  18 F= -.15029395E+04 E0= -.15021616E+04  d E =-.170733E-03
       N       E                     dE             d eps       ncg     rms          rms(c)
DAV:   1    -0.138931002539E+04   -0.90588E-05   -0.37409E-02 12342   0.200E-01    0.433E-02
DAV:   2    -0.138931288167E+04   -0.28563E-02   -0.14397E-03 13672   0.172E-01    0.114E+00
DAV:   3    -0.138931028296E+04    0.25987E-02   -0.15685E-03 13592   0.167E-01    0.273E-01
DAV:   4    -0.138931007478E+04    0.20818E-03   -0.13886E-04 15600   0.565E-02    0.791E-02
DAV:   5    -0.138931012221E+04   -0.47429E-04   -0.79210E-05 15176   0.456E-02    0.141E-01
DAV:   6    -0.138931009573E+04    0.26480E-04   -0.66375E-05 14088   0.442E-02    0.107E-01
DAV:   7    -0.138931006594E+04    0.29790E-04   -0.23159E-05 13784   0.277E-02    0.464E-02
DAV:   8    -0.138931006002E+04    0.59117E-05   -0.81107E-06 14072   0.134E-02    0.141E-02
DAV:   9    -0.138931006280E+04   -0.27719E-05   -0.51885E-06 14832   0.101E-02    0.303E-02
DAV:  10    -0.138931005981E+04    0.29876E-05   -0.38262E-06 13848   0.101E-02    0.761E-03
DAV:  11    -0.138931006009E+04   -0.28597E-06   -0.12395E-06 14538   0.465E-03    0.110E-02
DAV:  12    -0.138931005976E+04    0.33680E-06   -0.72433E-07 12026   0.405E-03    0.557E-03
DAV:  13    -0.138931005974E+04    0.17004E-07   -0.19645E-07  6511   0.230E-03
  19 F= -.15029396E+04 E0= -.15021617E+04  d E =-.213149E-03
       N       E                     dE             d eps       ncg     rms          rms(c)
DAV:   1    -0.138931005753E+04    0.22244E-05   -0.19639E-03 12342   0.458E-02    0.112E-02
DAV:   2    -0.138931022461E+04   -0.16708E-03   -0.59168E-05 13656   0.439E-02    0.272E-01
DAV:   3    -0.138931007658E+04    0.14803E-03   -0.55916E-05 13648   0.414E-02    0.743E-02
DAV:   4    -0.138931006151E+04    0.15070E-04   -0.83561E-06 14816   0.163E-02    0.298E-02
DAV:   5    -0.138931006071E+04    0.80359E-06   -0.45158E-06 14976   0.106E-02    0.229E-02
DAV:   6    -0.138931006274E+04   -0.20286E-05   -0.34506E-06 14408   0.103E-02    0.325E-02
DAV:   7    -0.138931005979E+04    0.29507E-05   -0.22319E-06 13864   0.884E-03    0.140E-02
DAV:   8    -0.138931005923E+04    0.55999E-06   -0.47670E-07 12048   0.350E-03    0.414E-03
DAV:   9    -0.138931005939E+04   -0.16261E-06   -0.31096E-07  8874   0.287E-03    0.777E-03
DAV:  10    -0.138931005923E+04    0.15881E-06   -0.23037E-07  7106   0.253E-03    0.386E-03
DAV:  11    -0.138931005919E+04    0.43554E-07   -0.70263E-08  6207   0.124E-03
  20 F= -.15029396E+04 E0= -.15021617E+04  d E =-.212744E-03
       N       E                     dE             d eps       ncg     rms          rms(c)
DAV:   1    -0.138931003340E+04    0.25826E-04   -0.77420E-02 12337   0.289E-01    0.544E-02
DAV:   2    -0.138931272382E+04   -0.26904E-02   -0.14310E-03 13584   0.191E-01    0.105E+00
DAV:   3    -0.138931032975E+04    0.23941E-02   -0.12511E-03 13520   0.182E-01    0.272E-01
DAV:   4    -0.138931013789E+04    0.19187E-03   -0.21432E-04 14816   0.573E-02    0.116E-01
DAV:   5    -0.138931014654E+04   -0.86520E-05   -0.98095E-05 14832   0.446E-02    0.117E-01
DAV:   6    -0.138931014264E+04    0.38949E-05   -0.70892E-05 14200   0.402E-02    0.101E-01
DAV:   7    -0.138931011638E+04    0.26260E-04   -0.31153E-05 13712   0.301E-02    0.515E-02
DAV:   8    -0.138931011113E+04    0.52555E-05   -0.10425E-05 14024   0.161E-02    0.256E-02
DAV:   9    -0.138931011444E+04   -0.33126E-05   -0.81185E-06 14312   0.135E-02    0.372E-02
DAV:  10    -0.138931010977E+04    0.46666E-05   -0.56180E-06 13712   0.126E-02    0.116E-02
DAV:  11    -0.138931011065E+04   -0.87198E-06   -0.21668E-06 16944   0.682E-03    0.193E-02
DAV:  12    -0.138931010975E+04    0.89796E-06   -0.13319E-06 14696   0.624E-03    0.105E-02
DAV:  13    -0.138931010956E+04    0.18737E-06   -0.61139E-07 12608   0.427E-03    0.768E-03
DAV:  14    -0.138931010997E+04   -0.40712E-06   -0.44554E-07 11266   0.392E-03    0.125E-02
DAV:  15    -0.138931010945E+04    0.51770E-06   -0.36760E-07 10026   0.369E-03    0.306E-03
DAV:  16    -0.138931010948E+04   -0.28507E-07   -0.80328E-08  6351   0.169E-03
  21 F= -.15029396E+04 E0= -.15021618E+04  d E =-.654809E-04
       N       E                     dE             d eps       ncg     rms          rms(c)
DAV:   1    -0.138931010865E+04    0.79664E-06   -0.13178E-07  6327   0.144E-03    0.216E-03
DAV:   2    -0.138931011092E+04   -0.22643E-05   -0.15858E-06 17472   0.701E-03    0.256E-02
DAV:   3    -0.138931010902E+04    0.19022E-05   -0.86197E-07 14144   0.647E-03    0.119E-02
DAV:   4    -0.138931010866E+04    0.35472E-06   -0.21359E-07  7946   0.234E-03    0.363E-03
DAV:   5    -0.138931010864E+04    0.20453E-07   -0.12448E-07  6399   0.927E-04    0.226E-03
DAV:   6    -0.138931010866E+04   -0.15585E-07   -0.74664E-08  6222   0.977E-04
  22 F= -.15029396E+04 E0= -.15021618E+04  d E =-.646793E-04
       N       E                     dE             d eps       ncg     rms          rms(c)
DAV:   1    -0.138931008101E+04    0.27627E-04   -0.10356E-02 12334   0.106E-01    0.143E-02
DAV:   2    -0.138931015818E+04   -0.77169E-04   -0.12604E-04 13544   0.398E-02    0.154E-01
DAV:   3    -0.138931010043E+04    0.57748E-04   -0.63878E-05 13440   0.392E-02    0.611E-02
DAV:   4    -0.138931009368E+04    0.67518E-05   -0.12761E-05 13912   0.139E-02    0.311E-02
DAV:   5    -0.138931009783E+04   -0.41513E-05   -0.77161E-06 16608   0.123E-02    0.493E-02
DAV:   6    -0.138931009657E+04    0.12648E-05   -0.51961E-06 14472   0.132E-02    0.355E-02
DAV:   7    -0.138931009224E+04    0.43333E-05   -0.29691E-06 14024   0.104E-02    0.796E-03
DAV:   8    -0.138931009260E+04   -0.36340E-06   -0.87616E-07 14088   0.470E-03    0.152E-02
DAV:   9    -0.138931009298E+04   -0.38391E-06   -0.73057E-07 13480   0.519E-03    0.177E-02
DAV:  10    -0.138931009204E+04    0.94203E-06   -0.58350E-07 12704   0.469E-03    0.355E-03
DAV:  11    -0.138931009208E+04   -0.41204E-07   -0.13796E-07  6439   0.204E-03
  23 F= -.15029396E+04 E0= -.15021617E+04  d E =0.272878E-04
       N       E                     dE             d eps       ncg     rms          rms(c)
DAV:   1    -0.138931009037E+04    0.16749E-05   -0.19167E-04 12334   0.144E-02    0.341E-03
DAV:   2    -0.138931009652E+04   -0.61506E-05   -0.38583E-06 13312   0.111E-02    0.441E-02
DAV:   3    -0.138931009279E+04    0.37261E-05   -0.25520E-06 13248   0.104E-02    0.306E-02
DAV:   4    -0.138931009065E+04    0.21438E-05   -0.85787E-07 13224   0.571E-03    0.570E-03
DAV:   5    -0.138931009060E+04    0.48633E-07   -0.32041E-07  9066   0.259E-03    0.544E-03
DAV:   6    -0.138931009086E+04   -0.26642E-06   -0.20734E-07  6762   0.262E-03    0.111E-02
DAV:   7    -0.138931009056E+04    0.30180E-06   -0.18267E-07  6540   0.251E-03    0.312E-03
DAV:   8    -0.138931009054E+04    0.21682E-07   -0.47153E-08  6192   0.931E-04
  24 F= -.15029396E+04 E0= -.15021617E+04  d E =0.273781E-04
       N       E                     dE             d eps       ncg     rms          rms(c)
DAV:   1    -0.138931009181E+04   -0.12441E-05   -0.11920E-03 12326   0.359E-02    0.527E-03
DAV:   2    -0.138931011273E+04   -0.20924E-04   -0.14097E-05 13472   0.171E-02    0.921E-02
DAV:   3    -0.138931009526E+04    0.17467E-04   -0.94585E-06 13432   0.166E-02    0.298E-02
DAV:   4    -0.138931009321E+04    0.20519E-05   -0.18897E-06 13680   0.657E-03    0.136E-02
DAV:   5    -0.138931009316E+04    0.47025E-07   -0.11232E-06 13968   0.481E-03    0.112E-02
DAV:   6    -0.138931009367E+04   -0.50414E-06   -0.86163E-07 13352   0.510E-03    0.159E-02
DAV:   7    -0.138931009293E+04    0.73822E-06   -0.61504E-07 12714   0.458E-03    0.630E-03
DAV:   8    -0.138931009283E+04    0.95388E-07   -0.12307E-07  6281   0.178E-03
  25 F= -.15029396E+04 E0= -.15021617E+04  d E =-.290604E-06
       N       E                     dE             d eps       ncg     rms          rms(c)
DAV:   1    -0.138931009275E+04    0.17794E-06   -0.68297E-05 12326   0.874E-03    0.415E-03
DAV:   2    -0.138931010023E+04   -0.74764E-05   -0.48462E-06 13920   0.135E-02    0.448E-02
DAV:   3    -0.138931009526E+04    0.49648E-05   -0.34100E-06 13848   0.125E-02    0.325E-02
DAV:   4    -0.138931009300E+04    0.22682E-05   -0.67307E-07 12872   0.556E-03    0.844E-03
DAV:   5    -0.138931009279E+04    0.20750E-06   -0.22188E-07  7402   0.247E-03    0.420E-03
DAV:   6    -0.138931009287E+04   -0.80428E-07   -0.11335E-07  6472   0.189E-03
  26 F= -.15029396E+04 E0= -.15021617E+04  d E =-.807694E-06
