NiAl                                    
            1
    14.280000    0.000000    0.000000
     0.000000   14.280000    0.000000
     0.000000    0.000000   14.280000
   Ni   O 
   256     1
Direct configuration=     1
   0.00000000  0.00000000  0.00000000
   0.00000000  0.12500000  0.12500000
   0.12500000  0.00000000  0.12500000
   0.12500000  0.12500000  0.00000000
   0.00000000  0.00000000  0.25000000
   0.00000000  0.12500000  0.37500000
   0.12500000  0.00000000  0.37500000
   0.12500000  0.12500000  0.25000000
   0.00000000  0.00000000  0.50000000
   0.00000000  0.12500000  0.62500000
   0.12500000  0.00000000  0.62500000
   0.12500000  0.12500000  0.50000000
   0.00000000  0.00000000  0.75000000
   0.00000000  0.12500000  0.87500000
   0.12500000  0.00000000  0.87500000
   0.12500000  0.12500000  0.75000000
   0.00000000  0.25000000  0.00000000
   0.00000000  0.37500000  0.12500000
   0.12500000  0.25000000  0.12500000
   0.12500000  0.37500000  0.00000000
   0.00000000  0.25000000  0.25000000
   0.00000000  0.37500000  0.37500000
   0.12500000  0.25000000  0.37500000
   0.12500000  0.37500000  0.25000000
   0.00000000  0.25000000  0.50000000
   0.00000000  0.37500000  0.62500000
   0.12500000  0.25000000  0.62500000
   0.12500000  0.37500000  0.50000000
   0.00000000  0.25000000  0.75000000
   0.00000000  0.37500000  0.87500000
   0.12500000  0.25000000  0.87500000
   0.12500000  0.37500000  0.75000000
   0.00000000  0.50000000  0.00000000
   0.00000000  0.62500000  0.12500000
   0.12500000  0.50000000  0.12500000
   0.12500000  0.62500000  0.00000000
   0.00000000  0.50000000  0.25000000
   0.00000000  0.62500000  0.37500000
   0.12500000  0.50000000  0.37500000
   0.12500000  0.62500000  0.25000000
   0.00000000  0.50000000  0.50000000
   0.00000000  0.62500000  0.62500000
   0.12500000  0.50000000  0.62500000
   0.12500000  0.62500000  0.50000000
   0.00000000  0.50000000  0.75000000
   0.00000000  0.62500000  0.87500000
   0.12500000  0.50000000  0.87500000
   0.12500000  0.62500000  0.75000000
   0.00000000  0.75000000  0.00000000
   0.00000000  0.87500000  0.12500000
   0.12500000  0.75000000  0.12500000
   0.12500000  0.87500000  0.00000000
   0.00000000  0.75000000  0.25000000
   0.00000000  0.87500000  0.37500000
   0.12500000  0.75000000  0.37500000
   0.12500000  0.87500000  0.25000000
   0.00000000  0.75000000  0.50000000
   0.00000000  0.87500000  0.62500000
   0.12500000  0.75000000  0.62500000
   0.12500000  0.87500000  0.50000000
   0.00000000  0.75000000  0.75000000
   0.00000000  0.87500000  0.87500000
   0.12500000  0.75000000  0.87500000
   0.12500000  0.87500000  0.75000000
   0.25000000  0.00000000  0.00000000
   0.25000000  0.12500000  0.12500000
   0.37500000  0.00000000  0.12500000
   0.37500000  0.12500000  0.00000000
   0.25000000  0.00000000  0.25000000
   0.25000000  0.12500000  0.37500000
   0.37500000  0.00000000  0.37500000
   0.37500000  0.12500000  0.25000000
   0.25000000  0.00000000  0.50000000
   0.25000000  0.12500000  0.62500000
   0.37500000  0.00000000  0.62500000
   0.37500000  0.12500000  0.50000000
   0.25000000  0.00000000  0.75000000
   0.25000000  0.12500000  0.87500000
   0.37500000  0.00000000  0.87500000
   0.37500000  0.12500000  0.75000000
   0.25000000  0.25000000  0.00000000
   0.25000000  0.37500000  0.12500000
   0.37500000  0.25000000  0.12500000
   0.37500000  0.37500000  0.00000000
   0.25000000  0.25000000  0.25000000
   0.25000000  0.37500000  0.37500000
   0.37500000  0.25000000  0.37500000
   0.37500000  0.37500000  0.25000000
   0.25000000  0.25000000  0.50000000
   0.25000000  0.37500000  0.62500000
   0.37500000  0.25000000  0.62500000
   0.37500000  0.37500000  0.50000000
   0.25000000  0.25000000  0.75000000
   0.25000000  0.37500000  0.87500000
   0.37500000  0.25000000  0.87500000
   0.37500000  0.37500000  0.75000000
   0.25000000  0.50000000  0.00000000
   0.25000000  0.62500000  0.12500000
   0.37500000  0.50000000  0.12500000
   0.37500000  0.62500000  0.00000000
   0.25000000  0.50000000  0.25000000
   0.25000000  0.62500000  0.37500000
   0.37500000  0.50000000  0.37500000
   0.37500000  0.62500000  0.25000000
   0.25000000  0.50000000  0.50000000
   0.25000000  0.62500000  0.62500000
   0.37500000  0.50000000  0.62500000
   0.37500000  0.62500000  0.50000000
   0.25000000  0.50000000  0.75000000
   0.25000000  0.62500000  0.87500000
   0.37500000  0.50000000  0.87500000
   0.37500000  0.62500000  0.75000000
   0.25000000  0.75000000  0.00000000
   0.25000000  0.87500000  0.12500000
   0.37500000  0.75000000  0.12500000
   0.37500000  0.87500000  0.00000000
   0.25000000  0.75000000  0.25000000
   0.25000000  0.87500000  0.37500000
   0.37500000  0.75000000  0.37500000
   0.37500000  0.87500000  0.25000000
   0.25000000  0.75000000  0.50000000
   0.25000000  0.87500000  0.62500000
   0.37500000  0.75000000  0.62500000
   0.37500000  0.87500000  0.50000000
   0.25000000  0.75000000  0.75000000
   0.25000000  0.87500000  0.87500000
   0.37500000  0.75000000  0.87500000
   0.37500000  0.87500000  0.75000000
   0.50000000  0.00000000  0.00000000
   0.50000000  0.12500000  0.12500000
   0.62500000  0.00000000  0.12500000
   0.62500000  0.12500000  0.00000000
   0.50000000  0.00000000  0.25000000
   0.50000000  0.12500000  0.37500000
   0.62500000  0.00000000  0.37500000
   0.62500000  0.12500000  0.25000000
   0.50000000  0.00000000  0.50000000
   0.50000000  0.12500000  0.62500000
   0.62500000  0.00000000  0.62500000
   0.62500000  0.12500000  0.50000000
   0.50000000  0.00000000  0.75000000
   0.50000000  0.12500000  0.87500000
   0.62500000  0.00000000  0.87500000
   0.62500000  0.12500000  0.75000000
   0.50000000  0.25000000  0.00000000
   0.50000000  0.37500000  0.12500000
   0.62500000  0.25000000  0.12500000
   0.62500000  0.37500000  0.00000000
   0.50000000  0.25000000  0.25000000
   0.50000000  0.37500000  0.37500000
   0.62500000  0.25000000  0.37500000
   0.62500000  0.37500000  0.25000000
   0.50000000  0.25000000  0.50000000
   0.50000000  0.37500000  0.62500000
   0.62500000  0.25000000  0.62500000
   0.62500000  0.37500000  0.50000000
   0.50000000  0.25000000  0.75000000
   0.50000000  0.37500000  0.87500000
   0.62500000  0.25000000  0.87500000
   0.62500000  0.37500000  0.75000000
   0.50000000  0.50000000  0.00000000
   0.50000000  0.62500000  0.12500000
   0.62500000  0.50000000  0.12500000
   0.62500000  0.62500000  0.00000000
   0.50000000  0.50000000  0.25000000
   0.50000000  0.62500000  0.37500000
   0.62500000  0.50000000  0.37500000
   0.62500000  0.62500000  0.25000000
   0.50000000  0.50000000  0.50000000
   0.50000000  0.62500000  0.62500000
   0.62500000  0.50000000  0.62500000
   0.62500000  0.62500000  0.50000000
   0.50000000  0.50000000  0.75000000
   0.50000000  0.62500000  0.87500000
   0.62500000  0.50000000  0.87500000
   0.62500000  0.62500000  0.75000000
   0.50000000  0.75000000  0.00000000
   0.50000000  0.87500000  0.12500000
   0.62500000  0.75000000  0.12500000
   0.62500000  0.87500000  0.00000000
   0.50000000  0.75000000  0.25000000
   0.50000000  0.87500000  0.37500000
   0.62500000  0.75000000  0.37500000
   0.62500000  0.87500000  0.25000000
   0.50000000  0.75000000  0.50000000
   0.50000000  0.87500000  0.62500000
   0.62500000  0.75000000  0.62500000
   0.62500000  0.87500000  0.50000000
   0.50000000  0.75000000  0.75000000
   0.50000000  0.87500000  0.87500000
   0.62500000  0.75000000  0.87500000
   0.62500000  0.87500000  0.75000000
   0.75000000  0.00000000  0.00000000
   0.75000000  0.12500000  0.12500000
   0.87500000  0.00000000  0.12500000
   0.87500000  0.12500000  0.00000000
   0.75000000  0.00000000  0.25000000
   0.75000000  0.12500000  0.37500000
   0.87500000  0.00000000  0.37500000
   0.87500000  0.12500000  0.25000000
   0.75000000  0.00000000  0.50000000
   0.75000000  0.12500000  0.62500000
   0.87500000  0.00000000  0.62500000
   0.87500000  0.12500000  0.50000000
   0.75000000  0.00000000  0.75000000
   0.75000000  0.12500000  0.87500000
   0.87500000  0.00000000  0.87500000
   0.87500000  0.12500000  0.75000000
   0.75000000  0.25000000  0.00000000
   0.75000000  0.37500000  0.12500000
   0.87500000  0.25000000  0.12500000
   0.87500000  0.37500000  0.00000000
   0.75000000  0.25000000  0.25000000
   0.75000000  0.37500000  0.37500000
   0.87500000  0.25000000  0.37500000
   0.87500000  0.37500000  0.25000000
   0.75000000  0.25000000  0.50000000
   0.75000000  0.37500000  0.62500000
   0.87500000  0.25000000  0.62500000
   0.87500000  0.37500000  0.50000000
   0.75000000  0.25000000  0.75000000
   0.75000000  0.37500000  0.87500000
   0.87500000  0.25000000  0.87500000
   0.87500000  0.37500000  0.75000000
   0.75000000  0.50000000  0.00000000
   0.75000000  0.62500000  0.12500000
   0.87500000  0.50000000  0.12500000
   0.87500000  0.62500000  0.00000000
   0.75000000  0.50000000  0.25000000
   0.75000000  0.62500000  0.37500000
   0.87500000  0.50000000  0.37500000
   0.87500000  0.62500000  0.25000000
   0.75000000  0.50000000  0.50000000
   0.75000000  0.62500000  0.62500000
   0.87500000  0.50000000  0.62500000
   0.87500000  0.62500000  0.50000000
   0.75000000  0.50000000  0.75000000
   0.75000000  0.62500000  0.87500000
   0.87500000  0.50000000  0.87500000
   0.87500000  0.62500000  0.75000000
   0.75000000  0.75000000  0.00000000
   0.75000000  0.87500000  0.12500000
   0.87500000  0.75000000  0.12500000
   0.87500000  0.87500000  0.00000000
   0.75000000  0.75000000  0.25000000
   0.75000000  0.87500000  0.37500000
   0.87500000  0.75000000  0.37500000
   0.87500000  0.87500000  0.25000000
   0.75000000  0.75000000  0.50000000
   0.75000000  0.87500000  0.62500000
   0.87500000  0.75000000  0.62500000
   0.87500000  0.87500000  0.50000000
   0.75000000  0.75000000  0.75000000
   0.75000000  0.87500000  0.87500000
   0.87500000  0.75000000  0.87500000
   0.87500000  0.87500000  0.75000000
   0.12500000  0.00000000  0.00000000
Direct configuration=     2
  -0.00345790  0.00000000  0.00000000
  -0.00035667  0.12535667  0.12535667
   0.12500000  0.00000000  0.12845790
   0.12500000  0.12845790  0.00000000
  -0.00001098  0.00000000  0.25003979
   0.00000343  0.12499657  0.37499053
   0.12500000  0.00000000  0.37502432
   0.12500000  0.12501098  0.25003979
  -0.00000651  0.00000000  0.50000000
   0.00000343  0.12499657  0.62500947
   0.12500000  0.00000000  0.62497568
   0.12500000  0.12500651  0.50000000
  -0.00001098  0.00000000  0.74996021
  -0.00035667  0.12535667  0.87464333
   0.12500000  0.00000000  0.87154210
   0.12500000  0.12501098  0.74996021
  -0.00001098  0.25003979  0.00000000
   0.00000343  0.37499053  0.12499657
   0.12500000  0.25003979  0.12501098
   0.12500000  0.37502432  0.00000000
   0.00002071  0.24998281  0.24998281
  -0.00000152  0.37500008  0.37500008
   0.12500000  0.25001427  0.37501557
   0.12500000  0.37501557  0.25001427
   0.00000051  0.25000019  0.50000000
  -0.00000152  0.37500008  0.62499992
   0.12500000  0.25001427  0.62498443
   0.12500000  0.37500776  0.50000000
   0.00002071  0.24998281  0.75001719
   0.00000343  0.37499053  0.87500343
   0.12500000  0.25003979  0.87498902
   0.12500000  0.37501557  0.74998573
  -0.00000651  0.50000000  0.00000000
   0.00000343  0.62500947  0.12499657
   0.12500000  0.50000000  0.12500651
   0.12500000  0.62497568  0.00000000
   0.00000051  0.50000000  0.25000019
  -0.00000152  0.62499992  0.37500008
   0.12500000  0.50000000  0.37500776
   0.12500000  0.62498443  0.25001427
  -0.00000520  0.50000000  0.50000000
  -0.00000152  0.62499992  0.62499992
   0.12500000  0.50000000  0.62499224
   0.12500000  0.62499224  0.50000000
   0.00000051  0.50000000  0.74999981
   0.00000343  0.62500947  0.87500343
   0.12500000  0.50000000  0.87499349
   0.12500000  0.62498443  0.74998573
  -0.00001098  0.74996021  0.00000000
  -0.00035667  0.87464333  0.12535667
   0.12500000  0.74996021  0.12501098
   0.12500000  0.87154210  0.00000000
   0.00002071  0.75001719  0.24998281
   0.00000343  0.87500343  0.37499053
   0.12500000  0.74998573  0.37501557
   0.12500000  0.87498902  0.25003979
   0.00000051  0.74999981  0.50000000
   0.00000343  0.87500343  0.62500947
   0.12500000  0.74998573  0.62498443
   0.12500000  0.87499349  0.50000000
   0.00002071  0.75001719  0.75001719
  -0.00035667  0.87464333  0.87464333
   0.12500000  0.74996021  0.87498902
   0.12500000  0.87498902  0.74996021
   0.25345790  0.00000000  0.00000000
   0.25035667  0.12535667  0.12535667
   0.37503979  0.00000000  0.12501098
   0.37503979  0.12501098  0.00000000
   0.25001098  0.00000000  0.25003979
   0.24999657  0.12499657  0.37499053
   0.37501427  0.00000000  0.37501557
   0.37498281  0.12497929  0.24998281
   0.25000651  0.00000000  0.50000000
   0.24999657  0.12499657  0.62500947
   0.37501427  0.00000000  0.62498443
   0.37500019  0.12499949  0.50000000
   0.25001098  0.00000000  0.74996021
   0.25035667  0.12535667  0.87464333
   0.37503979  0.00000000  0.87498902
   0.37498281  0.12497929  0.75001719
   0.25001098  0.25003979  0.00000000
   0.24999657  0.37499053  0.12499657
   0.37498281  0.24998281  0.12497929
   0.37501427  0.37501557  0.00000000
   0.24997929  0.24998281  0.24998281
   0.25000152  0.37500008  0.37500008
   0.37500472  0.25000472  0.37500616
   0.37500472  0.37500616  0.25000472
   0.24999949  0.25000019  0.50000000
   0.25000152  0.37500008  0.62499992
   0.37500472  0.25000472  0.62499384
   0.37500173  0.37500080  0.50000000
   0.24997929  0.24998281  0.75001719
   0.24999657  0.37499053  0.87500343
   0.37498281  0.24998281  0.87502071
   0.37500472  0.37500616  0.74999528
   0.25000651  0.50000000  0.00000000
   0.24999657  0.62500947  0.12499657
   0.37500019  0.50000000  0.12499949
   0.37501427  0.62498443  0.00000000
   0.24999949  0.50000000  0.25000019
   0.25000152  0.62499992  0.37500008
   0.37500173  0.50000000  0.37500080
   0.37500472  0.62499384  0.25000472
   0.25000520  0.50000000  0.50000000
   0.25000152  0.62499992  0.62499992
   0.37500173  0.50000000  0.62499920
   0.37500173  0.62499920  0.50000000
   0.24999949  0.50000000  0.74999981
   0.24999657  0.62500947  0.87500343
   0.37500019  0.50000000  0.87500051
   0.37500472  0.62499384  0.74999528
   0.25001098  0.74996021  0.00000000
   0.25035667  0.87464333  0.12535667
   0.37498281  0.75001719  0.12497929
   0.37503979  0.87498902  0.00000000
   0.24997929  0.75001719  0.24998281
   0.24999657  0.87500343  0.37499053
   0.37500472  0.74999528  0.37500616
   0.37498281  0.87502071  0.24998281
   0.24999949  0.74999981  0.50000000
   0.24999657  0.87500343  0.62500947
   0.37500472  0.74999528  0.62499384
   0.37500019  0.87500051  0.50000000
   0.24997929  0.75001719  0.75001719
   0.25035667  0.87464333  0.87464333
   0.37498281  0.75001719  0.87502071
   0.37498281  0.87502071  0.75001719
   0.50002432  0.00000000  0.00000000
   0.49999053  0.12499657  0.12499657
   0.62500000  0.00000000  0.12500651
   0.62500000  0.12500651  0.00000000
   0.50001557  0.00000000  0.25001427
   0.50000008  0.12500152  0.37500008
   0.62500000  0.00000000  0.37500776
   0.62500000  0.12499949  0.25000019
   0.50000776  0.00000000  0.50000000
   0.50000008  0.12500152  0.62499992
   0.62500000  0.00000000  0.62499224
   0.62500000  0.12500520  0.50000000
   0.50001557  0.00000000  0.74998573
   0.49999053  0.12499657  0.87500343
   0.62500000  0.00000000  0.87499349
   0.62500000  0.12499949  0.74999981
   0.50001557  0.25001427  0.00000000
   0.50000008  0.37500008  0.12500152
   0.62500000  0.25000019  0.12499949
   0.62500000  0.37500776  0.00000000
   0.50000616  0.25000472  0.25000472
   0.50000366  0.37500366  0.37500366
   0.62500000  0.25000173  0.37500080
   0.62500000  0.37500080  0.25000173
   0.50000080  0.25000173  0.50000000
   0.50000366  0.37500366  0.62499634
   0.62500000  0.25000173  0.62499920
   0.62500000  0.37499605  0.50000000
   0.50000616  0.25000472  0.74999528
   0.50000008  0.37500008  0.87499848
   0.62500000  0.25000019  0.87500051
   0.62500000  0.37500080  0.74999827
   0.50000776  0.50000000  0.00000000
   0.50000008  0.62499992  0.12500152
   0.62500000  0.50000000  0.12500520
   0.62500000  0.62499224  0.00000000
   0.50000080  0.50000000  0.25000173
   0.50000366  0.62499634  0.37500366
   0.62500000  0.50000000  0.37499605
   0.62500000  0.62499920  0.25000173
   0.49999605  0.50000000  0.50000000
   0.50000366  0.62499634  0.62499634
   0.62500000  0.50000000  0.62500395
   0.62500000  0.62500395  0.50000000
   0.50000080  0.50000000  0.74999827
   0.50000008  0.62499992  0.87499848
   0.62500000  0.50000000  0.87499480
   0.62500000  0.62499920  0.74999827
   0.50001557  0.74998573  0.00000000
   0.49999053  0.87500343  0.12499657
   0.62500000  0.74999981  0.12499949
   0.62500000  0.87499349  0.00000000
   0.50000616  0.74999528  0.25000472
   0.50000008  0.87499848  0.37500008
   0.62500000  0.74999827  0.37500080
   0.62500000  0.87500051  0.25000019
   0.50000080  0.74999827  0.50000000
   0.50000008  0.87499848  0.62499992
   0.62500000  0.74999827  0.62499920
   0.62500000  0.87499480  0.50000000
   0.50000616  0.74999528  0.74999528
   0.49999053  0.87500343  0.87500343
   0.62500000  0.74999981  0.87500051
   0.62500000  0.87500051  0.74999981
   0.74997568  0.00000000  0.00000000
   0.75000947  0.12499657  0.12499657
   0.87496021  0.00000000  0.12501098
   0.87496021  0.12501098  0.00000000
   0.74998443  0.00000000  0.25001427
   0.74999992  0.12500152  0.37500008
   0.87498573  0.00000000  0.37501557
   0.87501719  0.12497929  0.24998281
   0.74999224  0.00000000  0.50000000
   0.74999992  0.12500152  0.62499992
   0.87498573  0.00000000  0.62498443
   0.87499981  0.12499949  0.50000000
   0.74998443  0.00000000  0.74998573
   0.75000947  0.12499657  0.87500343
   0.87496021  0.00000000  0.87498902
   0.87501719  0.12497929  0.75001719
   0.74998443  0.25001427  0.00000000
   0.74999992  0.37500008  0.12500152
   0.87501719  0.24998281  0.12497929
   0.87498573  0.37501557  0.00000000
   0.74999384  0.25000472  0.25000472
   0.74999634  0.37500366  0.37500366
   0.87499528  0.25000472  0.37500616
   0.87499528  0.37500616  0.25000472
   0.74999920  0.25000173  0.50000000
   0.74999634  0.37500366  0.62499634
   0.87499528  0.25000472  0.62499384
   0.87499827  0.37500080  0.50000000
   0.74999384  0.25000472  0.74999528
   0.74999992  0.37500008  0.87499848
   0.87501719  0.24998281  0.87502071
   0.87499528  0.37500616  0.74999528
   0.74999224  0.50000000  0.00000000
   0.74999992  0.62499992  0.12500152
   0.87499981  0.50000000  0.12499949
   0.87498573  0.62498443  0.00000000
   0.74999920  0.50000000  0.25000173
   0.74999634  0.62499634  0.37500366
   0.87499827  0.50000000  0.37500080
   0.87499528  0.62499384  0.25000472
   0.75000395  0.50000000  0.50000000
   0.74999634  0.62499634  0.62499634
   0.87499827  0.50000000  0.62499920
   0.87499827  0.62499920  0.50000000
   0.74999920  0.50000000  0.74999827
   0.74999992  0.62499992  0.87499848
   0.87499981  0.50000000  0.87500051
   0.87499528  0.62499384  0.74999528
   0.74998443  0.74998573  0.00000000
   0.75000947  0.87500343  0.12499657
   0.87501719  0.75001719  0.12497929
   0.87496021  0.87498902  0.00000000
   0.74999384  0.74999528  0.25000472
   0.74999992  0.87499848  0.37500008
   0.87499528  0.74999528  0.37500616
   0.87501719  0.87502071  0.24998281
   0.74999920  0.74999827  0.50000000
   0.74999992  0.87499848  0.62499992
   0.87499528  0.74999528  0.62499384
   0.87499981  0.87500051  0.50000000
   0.74999384  0.74999528  0.74999528
   0.75000947  0.87500343  0.87500343
   0.87501719  0.75001719  0.87502071
   0.87501719  0.87502071  0.75001719
   0.12500000  0.00000000  0.00000000
Direct configuration=     3
  -0.00921339  0.00000000  0.00000000
  -0.00095032  0.12595032  0.12595032
   0.12500000  0.00000000  0.13421339
   0.12500000  0.13421339  0.00000000
  -0.00002925  0.00000000  0.25010602
   0.00000913  0.12499087  0.37497476
   0.12500000  0.00000000  0.37506481
   0.12500000  0.12502925  0.25010602
  -0.00001734  0.00000000  0.50000000
   0.00000913  0.12499087  0.62502524
   0.12500000  0.00000000  0.62493519
   0.12500000  0.12501734  0.50000000
  -0.00002925  0.00000000  0.74989398
  -0.00095032  0.12595032  0.87404968
   0.12500000  0.00000000  0.86578661
   0.12500000  0.12502925  0.74989398
  -0.00002925  0.25010602  0.00000000
   0.00000913  0.37497476  0.12499087
   0.12500000  0.25010602  0.12502925
   0.12500000  0.37506481  0.00000000
   0.00005518  0.24995419  0.24995419
  -0.00000404  0.37500023  0.37500023
   0.12500000  0.25003801  0.37504150
   0.12500000  0.37504150  0.25003801
   0.00000135  0.25000051  0.50000000
  -0.00000404  0.37500023  0.62499977
   0.12500000  0.25003801  0.62495850
   0.12500000  0.37502067  0.50000000
   0.00005518  0.24995419  0.75004581
   0.00000913  0.37497476  0.87500913
   0.12500000  0.25010602  0.87497075
   0.12500000  0.37504150  0.74996199
  -0.00001734  0.50000000  0.00000000
   0.00000913  0.62502524  0.12499087
   0.12500000  0.50000000  0.12501734
   0.12500000  0.62493519  0.00000000
   0.00000135  0.50000000  0.25000051
  -0.00000404  0.62499977  0.37500023
   0.12500000  0.50000000  0.37502067
   0.12500000  0.62495850  0.25003801
  -0.00001385  0.50000000  0.50000000
  -0.00000404  0.62499977  0.62499977
   0.12500000  0.50000000  0.62497933
   0.12500000  0.62497933  0.50000000
   0.00000135  0.50000000  0.74999949
   0.00000913  0.62502524  0.87500913
   0.12500000  0.50000000  0.87498266
   0.12500000  0.62495850  0.74996199
  -0.00002925  0.74989398  0.00000000
  -0.00095032  0.87404968  0.12595032
   0.12500000  0.74989398  0.12502925
   0.12500000  0.86578661  0.00000000
   0.00005518  0.75004581  0.24995419
   0.00000913  0.87500913  0.37497476
   0.12500000  0.74996199  0.37504150
   0.12500000  0.87497075  0.25010602
   0.00000135  0.74999949  0.50000000
   0.00000913  0.87500913  0.62502524
   0.12500000  0.74996199  0.62495850
   0.12500000  0.87498266  0.50000000
   0.00005518  0.75004581  0.75004581
  -0.00095032  0.87404968  0.87404968
   0.12500000  0.74989398  0.87497075
   0.12500000  0.87497075  0.74989398
   0.25921339  0.00000000  0.00000000
   0.25095032  0.12595032  0.12595032
   0.37510602  0.00000000  0.12502925
   0.37510602  0.12502925  0.00000000
   0.25002925  0.00000000  0.25010602
   0.24999087  0.12499087  0.37497476
   0.37503801  0.00000000  0.37504150
   0.37495419  0.12494482  0.24995419
   0.25001734  0.00000000  0.50000000
   0.24999087  0.12499087  0.62502524
   0.37503801  0.00000000  0.62495850
   0.37500051  0.12499865  0.50000000
   0.25002925  0.00000000  0.74989398
   0.25095032  0.12595032  0.87404968
   0.37510602  0.00000000  0.87497075
   0.37495419  0.12494482  0.75004581
   0.25002925  0.25010602  0.00000000
   0.24999087  0.37497476  0.12499087
   0.37495419  0.24995419  0.12494482
   0.37503801  0.37504150  0.00000000
   0.24994482  0.24995419  0.24995419
   0.25000404  0.37500023  0.37500023
   0.37501258  0.25001258  0.37501641
   0.37501258  0.37501641  0.25001258
   0.24999865  0.25000051  0.50000000
   0.25000404  0.37500023  0.62499977
   0.37501258  0.25001258  0.62498359
   0.37500460  0.37500213  0.50000000
   0.24994482  0.24995419  0.75004581
   0.24999087  0.37497476  0.87500913
   0.37495419  0.24995419  0.87505518
   0.37501258  0.37501641  0.74998742
   0.25001734  0.50000000  0.00000000
   0.24999087  0.62502524  0.12499087
   0.37500051  0.50000000  0.12499865
   0.37503801  0.62495850  0.00000000
   0.24999865  0.50000000  0.25000051
   0.25000404  0.62499977  0.37500023
   0.37500460  0.50000000  0.37500213
   0.37501258  0.62498359  0.25001258
   0.25001385  0.50000000  0.50000000
   0.25000404  0.62499977  0.62499977
   0.37500460  0.50000000  0.62499787
   0.37500460  0.62499787  0.50000000
   0.24999865  0.50000000  0.74999949
   0.24999087  0.62502524  0.87500913
   0.37500051  0.50000000  0.87500135
   0.37501258  0.62498359  0.74998742
   0.25002925  0.74989398  0.00000000
   0.25095032  0.87404968  0.12595032
   0.37495419  0.75004581  0.12494482
   0.37510602  0.87497075  0.00000000
   0.24994482  0.75004581  0.24995419
   0.24999087  0.87500913  0.37497476
   0.37501258  0.74998742  0.37501641
   0.37495419  0.87505518  0.24995419
   0.24999865  0.74999949  0.50000000
   0.24999087  0.87500913  0.62502524
   0.37501258  0.74998742  0.62498359
   0.37500051  0.87500135  0.50000000
   0.24994482  0.75004581  0.75004581
   0.25095032  0.87404968  0.87404968
   0.37495419  0.75004581  0.87505518
   0.37495419  0.87505518  0.75004581
   0.50006481  0.00000000  0.00000000
   0.49997476  0.12499087  0.12499087
   0.62500000  0.00000000  0.12501734
   0.62500000  0.12501734  0.00000000
   0.50004150  0.00000000  0.25003801
   0.50000023  0.12500404  0.37500023
   0.62500000  0.00000000  0.37502067
   0.62500000  0.12499865  0.25000051
   0.50002067  0.00000000  0.50000000
   0.50000023  0.12500404  0.62499977
   0.62500000  0.00000000  0.62497933
   0.62500000  0.12501385  0.50000000
   0.50004150  0.00000000  0.74996199
   0.49997476  0.12499087  0.87500913
   0.62500000  0.00000000  0.87498266
   0.62500000  0.12499865  0.74999949
   0.50004150  0.25003801  0.00000000
   0.50000023  0.37500023  0.12500404
   0.62500000  0.25000051  0.12499865
   0.62500000  0.37502067  0.00000000
   0.50001641  0.25001258  0.25001258
   0.50000976  0.37500976  0.37500976
   0.62500000  0.25000460  0.37500213
   0.62500000  0.37500213  0.25000460
   0.50000213  0.25000460  0.50000000
   0.50000976  0.37500976  0.62499024
   0.62500000  0.25000460  0.62499787
   0.62500000  0.37498948  0.50000000
   0.50001641  0.25001258  0.74998742
   0.50000023  0.37500023  0.87499596
   0.62500000  0.25000051  0.87500135
   0.62500000  0.37500213  0.74999540
   0.50002067  0.50000000  0.00000000
   0.50000023  0.62499977  0.12500404
   0.62500000  0.50000000  0.12501385
   0.62500000  0.62497933  0.00000000
   0.50000213  0.50000000  0.25000460
   0.50000976  0.62499024  0.37500976
   0.62500000  0.50000000  0.37498948
   0.62500000  0.62499787  0.25000460
   0.49998948  0.50000000  0.50000000
   0.50000976  0.62499024  0.62499024
   0.62500000  0.50000000  0.62501052
   0.62500000  0.62501052  0.50000000
   0.50000213  0.50000000  0.74999540
   0.50000023  0.62499977  0.87499596
   0.62500000  0.50000000  0.87498615
   0.62500000  0.62499787  0.74999540
   0.50004150  0.74996199  0.00000000
   0.49997476  0.87500913  0.12499087
   0.62500000  0.74999949  0.12499865
   0.62500000  0.87498266  0.00000000
   0.50001641  0.74998742  0.25001258
   0.50000023  0.87499596  0.37500023
   0.62500000  0.74999540  0.37500213
   0.62500000  0.87500135  0.25000051
   0.50000213  0.74999540  0.50000000
   0.50000023  0.87499596  0.62499977
   0.62500000  0.74999540  0.62499787
   0.62500000  0.87498615  0.50000000
   0.50001641  0.74998742  0.74998742
   0.49997476  0.87500913  0.87500913
   0.62500000  0.74999949  0.87500135
   0.62500000  0.87500135  0.74999949
   0.74993519  0.00000000  0.00000000
   0.75002524  0.12499087  0.12499087
   0.87489398  0.00000000  0.12502925
   0.87489398  0.12502925  0.00000000
   0.74995850  0.00000000  0.25003801
   0.74999977  0.12500404  0.37500023
   0.87496199  0.00000000  0.37504150
   0.87504581  0.12494482  0.24995419
   0.74997933  0.00000000  0.50000000
   0.74999977  0.12500404  0.62499977
   0.87496199  0.00000000  0.62495850
   0.87499949  0.12499865  0.50000000
   0.74995850  0.00000000  0.74996199
   0.75002524  0.12499087  0.87500913
   0.87489398  0.00000000  0.87497075
   0.87504581  0.12494482  0.75004581
   0.74995850  0.25003801  0.00000000
   0.74999977  0.37500023  0.12500404
   0.87504581  0.24995419  0.12494482
   0.87496199  0.37504150  0.00000000
   0.74998359  0.25001258  0.25001258
   0.74999024  0.37500976  0.37500976
   0.87498742  0.25001258  0.37501641
   0.87498742  0.37501641  0.25001258
   0.74999787  0.25000460  0.50000000
   0.74999024  0.37500976  0.62499024
   0.87498742  0.25001258  0.62498359
   0.87499540  0.37500213  0.50000000
   0.74998359  0.25001258  0.74998742
   0.74999977  0.37500023  0.87499596
   0.87504581  0.24995419  0.87505518
   0.87498742  0.37501641  0.74998742
   0.74997933  0.50000000  0.00000000
   0.74999977  0.62499977  0.12500404
   0.87499949  0.50000000  0.12499865
   0.87496199  0.62495850  0.00000000
   0.74999787  0.50000000  0.25000460
   0.74999024  0.62499024  0.37500976
   0.87499540  0.50000000  0.37500213
   0.87498742  0.62498359  0.25001258
   0.75001052  0.50000000  0.50000000
   0.74999024  0.62499024  0.62499024
   0.87499540  0.50000000  0.62499787
   0.87499540  0.62499787  0.50000000
   0.74999787  0.50000000  0.74999540
   0.74999977  0.62499977  0.87499596
   0.87499949  0.50000000  0.87500135
   0.87498742  0.62498359  0.74998742
   0.74995850  0.74996199  0.00000000
   0.75002524  0.87500913  0.12499087
   0.87504581  0.75004581  0.12494482
   0.87489398  0.87497075  0.00000000
   0.74998359  0.74998742  0.25001258
   0.74999977  0.87499596  0.37500023
   0.87498742  0.74998742  0.37501641
   0.87504581  0.87505518  0.24995419
   0.74999787  0.74999540  0.50000000
   0.74999977  0.87499596  0.62499977
   0.87498742  0.74998742  0.62498359
   0.87499949  0.87500135  0.50000000
   0.74998359  0.74998742  0.74998742
   0.75002524  0.87500913  0.87500913
   0.87504581  0.75004581  0.87505518
   0.87504581  0.87505518  0.75004581
   0.12500000  0.00000000  0.00000000
Direct configuration=     4
  -0.00835949  0.00000000  0.00000000
  -0.00086225  0.12586225  0.12586225
   0.12500000  0.00000000  0.13335949
   0.12500000  0.13335949  0.00000000
  -0.00002654  0.00000000  0.25009619
   0.00000828  0.12499172  0.37497710
   0.12500000  0.00000000  0.37505880
   0.12500000  0.12502654  0.25009619
  -0.00001573  0.00000000  0.50000000
   0.00000828  0.12499172  0.62502290