NiAl                                    
            1
     0.000000  -17.180573    0.000000
     0.000000   -8.590287  -14.878813
    30.000000    0.000000    0.000000
   Al
   252
Direct configuration=     1
   0.44444444  0.44444444  0.07793266
   0.44444444  0.77777778  0.07793266
   0.44444444  0.11111111  0.07793266
   0.77777778  0.44444444  0.07793266
   0.77777778  0.77777778  0.07793266
   0.77777778  0.11111111  0.07793266
   0.11111111  0.44444444  0.07793266
   0.11111111  0.77777778  0.07793266
   0.11111111  0.11111111  0.07793266
   0.55555556  0.55555556  0.15586533
   0.55555556  0.88888889  0.15586533
   0.55555556  0.22222222  0.15586533
   0.88888889  0.55555556  0.15586533
   0.88888889  0.88888889  0.15586533
   0.88888889  0.22222222  0.15586533
   0.22222222  0.55555556  0.15586533
   0.22222222  0.88888889  0.15586533
   0.22222222  0.22222222  0.15586533
   0.66666667  0.66666667  0.23379799
   0.66666667  0.00000000  0.23379799
   0.66666667  0.33333333  0.23379799
   0.00000000  0.66666667  0.23379799
   0.00000000  0.00000000  0.23379799
   0.00000000  0.33333333  0.23379799
   0.33333333  0.66666667  0.23379799
   0.33333333  0.00000000  0.23379799
   0.33333333  0.33333333  0.23379799
   0.77777778  0.77777778  0.31173066
   0.77777778  0.11111111  0.31173066
   0.77777778  0.44444444  0.31173066
   0.11111111  0.77777778  0.31173066
   0.11111111  0.11111111  0.31173066
   0.11111111  0.44444444  0.31173066
   0.44444444  0.77777778  0.31173066
   0.44444444  0.11111111  0.31173066
   0.44444444  0.44444444  0.31173066
   0.88888889  0.88888889  0.38966332
   0.88888889  0.22222222  0.38966332
   0.88888889  0.55555556  0.38966332
   0.22222222  0.88888889  0.38966332
   0.22222222  0.22222222  0.38966332
   0.22222222  0.55555556  0.38966332
   0.55555556  0.88888889  0.38966332
   0.55555556  0.22222222  0.38966332
   0.55555556  0.55555556  0.38966332
   0.00000000  0.00000000  0.46759598
   0.00000000  0.33333333  0.46759598
   0.00000000  0.66666667  0.46759598
   0.33333333  0.00000000  0.46759598
   0.33333333  0.33333333  0.46759598
   0.33333333  0.66666667  0.46759598
   0.66666667  0.00000000  0.46759598
   0.66666667  0.33333333  0.46759598
   0.66666667  0.66666667  0.46759598
   0.11111111  0.11111111  0.54552865
   0.11111111  0.44444444  0.54552865
   0.11111111  0.77777778  0.54552865
   0.44444444  0.11111111  0.54552865
   0.44444444  0.44444444  0.54552865
   0.44444444  0.77777778  0.54552865
   0.77777778  0.11111111  0.54552865
   0.77777778  0.44444444  0.54552865
   0.77777778  0.77777778  0.54552865
   0.27777778  0.27777778  0.07793266
   0.27777778  0.61111111  0.07793266
   0.27777778  0.94444444  0.07793266
   0.61111111  0.27777778  0.07793266
   0.61111111  0.61111111  0.07793266
   0.61111111  0.94444444  0.07793266
   0.94444444  0.27777778  0.07793266
   0.94444444  0.61111111  0.07793266
   0.94444444  0.94444444  0.07793266
   0.38888889  0.38888889  0.15586533
   0.38888889  0.72222222  0.15586533
   0.38888889  0.05555556  0.15586533
   0.72222222  0.38888889  0.15586533
   0.72222222  0.72222222  0.15586533
   0.72222222  0.05555556  0.15586533
   0.05555556  0.38888889  0.15586533
   0.05555556  0.72222222  0.15586533
   0.05555556  0.05555556  0.15586533
   0.50000000  0.50000000  0.23379799
   0.50000000  0.83333333  0.23379799
   0.50000000  0.16666667  0.23379799
   0.83333333  0.50000000  0.23379799
   0.83333333  0.83333333  0.23379799
   0.83333333  0.16666667  0.23379799
   0.16666667  0.50000000  0.23379799
   0.16666667  0.83333333  0.23379799
   0.16666667  0.16666667  0.23379799
   0.61111111  0.61111111  0.31173066
   0.61111111  0.94444444  0.31173066
   0.61111111  0.27777778  0.31173066
   0.94444444  0.61111111  0.31173066
   0.94444444  0.94444444  0.31173066
   0.94444444  0.27777778  0.31173066
   0.27777778  0.61111111  0.31173066
   0.27777778  0.94444444  0.31173066
   0.27777778  0.27777778  0.31173066
   0.72222222  0.72222222  0.38966332
   0.72222222  0.05555556  0.38966332
   0.72222222  0.38888889  0.38966332
   0.05555556  0.72222222  0.38966332
   0.05555556  0.05555556  0.38966332
   0.05555556  0.38888889  0.38966332
   0.38888889  0.72222222  0.38966332
   0.38888889  0.05555556  0.38966332
   0.38888889  0.38888889  0.38966332
   0.83333333  0.83333333  0.46759598
   0.83333333  0.16666667  0.46759598
   0.83333333  0.50000000  0.46759598
   0.16666667  0.83333333  0.46759598
   0.16666667  0.16666667  0.46759598
   0.16666667  0.50000000  0.46759598
   0.50000000  0.83333333  0.46759598
   0.50000000  0.16666667  0.46759598
   0.50000000  0.50000000  0.46759598
   0.94444444  0.94444444  0.54552865
   0.94444444  0.27777778  0.54552865
   0.94444444  0.61111111  0.54552865
   0.27777778  0.94444444  0.54552865
   0.27777778  0.27777778  0.54552865
   0.27777778  0.61111111  0.54552865
   0.61111111  0.94444444  0.54552865
   0.61111111  0.27777778  0.54552865
   0.61111111  0.61111111  0.54552865
   0.27777778  0.44444444  0.07793266
   0.27777778  0.77777778  0.07793266
   0.27777778  0.11111111  0.07793266
   0.61111111  0.44444444  0.07793266
   0.61111111  0.77777778  0.07793266
   0.61111111  0.11111111  0.07793266
   0.94444444  0.44444444  0.07793266
   0.94444444  0.77777778  0.07793266
   0.94444444  0.11111111  0.07793266
   0.38888889  0.55555556  0.15586533
   0.38888889  0.88888889  0.15586533
   0.38888889  0.22222222  0.15586533
   0.72222222  0.55555556  0.15586533
   0.72222222  0.88888889  0.15586533
   0.72222222  0.22222222  0.15586533
   0.05555556  0.55555556  0.15586533
   0.05555556  0.88888889  0.15586533
   0.05555556  0.22222222  0.15586533
   0.50000000  0.66666667  0.23379799
   0.50000000  0.00000000  0.23379799
   0.50000000  0.33333333  0.23379799
   0.83333333  0.66666667  0.23379799
   0.83333333  0.00000000  0.23379799
   0.83333333  0.33333333  0.23379799
   0.16666667  0.66666667  0.23379799
   0.16666667  0.00000000  0.23379799
   0.16666667  0.33333333  0.23379799
   0.61111111  0.77777778  0.31173066
   0.61111111  0.11111111  0.31173066
   0.61111111  0.44444444  0.31173066
   0.94444444  0.77777778  0.31173066
   0.94444444  0.11111111  0.31173066
   0.94444444  0.44444444  0.31173066
   0.27777778  0.77777778  0.31173066
   0.27777778  0.11111111  0.31173066
   0.27777778  0.44444444  0.31173066
   0.72222222  0.88888889  0.38966332
   0.72222222  0.22222222  0.38966332
   0.72222222  0.55555556  0.38966332
   0.05555556  0.88888889  0.38966332
   0.05555556  0.22222222  0.38966332
   0.05555556  0.55555556  0.38966332
   0.38888889  0.88888889  0.38966332
   0.38888889  0.22222222  0.38966332
   0.38888889  0.55555556  0.38966332
   0.83333333  0.00000000  0.46759598
   0.83333333  0.33333333  0.46759598
   0.83333333  0.66666667  0.46759598
   0.16666667  0.00000000  0.46759598
   0.16666667  0.33333333  0.46759598
   0.16666667  0.66666667  0.46759598
   0.50000000  0.00000000  0.46759598
   0.50000000  0.33333333  0.46759598
   0.50000000  0.66666667  0.46759598
   0.94444444  0.11111111  0.54552865
   0.94444444  0.44444444  0.54552865
   0.94444444  0.77777778  0.54552865
   0.27777778  0.11111111  0.54552865
   0.27777778  0.44444444  0.54552865
   0.27777778  0.77777778  0.54552865
   0.61111111  0.11111111  0.54552865
   0.61111111  0.44444444  0.54552865
   0.61111111  0.77777778  0.54552865
   0.44444444  0.27777778  0.07793266
   0.44444444  0.61111111  0.07793266
   0.44444444  0.94444444  0.07793266
   0.77777778  0.27777778  0.07793266
   0.77777778  0.61111111  0.07793266
   0.77777778  0.94444444  0.07793266
   0.11111111  0.27777778  0.07793266
   0.11111111  0.61111111  0.07793266
   0.11111111  0.94444444  0.07793266
   0.55555556  0.38888889  0.15586533
   0.55555556  0.72222222  0.15586533
   0.55555556  0.05555556  0.15586533
   0.88888889  0.38888889  0.15586533
   0.88888889  0.72222222  0.15586533
   0.88888889  0.05555556  0.15586533
   0.22222222  0.38888889  0.15586533
   0.22222222  0.72222222  0.15586533
   0.22222222  0.05555556  0.15586533
   0.66666667  0.50000000  0.23379799
   0.66666667  0.83333333  0.23379799
   0.66666667  0.16666667  0.23379799
   0.00000000  0.50000000  0.23379799
   0.00000000  0.83333333  0.23379799
   0.00000000  0.16666667  0.23379799
   0.33333333  0.50000000  0.23379799
   0.33333333  0.83333333  0.23379799
   0.33333333  0.16666667  0.23379799
   0.77777778  0.61111111  0.31173066
   0.77777778  0.94444444  0.31173066
   0.77777778  0.27777778  0.31173066
   0.11111111  0.61111111  0.31173066
   0.11111111  0.94444444  0.31173066
   0.11111111  0.27777778  0.31173066
   0.44444444  0.61111111  0.31173066
   0.44444444  0.94444444  0.31173066
   0.44444444  0.27777778  0.31173066
   0.88888889  0.72222222  0.38966332
   0.88888889  0.05555556  0.38966332
   0.88888889  0.38888889  0.38966332
   0.22222222  0.72222222  0.38966332
   0.22222222  0.05555556  0.38966332
   0.22222222  0.38888889  0.38966332
   0.55555556  0.72222222  0.38966332
   0.55555556  0.05555556  0.38966332
   0.55555556  0.38888889  0.38966332
   0.00000000  0.83333333  0.46759598
   0.00000000  0.16666667  0.46759598
   0.00000000  0.50000000  0.46759598
   0.33333333  0.83333333  0.46759598
   0.33333333  0.16666667  0.46759598
   0.33333333  0.50000000  0.46759598
   0.66666667  0.83333333  0.46759598
   0.66666667  0.16666667  0.46759598
   0.66666667  0.50000000  0.46759598
   0.11111111  0.94444444  0.54552865
   0.11111111  0.27777778  0.54552865
   0.11111111  0.61111111  0.54552865
   0.44444444  0.94444444  0.54552865
   0.44444444  0.27777778  0.54552865
   0.44444444  0.61111111  0.54552865
   0.77777778  0.94444444  0.54552865
   0.77777778  0.27777778  0.54552865
   0.77777778  0.61111111  0.54552865
Direct configuration=     2
   0.44444444  0.44444444  0.07797834
   0.44444444  0.77777778  0.07797834
   0.44444444  0.11111111  0.07797834
   0.77777778  0.44444444  0.07797834
   0.77777778  0.77777778  0.07797834
   0.77777778  0.11111111  0.07797834
   0.11111111  0.44444444  0.07797834
   0.11111111  0.77777778  0.07797834
   0.11111111  0.11111111  0.07797834
   0.55555556  0.55555556  0.15598298
   0.55555556  0.88888889  0.15598298
   0.55555556  0.22222222  0.15598298
   0.88888889  0.55555556  0.15598298
   0.88888889  0.88888889  0.15598298
   0.88888889  0.22222222  0.15598298
   0.22222222  0.55555556  0.15598298
   0.22222222  0.88888889  0.15598298
   0.22222222  0.22222222  0.15598298
   0.66666667  0.66666667  0.23373493
   0.66666667 -0.00000000  0.23373493
   0.66666667  0.33333333  0.23373493
   0.00000000  0.66666667  0.23373493
   0.00000000 -0.00000000  0.23373493
  -0.00000000  0.33333333  0.23373493
   0.33333333  0.66666667  0.23373493
   0.33333333 -0.00000000  0.23373493
   0.33333333  0.33333333  0.23373493
   0.77777778  0.77777778  0.31173066
   0.77777778  0.11111111  0.31173066
   0.77777778  0.44444444  0.31173066
   0.11111111  0.77777778  0.31173066
   0.11111111  0.11111111  0.31173066
   0.11111111  0.44444444  0.31173066
   0.44444444  0.77777778  0.31173066
   0.44444444  0.11111111  0.31173066
   0.44444444  0.44444444  0.31173066
   0.88888889  0.88888889  0.38972638
   0.88888889  0.22222222  0.38972638
   0.88888889  0.55555556  0.38972638
   0.22222222  0.88888889  0.38972638
   0.22222222  0.22222222  0.38972638
   0.22222222  0.55555556  0.38972638
   0.55555556  0.88888889  0.38972638
   0.55555556  0.22222222  0.38972638
   0.55555556  0.55555556  0.38972638
  -0.00000000 -0.00000000  0.46747833
   0.00000000  0.33333333  0.46747833
  -0.00000000  0.66666667  0.46747833
   0.33333333 -0.00000000  0.46747833
   0.33333333  0.33333333  0.46747833
   0.33333333  0.66666667  0.46747833
   0.66666667 -0.00000000  0.46747833
   0.66666667  0.33333333  0.46747833
   0.66666667  0.66666667  0.46747833
   0.11111111  0.11111111  0.54548297
   0.11111111  0.44444444  0.54548297
   0.11111111  0.77777778  0.54548297
   0.44444444  0.11111111  0.54548297
   0.44444444  0.44444444  0.54548297
   0.44444444  0.77777778  0.54548297
   0.77777778  0.11111111  0.54548297
   0.77777778  0.44444444  0.54548297
   0.77777778  0.77777778  0.54548297
   0.27777778  0.27777778  0.07797834
   0.27777778  0.61111111  0.07797834
   0.27777778  0.94444444  0.07797834
   0.61111111  0.27777778  0.07797834
   0.61111111  0.61111111  0.07797834
   0.61111111  0.94444444  0.07797834
   0.94444444  0.27777778  0.07797834
   0.94444444  0.61111111  0.07797834
   0.94444444  0.94444444  0.07797834
   0.38888889  0.38888889  0.15598298
   0.38888889  0.72222222  0.15598298
   0.38888889  0.05555556  0.15598298
   0.72222222  0.38888889  0.15598298
   0.72222222  0.72222222  0.15598298
   0.72222222  0.05555556  0.15598298
   0.05555556  0.38888889  0.15598298
   0.05555556  0.72222222  0.15598298
   0.05555556  0.05555556  0.15598298
   0.50000000  0.50000000  0.23373493
   0.50000000  0.83333333  0.23373493
   0.50000000  0.16666667  0.23373493
   0.83333333  0.50000000  0.23373493
   0.83333333  0.83333333  0.23373493
   0.83333333  0.16666667  0.23373493
   0.16666667  0.50000000  0.23373493
   0.16666667  0.83333333  0.23373493
   0.16666667  0.16666667  0.23373493
   0.61111111  0.61111111  0.31173066
   0.61111111  0.94444444  0.31173066
   0.61111111  0.27777778  0.31173066
   0.94444444  0.61111111  0.31173066
   0.94444444  0.94444444  0.31173066
   0.94444444  0.27777778  0.31173066
   0.27777778  0.61111111  0.31173066
   0.27777778  0.94444444  0.31173066
   0.27777778  0.27777778  0.31173066
   0.72222222  0.72222222  0.38972638
   0.72222222  0.05555556  0.38972638
   0.72222222  0.38888889  0.38972638
   0.05555556  0.72222222  0.38972638
   0.05555556  0.05555556  0.38972638
   0.05555556  0.38888889  0.38972638
   0.38888889  0.72222222  0.38972638
   0.38888889  0.05555556  0.38972638
   0.38888889  0.38888889  0.38972638
   0.83333333  0.83333333  0.46747833
   0.83333333  0.16666667  0.46747833
   0.83333333  0.50000000  0.46747833
   0.16666667  0.83333333  0.46747833
   0.16666667  0.16666667  0.46747833
   0.16666667  0.50000000  0.46747833
   0.50000000  0.83333333  0.46747833
   0.50000000  0.16666667  0.46747833
   0.50000000  0.50000000  0.46747833
   0.94444444  0.94444444  0.54548297
   0.94444444  0.27777778  0.54548297
   0.94444444  0.61111111  0.54548297
   0.27777778  0.94444444  0.54548297
   0.27777778  0.27777778  0.54548297
   0.27777778  0.61111111  0.54548297
   0.61111111  0.94444444  0.54548297
   0.61111111  0.27777778  0.54548297
   0.61111111  0.61111111  0.54548297
   0.27777778  0.44444444  0.07797834
   0.27777778  0.77777778  0.07797834
   0.27777778  0.11111111  0.07797834
   0.61111111  0.44444444  0.07797834
   0.61111111  0.77777778  0.07797834
   0.61111111  0.11111111  0.07797834
   0.94444444  0.44444444  0.07797834
   0.94444444  0.77777778  0.07797834
   0.94444444  0.11111111  0.07797834
   0.38888889  0.55555556  0.15598298
   0.38888889  0.88888889  0.15598298
   0.38888889  0.22222222  0.15598298
   0.72222222  0.55555556  0.15598298
   0.72222222  0.88888889  0.15598298
   0.72222222  0.22222222  0.15598298
   0.05555556  0.55555556  0.15598298
   0.05555556  0.88888889  0.15598298
   0.05555556  0.22222222  0.15598298
   0.50000000  0.66666667  0.23373493
   0.50000000 -0.00000000  0.23373493
   0.50000000  0.33333333  0.23373493
   0.83333333  0.66666667  0.23373493
   0.83333333 -0.00000000  0.23373493
   0.83333333  0.33333333  0.23373493
   0.16666667  0.66666667  0.23373493
   0.16666667 -0.00000000  0.23373493
   0.16666667  0.33333333  0.23373493
   0.61111111  0.77777778  0.31173066
   0.61111111  0.11111111  0.31173066
   0.61111111  0.44444444  0.31173066
   0.94444444  0.77777778  0.31173066
   0.94444444  0.11111111  0.31173066
   0.94444444  0.44444444  0.31173066
   0.27777778  0.77777778  0.31173066
   0.27777778  0.11111111  0.31173066
   0.27777778  0.44444444  0.31173066
   0.72222222  0.88888889  0.38972638
   0.72222222  0.22222222  0.38972638
   0.72222222  0.55555556  0.38972638
   0.05555556  0.88888889  0.38972638
   0.05555556  0.22222222  0.38972638
   0.05555556  0.55555556  0.38972638
   0.38888889  0.88888889  0.38972638
   0.38888889  0.22222222  0.38972638
   0.38888889  0.55555556  0.38972638
   0.83333333 -0.00000000  0.46747833
   0.83333333  0.33333333  0.46747833
   0.83333333  0.66666667  0.46747833
   0.16666667 -0.00000000  0.46747833
   0.16666667  0.33333333  0.46747833
   0.16666667  0.66666667  0.46747833
   0.50000000 -0.00000000  0.46747833
   0.50000000  0.33333333  0.46747833
   0.50000000  0.66666667  0.46747833
   0.94444444  0.11111111  0.54548297
   0.94444444  0.44444444  0.54548297
   0.94444444  0.77777778  0.54548297
   0.27777778  0.11111111  0.54548297
   0.27777778  0.44444444  0.54548297
   0.27777778  0.77777778  0.54548297
   0.61111111  0.11111111  0.54548297
   0.61111111  0.44444444  0.54548297
   0.61111111  0.77777778  0.54548297
   0.44444444  0.27777778  0.07797834
   0.44444444  0.61111111  0.07797834
   0.44444444  0.94444444  0.07797834
   0.77777778  0.27777778  0.07797834
   0.77777778  0.61111111  0.07797834
   0.77777778  0.94444444  0.07797834
   0.11111111  0.27777778  0.07797834
   0.11111111  0.61111111  0.07797834
   0.11111111  0.94444444  0.07797834
   0.55555556  0.38888889  0.15598298
   0.55555556  0.72222222  0.15598298
   0.55555556  0.05555556  0.15598298
   0.88888889  0.38888889  0.15598298
   0.88888889  0.72222222  0.15598298
   0.88888889  0.05555556  0.15598298
   0.22222222  0.38888889  0.15598298
   0.22222222  0.72222222  0.15598298
   0.22222222  0.05555556  0.15598298
   0.66666667  0.50000000  0.23373493
   0.66666667  0.83333333  0.23373493
   0.66666667  0.16666667  0.23373493
  -0.00000000  0.50000000  0.23373493
   0.00000000  0.83333333  0.23373493
   0.00000000  0.16666667  0.23373493
   0.33333333  0.50000000  0.23373493
   0.33333333  0.83333333  0.23373493
   0.33333333  0.16666667  0.23373493
   0.77777778  0.61111111  0.31173066
   0.77777778  0.94444444  0.31173066
   0.77777778  0.27777778  0.31173066
   0.11111111  0.61111111  0.31173066
   0.11111111  0.94444444  0.31173066
   0.11111111  0.27777778  0.31173066
   0.44444444  0.61111111  0.31173066
   0.44444444  0.94444444  0.31173066
   0.44444444  0.27777778  0.31173066
   0.88888889  0.72222222  0.38972638
   0.88888889  0.05555556  0.38972638
   0.88888889  0.38888889  0.38972638
   0.22222222  0.72222222  0.38972638
   0.22222222  0.05555556  0.38972638
   0.22222222  0.38888889  0.38972638
   0.55555556  0.72222222  0.38972638
   0.55555556  0.05555556  0.38972638
   0.55555556  0.38888889  0.38972638
  -0.00000000  0.83333333  0.46747833
   0.00000000  0.16666667  0.46747833
   0.00000000  0.50000000  0.46747833
   0.33333333  0.83333333  0.46747833
   0.33333333  0.16666667  0.46747833
   0.33333333  0.50000000  0.46747833
   0.66666667  0.83333333  0.46747833
   0.66666667  0.16666667  0.46747833
   0.66666667  0.50000000  0.46747833
   0.11111111  0.94444444  0.54548297
   0.11111111  0.27777778  0.54548297
   0.11111111  0.61111111  0.54548297
   0.44444444  0.94444444  0.54548297
   0.44444444  0.27777778  0.54548297
   0.44444444  0.61111111  0.54548297
   0.77777778  0.94444444  0.54548297
   0.77777778  0.27777778  0.54548297
   0.77777778  0.61111111  0.54548297
Direct configuration=     3
   0.44444444  0.44444444  0.07811536
   0.44444444  0.77777778  0.07811536
   0.44444444  0.11111111  0.07811536
   0.77777778  0.44444444  0.07811536
   0.77777778  0.77777778  0.07811536
   0.77777778  0.11111111  0.07811536
   0.11111111  0.44444444  0.07811536
   0.11111111  0.77777778  0.07811536
   0.11111111  0.11111111  0.07811536
   0.55555556  0.55555556  0.15633595
   0.55555556  0.88888889  0.15633595
   0.55555556  0.22222222  0.15633595
   0.88888889  0.55555556  0.15633595
   0.88888889  0.88888889  0.15633595
   0.88888889  0.22222222  0.15633595
   0.22222222  0.55555556  0.15633595
   0.22222222  0.88888889  0.15633595
   0.22222222  0.22222222  0.15633595
   0.66666667  0.66666667  0.23354575
   0.66666667 -0.00000000  0.23354575
   0.66666667  0.33333333  0.23354575
   0.00000000  0.66666667  0.23354575
   0.00000000 -0.00000000  0.23354575
  -0.00000000  0.33333333  0.23354575
   0.33333333  0.66666667  0.23354575
   0.33333333 -0.00000000  0.23354575
   0.33333333  0.33333333  0.23354575
   0.77777778  0.77777778  0.31173066
   0.77777778  0.11111111  0.31173066
   0.77777778  0.44444444  0.31173066
   0.11111111  0.77777778  0.31173066
   0.11111111  0.11111111  0.31173066
   0.11111111  0.44444444  0.31173066
   0.44444444  0.77777778  0.31173066
   0.44444444  0.11111111  0.31173066
   0.44444444  0.44444444  0.31173066
   0.88888889  0.88888889  0.38991556
   0.88888889  0.22222222  0.38991556
   0.88888889  0.55555556  0.38991556
   0.22222222  0.88888889  0.38991556
   0.22222222  0.22222222  0.38991556
   0.22222222  0.55555556  0.38991556
   0.55555556  0.88888889  0.38991556
   0.55555556  0.22222222  0.38991556
   0.55555556  0.55555556  0.38991556
  -0.00000000 -0.00000000  0.46712536
   0.00000000  0.33333333  0.46712536
  -0.00000000  0.66666667  0.46712536
   0.33333333 -0.00000000  0.46712536
   0.33333333  0.33333333  0.46712536
   0.33333333  0.66666667  0.46712536
   0.66666667 -0.00000000  0.46712536
   0.66666667  0.33333333  0.46712536
   0.66666667  0.66666667  0.46712536
   0.11111111  0.11111111  0.54534595
   0.11111111  0.44444444  0.54534595
   0.11111111  0.77777778  0.54534595
   0.44444444  0.11111111  0.54534595
   0.44444444  0.44444444  0.54534595
   0.44444444  0.77777778  0.54534595
   0.77777778  0.11111111  0.54534595
   0.77777778  0.44444444  0.54534595
   0.77777778  0.77777778  0.54534595
   0.27777778  0.27777778  0.07811536
   0.27777778  0.61111111  0.07811536
   0.27777778  0.94444444  0.07811536
   0.61111111  0.27777778  0.07811536
   0.61111111  0.61111111  0.07811536
   0.61111111  0.94444444  0.07811536
   0.94444444  0.27777778  0.07811536
   0.94444444  0.61111111  0.07811536
   0.94444444  0.94444444  0.07811536
   0.38888889  0.38888889  0.15633595
   0.38888889  0.72222222  0.15633595
   0.38888889  0.05555556  0.15633595
   0.72222222  0.38888889  0.15633595
   0.72222222  0.72222222  0.15633595
   0.72222222  0.05555556  0.15633595
   0.05555556  0.38888889  0.15633595
   0.05555556  0.72222222  0.15633595
   0.05555556  0.05555556  0.15633595
   0.50000000  0.50000000  0.23354575
   0.50000000  0.83333333  0.23354575
   0.50000000  0.16666667  0.23354575
   0.83333333  0.50000000  0.23354575
   0.83333333  0.83333333  0.23354575
   0.83333333  0.16666667  0.23354575
   0.16666667  0.50000000  0.23354575
   0.16666667  0.83333333  0.23354575
   0.16666667  0.16666667  0.23354575
   0.61111111  0.61111111  0.31173066
   0.61111111  0.94444444  0.31173066
   0.61111111  0.27777778  0.31173066
   0.94444444  0.61111111  0.31173066
   0.94444444  0.94444444  0.31173066
   0.94444444  0.27777778  0.31173066
   0.27777778  0.61111111  0.31173066
   0.27777778  0.94444444  0.31173066
   0.27777778  0.27777778  0.31173066
   0.72222222  0.72222222  0.38991556
   0.72222222  0.05555556  0.38991556
   0.72222222  0.38888889  0.38991556
   0.05555556  0.72222222  0.38991556
   0.05555556  0.05555556  0.38991556
   0.05555556  0.38888889  0.38991556
   0.38888889  0.72222222  0.38991556
   0.38888889  0.05555556  0.38991556
   0.38888889  0.38888889  0.38991556
   0.83333333  0.83333333  0.46712536
   0.83333333  0.16666667  0.46712536
   0.83333333  0.50000000  0.46712536
   0.16666667  0.83333333  0.46712536
   0.16666667  0.16666667  0.46712536
   0.16666667  0.50000000  0.46712536
   0.50000000  0.83333333  0.46712536
   0.50000000  0.16666667  0.46712536
   0.50000000  0.50000000  0.46712536
   0.94444444  0.94444444  0.54534595
   0.94444444  0.27777778  0.54534595
   0.94444444  0.61111111  0.54534595
   0.27777778  0.94444444  0.54534595
   0.27777778  0.27777778  0.54534595
   0.27777778  0.61111111  0.54534595
   0.61111111  0.94444444  0.54534595
   0.61111111  0.27777778  0.54534595
   0.61111111  0.61111111  0.54534595
   0.27777778  0.44444444  0.07811536
   0.27777778  0.77777778  0.07811536
   0.27777778  0.11111111  0.07811536
   0.61111111  0.44444444  0.07811536
   0.61111111  0.77777778  0.07811536
   0.61111111  0.11111111  0.07811536
   0.94444444  0.44444444  0.07811536
   0.94444444  0.77777778  0.07811536
   0.94444444  0.11111111  0.07811536
   0.38888889  0.55555556  0.15633595
   0.38888889  0.88888889  0.15633595
   0.38888889  0.22222222  0.15633595
   0.72222222  0.55555556  0.15633595
   0.72222222  0.88888889  0.15633595
   0.72222222  0.22222222  0.15633595
   0.05555556  0.55555556  0.15633595
   0.05555556  0.88888889  0.15633595
   0.05555556  0.22222222  0.15633595
   0.50000000  0.66666667  0.23354575
   0.50000000 -0.00000000  0.23354575
   0.50000000  0.33333333  0.23354575
   0.83333333  0.66666667  0.23354575
   0.83333333 -0.00000000  0.23354575
   0.83333333  0.33333333  0.23354575
   0.16666667  0.66666667  0.23354575
   0.16666667 -0.00000000  0.23354575
   0.16666667  0.33333333  0.23354575
   0.61111111  0.77777778  0.31173066
   0.61111111  0.11111111  0.31173066
   0.61111111  0.44444444  0.31173066
   0.94444444  0.77777778  0.31173066
   0.94444444  0.11111111  0.31173066
   0.94444444  0.44444444  0.31173066
   0.27777778  0.77777778  0.31173066
   0.27777778  0.11111111  0.31173066
   0.27777778  0.44444444  0.31173066
   0.72222222  0.88888889  0.38991556
   0.72222222  0.22222222  0.38991556
   0.72222222  0.55555556  0.38991556
   0.05555556  0.88888889  0.38991556
   0.05555556  0.22222222  0.38991556
   0.05555556  0.55555556  0.38991556
   0.38888889  0.88888889  0.38991556
   0.38888889  0.22222222  0.38991556
   0.38888889  0.55555556  0.38991556
   0.83333333 -0.00000000  0.46712536
   0.83333333  0.33333333  0.46712536
   0.83333333  0.66666667  0.46712536
   0.16666667 -0.00000000  0.46712536
   0.16666667  0.33333333  0.46712536
   0.16666667  0.66666667  0.46712536
   0.50000000 -0.00000000  0.46712536
   0.50000000  0.33333333  0.46712536
   0.50000000  0.66666667  0.46712536
   0.94444444  0.11111111  0.54534595
   0.94444444  0.44444444  0.54534595
   0.94444444  0.77777778  0.54534595
   0.27777778  0.11111111  0.54534595
   0.27777778  0.44444444  0.54534595
   0.27777778  0.77777778  0.54534595
   0.61111111  0.11111111  0.54534595
   0.61111111  0.44444444  0.54534595
   0.61111111  0.77777778  0.54534595
   0.44444444  0.27777778  0.07811536
   0.44444444  0.61111111  0.07811536
   0.44444444  0.94444444  0.07811536
   0.77777778  0.27777778  0.07811536
   0.77777778  0.61111111  0.07811536
   0.77777778  0.94444444  0.07811536
   0.11111111  0.27777778  0.07811536
   0.11111111  0.61111111  0.07811536
   0.11111111  0.94444444  0.07811536
   0.55555556  0.38888889  0.15633595
   0.55555556  0.72222222  0.15633595
   0.55555556  0.05555556  0.15633595
   0.88888889  0.38888889  0.15633595
   0.88888889  0.72222222  0.15633595
   0.88888889  0.05555556  0.15633595
   0.22222222  0.38888889  0.15633595
   0.22222222  0.72222222  0.15633595
   0.22222222  0.05555556  0.15633595
   0.66666667  0.50000000  0.23354575
   0.66666667  0.83333333  0.23354575
   0.66666667  0.16666667  0.23354575
  -0.00000000  0.50000000  0.23354575
   0.00000000  0.83333333  0.23354575
   0.00000000  0.16666667  0.23354575
   0.33333333  0.50000000  0.23354575
   0.33333333  0.83333333  0.23354575
   0.33333333  0.16666667  0.23354575
   0.77777778  0.61111111  0.31173066
   0.77777778  0.94444444  0.31173066
   0.77777778  0.27777778  0.31173066
   0.11111111  0.61111111  0.31173066
   0.11111111  0.94444444  0.31173066
   0.11111111  0.27777778  0.31173066
   0.44444444  0.61111111  0.31173066
   0.44444444  0.94444444  0.31173066
   0.44444444  0.27777778  0.31173066
   0.88888889  0.72222222  0.38991556
   0.88888889  0.05555556  0.38991556
   0.88888889  0.38888889  0.38991556
   0.22222222  0.72222222  0.38991556
   0.22222222  0.05555556  0.38991556
   0.22222222  0.38888889  0.38991556
   0.55555556  0.72222222  0.38991556
   0.55555556  0.05555556  0.38991556
   0.55555556  0.38888889  0.38991556
  -0.00000000  0.83333333  0.46712536
   0.00000000  0.16666667  0.46712536
   0.00000000  0.50000000  0.46712536
   0.33333333  0.83333333  0.46712536
   0.33333333  0.16666667  0.46712536
   0.33333333  0.50000000  0.46712536
   0.66666667  0.83333333  0.46712536
   0.66666667  0.16666667  0.46712536
   0.66666667  0.50000000  0.46712536
   0.11111111  0.94444444  0.54534595
   0.11111111  0.27777778  0.54534595
   0.11111111  0.61111111  0.54534595
   0.44444444  0.94444444  0.54534595
   0.44444444  0.27777778  0.54534595
   0.44444444  0.61111111  0.54534595
   0.77777778  0.94444444  0.54534595
   0.77777778  0.27777778  0.54534595
   0.77777778  0.61111111  0.54534595
Direct configuration=     4
   0.44444444  0.44444444  0.07838940
   0.44444444  0.77777778  0.07838940
   0.44444444  0.11111111  0.07838940
   0.77777778  0.44444444  0.07838940
   0.77777778  0.77777778  0.07838940
   0.77777778  0.11111111  0.07838940
   0.11111111  0.44444444  0.07838940
   0.11111111  0.77777778  0.07838940
   0.11111111  0.11111111  0.07838940
   0.55555556  0.55555556  0.15704188
   0.55555556  0.88888889  0.15704188
   0.55555556  0.22222222  0.15704188
   0.88888889  0.55555556  0.15704188
   0.88888889  0.88888889  0.15704188
   0.88888889  0.22222222  0.15704188
   0.22222222  0.55555556  0.15704188
   0.22222222  0.88888889  0.15704188
   0.22222222  0.22222222  0.15704188
   0.66666667  0.66666667  0.23316738
   0.66666667 -0.00000000  0.23316738
   0.66666667  0.33333333  0.23316738
   0.00000000  0.66666667  0.23316738
   0.00000000 -0.00000000  0.23316738
  -0.00000000  0.33333333  0.23316738
   0.33333333  0.66666667  0.23316738