  508  508   20    1
  0.1564356E+02  0.1514622E-08  0.1514622E-08  0.4000000E-08  0.2000000E-15
   1.0000000000000000E-004
  CAR 
 NiAl                                    
   4056      2   2433
 
  0.1262379E-14  0.1262379E-14  0.1262379E-14  0.2500000E+00
    1      -31.389223   1.000000
    2      -31.117562   1.000000
    3      -30.858054   1.000000
    4      -30.858054   1.000000
    5      -30.858048   1.000000
    6      -30.764270   1.000000
    7      -30.764270   1.000000
    8      -30.764268   1.000000
    9      -30.597318   1.000000
   10      -30.597318   1.000000
   11      -30.597317   1.000000
   12      -30.489026   1.000000
   13      -30.489026   1.000000
   14      -30.489020   1.000000
   15      -29.705162   1.000000
   16      -29.705160   1.000000
   17      -29.705160   1.000000
   18      -29.692312   1.000000
   19      -29.692308   1.000000
   20      -29.692308   1.000000
   21      -29.565026   1.000000
   22      -29.565019   1.000000
   23      -29.565019   1.000000
   24      -29.378798   1.000000
   25      -29.298664   1.000000
   26      -29.298664   1.000000
   27      -29.298660   1.000000
   28      -29.261977   1.000000
   29      -29.261974   1.000000
   30      -29.253350   1.000000
   31      -29.087809   1.000000
   32      -29.087801   1.000000
   33      -29.057933   1.000000
   34      -28.919545   1.000000
   35      -28.919541   1.000000
   36      -28.919488   1.000000
   37      -28.600497   1.000000
   38      -28.600493   1.000000
   39      -27.777051   1.000000
   40      -27.777046   1.000000
   41      -27.777046   1.000000
   42      -27.775488   1.000000
   43      -27.775483   1.000000
   44      -27.775483   1.000000
   45      -27.687813   1.000000
   46      -27.687804   1.000000
   47      -27.687804   1.000000
   48      -27.675933   1.000000
   49      -27.675930   1.000000
   50      -27.675930   1.000000
   51      -27.637300   1.000000
   52      -27.637294   1.000000
   53      -27.637294   1.000000
   54      -27.621114   1.000000
   55      -27.621114   1.000000
   56      -27.621111   1.000000
   57      -27.508259   1.000000
   58      -27.508247   1.000000
   59      -27.508247   1.000000
   60      -26.992479   1.000000
   61      -26.992479   1.000000
   62      -26.992469   1.000000
   63      -26.868447   1.000000
   64      -26.868443   1.000000
   65      -26.868443   1.000000
   66      -26.851981   1.000000
   67      -26.851981   1.000000
   68      -26.851975   1.000000
   69      -26.690531   1.000000
   70      -26.690515   1.000000
   71      -26.690515   1.000000
   72      -26.477089   1.000000
   73      -26.477089   1.000000
   74      -26.477080   1.000000
   75      -25.998882   1.000000
   76      -25.968622   1.000000
   77      -25.968608   1.000000
   78      -25.916312   1.000000
   79      -25.916312   1.000000
   80      -25.916303   1.000000
   81      -25.914754   1.000000
   82      -25.842708   1.000000
   83      -25.842686   1.000000
   84      -25.802416   1.000000
   85      -25.802400   1.000000
   86      -25.779715   1.000000
   87      -25.779715   1.000000
   88      -25.779699   1.000000
   89      -25.700993   1.000000
   90      -25.700993   1.000000
   91      -25.700988   1.000000
   92      -25.621665   1.000000
   93      -25.617752   1.000000
   94      -25.617748   1.000000
   95      -25.617748   1.000000
   96      -25.609643   1.000000
   97      -25.609643   1.000000
   98      -25.609631   1.000000
   99      -25.564091   1.000000
  100      -25.564089   1.000000
  101      -25.518097   1.000000
  102      -25.518097   1.000000
  103      -25.518092   1.000000
  104      -25.517318   1.000000
  105      -25.517318   1.000000
  106      -25.488733   1.000000
  107      -25.340405   1.000000
  108      -25.175738   1.000000
  109      -25.175738   1.000000
  110      -25.175733   1.000000
  111      -24.885065   1.000000
  112      -24.885065   1.000000
  113      -24.885058   1.000000
  114      -24.875729   1.000000
  115      -24.875729   1.000000
  116      -24.875723   1.000000
  117      -24.864923   1.000000
  118      -24.864923   1.000000
  119      -24.864922   1.000000
  120      -24.861034   1.000000
  121      -24.861023   1.000000
  122      -24.578337   1.000000
  123      -24.441296   1.000000
  124      -24.441296   1.000000
  125      -24.441289   1.000000
  126      -24.156279   1.000000
  127      -24.156279   1.000000
  128      -24.156274   1.000000
  129      -20.232027   1.000000
  130      -19.643086   1.000000
  131      -19.643083   1.000000
  132      -19.643083   1.000000
  133      -19.578881   1.000000
  134      -19.578878   1.000000
  135      -19.578878   1.000000
  136      -19.273305   1.000000
  137      -18.676357   1.000000
  138      -18.676354   1.000000
  139      -18.676354   1.000000
  140      -18.661476   1.000000
  141      -18.661472   1.000000
  142      -18.661472   1.000000
  143      -18.421558   1.000000
  144      -18.421558   1.000000
  145      -18.421549   1.000000
  146      -18.363102   1.000000
  147      -18.363102   1.000000
  148      -18.363096   1.000000
  149      -17.898490   1.000000
  150      -17.898482   1.000000
  151      -17.781945   1.000000
  152      -17.764835   1.000000
  153      -17.764827   1.000000
  154      -17.736886   1.000000
  155      -17.491698   1.000000
  156      -17.491698   1.000000
  157      -17.491688   1.000000
  158      -17.486327   1.000000
  159      -17.486327   1.000000
  160      -17.486320   1.000000
  161      -16.933403   1.000000
  162      -16.933396   1.000000
  163      -16.920714   1.000000
  164      -16.907241   1.000000
  165      -16.898173   1.000000
  166      -16.898164   1.000000
  167      -16.195128   1.000000
  168      -16.195123   1.000000
  169      -16.195123   1.000000
  170      -16.141171   1.000000
  171      -16.141163   1.000000
  172      -16.141163   1.000000
  173      -16.098090   1.000000
  174      -16.098086   1.000000
  175      -16.098086   1.000000
  176      -16.078559   1.000000
  177      -16.078554   1.000000
  178      -16.078554   1.000000
  179      -15.312401   1.000000
  180      -15.312394   1.000000
  181      -15.312394   1.000000
  182      -15.304460   1.000000
  183      -15.304455   1.000000
  184      -15.304455   1.000000
  185      -15.281746   1.000000
  186      -15.281739   1.000000
  187      -15.281739   1.000000
  188      -15.278026   1.000000
  189      -15.278021   1.000000
  190      -15.278021   1.000000
  191      -15.145456   1.000000
  192      -15.145427   1.000000
  193      -15.145427   1.000000
  194      -15.116999   1.000000
  195      -15.116990   1.000000
  196      -15.116990   1.000000
  197      -14.333161   1.000000
  198      -14.333128   1.000000
  199      -14.333128   1.000000
  200      -14.329092   1.000000
  201      -14.329078   1.000000
  202      -14.329078   1.000000
  203      -13.859781   1.000000
  204      -13.826094   1.000000
  205      -13.826069   1.000000
  206      -13.764080   1.000000
  207      -13.753916   1.000000
  208      -13.747003   1.000000
  209      -13.746959   1.000000
  210      -13.719900   1.000000
  211      -13.719734   1.000000
  212      -13.626734   1.000000
  213      -13.576581   1.000000
  214      -13.576581   1.000000
  215      -13.576568   1.000000
  216      -13.538106   1.000000
  217      -13.538106   1.000000
  218      -13.538089   1.000000
  219      -13.528479   1.000000
  220      -13.528479   1.000000
  221      -13.528454   1.000000
  222      -13.502709   1.000000
  223      -13.502542   1.000000
  224      -13.472152   1.000000
  225      -13.472152   1.000000
  226      -13.472133   1.000000
  227      -13.276753   1.000000
  228      -13.216894   1.000000
  229      -13.216886   1.000000
  230      -13.018562   1.000000
  231      -13.018531   1.000000
  232      -13.014302   1.000000
  233      -13.001956   1.000000
  234      -12.994254   1.000000
  235      -12.994218   1.000000
  236      -12.910053   1.000000
  237      -12.910053   1.000000
  238      -12.909960   1.000000
  239      -12.843187   1.000000
  240      -12.843187   1.000000
  241      -12.843124   1.000000
  242      -12.803837   1.000000
  243      -12.803837   1.000000
  244      -12.803759   1.000000
  245      -12.802904   1.000000
  246      -12.802904   1.000000
  247      -12.802847   1.000000
  248      -12.773834   1.000000
  249      -12.773834   1.000000
  250      -12.773719   1.000000
  251      -12.744617   1.000000
  252      -12.744617   1.000000
  253      -12.744492   1.000000
  254      -12.740442   1.000000
  255      -12.740442   1.000000
  256      -12.740324   1.000000
  257      -12.692122   1.000000
  258      -12.692122   1.000000
  259      -12.692018   1.000000
  260      -12.605656   1.000000
  261      -12.605656   1.000000
  262      -12.605524   1.000000
  263      -12.560670   1.000000
  264      -12.560670   1.000000
  265      -12.560533   1.000000
  266      -12.514054   1.000000
  267      -12.514054   1.000000
  268      -12.513928   1.000000
  269      -12.509970   1.000000
  270      -12.477517   1.000000
  271      -12.477511   1.000000
  272      -12.455918   1.000000
  273      -12.455918   1.000000
  274      -12.455782   1.000000
  275      -12.275221   1.000000
  276      -12.275221   1.000000
  277      -12.275202   1.000000
  278      -12.269210   1.000000
  279      -12.269209   1.000000
  280      -12.269209   1.000000
  281      -11.921546   1.000000
  282      -11.921315   1.000000
  283      -11.921315   1.000000
  284      -11.911024   1.000000
  285      -11.910744   1.000000
  286      -11.910744   1.000000
  287      -11.820049   1.000000
  288      -11.819788   1.000000
  289      -11.819788   1.000000
  290      -11.809801   1.000000
  291      -11.807032   1.000000
  292      -11.806732   1.000000
  293      -11.806732   1.000000
  294      -11.725172   1.000000
  295      -11.724890   1.000000
  296      -11.724890   1.000000
  297      -11.606617   1.000000
  298      -11.606383   1.000000
  299      -11.606383   1.000000
  300      -11.593461   1.000000
  301      -11.593235   1.000000
  302      -11.593235   1.000000
  303      -11.583737   1.000000
  304      -11.583696   1.000000
  305      -11.583696   1.000000
  306      -11.575242   1.000000
  307      -11.575240   1.000000
  308      -11.575240   1.000000
  309      -11.572437   1.000000
  310      -11.572132   1.000000
  311      -11.572132   1.000000
  312      -11.467926   1.000000
  313      -11.414950   1.000000
  314      -11.414751   1.000000
  315      -11.393667   1.000000
  316      -11.393648   1.000000
  317      -11.393648   1.000000
  318      -11.375627   1.000000
  319      -11.375427   1.000000
  320      -11.346037   1.000000
  321      -11.343015   1.000000
  322      -11.343003   1.000000
  323      -11.343003   1.000000
  324      -11.260144   1.000000
  325      -11.168738   1.000000
  326      -11.168533   1.000000
  327      -11.125201   1.000000
  328      -11.124985   1.000000
  329      -10.965645   1.000000
  330      -10.745408   1.000000
  331      -10.745408   1.000000
  332      -10.745373   1.000000
  333      -10.704848   1.000000
  334      -10.704848   1.000000
  335      -10.704809   1.000000
  336      -10.648488   1.000000
  337      -10.648487   1.000000
  338      -10.648487   1.000000
  339      -10.648266   1.000000
  340      -10.610670   1.000000
  341      -10.610670   1.000000
  342      -10.610655   1.000000
  343      -10.538600   1.000000
  344      -10.538600   1.000000
  345      -10.538589   1.000000
  346      -10.532538   1.000000
  347      -10.532473   1.000000
  348      -10.493230   1.000000
  349      -10.475823   1.000000
  350      -10.475823   1.000000
  351      -10.475815   1.000000
  352      -10.406296   1.000000
  353      -10.406260   1.000000
  354      -10.093088   1.000000
  355      -10.093088   1.000000
  356      -10.093070   1.000000
  357      -10.048653   1.000000
  358      -10.048653   1.000000
  359      -10.048626   1.000000
  360      -10.020491   1.000000
  361      -10.020491   1.000000
  362      -10.020485   1.000000
  363       -9.993650   1.000000
  364       -9.933524   1.000000
  365       -9.933524   1.000000
  366       -9.933505   1.000000
  367       -9.655639   1.000000
  368       -9.655635   1.000000
  369       -9.655635   1.000000
  370       -9.628758   1.000000
  371       -9.628749   1.000000
  372       -9.628749   1.000000
  373       -9.369415   1.000000
  374       -9.313911   1.000000
  375       -9.302765   1.000000
  376       -9.302665   1.000000
  377       -9.253595   1.000000
  378       -9.253595   1.000000
  379       -9.253525   1.000000
  380       -9.185397   1.000000
  381       -9.185397   1.000000
  382       -9.185328   1.000000
  383       -9.183167   1.000000
  384       -9.183101   1.000000
  385       -8.460045   1.000000
  386       -8.460045   1.000000
  387       -8.459819   1.000000
  388       -8.424079   1.000000
  389       -8.424079   1.000000
  390       -8.423847   1.000000
  391       -8.293754   1.000000
  392       -8.293754   1.000000
  393       -8.293529   1.000000
  394       -8.172547   1.000000
  395       -8.172547   1.000000
  396       -8.172313   1.000000
  397       -7.350600   1.000000
  398       -7.350538   1.000000
  399       -7.350538   1.000000
  400       -7.341595   1.000000
  401       -7.341551   1.000000
  402       -7.341551   1.000000
  403       -7.224612   1.000000
  404       -7.032714   1.000000
  405       -7.032706   1.000000
  406       -7.032706   1.000000
  407       -6.995087   1.000000
  408       -6.995087   1.000000
  409       -6.995072   1.000000
  410       -6.973275   1.000000
  411       -6.973259   1.000000
  412       -6.944267   1.000000
  413       -6.944267   1.000000
  414       -6.944254   1.000000
  415       -6.941168   1.000000
  416       -6.941162   1.000000
  417       -6.941162   1.000000
  418       -6.939943   1.000000
  419       -6.939941   1.000000
  420       -6.939941   1.000000
  421       -6.901570   1.000000
  422       -6.901570   1.000000
  423       -6.901557   1.000000
  424       -6.881518   1.000000
  425       -6.881518   1.000000
  426       -6.881480   1.000000
  427       -6.870787   1.000000
  428       -6.831928   1.000000
  429       -6.831928   1.000000
  430       -6.831927   1.000000
  431       -6.827944   1.000000
  432       -6.768081   1.000000
  433       -6.767933   1.000000
  434       -6.690168   1.000000
  435       -6.690009   1.000000
  436       -6.663174   1.000000
  437       -6.651952   1.000000
  438       -6.644906   1.000000
  439       -6.644777   1.000000
  440       -6.548510   1.000000
  441       -6.548411   1.000000
  442       -6.534900   1.000000
  443       -6.512982   1.000000
  444       -6.512933   1.000000
  445       -6.498952   1.000000
  446       -6.498935   1.000000
  447       -6.476524   1.000000
  448       -6.454645   1.000000
  449       -6.339150   1.000000
  450       -6.339148   1.000000
  451       -6.339148   1.000000
  452       -6.334876   1.000000
  453       -6.334686   1.000000
  454       -6.333247   1.000000
  455       -6.333241   1.000000
  456       -6.333241   1.000000
  457       -6.307969   1.000000
  458       -6.282847   1.000000
  459       -6.151038   1.000000
  460       -6.151031   1.000000
  461       -6.151031   1.000000
  462       -6.128122   1.000000
  463       -6.128117   1.000000
  464       -6.128117   1.000000
  465       -6.069715   1.000000
  466       -6.069678   1.000000
  467       -6.069678   1.000000
  468       -6.055430   1.000000
  469       -6.055382   1.000000
  470       -6.055382   1.000000
  471       -5.904373   1.000000
  472       -5.904373   1.000000
  473       -5.904349   1.000000
  474       -5.895336   1.000000
  475       -5.895336   1.000000
  476       -5.895286   1.000000
  477       -5.895052   1.000000
  478       -5.895052   1.000000
  479       -5.895026   1.000000
  480       -5.871033   1.000000
  481       -5.871033   1.000000
  482       -5.870997   1.000000
  483       -5.831349   1.000000
  484       -5.831171   1.000000
  485       -5.823680   1.000000
  486       -5.823644   1.000000
  487       -5.823644   1.000000
  488       -5.803162   1.000000
  489       -5.803125   1.000000
  490       -5.803125   1.000000
  491       -5.771984   1.000000
  492       -5.771492   1.000000
  493       -5.771296   1.000000
  494       -5.754781   1.000000
  495       -5.754776   1.000000
  496       -5.754776   1.000000
  497       -5.733199   1.000000
  498       -5.733156   1.000000
  499       -5.733156   1.000000
  500       -5.700152   1.000000
  501       -5.669020   1.000000
  502       -5.668997   1.000000
  503       -5.615179   1.000000
  504       -5.602563   1.000000
  505       -5.602316   1.000000
  506       -5.591418   1.000000
  507       -5.503888   1.000000
  508       -5.408603   1.000000
  509       -5.408602   1.000000
  510       -5.408602   1.000000
  511       -5.382889   1.000000
  512       -5.382889   1.000000
  513       -5.382889   1.000000
  514       -5.346117   1.000000
  515       -5.327224   1.000000
  516       -5.327118   1.000000
  517       -5.314811   1.000000
  518       -5.314740   1.000000
  519       -5.273325   1.000000
  520       -5.269007   1.000000
  521       -5.251000   1.000000
  522       -5.251000   1.000000
  523       -5.250802   1.000000
  524       -5.246623   1.000000
  525       -5.246601   1.000000
  526       -5.242156   1.000000
  527       -5.242156   1.000000
  528       -5.241931   1.000000
  529       -5.196545   1.000000
  530       -5.196545   1.000000
  531       -5.196284   1.000000
  532       -5.177543   1.000000
  533       -5.177339   1.000000
  534       -5.159424   1.000000
  535       -5.159424   1.000000
  536       -5.159192   1.000000
  537       -5.068121   1.000000
  538       -4.970907   1.000000
  539       -4.970898   1.000000
  540       -4.970898   1.000000
  541       -4.918717   1.000000
  542       -4.918710   1.000000
  543       -4.918710   1.000000
  544       -4.795347   1.000000
  545       -4.795347   1.000000
  546       -4.795338   1.000000
  547       -4.774216   1.000000
  548       -4.774216   1.000000
  549       -4.774157   1.000000
  550       -4.755319   1.000000
  551       -4.755319   1.000000
  552       -4.755274   1.000000
  553       -4.738525   1.000000
  554       -4.738524   1.000000
  555       -4.738524   1.000000
  556       -4.684034   1.000000
  557       -4.684034   1.000000
  558       -4.683796   1.000000
  559       -4.668984   1.000000
  560       -4.668984   1.000000
  561       -4.668730   1.000000
  562       -4.667243   1.000000
  563       -4.667243   1.000000
  564       -4.666990   1.000000
  565       -4.665766   1.000000
  566       -4.660225   1.000000
  567       -4.660225   1.000000
  568       -4.659993   1.000000
  569       -4.597932   1.000000
  570       -4.597588   1.000000
  571       -4.597588   1.000000
  572       -4.568941   1.000000
  573       -4.568578   1.000000
  574       -4.568578   1.000000
  575       -4.422828   1.000000
  576       -4.422828   1.000000
  577       -4.422825   1.000000
  578       -4.353935   1.000000
  579       -4.353818   1.000000
  580       -4.353818   1.000000
  581       -4.340070   1.000000
  582       -4.339894   1.000000
  583       -4.339894   1.000000
  584       -4.328008   1.000000
  585       -4.328008   1.000000
  586       -4.327867   1.000000
  587       -4.307415   1.000000
  588       -4.307310   1.000000
  589       -4.307310   1.000000
  590       -4.246319   1.000000
  591       -4.246319   1.000000
  592       -4.245995   1.000000
  593       -4.193814   1.000000
  594       -4.193814   1.000000
  595       -4.193801   1.000000
  596       -4.183615   1.000000
  597       -4.183605   1.000000
  598       -4.174536   1.000000
  599       -4.174399   1.000000
  600       -4.174399   1.000000
  601       -4.172443   1.000000
  602       -4.163159   1.000000
  603       -4.163152   1.000000
  604       -4.148250   1.000000
  605       -4.127655   1.000000
  606       -4.127543   1.000000
  607       -4.127543   1.000000
  608       -4.092016   1.000000
  609       -4.091959   1.000000
  610       -4.091959   1.000000
  611       -4.072934   1.000000
  612       -4.072934   1.000000
  613       -4.072636   1.000000
  614       -4.037479   1.000000
  615       -4.037082   1.000000
  616       -4.037082   1.000000
  617       -4.032565   1.000000
  618       -4.032193   1.000000
  619       -4.032193   1.000000
  620       -3.962038   1.000000
  621       -3.962038   1.000000
  622       -3.961834   1.000000
  623       -3.915219   1.000000
  624       -3.915204   1.000000
  625       -3.915204   1.000000
  626       -3.886421   1.000000
  627       -3.886421   1.000000
  628       -3.886401   1.000000
  629       -3.870402   1.000000
  630       -3.870043   1.000000
  631       -3.870043   1.000000
  632       -3.843114   1.000000
  633       -3.842680   1.000000
  634       -3.842680   1.000000
  635       -3.831894   1.000000
  636       -3.831894   1.000000
  637       -3.831860   1.000000
  638       -3.756673   1.000000
  639       -3.756673   1.000000
  640       -3.756628   1.000000
  641       -3.714934   1.000000
  642       -3.576222   1.000000
  643       -3.556500   1.000000
  644       -3.556191   1.000000
  645       -3.530860   1.000000
  646       -3.530553   1.000000
  647       -3.498353   1.000000
  648       -3.393395   1.000000
  649       -3.393395   1.000000
  650       -3.393359   1.000000
  651       -3.392342   1.000000
  652       -3.392292   1.000000
  653       -3.392292   1.000000
  654       -3.387336   1.000000
  655       -3.387336   1.000000
  656       -3.387320   1.000000
  657       -3.380587   1.000000
  658       -3.380587   1.000000
  659       -3.380569   1.000000
  660       -3.375512   1.000000
  661       -3.375512   1.000000
  662       -3.375496   1.000000
  663       -3.374039   1.000000
  664       -3.373663   1.000000
  665       -3.373663   1.000000
  666       -3.341625   1.000000
  667       -3.341285   1.000000
  668       -3.341285   1.000000
  669       -3.335987   1.000000
  670       -3.335976   1.000000
  671       -3.329472   1.000000
  672       -3.329454   1.000000
  673       -3.329454   1.000000
  674       -3.319086   1.000000
  675       -3.319074   1.000000
  676       -3.309647   1.000000
  677       -3.307004   1.000000
  678       -3.307004   1.000000
  679       -3.306973   1.000000
  680       -3.300136   1.000000
  681       -3.300101   1.000000
  682       -3.300101   1.000000
  683       -3.291739   1.000000
  684       -3.254550   1.000000
  685       -3.130332   1.000000
  686       -3.130332   1.000000
  687       -3.130297   1.000000
  688       -3.103053   1.000000
  689       -3.103053   1.000000
  690       -3.103018   1.000000
  691       -3.099068   1.000000
  692       -3.099036   1.000000
  693       -3.099036   1.000000
  694       -3.065402   1.000000
  695       -3.065360   1.000000
  696       -3.057182   1.000000
  697       -3.057181   1.000000
  698       -3.054273   1.000000
  699       -3.035069   1.000000
  700       -3.034999   1.000000
  701       -3.028964   1.000000
  702       -3.023919   1.000000
  703       -3.023912   1.000000
  704       -3.018398   1.000000
  705       -3.018398   1.000000
  706       -3.018373   1.000000
  707       -3.002048   1.000000
  708       -2.995411   1.000000
  709       -2.995411   1.000000
  710       -2.995388   1.000000
  711       -2.953210   1.000000
  712       -2.953210   1.000000
  713       -2.953155   1.000000
  714       -2.945930   1.000000
  715       -2.938374   1.000000
  716       -2.938331   1.000000
  717       -2.938331   1.000000
  718       -2.936080   1.000000
  719       -2.936032   1.000000
  720       -2.936032   1.000000
  721       -2.933615   1.000000
  722       -2.933571   1.000000
  723       -2.933571   1.000000
  724       -2.923864   1.000000
  725       -2.923818   1.000000
  726       -2.923818   1.000000
  727       -2.781592   1.000000
  728       -2.745099   1.000000
  729       -2.745099   1.000000
  730       -2.745084   1.000000
  731       -2.740337   1.000000
  732       -2.731691   1.000000
  733       -2.731691   1.000000
  734       -2.731682   1.000000
  735       -2.683319   1.000000
  736       -2.683319   1.000000
  737       -2.683282   1.000000
  738       -2.681858   1.000000
  739       -2.681843   1.000000
  740       -2.678729   1.000000
  741       -2.672876   1.000000
  742       -2.672876   1.000000
  743       -2.672840   1.000000
  744       -2.649429   1.000000
  745       -2.649384   1.000000
  746       -2.646963   1.000000
  747       -2.646820   1.000000
  748       -2.646799   1.000000
  749       -2.646799   1.000000
  750       -2.637106   1.000000
  751       -2.637086   1.000000
  752       -2.637086   1.000000
  753       -2.627684   1.000000
  754       -2.627669   1.000000
  755       -2.627669   1.000000
  756       -2.626788   1.000000
  757       -2.626768   1.000000
  758       -2.626768   1.000000
  759       -2.609326   1.000000
  760       -2.609270   1.000000
  761       -2.595077   1.000000
  762       -2.454415   1.000000
  763       -2.454375   1.000000
  764       -2.426656   1.000000
  765       -2.426656   1.000000
  766       -2.426445   1.000000
  767       -2.392103   1.000000
  768       -2.392103   1.000000
  769       -2.392033   1.000000
  770       -2.308897   1.000000
  771       -2.308897   1.000000
  772       -2.308853   1.000000
  773       -2.283440   1.000000
  774       -2.283314   1.000000
  775       -2.279415   1.000000
  776       -2.279415   1.000000
  777       -2.279326   1.000000
  778       -2.275249   1.000000
  779       -2.264182   1.000000
  780       -2.264065   1.000000
  781       -2.246542   1.000000
  782       -2.237604   1.000000
  783       -2.237604   1.000000
  784       -2.237509   1.000000
  785       -2.221300   1.000000
  786       -2.221300   1.000000
  787       -2.221193   1.000000
  788       -2.219566   1.000000
  789       -2.219476   1.000000
  790       -2.219476   1.000000
  791       -2.210549   1.000000
  792       -2.205302   1.000000
  793       -2.205214   1.000000
  794       -2.205214   1.000000
  795       -2.205057   1.000000
  796       -2.204996   1.000000
  797       -2.204996   1.000000
  798       -2.190367   1.000000
  799       -2.190291   1.000000
  800       -2.190270   1.000000
  801       -2.188900   1.000000
  802       -2.188814   1.000000
  803       -2.188814   1.000000
  804       -2.187750   1.000000
  805       -2.187687   1.000000
  806       -2.187687   1.000000
  807       -2.171152   1.000000
  808       -2.171152   1.000000
  809       -2.171146   1.000000
  810       -2.160528   1.000000
  811       -2.160528   1.000000
  812       -2.160483   1.000000
  813       -2.146533   1.000000
  814       -2.146529   1.000000
  815       -2.146529   1.000000
  816       -2.134211   1.000000
  817       -2.134211   1.000000
  818       -2.134147   1.000000
  819       -2.121526   1.000000
  820       -2.121468   1.000000
  821       -2.116963   1.000000
  822       -2.116902   1.000000
  823       -2.098276   1.000000
  824       -2.092396   1.000000
  825       -2.080097   1.000000
  826       -2.080047   1.000000
  827       -2.080047   1.000000
  828       -2.072228   1.000000
  829       -2.072228   1.000000
  830       -2.072194   1.000000
  831       -2.066357   1.000000
  832       -2.066333   1.000000
  833       -2.066333   1.000000
  834       -2.062022   1.000000
  835       -2.061968   1.000000
  836       -2.061968   1.000000
  837       -2.059434   1.000000
  838       -2.059430   1.000000
  839       -2.059281   1.000000
  840       -2.059281   1.000000
  841       -2.059270   1.000000
  842       -2.022727   1.000000
  843       -2.022660   1.000000
  844       -2.022660   1.000000
  845       -2.012483   1.000000
  846       -2.012483   1.000000
  847       -2.012360   1.000000
  848       -1.995013   1.000000
  849       -1.994953   1.000000
  850       -1.994953   1.000000
  851       -1.983206   1.000000
  852       -1.983204   1.000000
  853       -1.924411   1.000000
  854       -1.924391   1.000000
  855       -1.924391   1.000000
  856       -1.917814   1.000000
  857       -1.917793   1.000000
  858       -1.917793   1.000000
  859       -1.903376   1.000000
  860       -1.903362   1.000000
  861       -1.903362   1.000000
  862       -1.891513   1.000000
  863       -1.891512   1.000000
  864       -1.891512   1.000000
  865       -1.833739   1.000000
  866       -1.833739   1.000000
  867       -1.833691   1.000000
  868       -1.824088   1.000000
  869       -1.824069   1.000000
  870       -1.824069   1.000000
  871       -1.822450   1.000000
  872       -1.822352   1.000000
  873       -1.801492   1.000000
  874       -1.793789   1.000000
  875       -1.793675   1.000000
  876       -1.791148   1.000000
  877       -1.791142   1.000000
  878       -1.791142   1.000000
  879       -1.790376   1.000000
  880       -1.790337   1.000000
  881       -1.790337   1.000000
  882       -1.776080   1.000000
  883       -1.776080   1.000000
  884       -1.776024   1.000000
  885       -1.767322   1.000000
  886       -1.749689   1.000000
  887       -1.749689   1.000000
  888       -1.749681   1.000000
  889       -1.739835   1.000000
  890       -1.739814   1.000000
  891       -1.739814   1.000000
  892       -1.724855   1.000000
  893       -1.724722   1.000000
  894       -1.724722   1.000000
  895       -1.714199   1.000000
  896       -1.714175   1.000000
  897       -1.714175   1.000000
  898       -1.707852   1.000000
  899       -1.707852   1.000000
  900       -1.706202   1.000000
  901       -1.706202   1.000000