<?xml version="1.0" encoding="ISO-8859-1"?>
<modeling>
 <generator>
  <i name="program" type="string">vasp </i>
  <i name="version" type="string">6.2.1  </i>
  <i name="subversion" type="string">16May21 (build May 12 2022 08:28:04) complex                          parallel </i>
  <i name="platform" type="string">LinuxPGI </i>
  <i name="date" type="string">2022 07 20 </i>
  <i name="time" type="string">03:40:58 </i>
 </generator>
 <incar>
  <i type="string" name="SYSTEM">NiAl</i>
  <i type="int" name="ISTART">     0</i>
  <i type="int" name="NELMIN">     6</i>
  <i type="int" name="IBRION">     2</i>
  <i name="EDIFF">      0.00000500</i>
  <i type="int" name="NSW">    20</i>
  <i type="int" name="ISIF">     0</i>
  <i name="ENCUT">    360.00000000</i>
  <i name="POTIM">      0.20000000</i>
  <i type="string" name="LREAL">Auto</i>
  <i type="logical" name="LPLANE"> T  </i>
  <i type="int" name="ISMEAR">     0</i>
  <i name="SIGMA">      0.05000000</i>
  <i type="logical" name="LWAVE"> F  </i>
  <i type="logical" name="LCHARG"> F  </i>
  <i type="int" name="IVDW">    12</i>
 </incar>
 <primitive_cell>
  <structure name="primitive_cell" >
   <crystal>
    <varray name="basis" >
     <v>      -3.78655544      -6.55850641       0.00000000 </v>
     <v>       7.57311088       0.00000000       0.00000000 </v>
     <v>       0.00000000       0.00000000      40.00000000 </v>
    </varray>
    <i name="volume">   1986.73184901 </i>
    <varray name="rec_basis" >
     <v>       0.00000000      -0.15247374       0.00000000 </v>
     <v>       0.13204613      -0.07623687       0.00000000 </v>
     <v>      -0.00000000       0.00000000       0.02500000 </v>
    </varray>
   </crystal>
   <varray name="positions" >
    <v>       0.11111111       0.88888889       0.05641000 </v>
    <v>       0.44444444       0.88888889       0.05641000 </v>
    <v>       0.77777778       0.88888889       0.05641000 </v>
    <v>       0.11111111       0.55555556       0.05641000 </v>
    <v>       0.44444444       0.55555556       0.05641000 </v>
    <v>       0.77777778       0.55555556       0.05641000 </v>
    <v>       0.11111111       0.22222222       0.05641000 </v>
    <v>       0.44444444       0.22222222       0.05641000 </v>
    <v>       0.77777778       0.22222222       0.05641000 </v>
    <v>       0.88888889       0.11111111       0.11363480 </v>
    <v>       0.22222222       0.11111111       0.11363480 </v>
    <v>       0.55555556       0.11111111       0.11363480 </v>
    <v>       0.88888889       0.77777778       0.11363480 </v>
    <v>       0.22222222       0.77777778       0.11363480 </v>
    <v>       0.55555556       0.77777778       0.11363480 </v>
    <v>       0.88888889       0.44444444       0.11363480 </v>
    <v>       0.22222222       0.44444444       0.11363480 </v>
    <v>       0.55555556       0.44444444       0.11363480 </v>
    <v>       0.66666667       0.33333333       0.16901098 </v>
    <v>      -0.00000000       0.33333333       0.16901098 </v>
    <v>       0.33333333       0.33333333       0.16901098 </v>
    <v>       0.66666667       1.00000000       0.16901098 </v>
    <v>      -0.00000000       1.00000000       0.16901098 </v>
    <v>       0.33333333       1.00000000       0.16901098 </v>
    <v>       0.66666667       0.66666667       0.16901098 </v>
    <v>      -0.00000000       0.66666667       0.16901098 </v>
    <v>       0.33333333       0.66666667       0.16901098 </v>
    <v>       0.44444444       0.55555556       0.22600473 </v>
    <v>       0.77777778       0.55555556       0.22600473 </v>
    <v>       0.11111111       0.55555556       0.22600473 </v>
    <v>       0.44444444       0.22222222       0.22600473 </v>
    <v>       0.77777778       0.22222222       0.22600473 </v>
    <v>       0.11111111       0.22222222       0.22600473 </v>
    <v>       0.44444444       0.88888889       0.22600473 </v>
    <v>       0.77777778       0.88888889       0.22600473 </v>
    <v>       0.11111111       0.88888889       0.22600473 </v>
    <v>       0.22222222       0.77777778       0.28299847 </v>
    <v>       0.55555556       0.77777778       0.28299847 </v>
    <v>       0.88888889       0.77777778       0.28299847 </v>
    <v>       0.22222222       0.44444444       0.28299847 </v>
    <v>       0.55555556       0.44444444       0.28299847 </v>
    <v>       0.88888889       0.44444444       0.28299847 </v>
    <v>       0.22222222       0.11111111       0.28299847 </v>
    <v>       0.55555556       0.11111111       0.28299847 </v>
    <v>       0.88888889       0.11111111       0.28299847 </v>
    <v>      -0.00000000       1.00000000       0.33837465 </v>
    <v>       0.33333333       1.00000000       0.33837465 </v>
    <v>       0.66666667       1.00000000       0.33837465 </v>
    <v>      -0.00000000       0.66666667       0.33837465 </v>
    <v>       0.33333333       0.66666667       0.33837465 </v>
    <v>       0.66666667       0.66666667       0.33837465 </v>
    <v>      -0.00000000       0.33333333       0.33837465 </v>
    <v>       0.33333333       0.33333333       0.33837465 </v>
    <v>       0.66666667       0.33333333       0.33837465 </v>
    <v>       0.77777778       0.22222222       0.39559945 </v>
    <v>       0.11111111       0.22222222       0.39559945 </v>
    <v>       0.44444444       0.22222222       0.39559945 </v>
    <v>       0.77777778       0.88888889       0.39559945 </v>
    <v>       0.11111111       0.88888889       0.39559945 </v>
    <v>       0.44444444       0.88888889       0.39559945 </v>
    <v>       0.77777778       0.55555556       0.39559945 </v>
    <v>       0.11111111       0.55555556       0.39559945 </v>
    <v>       0.44444444       0.55555556       0.39559945 </v>
    <v>      -0.00000000       1.00000000       0.43059945 </v>
    <v>      -0.00000000       1.00000000       0.46059945 </v>
    <v>      -0.00000000       1.00000000       0.49059945 </v>
    <v>      -0.00000000       1.00000000       0.52059945 </v>
    <v>       0.75000000       1.00000000       0.43059945 </v>
    <v>       0.75000000       1.00000000       0.46059945 </v>
    <v>       0.75000000       1.00000000       0.49059945 </v>
    <v>       0.75000000       1.00000000       0.52059945 </v>
    <v>       0.50000000       1.00000000       0.43059945 </v>
    <v>       0.50000000       1.00000000       0.46059945 </v>
    <v>       0.50000000       1.00000000       0.49059945 </v>
    <v>       0.50000000       1.00000000       0.52059945 </v>
    <v>       0.25000000       1.00000000       0.43059945 </v>
    <v>       0.25000000       1.00000000       0.46059945 </v>
    <v>       0.25000000       1.00000000       0.49059945 </v>
    <v>       0.25000000       1.00000000       0.52059945 </v>
    <v>      -0.00000000       0.25000000       0.43059945 </v>
    <v>      -0.00000000       0.25000000       0.46059945 </v>
    <v>      -0.00000000       0.25000000       0.49059945 </v>
    <v>      -0.00000000       0.25000000       0.52059945 </v>
    <v>       0.75000000       0.25000000       0.43059945 </v>
    <v>       0.75000000       0.25000000       0.46059945 </v>
    <v>       0.75000000       0.25000000       0.49059945 </v>
    <v>       0.75000000       0.25000000       0.52059945 </v>
    <v>       0.50000000       0.25000000       0.43059945 </v>
    <v>       0.50000000       0.25000000       0.46059945 </v>
    <v>       0.50000000       0.25000000       0.49059945 </v>
    <v>       0.50000000       0.25000000       0.52059945 </v>
    <v>       0.25000000       0.25000000       0.43059945 </v>
    <v>       0.25000000       0.25000000       0.46059945 </v>
    <v>       0.25000000       0.25000000       0.49059945 </v>
    <v>       0.25000000       0.25000000       0.52059945 </v>
    <v>      -0.00000000       0.50000000       0.43059945 </v>
    <v>      -0.00000000       0.50000000       0.46059945 </v>
    <v>      -0.00000000       0.50000000       0.49059945 </v>
    <v>      -0.00000000       0.50000000       0.52059945 </v>
    <v>       0.75000000       0.50000000       0.43059945 </v>
    <v>       0.75000000       0.50000000       0.46059945 </v>
    <v>       0.75000000       0.50000000       0.49059945 </v>
    <v>       0.75000000       0.50000000       0.52059945 </v>
    <v>       0.50000000       0.50000000       0.43059945 </v>
    <v>       0.50000000       0.50000000       0.46059945 </v>
    <v>       0.50000000       0.50000000       0.49059945 </v>
    <v>       0.50000000       0.50000000       0.52059945 </v>
    <v>       0.25000000       0.50000000       0.43059945 </v>
    <v>       0.25000000       0.50000000       0.46059945 </v>
    <v>       0.25000000       0.50000000       0.49059945 </v>
    <v>       0.25000000       0.50000000       0.52059945 </v>
    <v>      -0.00000000       0.75000000       0.43059945 </v>
    <v>      -0.00000000       0.75000000       0.46059945 </v>
    <v>      -0.00000000       0.75000000       0.49059945 </v>
    <v>      -0.00000000       0.75000000       0.52059945 </v>
    <v>       0.75000000       0.75000000       0.43059945 </v>
    <v>       0.75000000       0.75000000       0.46059945 </v>
    <v>       0.75000000       0.75000000       0.49059945 </v>
    <v>       0.75000000       0.75000000       0.52059945 </v>
    <v>       0.50000000       0.75000000       0.43059945 </v>
    <v>       0.50000000       0.75000000       0.46059945 </v>
    <v>       0.50000000       0.75000000       0.49059945 </v>
    <v>       0.50000000       0.75000000       0.52059945 </v>
    <v>       0.25000000       0.75000000       0.43059945 </v>
    <v>       0.25000000       0.75000000       0.46059945 </v>
    <v>       0.25000000       0.75000000       0.49059945 </v>
    <v>       0.25000000       0.75000000       0.52059945 </v>
   </varray>
  </structure>
  <varray name="primitive_index" >
   <v type="int" >        1 </v>
   <v type="int" >      190 </v>
   <v type="int" >      191 </v>
   <v type="int" >      127 </v>
   <v type="int" >       64 </v>
   <v type="int" >       65 </v>
   <v type="int" >      130 </v>
   <v type="int" >       67 </v>
   <v type="int" >       68 </v>
   <v type="int" >       10 </v>
   <v type="int" >      199 </v>
   <v type="int" >       12 </v>
   <v type="int" >      136 </v>
   <v type="int" >       73 </v>
   <v type="int" >      138 </v>
   <v type="int" >       16 </v>
   <v type="int" >      205 </v>
   <v type="int" >       18 </v>
   <v type="int" >       19 </v>
   <v type="int" >      208 </v>
   <v type="int" >       21 </v>
   <v type="int" >      145 </v>
   <v type="int" >       82 </v>
   <v type="int" >      147 </v>
   <v type="int" >       25 </v>
   <v type="int" >      214 </v>
   <v type="int" >       27 </v>
   <v type="int" >       99 </v>
   <v type="int" >       97 </v>
   <v type="int" >      162 </v>
   <v type="int" >       93 </v>
   <v type="int" >       91 </v>
   <v type="int" >      156 </v>
   <v type="int" >      225 </v>
   <v type="int" >      223 </v>
   <v type="int" >       36 </v>
   <v type="int" >      108 </v>
   <v type="int" >      170 </v>
   <v type="int" >      171 </v>
   <v type="int" >      231 </v>
   <v type="int" >       41 </v>
   <v type="int" >       42 </v>
   <v type="int" >      234 </v>
   <v type="int" >       44 </v>
   <v type="int" >       45 </v>
   <v type="int" >      117 </v>
   <v type="int" >      179 </v>
   <v type="int" >      180 </v>
   <v type="int" >      240 </v>
   <v type="int" >       50 </v>
   <v type="int" >       51 </v>
   <v type="int" >      243 </v>
   <v type="int" >       53 </v>
   <v type="int" >       54 </v>
   <v type="int" >      126 </v>
   <v type="int" >      188 </v>
   <v type="int" >      125 </v>
   <v type="int" >      249 </v>
   <v type="int" >       59 </v>
   <v type="int" >      248 </v>
   <v type="int" >      123 </v>
   <v type="int" >      185 </v>
   <v type="int" >      122 </v>
   <v type="int" >      397 </v>
   <v type="int" >      398 </v>
   <v type="int" >      399 </v>
   <v type="int" >      400 </v>
   <v type="int" >      401 </v>
   <v type="int" >      402 </v>
   <v type="int" >      403 </v>
   <v type="int" >      404 </v>
   <v type="int" >      389 </v>
   <v type="int" >      390 </v>
   <v type="int" >      391 </v>
   <v type="int" >      392 </v>
   <v type="int" >      393 </v>
   <v type="int" >      394 </v>
   <v type="int" >      395 </v>
   <v type="int" >      396 </v>
   <v type="int" >      429 </v>
   <v type="int" >      430 </v>
   <v type="int" >      431 </v>
   <v type="int" >      432 </v>
   <v type="int" >      433 </v>
   <v type="int" >      434 </v>
   <v type="int" >      435 </v>
   <v type="int" >      436 </v>
   <v type="int" >      421 </v>
   <v type="int" >      422 </v>
   <v type="int" >      423 </v>
   <v type="int" >      424 </v>
   <v type="int" >      425 </v>
   <v type="int" >      426 </v>
   <v type="int" >      427 </v>
   <v type="int" >      428 </v>
   <v type="int" >      333 </v>
   <v type="int" >      334 </v>
   <v type="int" >      335 </v>
   <v type="int" >      336 </v>
   <v type="int" >      337 </v>
   <v type="int" >      338 </v>
   <v type="int" >      339 </v>
   <v type="int" >      340 </v>
   <v type="int" >      325 </v>
   <v type="int" >      326 </v>
   <v type="int" >      327 </v>
   <v type="int" >      328 </v>
   <v type="int" >      329 </v>
   <v type="int" >      330 </v>
   <v type="int" >      331 </v>
   <v type="int" >      332 </v>
   <v type="int" >      365 </v>
   <v type="int" >      366 </v>
   <v type="int" >      367 </v>
   <v type="int" >      368 </v>
   <v type="int" >      369 </v>
   <v type="int" >      370 </v>
   <v type="int" >      371 </v>
   <v type="int" >      372 </v>
   <v type="int" >      357 </v>
   <v type="int" >      358 </v>
   <v type="int" >      359 </v>
   <v type="int" >      360 </v>
   <v type="int" >      361 </v>
   <v type="int" >      362 </v>
   <v type="int" >      363 </v>
   <v type="int" >      364 </v>
  </varray>
 </primitive_cell>
 <kpoints>
  <generation param="Gamma">
   <v type="int" name="divisions">       2        2        1 </v>
   <v name="usershift">      0.00000000       0.00000000       0.00000000 </v>
   <v name="genvec1">      0.50000000      -0.00000000       0.00000000 </v>
   <v name="genvec2">      0.00000000       0.50000000       0.00000000 </v>
   <v name="genvec3">      0.00000000       0.00000000       1.00000000 </v>
   <v name="shift">      0.00000000       0.00000000       0.00000000 </v>
  </generation>
  <varray name="kpointlist" >
   <v>       0.00000000       0.00000000       0.00000000 </v>
   <v>       0.50000000       0.00000000       0.00000000 </v>
  </varray>
  <varray name="weights" >
   <v>       0.25000000 </v>
   <v>       0.75000000 </v>
  </varray>
 </kpoints>
 <parameters>
  <separator name="general" >
   <i type="string" name="SYSTEM">NiAl</i>
   <i type="logical" name="LCOMPAT"> F  </i>
  </separator>
  <separator name="electronic" >
   <i type="string" name="PREC">normal</i>
   <i name="ENMAX">    360.00000000</i>
   <i name="ENAUG">   1139.60900000</i>
   <i name="EDIFF">      0.00000500</i>
   <i type="int" name="IALGO">    38</i>
   <i type="int" name="IWAVPR">    11</i>
   <i type="int" name="NBANDS">  2433</i>
   <i type="int" name="NBANDSLOW">    -1</i>
   <i type="int" name="NBANDSHIGH">    -1</i>
   <i name="NELECT">   4056.00000000</i>
   <i type="int" name="TURBO">     0</i>
   <i type="int" name="IRESTART">     0</i>
   <i type="int" name="NREBOOT">     0</i>
   <i type="int" name="NMIN">     0</i>
   <i name="EREF">      0.00000000</i>
   <separator name="electronic smearing" >
    <i type="int" name="ISMEAR">     0</i>
    <i name="SIGMA">      0.05000000</i>
    <i name="KSPACING">      0.50000000</i>
    <i type="logical" name="KGAMMA"> T  </i>
    <i type="logical" name="KBLOWUP"> T  </i>
   </separator>
   <separator name="electronic projectors" >
    <i type="logical" name="LREAL"> T  </i>
    <v name="ROPT">     -0.00050000     -0.00050000</v>
    <i type="int" name="LMAXPAW">  -100</i>
    <i type="int" name="LMAXMIX">     2</i>
    <i type="logical" name="NLSPLINE"> F  </i>
   </separator>
   <separator name="electronic startup" >
    <i type="int" name="ISTART">     0</i>
    <i type="int" name="ICHARG">     2</i>
    <i type="int" name="INIWAV">     1</i>
   </separator>
   <separator name="electronic spin" >
    <i type="int" name="ISPIN">     1</i>
    <i type="logical" name="LNONCOLLINEAR"> F  </i>
    <v name="MAGMOM">      1.00000000      1.00000000      1.00000000      1.00000000      1.00000000      1.00000000      1.00000000      1.00000000      1.00000000      1.00000000      1.00000000      1.00000000      1.00000000      1.00000000      1.00000000      1.00000000      1.00000000      1.00000000      1.00000000      1.00000000
      1.00000000      1.00000000      1.00000000      1.00000000      1.00000000      1.00000000      1.00000000      1.00000000      1.00000000      1.00000000      1.00000000      1.00000000      1.00000000      1.00000000      1.00000000      1.00000000      1.00000000      1.00000000      1.00000000      1.00000000
      1.00000000      1.00000000      1.00000000      1.00000000      1.00000000      1.00000000      1.00000000      1.00000000      1.00000000      1.00000000      1.00000000      1.00000000      1.00000000      1.00000000      1.00000000      1.00000000      1.00000000      1.00000000      1.00000000      1.00000000
      1.00000000      1.00000000      1.00000000      1.00000000      1.00000000      1.00000000      1.00000000      1.00000000      1.00000000      1.00000000      1.00000000      1.00000000      1.00000000      1.00000000      1.00000000      1.00000000      1.00000000      1.00000000      1.00000000      1.00000000
      1.00000000      1.00000000      1.00000000      1.00000000      1.00000000      1.00000000      1.00000000      1.00000000      1.00000000      1.00000000      1.00000000      1.00000000      1.00000000      1.00000000      1.00000000      1.00000000      1.00000000      1.00000000      1.00000000      1.00000000
      1.00000000      1.00000000      1.00000000      1.00000000      1.00000000      1.00000000      1.00000000      1.00000000      1.00000000      1.00000000      1.00000000      1.00000000      1.00000000      1.00000000      1.00000000      1.00000000      1.00000000      1.00000000      1.00000000      1.00000000
      1.00000000      1.00000000      1.00000000      1.00000000      1.00000000      1.00000000      1.00000000      1.00000000      1.00000000      1.00000000      1.00000000      1.00000000      1.00000000      1.00000000      1.00000000      1.00000000      1.00000000      1.00000000      1.00000000      1.00000000
      1.00000000      1.00000000      1.00000000      1.00000000      1.00000000      1.00000000      1.00000000      1.00000000      1.00000000      1.00000000      1.00000000      1.00000000      1.00000000      1.00000000      1.00000000      1.00000000      1.00000000      1.00000000      1.00000000      1.00000000
      1.00000000      1.00000000      1.00000000      1.00000000      1.00000000      1.00000000      1.00000000      1.00000000      1.00000000      1.00000000      1.00000000      1.00000000      1.00000000      1.00000000      1.00000000      1.00000000      1.00000000      1.00000000      1.00000000      1.00000000
      1.00000000      1.00000000      1.00000000      1.00000000      1.00000000      1.00000000      1.00000000      1.00000000      1.00000000      1.00000000      1.00000000      1.00000000      1.00000000      1.00000000      1.00000000      1.00000000      1.00000000      1.00000000      1.00000000      1.00000000
      1.00000000      1.00000000      1.00000000      1.00000000      1.00000000      1.00000000      1.00000000      1.00000000      1.00000000      1.00000000      1.00000000      1.00000000      1.00000000      1.00000000      1.00000000      1.00000000      1.00000000      1.00000000      1.00000000      1.00000000
      1.00000000      1.00000000      1.00000000      1.00000000      1.00000000      1.00000000      1.00000000      1.00000000      1.00000000      1.00000000      1.00000000      1.00000000      1.00000000      1.00000000      1.00000000      1.00000000      1.00000000      1.00000000      1.00000000      1.00000000
      1.00000000      1.00000000      1.00000000      1.00000000      1.00000000      1.00000000      1.00000000      1.00000000      1.00000000      1.00000000      1.00000000      1.00000000      1.00000000      1.00000000      1.00000000      1.00000000      1.00000000      1.00000000      1.00000000      1.00000000
      1.00000000      1.00000000      1.00000000      1.00000000      1.00000000      1.00000000      1.00000000      1.00000000      1.00000000      1.00000000      1.00000000      1.00000000      1.00000000      1.00000000      1.00000000      1.00000000      1.00000000      1.00000000      1.00000000      1.00000000
      1.00000000      1.00000000      1.00000000      1.00000000      1.00000000      1.00000000      1.00000000      1.00000000      1.00000000      1.00000000      1.00000000      1.00000000      1.00000000      1.00000000      1.00000000      1.00000000      1.00000000      1.00000000      1.00000000      1.00000000
      1.00000000      1.00000000      1.00000000      1.00000000      1.00000000      1.00000000      1.00000000      1.00000000      1.00000000      1.00000000      1.00000000      1.00000000      1.00000000      1.00000000      1.00000000      1.00000000      1.00000000      1.00000000      1.00000000      1.00000000
      1.00000000      1.00000000      1.00000000      1.00000000      1.00000000      1.00000000      1.00000000      1.00000000      1.00000000      1.00000000      1.00000000      1.00000000      1.00000000      1.00000000      1.00000000      1.00000000      1.00000000      1.00000000      1.00000000      1.00000000
      1.00000000      1.00000000      1.00000000      1.00000000      1.00000000      1.00000000      1.00000000      1.00000000      1.00000000      1.00000000      1.00000000      1.00000000      1.00000000      1.00000000      1.00000000      1.00000000      1.00000000      1.00000000      1.00000000      1.00000000
      1.00000000      1.00000000      1.00000000      1.00000000      1.00000000      1.00000000      1.00000000      1.00000000      1.00000000      1.00000000      1.00000000      1.00000000      1.00000000      1.00000000      1.00000000      1.00000000      1.00000000      1.00000000      1.00000000      1.00000000
      1.00000000      1.00000000      1.00000000      1.00000000      1.00000000      1.00000000      1.00000000      1.00000000      1.00000000      1.00000000      1.00000000      1.00000000      1.00000000      1.00000000      1.00000000      1.00000000      1.00000000      1.00000000      1.00000000      1.00000000
      1.00000000      1.00000000      1.00000000      1.00000000      1.00000000      1.00000000      1.00000000      1.00000000      1.00000000      1.00000000      1.00000000      1.00000000      1.00000000      1.00000000      1.00000000      1.00000000      1.00000000      1.00000000      1.00000000      1.00000000
      1.00000000      1.00000000      1.00000000      1.00000000      1.00000000      1.00000000      1.00000000      1.00000000      1.00000000      1.00000000      1.00000000      1.00000000      1.00000000      1.00000000      1.00000000      1.00000000      1.00000000      1.00000000      1.00000000      1.00000000
      1.00000000      1.00000000      1.00000000      1.00000000      1.00000000      1.00000000      1.00000000      1.00000000      1.00000000      1.00000000      1.00000000      1.00000000      1.00000000      1.00000000      1.00000000      1.00000000      1.00000000      1.00000000      1.00000000      1.00000000
      1.00000000      1.00000000      1.00000000      1.00000000      1.00000000      1.00000000      1.00000000      1.00000000      1.00000000      1.00000000      1.00000000      1.00000000      1.00000000      1.00000000      1.00000000      1.00000000      1.00000000      1.00000000      1.00000000      1.00000000
      1.00000000      1.00000000      1.00000000      1.00000000      1.00000000      1.00000000      1.00000000      1.00000000      1.00000000      1.00000000      1.00000000      1.00000000      1.00000000      1.00000000      1.00000000      1.00000000      1.00000000      1.00000000      1.00000000      1.00000000
      1.00000000      1.00000000      1.00000000      1.00000000      1.00000000      1.00000000      1.00000000      1.00000000</v>
    <i name="NUPDOWN">     -1.00000000</i>
    <i type="logical" name="LSORBIT"> F  </i>
    <v name="SAXIS">      0.00000000      0.00000000      1.00000000</v>
    <i type="logical" name="LSPIRAL"> F  </i>
    <v name="QSPIRAL">      0.00000000      0.00000000      0.00000000</v>
    <i type="logical" name="LZEROZ"> F  </i>
   </separator>
   <separator name="electronic exchange-correlation" >
    <i type="logical" name="LASPH"> F  </i>
    <i type="logical" name="LMETAGGA"> F  </i>
   </separator>
   <separator name="electronic convergence" >
    <i type="int" name="NELM">    60</i>
    <i type="int" name="NELMDL">    -5</i>
    <i type="int" name="NELMIN">     6</i>
    <i name="ENINI">    360.00000000</i>
    <separator name="electronic convergence detail" >
     <i type="logical" name="LDIAG"> T  </i>
     <i type="logical" name="LSUBROT"> F  </i>
     <i name="WEIMIN">      0.00100000</i>
     <i name="EBREAK">      0.00000000</i>
     <i name="DEPER">      0.30000000</i>
     <i type="int" name="NRMM">     4</i>
     <i name="TIME">      0.40000000</i>
    </separator>
   </separator>
   <separator name="electronic mixer" >
    <i name="AMIX">      0.40000000</i>
    <i name="BMIX">      1.00000000</i>
    <i name="AMIN">      0.10000000</i>
    <i name="AMIX_MAG">      1.60000000</i>
    <i name="BMIX_MAG">      1.00000000</i>
    <separator name="electronic mixer details" >
     <i type="int" name="IMIX">     4</i>
     <i type="logical" name="MIXFIRST"> F  </i>
     <i type="int" name="MAXMIX">   -45</i>
     <i name="WC">    100.00000000</i>
     <i type="int" name="INIMIX">     1</i>
     <i type="int" name="MIXPRE">     1</i>
     <i type="int" name="MREMOVE">     5</i>
    </separator>
   </separator>
   <separator name="electronic dipolcorrection" >
    <i type="logical" name="LDIPOL"> F  </i>
    <i type="logical" name="LMONO"> F  </i>
    <i type="int" name="IDIPOL">     0</i>
    <i name="EPSILON">      1.00000000</i>
    <v name="DIPOL">   -100.00000000   -100.00000000   -100.00000000</v>
    <i name="EFIELD">      0.00000000</i>
   </separator>
  </separator>
  <separator name="grids" >
   <i type="int" name="NGX">    70</i>
   <i type="int" name="NGY">    70</i>
   <i type="int" name="NGZ">   192</i>
   <i type="int" name="NGXF">   140</i>
   <i type="int" name="NGYF">   140</i>
   <i type="int" name="NGZF">   384</i>
   <i type="logical" name="ADDGRID"> F  </i>
  </separator>
  <separator name="ionic" >
   <i type="int" name="NSW">    20</i>
   <i type="int" name="IBRION">     2</i>
   <i type="int" name="MDALGO">     0</i>
   <i type="int" name="ISIF">     0</i>
   <i name="PSTRESS">      0.00000000</i>
   <i name="EDIFFG">      0.00005000</i>
   <i type="int" name="NFREE">     1</i>
   <i name="POTIM">      0.20000000</i>
   <i name="SMASS">     -3.00000000</i>
   <i name="SCALEE">      1.00000000</i>
  </separator>
  <separator name="ionic md" >
   <i name="TEBEG">      0.00010000</i>
   <i name="TEEND">      0.00010000</i>
   <i type="int" name="NBLOCK">     1</i>
   <i type="int" name="KBLOCK">    20</i>
   <i type="int" name="NPACO">   256</i>
   <i name="APACO">     16.00000000</i>
  </separator>
  <separator name="symmetry" >
   <i type="int" name="ISYM">     2</i>
   <i name="SYMPREC">      0.00001000</i>
  </separator>
  <separator name="dos" >
   <i type="int" name="LORBIT">     0</i>
   <v name="RWIGS">     -1.00000000     -1.00000000</v>
   <i type="int" name="NEDOS">   301</i>
   <i name="EMIN">     10.00000000</i>
   <i name="EMAX">    -10.00000000</i>
   <i name="EFERMI">      0.00000000</i>
  </separator>
  <separator name="writing" >
   <i type="int" name="NWRITE">     2</i>
   <i type="logical" name="LWAVE"> F  </i>
   <i type="logical" name="LDOWNSAMPLE"> F  </i>
   <i type="logical" name="LCHARG"> F  </i>
   <i type="logical" name="LPARD"> F  </i>
   <i type="logical" name="LVTOT"> F  </i>
   <i type="logical" name="LVHAR"> F  </i>
   <i type="logical" name="LELF"> F  </i>
   <i type="logical" name="LOPTICS"> F  </i>
   <v name="STM">      0.00000000      0.00000000      0.00000000      0.00000000      0.00000000      0.00000000      0.00000000</v>
  </separator>
  <separator name="performance" >
   <i type="int" name="NPAR">     1</i>
   <i type="int" name="NSIM">     4</i>
   <i type="int" name="NBLK">    -1</i>
   <i type="logical" name="LPLANE"> T  </i>
   <i type="logical" name="LSCALAPACK"> T  </i>
   <i type="logical" name="LSCAAWARE"> F  </i>
   <i type="logical" name="LSCALU"> F  </i>
   <i type="logical" name="LASYNC"> F  </i>
   <i type="logical" name="LORBITALREAL"> F  </i>
  </separator>
  <separator name="miscellaneous" >
   <i type="int" name="IDIOT">     3</i>
   <i type="int" name="PHON_NSTRUCT">    -1</i>
   <i type="logical" name="LMUSIC"> F  </i>
   <v name="POMASS">     58.69000000     16.00000000</v>
   <v name="DARWINR">      0.00000000      0.00000000</v>
   <v name="DARWINV">      1.00000000      1.00000000</v>
   <i type="logical" name="LCORR"> T  </i>
  </separator>
  <i type="logical" name="GGA_COMPAT"> T  </i>
  <i type="logical" name="LBERRY"> F  </i>
  <i type="int" name="ICORELEVEL">     0</i>
  <i type="logical" name="LDAU"> F  </i>
  <i type="int" name="I_CONSTRAINED_M">     0</i>
  <separator name="electronic exchange-correlation" >
   <i type="string" name="GGA">--</i>
   <i type="int" name="VOSKOWN">     0</i>
   <i type="logical" name="LHFCALC"> F  </i>
   <i type="string" name="PRECFOCK"></i>
   <i type="logical" name="LSYMGRAD"> F  </i>
   <i type="logical" name="LHFONE"> F  </i>
   <i type="logical" name="LRHFCALC"> F  </i>
   <i type="logical" name="LTHOMAS"> F  </i>
   <i type="logical" name="LMODELHF"> F  </i>
   <i type="logical" name="LFOCKACE"> F  </i>
   <i name="ENCUT4O">     -1.00000000</i>
   <i type="int" name="EXXOEP">     0</i>
   <i type="int" name="FOURORBIT">     0</i>
   <i name="AEXX">      0.00000000</i>
   <i name="HFALPHA">      0.00000000</i>
   <i name="MCALPHA">      0.00000000</i>
   <i name="ALDAX">      1.00000000</i>
   <i name="AGGAX">      1.00000000</i>
   <i name="ALDAC">      1.00000000</i>
   <i name="AGGAC">      1.00000000</i>
   <i type="int" name="NKREDX">     1</i>
   <i type="int" name="NKREDY">     1</i>
   <i type="int" name="NKREDZ">     1</i>
   <i type="logical" name="SHIFTRED"> F  </i>
   <i type="logical" name="ODDONLY"> F  </i>
   <i type="logical" name="EVENONLY"> F  </i>
   <i type="int" name="LMAXFOCK">     0</i>
   <i type="int" name="NMAXFOCKAE">     0</i>
   <i type="logical" name="LFOCKAEDFT"> F  </i>
   <i name="HFSCREEN">      0.00000000</i>
   <i name="HFSCREENC">      0.00000000</i>
   <i type="int" name="NBANDSGWLOW">     0</i>
  </separator>
  <separator name="vdW DFT" >
   <i type="logical" name="LUSE_VDW"> F  </i>
   <i name="Zab_VDW">     -0.84910000</i>
   <i name="PARAM1">      0.12340000</i>
   <i name="PARAM2">      1.00000000</i>
   <i name="PARAM3">      0.00000000</i>
  </separator>
  <separator name="model GW" >
   <i type="int" name="MODEL_GW">     0</i>
   <i name="MODEL_EPS0">      9.38613472</i>
   <i name="MODEL_ALPHA">      1.00000000</i>
  </separator>
  <separator name="linear response parameters" >
   <i type="logical" name="LEPSILON"> F  </i>
   <i type="logical" name="LRPA"> F  </i>
   <i type="logical" name="LNABLA"> F  </i>
   <i type="logical" name="LVEL"> F  </i>
   <i type="int" name="KINTER">     0</i>
   <i name="CSHIFT">      0.10000000</i>
   <i name="OMEGAMAX">     -1.00000000</i>
   <i name="DEG_THRESHOLD">      0.00200000</i>
   <i name="RTIME">     -0.10000000</i>
   <i name="WPLASMAI">      0.00000000</i>
   <v name="DFIELD">      0.00000000      0.00000000      0.00000000</v>
   <v name="WPLASMA">      0.00000000      0.00000000      0.00000000      0.00000000      0.00000000      0.00000000      0.00000000      0.00000000      0.00000000</v>
  </separator>
  <separator name="orbital magnetization" >
   <i type="logical" name="NUCIND"> F  </i>
   <v name="MAGPOS">      0.00000000      0.00000000      0.00000000</v>
   <i type="logical" name="LNICSALL"> T  </i>
   <i type="logical" name="ORBITALMAG"> F  </i>
   <i type="logical" name="LMAGBLOCH"> F  </i>
   <i type="logical" name="LCHIMAG"> F  </i>
   <i type="logical" name="LGAUGE"> T  </i>
   <i type="int" name="MAGATOM">     0</i>
   <v name="MAGDIPOL">      0.00000000      0.00000000      0.00000000</v>
   <v name="AVECCONST">      0.00000000      0.00000000      0.00000000</v>
  </separator>
  <separator name="response functions" >
   <i type="logical" name="LFINITE_TEMPERATURE"> F  </i>
   <i type="logical" name="LADDER"> F  </i>
   <i type="logical" name="LRPAFORCE"> F  </i>
   <i type="logical" name="LFXC"> F  </i>
   <i type="logical" name="LHARTREE"> T  </i>
   <i type="int" name="IBSE">     0</i>
   <v type="int" name="KPOINT">    -1     0     0     0</v>
   <i type="logical" name="LTCTC"> F  </i>
   <i type="logical" name="LTCTE"> F  </i>
   <i type="logical" name="LTETE"> F  </i>
   <i type="logical" name="LTRIPLET"> F  </i>
   <i type="logical" name="LFXCEPS"> F  </i>
   <i type="logical" name="LFXHEG"> F  </i>
   <i type="int" name="NATURALO">     2</i>
   <i type="logical" name="LHOLEGF"> F  </i>
   <i type="logical" name="L2ORDER"> F  </i>
   <i type="logical" name="LDMP1"> F  </i>
   <i type="logical" name="LMP2LT"> F  </i>
   <i type="logical" name="LSMP2LT"> F  </i>
   <i type="logical" name="LGWLF"> F  </i>
   <i name="ENCUTGW">     -2.00000000</i>
   <i name="ENCUTGWSOFT">     -2.00000000</i>
   <i name="ENCUTLF">     -1.00000000</i>
   <i type="logical" name="LESF_SPLINES"> F  </i>
   <i type="int" name="LMAXMP2">    -1</i>
   <i name="SCISSOR">      0.00000000</i>
   <i type="int" name="NOMEGA">     0</i>
   <i type="int" name="NOMEGAR">     0</i>
   <i type="int" name="NBANDSGW">    -1</i>
   <i type="int" name="NBANDSO">    -1</i>
   <i type="int" name="NBANDSV">    -1</i>
   <i type="int" name="NELM">     1</i>
   <i type="int" name="NELMHF">     1</i>
   <i type="int" name="DIM">     3</i>
   <i type="int" name="IESPILON">     4</i>
   <i type="int" name="ANTIRES">     0</i>
   <i name="OMEGAMAX">    -30.00000000</i>
   <i name="OMEGAMIN">    -30.00000000</i>
   <i name="OMEGATL">   -200.00000000</i>
   <i type="int" name="OMEGAGRID">     0</i>
   <i name="CSHIFT">     -0.10000000</i>
   <i type="logical" name="LSELFENERGY"> F  </i>
   <i type="logical" name="LSPECTRAL"> F  </i>
   <i type="logical" name="LSPECTRALGW"> F  </i>
   <i type="logical" name="LSINGLES"> F  </i>
   <i type="logical" name="LFERMIGW"> F  </i>
   <i type="logical" name="ODDONLYGW"> F  </i>
   <i type="logical" name="EVENONLYGW"> F  </i>
   <i type="int" name="NKREDLFX">     1</i>
   <i type="int" name="NKREDLFY">     1</i>
   <i type="int" name="NKREDLFZ">     1</i>
   <i type="int" name="MAXMEM">  2800</i>
   <i type="int" name="TELESCOPE">     0</i>
   <i type="int" name="NTAUPAR">    -1</i>
   <i type="int" name="NOMEGAPAR">    -1</i>
   <i name="DAMP_NEWTON">      0.80000001</i>
   <i name="LAMBDA">      1.00000000</i>
  </separator>
  <separator name="External order field" >
   <i name="OFIELD_KAPPA">      0.00000000</i>
   <v name="OFIELD_K">      0.00000000      0.00000000      0.00000000</v>
   <i name="OFIELD_Q6_NEAR">      0.00000000</i>
   <i name="OFIELD_Q6_FAR">      0.00000000</i>
   <i name="OFIELD_A">      0.00000000</i>
  </separator>
 </parameters>
 <atominfo>
  <atoms>     508 </atoms>
  <types>       2 </types>
  <array name="atoms" >
   <dimension dim="1">ion</dimension>
   <field type="string">element</field>
   <field type="int">atomtype</field>
   <set>
    <rc><c>Ni</c><c>   1</c></rc>
    <rc><c>Ni</c><c>   1</c></rc>
    <rc><c>Ni</c><c>   1</c></rc>
    <rc><c>Ni</c><c>   1</c></rc>
    <rc><c>Ni</c><c>   1</c></rc>
    <rc><c>Ni</c><c>   1</c></rc>
    <rc><c>Ni</c><c>   1</c></rc>
    <rc><c>Ni</c><c>   1</c></rc>
    <rc><c>Ni</c><c>   1</c></rc>
    <rc><c>Ni</c><c>   1</c></rc>
    <rc><c>Ni</c><c>   1</c></rc>
    <rc><c>Ni</c><c>   1</c></rc>
    <rc><c>Ni</c><c>   1</c></rc>
    <rc><c>Ni</c><c>   1</c></rc>
    <rc><c>Ni</c><c>   1</c></rc>
    <rc><c>Ni</c><c>   1</c></rc>
    <rc><c>Ni</c><c>   1</c></rc>
    <rc><c>Ni</c><c>   1</c></rc>
    <rc><c>Ni</c><c>   1</c></rc>
    <rc><c>Ni</c><c>   1</c></rc>
    <rc><c>Ni</c><c>   1</c></rc>
    <rc><c>Ni</c><c>   1</c></rc>
    <rc><c>Ni</c><c>   1</c></rc>
    <rc><c>Ni</c><c>   1</c></rc>
    <rc><c>Ni</c><c>   1</c></rc>
    <rc><c>Ni</c><c>   1</c></rc>
    <rc><c>Ni</c><c>   1</c></rc>
    <rc><c>Ni</c><c>   1</c></rc>
    <rc><c>Ni</c><c>   1</c></rc>
    <rc><c>Ni</c><c>   1</c></rc>
    <rc><c>Ni</c><c>   1</c></rc>
    <rc><c>Ni</c><c>   1</c></rc>
    <rc><c>Ni</c><c>   1</c></rc>
    <rc><c>Ni</c><c>   1</c></rc>
    <rc><c>Ni</c><c>   1</c></rc>
    <rc><c>Ni</c><c>   1</c></rc>
    <rc><c>Ni</c><c>   1</c></rc>
    <rc><c>Ni</c><c>   1</c></rc>
    <rc><c>Ni</c><c>   1</c></rc>
    <rc><c>Ni</c><c>   1</c></rc>
    <rc><c>Ni</c><c>   1</c></rc>
    <rc><c>Ni</c><c>   1</c></rc>
    <rc><c>Ni</c><c>   1</c></rc>
    <rc><c>Ni</c><c>   1</c></rc>
    <rc><c>Ni</c><c>   1</c></rc>
    <rc><c>Ni</c><c>   1</c></rc>
    <rc><c>Ni</c><c>   1</c></rc>
    <rc><c>Ni</c><c>   1</c></rc>
    <rc><c>Ni</c><c>   1</c></rc>
    <rc><c>Ni</c><c>   1</c></rc>
    <rc><c>Ni</c><c>   1</c></rc>
    <rc><c>Ni</c><c>   1</c></rc>
    <rc><c>Ni</c><c>   1</c></rc>
    <rc><c>Ni</c><c>   1</c></rc>
    <rc><c>Ni</c><c>   1</c></rc>
    <rc><c>Ni</c><c>   1</c></rc>
    <rc><c>Ni</c><c>   1</c></rc>
    <rc><c>Ni</c><c>   1</c></rc>
    <rc><c>Ni</c><c>   1</c></rc>
    <rc><c>Ni</c><c>   1</c></rc>
    <rc><c>Ni</c><c>   1</c></rc>
    <rc><c>Ni</c><c>   1</c></rc>
    <rc><c>Ni</c><c>   1</c></rc>
    <rc><c>Ni</c><c>   1</c></rc>
    <rc><c>Ni</c><c>   1</c></rc>
    <rc><c>Ni</c><c>   1</c></rc>
    <rc><c>Ni</c><c>   1</c></rc>
    <rc><c>Ni</c><c>   1</c></rc>
    <rc><c>Ni</c><c>   1</c></rc>
    <rc><c>Ni</c><c>   1</c></rc>
    <rc><c>Ni</c><c>   1</c></rc>
    <rc><c>Ni</c><c>   1</c></rc>
    <rc><c>Ni</c><c>   1</c></rc>
    <rc><c>Ni</c><c>   1</c></rc>
    <rc><c>Ni</c><c>   1</c></rc>
    <rc><c>Ni</c><c>   1</c></rc>
    <rc><c>Ni</c><c>   1</c></rc>
    <rc><c>Ni</c><c>   1</c></rc>
    <rc><c>Ni</c><c>   1</c></rc>
    <rc><c>Ni</c><c>   1</c></rc>
    <rc><c>Ni</c><c>   1</c></rc>
    <rc><c>Ni</c><c>   1</c></rc>
    <rc><c>Ni</c><c>   1</c></rc>
    <rc><c>Ni</c><c>   1</c></rc>
    <rc><c>Ni</c><c>   1</c></rc>
    <rc><c>Ni</c><c>   1</c></rc>
    <rc><c>Ni</c><c>   1</c></rc>
    <rc><c>Ni</c><c>   1</c></rc>
    <rc><c>Ni</c><c>   1</c></rc>
    <rc><c>Ni</c><c>   1</c></rc>
    <rc><c>Ni</c><c>   1</c></rc>
    <rc><c>Ni</c><c>   1</c></rc>
    <rc><c>Ni</c><c>   1</c></rc>
    <rc><c>Ni</c><c>   1</c></rc>
    <rc><c>Ni</c><c>   1</c></rc>
    <rc><c>Ni</c><c>   1</c></rc>
    <rc><c>Ni</c><c>   1</c></rc>
    <rc><c>Ni</c><c>   1</c></rc>
    <rc><c>Ni</c><c>   1</c></rc>
    <rc><c>Ni</c><c>   1</c></rc>
    <rc><c>Ni</c><c>   1</c></rc>
    <rc><c>Ni</c><c>   1</c></rc>
    <rc><c>Ni</c><c>   1</c></rc>
    <rc><c>Ni</c><c>   1</c></rc>
    <rc><c>Ni</c><c>   1</c></rc>
    <rc><c>Ni</c><c>   1</c></rc>
    <rc><c>Ni</c><c>   1</c></rc>
    <rc><c>Ni</c><c>   1</c></rc>
    <rc><c>Ni</c><c>   1</c></rc>
    <rc><c>Ni</c><c>   1</c></rc>
    <rc><c>Ni</c><c>   1</c></rc>
    <rc><c>Ni</c><c>   1</c></rc>
    <rc><c>Ni</c><c>   1</c></rc>
    <rc><c>Ni</c><c>   1</c></rc>
    <rc><c>Ni</c><c>   1</c></rc>
    <rc><c>Ni</c><c>   1</c></rc>
    <rc><c>Ni</c><c>   1</c></rc>
    <rc><c>Ni</c><c>   1</c></rc>
    <rc><c>Ni</c><c>   1</c></rc>
    <rc><c>Ni</c><c>   1</c></rc>
    <rc><c>Ni</c><c>   1</c></rc>
    <rc><c>Ni</c><c>   1</c></rc>
    <rc><c>Ni</c><c>   1</c></rc>
    <rc><c>Ni</c><c>   1</c></rc>
    <rc><c>Ni</c><c>   1</c></rc>
    <rc><c>Ni</c><c>   1</c></rc>
    <rc><c>Ni</c><c>   1</c></rc>
    <rc><c>Ni</c><c>   1</c></rc>
    <rc><c>Ni</c><c>   1</c></rc>
    <rc><c>Ni</c><c>   1</c></rc>
    <rc><c>Ni</c><c>   1</c></rc>
    <rc><c>Ni</c><c>   1</c></rc>
    <rc><c>Ni</c><c>   1</c></rc>
    <rc><c>Ni</c><c>   1</c></rc>
    <rc><c>Ni</c><c>   1</c></rc>
    <rc><c>Ni</c><c>   1</c></rc>
    <rc><c>Ni</c><c>   1</c></rc>
    <rc><c>Ni</c><c>   1</c></rc>
    <rc><c>Ni</c><c>   1</c></rc>
    <rc><c>Ni</c><c>   1</c></rc>
    <rc><c>Ni</c><c>   1</c></rc>
    <rc><c>Ni</c><c>   1</c></rc>
    <rc><c>Ni</c><c>   1</c></rc>
    <rc><c>Ni</c><c>   1</c></rc>
    <rc><c>Ni</c><c>   1</c></rc>
    <rc><c>Ni</c><c>   1</c></rc>
    <rc><c>Ni</c><c>   1</c></rc>
    <rc><c>Ni</c><c>   1</c></rc>
    <rc><c>Ni</c><c>   1</c></rc>
    <rc><c>Ni</c><c>   1</c></rc>
    <rc><c>Ni</c><c>   1</c></rc>
    <rc><c>Ni</c><c>   1</c></rc>
    <rc><c>Ni</c><c>   1</c></rc>
    <rc><c>Ni</c><c>   1</c></rc>
    <rc><c>Ni</c><c>   1</c></rc>
    <rc><c>Ni</c><c>   1</c></rc>
    <rc><c>Ni</c><c>   1</c></rc>
    <rc><c>Ni</c><c>   1</c></rc>
    <rc><c>Ni</c><c>   1</c></rc>
    <rc><c>Ni</c><c>   1</c></rc>
    <rc><c>Ni</c><c>   1</c></rc>
    <rc><c>Ni</c><c>   1</c></rc>
    <rc><c>Ni</c><c>   1</c></rc>
    <rc><c>Ni</c><c>   1</c></rc>
    <rc><c>Ni</c><c>   1</c></rc>
    <rc><c>Ni</c><c>   1</c></rc>
    <rc><c>Ni</c><c>   1</c></rc>
    <rc><c>Ni</c><c>   1</c></rc>
    <rc><c>Ni</c><c>   1</c></rc>
    <rc><c>Ni</c><c>   1</c></rc>
    <rc><c>Ni</c><c>   1</c></rc>
    <rc><c>Ni</c><c>   1</c></rc>
    <rc><c>Ni</c><c>   1</c></rc>
    <rc><c>Ni</c><c>   1</c></rc>
    <rc><c>Ni</c><c>   1</c></rc>
    <rc><c>Ni</c><c>   1</c></rc>
    <rc><c>Ni</c><c>   1</c></rc>
    <rc><c>Ni</c><c>   1</c></rc>
    <rc><c>Ni</c><c>   1</c></rc>
    <rc><c>Ni</c><c>   1</c></rc>
    <rc><c>Ni</c><c>   1</c></rc>
    <rc><c>Ni</c><c>   1</c></rc>
    <rc><c>Ni</c><c>   1</c></rc>
    <rc><c>Ni</c><c>   1</c></rc>
    <rc><c>Ni</c><c>   1</c></rc>
    <rc><c>Ni</c><c>   1</c></rc>
    <rc><c>Ni</c><c>   1</c></rc>
    <rc><c>Ni</c><c>   1</c></rc>
    <rc><c>Ni</c><c>   1</c></rc>
    <rc><c>Ni</c><c>   1</c></rc>
    <rc><c>Ni</c><c>   1</c></rc>
    <rc><c>Ni</c><c>   1</c></rc>
    <rc><c>Ni</c><c>   1</c></rc>
    <rc><c>Ni</c><c>   1</c></rc>
    <rc><c>Ni</c><c>   1</c></rc>
    <rc><c>Ni</c><c>   1</c></rc>
    <rc><c>Ni</c><c>   1</c></rc>
    <rc><c>Ni</c><c>   1</c></rc>
    <rc><c>Ni</c><c>   1</c></rc>
    <rc><c>Ni</c><c>   1</c></rc>
    <rc><c>Ni</c><c>   1</c></rc>
    <rc><c>Ni</c><c>   1</c></rc>
    <rc><c>Ni</c><c>   1</c></rc>
    <rc><c>Ni</c><c>   1</c></rc>
    <rc><c>Ni</c><c>   1</c></rc>
    <rc><c>Ni</c><c>   1</c></rc>
    <rc><c>Ni</c><c>   1</c></rc>
    <rc><c>Ni</c><c>   1</c></rc>
    <rc><c>Ni</c><c>   1</c></rc>
    <rc><c>Ni</c><c>   1</c></rc>
    <rc><c>Ni</c><c>   1</c></rc>
    <rc><c>Ni</c><c>   1</c></rc>
    <rc><c>Ni</c><c>   1</c></rc>
    <rc><c>Ni</c><c>   1</c></rc>
    <rc><c>Ni</c><c>   1</c></rc>
    <rc><c>Ni</c><c>   1</c></rc>
    <rc><c>Ni</c><c>   1</c></rc>
    <rc><c>Ni</c><c>   1</c></rc>
    <rc><c>Ni</c><c>   1</c></rc>
    <rc><c>Ni</c><c>   1</c></rc>
    <rc><c>Ni</c><c>   1</c></rc>
    <rc><c>Ni</c><c>   1</c></rc>
    <rc><c>Ni</c><c>   1</c></rc>
    <rc><c>Ni</c><c>   1</c></rc>
    <rc><c>Ni</c><c>   1</c></rc>
    <rc><c>Ni</c><c>   1</c></rc>
    <rc><c>Ni</c><c>   1</c></rc>
    <rc><c>Ni</c><c>   1</c></rc>
    <rc><c>Ni</c><c>   1</c></rc>
    <rc><c>Ni</c><c>   1</c></rc>
    <rc><c>Ni</c><c>   1</c></rc>
    <rc><c>Ni</c><c>   1</c></rc>
    <rc><c>Ni</c><c>   1</c></rc>
    <rc><c>Ni</c><c>   1</c></rc>
    <rc><c>Ni</c><c>   1</c></rc>
    <rc><c>Ni</c><c>   1</c></rc>
    <rc><c>Ni</c><c>   1</c></rc>
    <rc><c>Ni</c><c>   1</c></rc>
    <rc><c>Ni</c><c>   1</c></rc>
    <rc><c>Ni</c><c>   1</c></rc>
    <rc><c>Ni</c><c>   1</c></rc>
    <rc><c>Ni</c><c>   1</c></rc>
    <rc><c>Ni</c><c>   1</c></rc>
    <rc><c>Ni</c><c>   1</c></rc>
    <rc><c>Ni</c><c>   1</c></rc>
    <rc><c>Ni</c><c>   1</c></rc>
    <rc><c>Ni</c><c>   1</c></rc>
    <rc><c>Ni</c><c>   1</c></rc>
    <rc><c>Ni</c><c>   1</c></rc>
    <rc><c>Ni</c><c>   1</c></rc>
    <rc><c>Ni</c><c>   1</c></rc>
    <rc><c>Ni</c><c>   1</c></rc>
    <rc><c>O </c><c>   2</c></rc>
    <rc><c>O </c><c>   2</c></rc>
    <rc><c>O </c><c>   2</c></rc>
    <rc><c>O </c><c>   2</c></rc>
    <rc><c>O </c><c>   2</c></rc>
    <rc><c>O </c><c>   2</c></rc>
    <rc><c>O </c><c>   2</c></rc>
    <rc><c>O </c><c>   2</c></rc>
    <rc><c>O </c><c>   2</c></rc>
    <rc><c>O </c><c>   2</c></rc>
    <rc><c>O </c><c>   2</c></rc>
    <rc><c>O </c><c>   2</c></rc>
    <rc><c>O </c><c>   2</c></rc>
    <rc><c>O </c><c>   2</c></rc>
    <rc><c>O </c><c>   2</c></rc>
    <rc><c>O </c><c>   2</c></rc>
    <rc><c>O </c><c>   2</c></rc>
    <rc><c>O </c><c>   2</c></rc>
    <rc><c>O </c><c>   2</c></rc>
    <rc><c>O </c><c>   2</c></rc>
    <rc><c>O </c><c>   2</c></rc>
    <rc><c>O </c><c>   2</c></rc>
    <rc><c>O </c><c>   2</c></rc>
    <rc><c>O </c><c>   2</c></rc>
    <rc><c>O </c><c>   2</c></rc>
    <rc><c>O </c><c>   2</c></rc>
    <rc><c>O </c><c>   2</c></rc>
    <rc><c>O </c><c>   2</c></rc>
    <rc><c>O </c><c>   2</c></rc>
    <rc><c>O </c><c>   2</c></rc>
    <rc><c>O </c><c>   2</c></rc>
    <rc><c>O </c><c>   2</c></rc>
    <rc><c>O </c><c>   2</c></rc>
    <rc><c>O </c><c>   2</c></rc>
    <rc><c>O </c><c>   2</c></rc>
    <rc><c>O </c><c>   2</c></rc>
    <rc><c>O </c><c>   2</c></rc>
    <rc><c>O </c><c>   2</c></rc>
    <rc><c>O </c><c>   2</c></rc>
    <rc><c>O </c><c>   2</c></rc>
    <rc><c>O </c><c>   2</c></rc>
    <rc><c>O </c><c>   2</c></rc>
    <rc><c>O </c><c>   2</c></rc>
    <rc><c>O </c><c>   2</c></rc>
    <rc><c>O </c><c>   2</c></rc>
    <rc><c>O </c><c>   2</c></rc>
    <rc><c>O </c><c>   2</c></rc>
    <rc><c>O </c><c>   2</c></rc>
    <rc><c>O </c><c>   2</c></rc>
    <rc><c>O </c><c>   2</c></rc>
    <rc><c>O </c><c>   2</c></rc>
    <rc><c>O </c><c>   2</c></rc>
    <rc><c>O </c><c>   2</c></rc>
    <rc><c>O </c><c>   2</c></rc>
    <rc><c>O </c><c>   2</c></rc>
    <rc><c>O </c><c>   2</c></rc>
    <rc><c>O </c><c>   2</c></rc>
    <rc><c>O </c><c>   2</c></rc>
    <rc><c>O </c><c>   2</c></rc>
    <rc><c>O </c><c>   2</c></rc>
    <rc><c>O </c><c>   2</c></rc>
    <rc><c>O </c><c>   2</c></rc>
    <rc><c>O </c><c>   2</c></rc>
    <rc><c>O </c><c>   2</c></rc>
    <rc><c>O </c><c>   2</c></rc>
    <rc><c>O </c><c>   2</c></rc>
    <rc><c>O </c><c>   2</c></rc>
    <rc><c>O </c><c>   2</c></rc>
    <rc><c>O </c><c>   2</c></rc>
    <rc><c>O </c><c>   2</c></rc>
    <rc><c>O </c><c>   2</c></rc>
    <rc><c>O </c><c>   2</c></rc>
    <rc><c>O </c><c>   2</c></rc>
    <rc><c>O </c><c>   2</c></rc>
    <rc><c>O </c><c>   2</c></rc>
    <rc><c>O </c><c>   2</c></rc>
    <rc><c>O </c><c>   2</c></rc>
    <rc><c>O </c><c>   2</c></rc>
    <rc><c>O </c><c>   2</c></rc>
    <rc><c>O </c><c>   2</c></rc>
    <rc><c>O </c><c>   2</c></rc>
    <rc><c>O </c><c>   2</c></rc>
    <rc><c>O </c><c>   2</c></rc>
    <rc><c>O </c><c>   2</c></rc>
    <rc><c>O </c><c>   2</c></rc>
    <rc><c>O </c><c>   2</c></rc>
    <rc><c>O </c><c>   2</c></rc>
    <rc><c>O </c><c>   2</c></rc>
    <rc><c>O </c><c>   2</c></rc>
    <rc><c>O </c><c>   2</c></rc>
    <rc><c>O </c><c>   2</c></rc>
    <rc><c>O </c><c>   2</c></rc>
    <rc><c>O </c><c>   2</c></rc>
    <rc><c>O </c><c>   2</c></rc>
    <rc><c>O </c><c>   2</c></rc>
    <rc><c>O </c><c>   2</c></rc>
    <rc><c>O </c><c>   2</c></rc>
    <rc><c>O </c><c>   2</c></rc>
    <rc><c>O </c><c>   2</c></rc>
    <rc><c>O </c><c>   2</c></rc>
    <rc><c>O </c><c>   2</c></rc>
    <rc><c>O </c><c>   2</c></rc>
    <rc><c>O </c><c>   2</c></rc>
    <rc><c>O </c><c>   2</c></rc>
    <rc><c>O </c><c>   2</c></rc>
    <rc><c>O </c><c>   2</c></rc>
    <rc><c>O </c><c>   2</c></rc>
    <rc><c>O </c><c>   2</c></rc>
    <rc><c>O </c><c>   2</c></rc>
    <rc><c>O </c><c>   2</c></rc>
    <rc><c>O </c><c>   2</c></rc>
    <rc><c>O </c><c>   2</c></rc>
    <rc><c>O </c><c>   2</c></rc>
    <rc><c>O </c><c>   2</c></rc>
    <rc><c>O </c><c>   2</c></rc>
    <rc><c>O </c><c>   2</c></rc>
    <rc><c>O </c><c>   2</c></rc>
    <rc><c>O </c><c>   2</c></rc>
    <rc><c>O </c><c>   2</c></rc>
    <rc><c>O </c><c>   2</c></rc>
    <rc><c>O </c><c>   2</c></rc>
    <rc><c>O </c><c>   2</c></rc>
    <rc><c>O </c><c>   2</c></rc>
    <rc><c>O </c><c>   2</c></rc>
    <rc><c>O </c><c>   2</c></rc>
    <rc><c>O </c><c>   2</c></rc>
    <rc><c>O </c><c>   2</c></rc>
    <rc><c>O </c><c>   2</c></rc>
    <rc><c>O </c><c>   2</c></rc>
    <rc><c>O </c><c>   2</c></rc>
    <rc><c>O </c><c>   2</c></rc>
    <rc><c>O </c><c>   2</c></rc>
    <rc><c>O </c><c>   2</c></rc>
    <rc><c>O </c><c>   2</c></rc>
    <rc><c>O </c><c>   2</c></rc>
    <rc><c>O </c><c>   2</c></rc>
    <rc><c>O </c><c>   2</c></rc>
    <rc><c>O </c><c>   2</c></rc>
    <rc><c>O </c><c>   2</c></rc>
    <rc><c>O </c><c>   2</c></rc>
    <rc><c>O </c><c>   2</c></rc>
    <rc><c>O </c><c>   2</c></rc>
    <rc><c>O </c><c>   2</c></rc>
    <rc><c>O </c><c>   2</c></rc>
    <rc><c>O </c><c>   2</c></rc>
    <rc><c>O </c><c>   2</c></rc>
    <rc><c>O </c><c>   2</c></rc>
    <rc><c>O </c><c>   2</c></rc>
    <rc><c>O </c><c>   2</c></rc>
    <rc><c>O </c><c>   2</c></rc>
    <rc><c>O </c><c>   2</c></rc>
    <rc><c>O </c><c>   2</c></rc>
    <rc><c>O </c><c>   2</c></rc>
    <rc><c>O </c><c>   2</c></rc>
    <rc><c>O </c><c>   2</c></rc>
    <rc><c>O </c><c>   2</c></rc>
    <rc><c>O </c><c>   2</c></rc>
    <rc><c>O </c><c>   2</c></rc>
    <rc><c>O </c><c>   2</c></rc>
    <rc><c>O </c><c>   2</c></rc>
    <rc><c>O </c><c>   2</c></rc>
    <rc><c>O </c><c>   2</c></rc>
    <rc><c>O </c><c>   2</c></rc>
    <rc><c>O </c><c>   2</c></rc>
    <rc><c>O </c><c>   2</c></rc>
    <rc><c>O </c><c>   2</c></rc>
    <rc><c>O </c><c>   2</c></rc>
    <rc><c>O </c><c>   2</c></rc>
    <rc><c>O </c><c>   2</c></rc>
    <rc><c>O </c><c>   2</c></rc>
    <rc><c>O </c><c>   2</c></rc>
    <rc><c>O </c><c>   2</c></rc>
    <rc><c>O </c><c>   2</c></rc>
    <rc><c>O </c><c>   2</c></rc>
    <rc><c>O </c><c>   2</c></rc>
    <rc><c>O </c><c>   2</c></rc>
    <rc><c>O </c><c>   2</c></rc>
    <rc><c>O </c><c>   2</c></rc>
    <rc><c>O </c><c>   2</c></rc>
    <rc><c>O </c><c>   2</c></rc>
    <rc><c>O </c><c>   2</c></rc>
    <rc><c>O </c><c>   2</c></rc>
    <rc><c>O </c><c>   2</c></rc>
    <rc><c>O </c><c>   2</c></rc>
    <rc><c>O </c><c>   2</c></rc>
    <rc><c>O </c><c>   2</c></rc>
    <rc><c>O </c><c>   2</c></rc>
    <rc><c>O </c><c>   2</c></rc>
    <rc><c>O </c><c>   2</c></rc>
    <rc><c>O </c><c>   2</c></rc>
    <rc><c>O </c><c>   2</c></rc>
    <rc><c>O </c><c>   2</c></rc>
    <rc><c>O </c><c>   2</c></rc>
    <rc><c>O </c><c>   2</c></rc>
    <rc><c>O </c><c>   2</c></rc>
    <rc><c>O </c><c>   2</c></rc>
    <rc><c>O </c><c>   2</c></rc>
    <rc><c>O </c><c>   2</c></rc>
    <rc><c>O </c><c>   2</c></rc>
    <rc><c>O </c><c>   2</c></rc>
    <rc><c>O </c><c>   2</c></rc>
    <rc><c>O </c><c>   2</c></rc>
    <rc><c>O </c><c>   2</c></rc>
    <rc><c>O </c><c>   2</c></rc>
    <rc><c>O </c><c>   2</c></rc>
    <rc><c>O </c><c>   2</c></rc>
    <rc><c>O </c><c>   2</c></rc>
    <rc><c>O </c><c>   2</c></rc>
    <rc><c>O </c><c>   2</c></rc>
    <rc><c>O </c><c>   2</c></rc>
    <rc><c>O </c><c>   2</c></rc>
    <rc><c>O </c><c>   2</c></rc>
    <rc><c>O </c><c>   2</c></rc>
    <rc><c>O </c><c>   2</c></rc>
    <rc><c>O </c><c>   2</c></rc>
    <rc><c>O </c><c>   2</c></rc>
    <rc><c>O </c><c>   2</c></rc>
    <rc><c>O </c><c>   2</c></rc>
    <rc><c>O </c><c>   2</c></rc>
    <rc><c>O </c><c>   2</c></rc>
    <rc><c>O </c><c>   2</c></rc>
    <rc><c>O </c><c>   2</c></rc>
    <rc><c>O </c><c>   2</c></rc>
    <rc><c>O </c><c>   2</c></rc>
    <rc><c>O </c><c>   2</c></rc>
    <rc><c>O </c><c>   2</c></rc>
    <rc><c>O </c><c>   2</c></rc>
    <rc><c>O </c><c>   2</c></rc>
    <rc><c>O </c><c>   2</c></rc>
    <rc><c>O </c><c>   2</c></rc>
    <rc><c>O </c><c>   2</c></rc>
    <rc><c>O </c><c>   2</c></rc>
    <rc><c>O </c><c>   2</c></rc>
    <rc><c>O </c><c>   2</c></rc>
    <rc><c>O </c><c>   2</c></rc>
    <rc><c>O </c><c>   2</c></rc>
    <rc><c>O </c><c>   2</c></rc>
    <rc><c>O </c><c>   2</c></rc>
    <rc><c>O </c><c>   2</c></rc>
    <rc><c>O </c><c>   2</c></rc>
    <rc><c>O </c><c>   2</c></rc>
    <rc><c>O </c><c>   2</c></rc>
    <rc><c>O </c><c>   2</c></rc>
    <rc><c>O </c><c>   2</c></rc>
    <rc><c>O </c><c>   2</c></rc>
    <rc><c>O </c><c>   2</c></rc>
    <rc><c>O </c><c>   2</c></rc>
    <rc><c>O </c><c>   2</c></rc>
    <rc><c>O </c><c>   2</c></rc>
    <rc><c>O </c><c>   2</c></rc>
    <rc><c>O </c><c>   2</c></rc>
    <rc><c>O </c><c>   2</c></rc>
    <rc><c>O </c><c>   2</c></rc>
    <rc><c>O </c><c>   2</c></rc>
    <rc><c>O </c><c>   2</c></rc>
    <rc><c>O </c><c>   2</c></rc>
   </set>
  </array>
  <array name="atomtypes" >
   <dimension dim="1">type</dimension>
   <field type="int">atomspertype</field>
   <field type="string">element</field>
   <field>mass</field>
   <field>valence</field>
   <field type="string">pseudopotential</field>
   <set>
    <rc><c> 252</c><c>Ni</c><c>     58.69000000</c><c>     10.00000000</c><c>  PAW Ni_GW 31Mar2010                   </c></rc>
    <rc><c> 256</c><c>O </c><c>     16.00000000</c><c>      6.00000000</c><c>  PAW O_GW 19Mar2012                    </c></rc>
   </set>
  </array>
 </atominfo>
 <structure name="initialpos" >
  <crystal>
   <varray name="basis" >
    <v>      15.14622176       0.00000000       0.00000000 </v>
    <v>       7.57311088      13.11701281       0.00000000 </v>
    <v>       0.00000000       0.00000000      40.00000000 </v>
   </varray>
   <i name="volume">   7946.92739604 </i>
   <varray name="rec_basis" >
    <v>       0.06602307      -0.03811843       0.00000000 </v>
    <v>       0.00000000       0.07623687       0.00000000 </v>
    <v>       0.00000000       0.00000000       0.02500000 </v>
   </varray>
  </crystal>
  <varray name="positions" >
   <v>       0.44444444       0.44444444       0.05641000 </v>
   <v>       0.44444444       0.77777778       0.05641000 </v>
   <v>       0.44444444       0.11111111       0.05641000 </v>
   <v>       0.77777778       0.44444444       0.05641000 </v>
   <v>       0.77777778       0.77777778       0.05641000 </v>
   <v>       0.77777778       0.11111111       0.05641000 </v>
   <v>       0.11111111       0.44444444       0.05641000 </v>
   <v>       0.11111111       0.77777778       0.05641000 </v>
   <v>       0.11111111       0.11111111       0.05641000 </v>
   <v>       0.55555556       0.55555556       0.11363480 </v>
   <v>       0.55555556       0.88888889       0.11363480 </v>
   <v>       0.55555556       0.22222222       0.11363480 </v>
   <v>       0.88888889       0.55555556       0.11363480 </v>
   <v>       0.88888889       0.88888889       0.11363480 </v>
   <v>       0.88888889       0.22222222       0.11363480 </v>
   <v>       0.22222222       0.55555556       0.11363480 </v>
   <v>       0.22222222       0.88888889       0.11363480 </v>
   <v>       0.22222222       0.22222222       0.11363480 </v>
   <v>       0.66666667       0.66666667       0.16901098 </v>
   <v>       0.66666667       0.00000000       0.16901098 </v>
   <v>       0.66666667       0.33333333       0.16901098 </v>
   <v>       0.00000000       0.66666667       0.16901098 </v>
   <v>       0.00000000       0.00000000       0.16901098 </v>
   <v>       0.00000000       0.33333333       0.16901098 </v>
   <v>       0.33333333       0.66666667       0.16901098 </v>
   <v>       0.33333333       0.00000000       0.16901098 </v>
   <v>       0.33333333       0.33333333       0.16901098 </v>
   <v>       0.77777778       0.77777778       0.22600473 </v>
   <v>       0.77777778       0.11111111       0.22600473 </v>
   <v>       0.77777778       0.44444444       0.22600473 </v>
   <v>       0.11111111       0.77777778       0.22600473 </v>
   <v>       0.11111111       0.11111111       0.22600473 </v>
   <v>       0.11111111       0.44444444       0.22600473 </v>
   <v>       0.44444444       0.77777778       0.22600473 </v>
   <v>       0.44444444       0.11111111       0.22600473 </v>
   <v>       0.44444444       0.44444444       0.22600473 </v>
   <v>       0.88888889       0.88888889       0.28299847 </v>
   <v>       0.88888889       0.22222222       0.28299847 </v>
   <v>       0.88888889       0.55555556       0.28299847 </v>
   <v>       0.22222222       0.88888889       0.28299847 </v>
   <v>       0.22222222       0.22222222       0.28299847 </v>
   <v>       0.22222222       0.55555556       0.28299847 </v>
   <v>       0.55555556       0.88888889       0.28299847 </v>
   <v>       0.55555556       0.22222222       0.28299847 </v>
   <v>       0.55555556       0.55555556       0.28299847 </v>
   <v>       0.00000000       0.00000000       0.33837465 </v>
   <v>       0.00000000       0.33333333       0.33837465 </v>
   <v>       0.00000000       0.66666667       0.33837465 </v>
   <v>       0.33333333       0.00000000       0.33837465 </v>
   <v>       0.33333333       0.33333333       0.33837465 </v>
   <v>       0.33333333       0.66666667       0.33837465 </v>
   <v>       0.66666667       0.00000000       0.33837465 </v>
   <v>       0.66666667       0.33333333       0.33837465 </v>
   <v>       0.66666667       0.66666667       0.33837465 </v>
   <v>       0.11111111       0.11111111       0.39559945 </v>
   <v>       0.11111111       0.44444444       0.39559945 </v>
   <v>       0.11111111       0.77777778       0.39559945 </v>
   <v>       0.44444444       0.11111111       0.39559945 </v>
   <v>       0.44444444       0.44444444       0.39559945 </v>
   <v>       0.44444444       0.77777778       0.39559945 </v>
   <v>       0.77777778       0.11111111       0.39559945 </v>
   <v>       0.77777778       0.44444444       0.39559945 </v>
   <v>       0.77777778       0.77777778       0.39559945 </v>
   <v>       0.27777778       0.27777778       0.05641000 </v>
   <v>       0.27777778       0.61111111       0.05641000 </v>
   <v>       0.27777778       0.94444444       0.05641000 </v>
   <v>       0.61111111       0.27777778       0.05641000 </v>
   <v>       0.61111111       0.61111111       0.05641000 </v>
   <v>       0.61111111       0.94444444       0.05641000 </v>
   <v>       0.94444444       0.27777778       0.05641000 </v>
   <v>       0.94444444       0.61111111       0.05641000 </v>
   <v>       0.94444444       0.94444444       0.05641000 </v>
   <v>       0.38888889       0.38888889       0.11363480 </v>
   <v>       0.38888889       0.72222222       0.11363480 </v>
   <v>       0.38888889       0.05555556       0.11363480 </v>
   <v>       0.72222222       0.38888889       0.11363480 </v>
   <v>       0.72222222       0.72222222       0.11363480 </v>
   <v>       0.72222222       0.05555556       0.11363480 </v>
   <v>       0.05555556       0.38888889       0.11363480 </v>
   <v>       0.05555556       0.72222222       0.11363480 </v>
   <v>       0.05555556       0.05555556       0.11363480 </v>
   <v>       0.50000000       0.50000000       0.16901098 </v>
   <v>       0.50000000       0.83333333       0.16901098 </v>
   <v>       0.50000000       0.16666667       0.16901098 </v>
   <v>       0.83333333       0.50000000       0.16901098 </v>
   <v>       0.83333333       0.83333333       0.16901098 </v>
   <v>       0.83333333       0.16666667       0.16901098 </v>
   <v>       0.16666667       0.50000000       0.16901098 </v>
   <v>       0.16666667       0.83333333       0.16901098 </v>
   <v>       0.16666667       0.16666667       0.16901098 </v>
   <v>       0.61111111       0.61111111       0.22600473 </v>
   <v>       0.61111111       0.94444444       0.22600473 </v>
   <v>       0.61111111       0.27777778       0.22600473 </v>
   <v>       0.94444444       0.61111111       0.22600473 </v>
   <v>       0.94444444       0.94444444       0.22600473 </v>
   <v>       0.94444444       0.27777778       0.22600473 </v>
   <v>       0.27777778       0.61111111       0.22600473 </v>
   <v>       0.27777778       0.94444444       0.22600473 </v>
   <v>       0.27777778       0.27777778       0.22600473 </v>
   <v>       0.72222222       0.72222222       0.28299847 </v>
   <v>       0.72222222       0.05555556       0.28299847 </v>
   <v>       0.72222222       0.38888889       0.28299847 </v>
   <v>       0.05555556       0.72222222       0.28299847 </v>
   <v>       0.05555556       0.05555556       0.28299847 </v>
   <v>       0.05555556       0.38888889       0.28299847 </v>
   <v>       0.38888889       0.72222222       0.28299847 </v>
   <v>       0.38888889       0.05555556       0.28299847 </v>
   <v>       0.38888889       0.38888889       0.28299847 </v>
   <v>       0.83333333       0.83333333       0.33837465 </v>
   <v>       0.83333333       0.16666667       0.33837465 </v>
   <v>       0.83333333       0.50000000       0.33837465 </v>
   <v>       0.16666667       0.83333333       0.33837465 </v>
   <v>       0.16666667       0.16666667       0.33837465 </v>
   <v>       0.16666667       0.50000000       0.33837465 </v>
   <v>       0.50000000       0.83333333       0.33837465 </v>
   <v>       0.50000000       0.16666667       0.33837465 </v>
   <v>       0.50000000       0.50000000       0.33837465 </v>
   <v>       0.94444444       0.94444444       0.39559945 </v>
   <v>       0.94444444       0.27777778       0.39559945 </v>
   <v>       0.94444444       0.61111111       0.39559945 </v>
   <v>       0.27777778       0.94444444       0.39559945 </v>
   <v>       0.27777778       0.27777778       0.39559945 </v>
   <v>       0.27777778       0.61111111       0.39559945 </v>
   <v>       0.61111111       0.94444444       0.39559945 </v>
   <v>       0.61111111       0.27777778       0.39559945 </v>
   <v>       0.61111111       0.61111111       0.39559945 </v>
   <v>       0.27777778       0.44444444       0.05641000 </v>
   <v>       0.27777778       0.77777778       0.05641000 </v>
   <v>       0.27777778       0.11111111       0.05641000 </v>
   <v>       0.61111111       0.44444444       0.05641000 </v>
   <v>       0.61111111       0.77777778       0.05641000 </v>
   <v>       0.61111111       0.11111111       0.05641000 </v>
   <v>       0.94444444       0.44444444       0.05641000 </v>
   <v>       0.94444444       0.77777778       0.05641000 </v>
   <v>       0.94444444       0.11111111       0.05641000 </v>
   <v>       0.38888889       0.55555556       0.11363480 </v>
   <v>       0.38888889       0.88888889       0.11363480 </v>
   <v>       0.38888889       0.22222222       0.11363480 </v>
   <v>       0.72222222       0.55555556       0.11363480 </v>
   <v>       0.72222222       0.88888889       0.11363480 </v>
   <v>       0.72222222       0.22222222       0.11363480 </v>
   <v>       0.05555556       0.55555556       0.11363480 </v>
   <v>       0.05555556       0.88888889       0.11363480 </v>
   <v>       0.05555556       0.22222222       0.11363480 </v>
   <v>       0.50000000       0.66666667       0.16901098 </v>
   <v>       0.50000000       0.00000000       0.16901098 </v>
   <v>       0.50000000       0.33333333       0.16901098 </v>
   <v>       0.83333333       0.66666667       0.16901098 </v>
   <v>       0.83333333       0.00000000       0.16901098 </v>
   <v>       0.83333333       0.33333333       0.16901098 </v>
   <v>       0.16666667       0.66666667       0.16901098 </v>
   <v>       0.16666667       0.00000000       0.16901098 </v>
   <v>       0.16666667       0.33333333       0.16901098 </v>
   <v>       0.61111111       0.77777778       0.22600473 </v>
   <v>       0.61111111       0.11111111       0.22600473 </v>
   <v>       0.61111111       0.44444444       0.22600473 </v>
   <v>       0.94444444       0.77777778       0.22600473 </v>
   <v>       0.94444444       0.11111111       0.22600473 </v>
   <v>       0.94444444       0.44444444       0.22600473 </v>
   <v>       0.27777778       0.77777778       0.22600473 </v>
   <v>       0.27777778       0.11111111       0.22600473 </v>
   <v>       0.27777778       0.44444444       0.22600473 </v>
   <v>       0.72222222       0.88888889       0.28299847 </v>
   <v>       0.72222222       0.22222222       0.28299847 </v>
   <v>       0.72222222       0.55555556       0.28299847 </v>
   <v>       0.05555556       0.88888889       0.28299847 </v>
   <v>       0.05555556       0.22222222       0.28299847 </v>
   <v>       0.05555556       0.55555556       0.28299847 </v>
   <v>       0.38888889       0.88888889       0.28299847 </v>
   <v>       0.38888889       0.22222222       0.28299847 </v>
   <v>       0.38888889       0.55555556       0.28299847 </v>
   <v>       0.83333333       0.00000000       0.33837465 </v>
   <v>       0.83333333       0.33333333       0.33837465 </v>
   <v>       0.83333333       0.66666667       0.33837465 </v>
   <v>       0.16666667       0.00000000       0.33837465 </v>
   <v>       0.16666667       0.33333333       0.33837465 </v>
   <v>       0.16666667       0.66666667       0.33837465 </v>
   <v>       0.50000000       0.00000000       0.33837465 </v>
   <v>       0.50000000       0.33333333       0.33837465 </v>
   <v>       0.50000000       0.66666667       0.33837465 </v>
   <v>       0.94444444       0.11111111       0.39559945 </v>
   <v>       0.94444444       0.44444444       0.39559945 </v>
   <v>       0.94444444       0.77777778       0.39559945 </v>
   <v>       0.27777778       0.11111111       0.39559945 </v>
   <v>       0.27777778       0.44444444       0.39559945 </v>
   <v>       0.27777778       0.77777778       0.39559945 </v>
   <v>       0.61111111       0.11111111       0.39559945 </v>
   <v>       0.61111111       0.44444444       0.39559945 </v>
   <v>       0.61111111       0.77777778       0.39559945 </v>
   <v>       0.44444444       0.27777778       0.05641000 </v>
   <v>       0.44444444       0.61111111       0.05641000 </v>
   <v>       0.44444444       0.94444444       0.05641000 </v>
   <v>       0.77777778       0.27777778       0.05641000 </v>
   <v>       0.77777778       0.61111111       0.05641000 </v>
   <v>       0.77777778       0.94444444       0.05641000 </v>
   <v>       0.11111111       0.27777778       0.05641000 </v>
   <v>       0.11111111       0.61111111       0.05641000 </v>
   <v>       0.11111111       0.94444444       0.05641000 </v>
   <v>       0.55555556       0.38888889       0.11363480 </v>
   <v>       0.55555556       0.72222222       0.11363480 </v>
   <v>       0.55555556       0.05555556       0.11363480 </v>
   <v>       0.88888889       0.38888889       0.11363480 </v>
   <v>       0.88888889       0.72222222       0.11363480 </v>
   <v>       0.88888889       0.05555556       0.11363480 </v>
   <v>       0.22222222       0.38888889       0.11363480 </v>
   <v>       0.22222222       0.72222222       0.11363480 </v>
   <v>       0.22222222       0.05555556       0.11363480 </v>
   <v>       0.66666667       0.50000000       0.16901098 </v>
   <v>       0.66666667       0.83333333       0.16901098 </v>
   <v>       0.66666667       0.16666667       0.16901098 </v>
   <v>       0.00000000       0.50000000       0.16901098 </v>
   <v>       0.00000000       0.83333333       0.16901098 </v>
   <v>       0.00000000       0.16666667       0.16901098 </v>
   <v>       0.33333333       0.50000000       0.16901098 </v>
   <v>       0.33333333       0.83333333       0.16901098 </v>
   <v>       0.33333333       0.16666667       0.16901098 </v>
   <v>       0.77777778       0.61111111       0.22600473 </v>
   <v>       0.77777778       0.94444444       0.22600473 </v>
   <v>       0.77777778       0.27777778       0.22600473 </v>
   <v>       0.11111111       0.61111111       0.22600473 </v>
   <v>       0.11111111       0.94444444       0.22600473 </v>
   <v>       0.11111111       0.27777778       0.22600473 </v>
   <v>       0.44444444       0.61111111       0.22600473 </v>
   <v>       0.44444444       0.94444444       0.22600473 </v>
   <v>       0.44444444       0.27777778       0.22600473 </v>
   <v>       0.88888889       0.72222222       0.28299847 </v>
   <v>       0.88888889       0.05555556       0.28299847 </v>
   <v>       0.88888889       0.38888889       0.28299847 </v>
   <v>       0.22222222       0.72222222       0.28299847 </v>
   <v>       0.22222222       0.05555556       0.28299847 </v>
   <v>       0.22222222       0.38888889       0.28299847 </v>
   <v>       0.55555556       0.72222222       0.28299847 </v>
   <v>       0.55555556       0.05555556       0.28299847 </v>
   <v>       0.55555556       0.38888889       0.28299847 </v>
   <v>       0.00000000       0.83333333       0.33837465 </v>
   <v>       0.00000000       0.16666667       0.33837465 </v>
   <v>       0.00000000       0.50000000       0.33837465 </v>
   <v>       0.33333333       0.83333333       0.33837465 </v>
   <v>       0.33333333       0.16666667       0.33837465 </v>
   <v>       0.33333333       0.50000000       0.33837465 </v>
   <v>       0.66666667       0.83333333       0.33837465 </v>
   <v>       0.66666667       0.16666667       0.33837465 </v>
   <v>       0.66666667       0.50000000       0.33837465 </v>
   <v>       0.11111111       0.94444444       0.39559945 </v>
   <v>       0.11111111       0.27777778       0.39559945 </v>
   <v>       0.11111111       0.61111111       0.39559945 </v>
   <v>       0.44444444       0.94444444       0.39559945 </v>
   <v>       0.44444444       0.27777778       0.39559945 </v>
   <v>       0.44444444       0.61111111       0.39559945 </v>
   <v>       0.77777778       0.94444444       0.39559945 </v>
   <v>       0.77777778       0.27777778       0.39559945 </v>
   <v>       0.77777778       0.61111111       0.39559945 </v>
   <v>       0.00000000       0.00000000       0.43059945 </v>
   <v>       0.00000000       0.00000000       0.46059945 </v>
   <v>       0.00000000       0.00000000       0.49059945 </v>
   <v>       0.00000000       0.00000000       0.52059945 </v>
   <v>       0.00000000       0.12500000       0.43059945 </v>
   <v>       0.00000000       0.12500000       0.46059945 </v>
   <v>       0.00000000       0.12500000       0.49059945 </v>
   <v>       0.00000000       0.12500000       0.52059945 </v>
   <v>       0.00000000       0.25000000       0.43059945 </v>
   <v>       0.00000000       0.25000000       0.46059945 </v>
   <v>       0.00000000       0.25000000       0.49059945 </v>
   <v>       0.00000000       0.25000000       0.52059945 </v>
   <v>       0.00000000       0.37500000       0.43059945 </v>
   <v>       0.00000000       0.37500000       0.46059945 </v>
   <v>       0.00000000       0.37500000       0.49059945 </v>
   <v>       0.00000000       0.37500000       0.52059945 </v>
   <v>       0.00000000       0.50000000       0.43059945 </v>
   <v>       0.00000000       0.50000000       0.46059945 </v>
   <v>       0.00000000       0.50000000       0.49059945 </v>
   <v>       0.00000000       0.50000000       0.52059945 </v>
   <v>       0.00000000       0.62500000       0.43059945 </v>
   <v>       0.00000000       0.62500000       0.46059945 </v>
   <v>       0.00000000       0.62500000       0.49059945 </v>
   <v>       0.00000000       0.62500000       0.52059945 </v>
   <v>       0.00000000       0.75000000       0.43059945 </v>
   <v>       0.00000000       0.75000000       0.46059945 </v>
   <v>       0.00000000       0.75000000       0.49059945 </v>
   <v>       0.00000000       0.75000000       0.52059945 </v>
   <v>       0.00000000       0.87500000       0.43059945 </v>
   <v>       0.00000000       0.87500000       0.46059945 </v>
   <v>       0.00000000       0.87500000       0.49059945 </v>
   <v>       0.00000000       0.87500000       0.52059945 </v>
   <v>       0.12500000       0.00000000       0.43059945 </v>
   <v>       0.12500000       0.00000000       0.46059945 </v>
   <v>       0.12500000       0.00000000       0.49059945 </v>
   <v>       0.12500000       0.00000000       0.52059945 </v>
   <v>       0.12500000       0.12500000       0.43059945 </v>
   <v>       0.12500000       0.12500000       0.46059945 </v>
   <v>       0.12500000       0.12500000       0.49059945 </v>
   <v>       0.12500000       0.12500000       0.52059945 </v>
   <v>       0.12500000       0.25000000       0.43059945 </v>
   <v>       0.12500000       0.25000000       0.46059945 </v>
   <v>       0.12500000       0.25000000       0.49059945 </v>
   <v>       0.12500000       0.25000000       0.52059945 </v>
   <v>       0.12500000       0.37500000       0.43059945 </v>
   <v>       0.12500000       0.37500000       0.46059945 </v>
   <v>       0.12500000       0.37500000       0.49059945 </v>
   <v>       0.12500000       0.37500000       0.52059945 </v>
   <v>       0.12500000       0.50000000       0.43059945 </v>
   <v>       0.12500000       0.50000000       0.46059945 </v>
   <v>       0.12500000       0.50000000       0.49059945 </v>
   <v>       0.12500000       0.50000000       0.52059945 </v>
   <v>       0.12500000       0.62500000       0.43059945 </v>
   <v>       0.12500000       0.62500000       0.46059945 </v>
   <v>       0.12500000       0.62500000       0.49059945 </v>
   <v>       0.12500000       0.62500000       0.52059945 </v>
   <v>       0.12500000       0.75000000       0.43059945 </v>
   <v>       0.12500000       0.75000000       0.46059945 </v>
   <v>       0.12500000       0.75000000       0.49059945 </v>
   <v>       0.12500000       0.75000000       0.52059945 </v>
   <v>       0.12500000       0.87500000       0.43059945 </v>
   <v>       0.12500000       0.87500000       0.46059945 </v>
   <v>       0.12500000       0.87500000       0.49059945 </v>
   <v>       0.12500000       0.87500000       0.52059945 </v>
   <v>       0.25000000       0.00000000       0.43059945 </v>
   <v>       0.25000000       0.00000000       0.46059945 </v>
   <v>       0.25000000       0.00000000       0.49059945 </v>
   <v>       0.25000000       0.00000000       0.52059945 </v>
   <v>       0.25000000       0.12500000       0.43059945 </v>
   <v>       0.25000000       0.12500000       0.46059945 </v>
   <v>       0.25000000       0.12500000       0.49059945 </v>
   <v>       0.25000000       0.12500000       0.52059945 </v>
   <v>       0.25000000       0.25000000       0.43059945 </v>
   <v>       0.25000000       0.25000000       0.46059945 </v>
   <v>       0.25000000       0.25000000       0.49059945 </v>
   <v>       0.25000000       0.25000000       0.52059945 </v>
   <v>       0.25000000       0.37500000       0.43059945 </v>
   <v>       0.25000000       0.37500000       0.46059945 </v>
   <v>       0.25000000       0.37500000       0.49059945 </v>
   <v>       0.25000000       0.37500000       0.52059945 </v>
   <v>       0.25000000       0.50000000       0.43059945 </v>
   <v>       0.25000000       0.50000000       0.46059945 </v>
   <v>       0.25000000       0.50000000       0.49059945 </v>
   <v>       0.25000000       0.50000000       0.52059945 </v>
   <v>       0.25000000       0.62500000       0.43059945 </v>
   <v>       0.25000000       0.62500000       0.46059945 </v>
   <v>       0.25000000       0.62500000       0.49059945 </v>
   <v>       0.25000000       0.62500000       0.52059945 </v>
   <v>       0.25000000       0.75000000       0.43059945 </v>
   <v>       0.25000000       0.75000000       0.46059945 </v>
   <v>       0.25000000       0.75000000       0.49059945 </v>
   <v>       0.25000000       0.75000000       0.52059945 </v>
   <v>       0.25000000       0.87500000       0.43059945 </v>
   <v>       0.25000000       0.87500000       0.46059945 </v>
   <v>       0.25000000       0.87500000       0.49059945 </v>
   <v>       0.25000000       0.87500000       0.52059945 </v>
   <v>       0.37500000       0.00000000       0.43059945 </v>
   <v>       0.37500000       0.00000000       0.46059945 </v>
   <v>       0.37500000       0.00000000       0.49059945 </v>
   <v>       0.37500000       0.00000000       0.52059945 </v>
   <v>       0.37500000       0.12500000       0.43059945 </v>
   <v>       0.37500000       0.12500000       0.46059945 </v>
   <v>       0.37500000       0.12500000       0.49059945 </v>
   <v>       0.37500000       0.12500000       0.52059945 </v>
   <v>       0.37500000       0.25000000       0.43059945 </v>
   <v>       0.37500000       0.25000000       0.46059945 </v>
   <v>       0.37500000       0.25000000       0.49059945 </v>
   <v>       0.37500000       0.25000000       0.52059945 </v>
   <v>       0.37500000       0.37500000       0.43059945 </v>
   <v>       0.37500000       0.37500000       0.46059945 </v>
   <v>       0.37500000       0.37500000       0.49059945 </v>
   <v>       0.37500000       0.37500000       0.52059945 </v>
   <v>       0.37500000       0.50000000       0.43059945 </v>
   <v>       0.37500000       0.50000000       0.46059945 </v>
   <v>       0.37500000       0.50000000       0.49059945 </v>
   <v>       0.37500000       0.50000000       0.52059945 </v>
   <v>       0.37500000       0.62500000       0.43059945 </v>
   <v>       0.37500000       0.62500000       0.46059945 </v>
   <v>       0.37500000       0.62500000       0.49059945 </v>
   <v>       0.37500000       0.62500000       0.52059945 </v>
   <v>       0.37500000       0.75000000       0.43059945 </v>
   <v>       0.37500000       0.75000000       0.46059945 </v>
   <v>       0.37500000       0.75000000       0.49059945 </v>
   <v>       0.37500000       0.75000000       0.52059945 </v>
   <v>       0.37500000       0.87500000       0.43059945 </v>
   <v>       0.37500000       0.87500000       0.46059945 </v>
   <v>       0.37500000       0.87500000       0.49059945 </v>
   <v>       0.37500000       0.87500000       0.52059945 </v>
   <v>       0.50000000       0.00000000       0.43059945 </v>
   <v>       0.50000000       0.00000000       0.46059945 </v>
   <v>       0.50000000       0.00000000       0.49059945 </v>
   <v>       0.50000000       0.00000000       0.52059945 </v>
   <v>       0.50000000       0.12500000       0.43059945 </v>
   <v>       0.50000000       0.12500000       0.46059945 </v>
   <v>       0.50000000       0.12500000       0.49059945 </v>
   <v>       0.50000000       0.12500000       0.52059945 </v>
   <v>       0.50000000       0.25000000       0.43059945 </v>
   <v>       0.50000000       0.25000000       0.46059945 </v>
   <v>       0.50000000       0.25000000       0.49059945 </v>
   <v>       0.50000000       0.25000000       0.52059945 </v>
   <v>       0.50000000       0.37500000       0.43059945 </v>
   <v>       0.50000000       0.37500000       0.46059945 </v>
   <v>       0.50000000       0.37500000       0.49059945 </v>
   <v>       0.50000000       0.37500000       0.52059945 </v>
   <v>       0.50000000       0.50000000       0.43059945 </v>
   <v>       0.50000000       0.50000000       0.46059945 </v>
[...]
   <v>       0.77839575       0.27839575       0.05992556 </v>
   <v>       0.77909246       0.61045377       0.05949142 </v>
   <v>       0.77839575       0.94320850       0.05992556 </v>
   <v>       0.11045377       0.27909246       0.05949142 </v>
   <v>       0.11045377       0.61045377       0.05949142 </v>
   <v>       0.11051740       0.94474130       0.05863274 </v>
   <v>       0.55714531       0.38570937       0.11719101 </v>
   <v>       0.55365811       0.72317094       0.11040861 </v>
   <v>       0.55714531       0.05714531       0.11719101 </v>
   <v>       0.89000065       0.39000065       0.11350133 </v>
   <v>       0.89000065       0.71999870       0.11350133 </v>
   <v>       0.88570937       0.05714531       0.11719101 </v>
   <v>       0.21999870       0.39000065       0.11350133 </v>
   <v>       0.22317094       0.72317094       0.11040861 </v>
   <v>       0.22317094       0.05365811       0.11040861 </v>
   <v>       0.66508717       0.50210625       0.16938619 </v>
   <v>       0.66508717       0.83280659       0.16938619 </v>
   <v>       0.66666667       0.16666667       0.17039174 </v>
   <v>       0.00000000       0.50000000       0.17503198 </v>
   <v>       0.00210625       0.83280659       0.16938619 </v>
   <v>       0.00210625       0.16508717       0.16938619 </v>
   <v>       0.33280659       0.50210625       0.16938619 </v>
   <v>       0.33333333       0.83333333       0.17426487 </v>
   <v>       0.33280659       0.16508717       0.16938619 </v>
   <v>       0.77807055       0.61096473       0.22584755 </v>
   <v>       0.77732809       0.94534382       0.22652307 </v>
   <v>       0.77732809       0.27732809       0.22652307 </v>
   <v>       0.11096473       0.61096473       0.22584755 </v>
   <v>       0.11293396       0.94353302       0.22663391 </v>
   <v>       0.11096473       0.27807055       0.22584755 </v>
   <v>       0.44353302       0.61293396       0.22663391 </v>
   <v>       0.44353302       0.94353302       0.22663391 </v>
   <v>       0.44534382       0.27732809       0.22652307 </v>
   <v>       0.88886922       0.72226156       0.27940532 </v>
   <v>       0.88831773       0.05584113       0.27948935 </v>
   <v>       0.88886922       0.38886922       0.27940532 </v>
   <v>       0.22248427       0.72248427       0.27950090 </v>
   <v>       0.22248427       0.05503145       0.27950090 </v>
   <v>       0.22226156       0.38886922       0.27940532 </v>
   <v>       0.55503145       0.72248427       0.27950090 </v>
   <v>       0.55584113       0.05584113       0.27948935 </v>
   <v>       0.55584113       0.38831773       0.27948935 </v>
   <v>      -0.00042334       0.83326026       0.32468718 </v>
   <v>      -0.00042334       0.16716308       0.32468718 </v>
   <v>       0.00000000       0.50000000       0.32411063 </v>
   <v>       0.33333333       0.83333333       0.32472448 </v>
   <v>       0.33326026       0.16716308       0.32468718 </v>
   <v>       0.33326026       0.49957666       0.32468718 </v>
   <v>       0.66716308       0.83326026       0.32468718 </v>
   <v>       0.66666667       0.16666667       0.32400528 </v>
   <v>       0.66716308       0.49957666       0.32468718 </v>
   <v>       0.11192340       0.94403830       0.36975408 </v>
   <v>       0.11239687       0.27520626       0.37080596 </v>
   <v>       0.11239687       0.61239687       0.37080596 </v>
   <v>       0.44403830       0.94403830       0.36975408 </v>
   <v>       0.44734107       0.27632946       0.37069605 </v>
   <v>       0.44403830       0.61192340       0.36975408 </v>
   <v>       0.77632946       0.94734107       0.37069605 </v>
   <v>       0.77632946       0.27632946       0.37069605 </v>
   <v>       0.77520626       0.61239687       0.37080596 </v>
   <v>       0.00000000       0.00000000       0.41949209 </v>
   <v>       0.00000000       0.00000000       0.45011388 </v>
   <v>       0.00000000       0.00000000       0.50846639 </v>
   <v>       0.00000000       0.00000000       0.53891017 </v>
   <v>       0.00209460       0.12556299       0.42171250 </v>
   <v>      -0.00064238       0.12444697       0.45273794 </v>
   <v>       0.00025386       0.12534942       0.50886605 </v>
   <v>      -0.00051849       0.12473542       0.53922036 </v>
   <v>       0.00320636       0.24839682       0.42196493 </v>
   <v>      -0.00146438       0.25073219       0.45397536 </v>
   <v>       0.00070083       0.24964958       0.50947149 </v>
   <v>      -0.00113268       0.25056634       0.54016219 </v>
   <v>       0.00209460       0.37234241       0.42171250 </v>
   <v>      -0.00064238       0.37619541       0.45273794 </v>
   <v>       0.00025386       0.37439671       0.50886605 </v>
   <v>      -0.00051849       0.37578307       0.53922036 </v>
   <v>       0.00000000       0.50000000       0.41949209 </v>
   <v>       0.00000000       0.50000000       0.45011388 </v>
   <v>       0.00000000       0.50000000       0.50846639 </v>
   <v>       0.00000000       0.50000000       0.53891017 </v>
   <v>       0.00209460       0.62556299       0.42171250 </v>
   <v>      -0.00064238       0.62444697       0.45273794 </v>
   <v>       0.00025386       0.62534942       0.50886605 </v>
   <v>      -0.00051849       0.62473542       0.53922036 </v>
   <v>       0.00320636       0.74839682       0.42196493 </v>
   <v>      -0.00146438       0.75073219       0.45397536 </v>
   <v>       0.00070083       0.74964958       0.50947149 </v>
   <v>      -0.00113268       0.75056634       0.54016219 </v>
   <v>       0.00209460       0.87234241       0.42171250 </v>
   <v>      -0.00064238       0.87619541       0.45273794 </v>
   <v>       0.00025386       0.87439671       0.50886605 </v>
   <v>      -0.00051849       0.87578307       0.53922036 </v>
   <v>       0.12556299       0.00209460       0.42171250 </v>
   <v>       0.12444697      -0.00064238       0.45273794 </v>
   <v>       0.12534942       0.00025386       0.50886605 </v>
   <v>       0.12473542      -0.00051849       0.53922036 </v>
   <v>       0.12542007       0.12542007       0.42357194 </v>
   <v>       0.12454964       0.12454964       0.45392670 </v>
   <v>       0.12530884       0.12530884       0.51031616 </v>
   <v>       0.12459677       0.12459677       0.54062347 </v>
   <v>       0.12542007       0.24915986       0.42357194 </v>
   <v>       0.12454964       0.25090071       0.45392670 </v>
   <v>       0.12530884       0.24938232       0.51031616 </v>
   <v>       0.12459677       0.25080646       0.54062347 </v>
   <v>       0.12556299       0.37234241       0.42171250 </v>
   <v>       0.12444697       0.37619541       0.45273794 </v>
   <v>       0.12534942       0.37439671       0.50886605 </v>
   <v>       0.12473542       0.37578307       0.53922036 </v>
   <v>       0.12556299       0.50209460       0.42171250 </v>
   <v>       0.12444697       0.49935762       0.45273794 </v>
   <v>       0.12534942       0.50025386       0.50886605 </v>
   <v>       0.12473542       0.49948151       0.53922036 </v>
   <v>       0.12542007       0.62542007       0.42357194 </v>
   <v>       0.12454964       0.62454964       0.45392670 </v>
   <v>       0.12530884       0.62530884       0.51031616 </v>
   <v>       0.12459677       0.62459677       0.54062347 </v>
   <v>       0.12542007       0.74915986       0.42357194 </v>
   <v>       0.12454964       0.75090071       0.45392670 </v>
   <v>       0.12530884       0.74938232       0.51031616 </v>
   <v>       0.12459677       0.75080646       0.54062347 </v>
   <v>       0.12556299       0.87234241       0.42171250 </v>
   <v>       0.12444697       0.87619541       0.45273794 </v>
   <v>       0.12534942       0.87439671       0.50886605 </v>
   <v>       0.12473542       0.87578307       0.53922036 </v>
   <v>       0.24839682       0.00320636       0.42196493 </v>
   <v>       0.25073219      -0.00146438       0.45397536 </v>
   <v>       0.24964958       0.00070083       0.50947149 </v>
   <v>       0.25056634      -0.00113268       0.54016219 </v>
   <v>       0.24915986       0.12542007       0.42357194 </v>
   <v>       0.25090071       0.12454964       0.45392670 </v>
   <v>       0.24938232       0.12530884       0.51031616 </v>
   <v>       0.25080646       0.12459677       0.54062347 </v>
   <v>       0.24839682       0.24839682       0.42196493 </v>
   <v>       0.25073219       0.25073219       0.45397536 </v>
   <v>       0.24964958       0.24964958       0.50947149 </v>
   <v>       0.25056634       0.25056634       0.54016219 </v>
   <v>       0.24977376       0.37511312       0.42141171 </v>
   <v>       0.25068920       0.37465540       0.45176011 </v>
   <v>       0.24993439       0.37503280       0.50838726 </v>
   <v>       0.25021401       0.37489300       0.53911833 </v>
   <v>       0.24839682       0.50320636       0.42196493 </v>
   <v>       0.25073219       0.49853562       0.45397536 </v>
   <v>       0.24964958       0.50070083       0.50947149 </v>
   <v>       0.25056634       0.49886732       0.54016219 </v>
   <v>       0.24915986       0.62542007       0.42357194 </v>
   <v>       0.25090071       0.62454964       0.45392670 </v>
   <v>       0.24938232       0.62530884       0.51031616 </v>
   <v>       0.25080646       0.62459677       0.54062347 </v>
   <v>       0.24839682       0.74839682       0.42196493 </v>
   <v>       0.25073219       0.75073219       0.45397536 </v>
   <v>       0.24964958       0.74964958       0.50947149 </v>
   <v>       0.25056634       0.75056634       0.54016219 </v>
   <v>       0.24977376       0.87511312       0.42141171 </v>
   <v>       0.25068920       0.87465540       0.45176011 </v>
   <v>       0.24993439       0.87503280       0.50838726 </v>
   <v>       0.25021401       0.87489300       0.53911833 </v>
   <v>       0.37234241       0.00209460       0.42171250 </v>
   <v>       0.37619541      -0.00064238       0.45273794 </v>
   <v>       0.37439671       0.00025386       0.50886605 </v>
   <v>       0.37578307      -0.00051849       0.53922036 </v>
   <v>       0.37234241       0.12556299       0.42171250 </v>
   <v>       0.37619541       0.12444697       0.45273794 </v>
   <v>       0.37439671       0.12534942       0.50886605 </v>
   <v>       0.37578307       0.12473542       0.53922036 </v>
   <v>       0.37511312       0.24977376       0.42141171 </v>
   <v>       0.37465540       0.25068920       0.45176011 </v>
   <v>       0.37503280       0.24993439       0.50838726 </v>
   <v>       0.37489300       0.25021401       0.53911833 </v>
   <v>       0.37511312       0.37511312       0.42141171 </v>
   <v>       0.37465540       0.37465540       0.45176011 </v>
   <v>       0.37503280       0.37503280       0.50838726 </v>
   <v>       0.37489300       0.37489300       0.53911833 </v>
   <v>       0.37234241       0.50209460       0.42171250 </v>
   <v>       0.37619541       0.49935762       0.45273794 </v>
   <v>       0.37439671       0.50025386       0.50886605 </v>
   <v>       0.37578307       0.49948151       0.53922036 </v>
   <v>       0.37234241       0.62556299       0.42171250 </v>
   <v>       0.37619541       0.62444697       0.45273794 </v>
   <v>       0.37439671       0.62534942       0.50886605 </v>
   <v>       0.37578307       0.62473542       0.53922036 </v>
   <v>       0.37511312       0.74977376       0.42141171 </v>
   <v>       0.37465540       0.75068920       0.45176011 </v>
   <v>       0.37503280       0.74993439       0.50838726 </v>
   <v>       0.37489300       0.75021401       0.53911833 </v>
   <v>       0.37511312       0.87511312       0.42141171 </v>
   <v>       0.37465540       0.87465540       0.45176011 </v>
   <v>       0.37503280       0.87503280       0.50838726 </v>
   <v>       0.37489300       0.87489300       0.53911833 </v>
   <v>       0.50000000       0.00000000       0.41949209 </v>
   <v>       0.50000000       0.00000000       0.45011388 </v>
   <v>       0.50000000       0.00000000       0.50846639 </v>
   <v>       0.50000000       0.00000000       0.53891017 </v>
   <v>       0.50209460       0.12556299       0.42171250 </v>
   <v>       0.49935762       0.12444697       0.45273794 </v>
   <v>       0.50025386       0.12534942       0.50886605 </v>
   <v>       0.49948151       0.12473542       0.53922036 </v>
   <v>       0.50320636       0.24839682       0.42196493 </v>
   <v>       0.49853562       0.25073219       0.45397536 </v>
   <v>       0.50070083       0.24964958       0.50947149 </v>
   <v>       0.49886732       0.25056634       0.54016219 </v>
   <v>       0.50209460       0.37234241       0.42171250 </v>
   <v>       0.49935762       0.37619541       0.45273794 </v>
   <v>       0.50025386       0.37439671       0.50886605 </v>
   <v>       0.49948151       0.37578307       0.53922036 </v>
   <v>       0.50000000       0.50000000       0.41949209 </v>
   <v>       0.50000000       0.50000000       0.45011388 </v>
   <v>       0.50000000       0.50000000       0.50846639 </v>
   <v>       0.50000000       0.50000000       0.53891017 </v>
   <v>       0.50209460       0.62556299       0.42171250 </v>
   <v>       0.49935762       0.62444697       0.45273794 </v>
   <v>       0.50025386       0.62534942       0.50886605 </v>
   <v>       0.49948151       0.62473542       0.53922036 </v>
   <v>       0.50320636       0.74839682       0.42196493 </v>
   <v>       0.49853562       0.75073219       0.45397536 </v>
   <v>       0.50070083       0.74964958       0.50947149 </v>
   <v>       0.49886732       0.75056634       0.54016219 </v>
   <v>       0.50209460       0.87234241       0.42171250 </v>
   <v>       0.49935762       0.87619541       0.45273794 </v>
   <v>       0.50025386       0.87439671       0.50886605 </v>
   <v>       0.49948151       0.87578307       0.53922036 </v>
   <v>       0.62556299       0.00209460       0.42171250 </v>
   <v>       0.62444697      -0.00064238       0.45273794 </v>
   <v>       0.62534942       0.00025386       0.50886605 </v>
   <v>       0.62473542      -0.00051849       0.53922036 </v>
   <v>       0.62542007       0.12542007       0.42357194 </v>
   <v>       0.62454964       0.12454964       0.45392670 </v>
   <v>       0.62530884       0.12530884       0.51031616 </v>
   <v>       0.62459677       0.12459677       0.54062347 </v>
   <v>       0.62542007       0.24915986       0.42357194 </v>
   <v>       0.62454964       0.25090071       0.45392670 </v>
   <v>       0.62530884       0.24938232       0.51031616 </v>
   <v>       0.62459677       0.25080646       0.54062347 </v>
   <v>       0.62556299       0.37234241       0.42171250 </v>
   <v>       0.62444697       0.37619541       0.45273794 </v>
   <v>       0.62534942       0.37439671       0.50886605 </v>
   <v>       0.62473542       0.37578307       0.53922036 </v>
   <v>       0.62556299       0.50209460       0.42171250 </v>
   <v>       0.62444697       0.49935762       0.45273794 </v>
   <v>       0.62534942       0.50025386       0.50886605 </v>
   <v>       0.62473542       0.49948151       0.53922036 </v>
   <v>       0.62542007       0.62542007       0.42357194 </v>
   <v>       0.62454964       0.62454964       0.45392670 </v>
   <v>       0.62530884       0.62530884       0.51031616 </v>
   <v>       0.62459677       0.62459677       0.54062347 </v>
   <v>       0.62542007       0.74915986       0.42357194 </v>
   <v>       0.62454964       0.75090071       0.45392670 </v>
   <v>       0.62530884       0.74938232       0.51031616 </v>
   <v>       0.62459677       0.75080646       0.54062347 </v>
   <v>       0.62556299       0.87234241       0.42171250 </v>
   <v>       0.62444697       0.87619541       0.45273794 </v>
   <v>       0.62534942       0.87439671       0.50886605 </v>
   <v>       0.62473542       0.87578307       0.53922036 </v>
   <v>       0.74839682       0.00320636       0.42196493 </v>
   <v>       0.75073219      -0.00146438       0.45397536 </v>
   <v>       0.74964958       0.00070083       0.50947149 </v>
   <v>       0.75056634      -0.00113268       0.54016219 </v>
   <v>       0.74915986       0.12542007       0.42357194 </v>
   <v>       0.75090071       0.12454964       0.45392670 </v>
   <v>       0.74938232       0.12530884       0.51031616 </v>
   <v>       0.75080646       0.12459677       0.54062347 </v>
   <v>       0.74839682       0.24839682       0.42196493 </v>
   <v>       0.75073219       0.25073219       0.45397536 </v>
   <v>       0.74964958       0.24964958       0.50947149 </v>
   <v>       0.75056634       0.25056634       0.54016219 </v>
   <v>       0.74977376       0.37511312       0.42141171 </v>
   <v>       0.75068920       0.37465540       0.45176011 </v>
   <v>       0.74993439       0.37503280       0.50838726 </v>
   <v>       0.75021401       0.37489300       0.53911833 </v>
   <v>       0.74839682       0.50320636       0.42196493 </v>
   <v>       0.75073219       0.49853562       0.45397536 </v>
   <v>       0.74964958       0.50070083       0.50947149 </v>
   <v>       0.75056634       0.49886732       0.54016219 </v>
   <v>       0.74915986       0.62542007       0.42357194 </v>
   <v>       0.75090071       0.62454964       0.45392670 </v>
   <v>       0.74938232       0.62530884       0.51031616 </v>
   <v>       0.75080646       0.62459677       0.54062347 </v>
   <v>       0.74839682       0.74839682       0.42196493 </v>
   <v>       0.75073219       0.75073219       0.45397536 </v>
   <v>       0.74964958       0.74964958       0.50947149 </v>
   <v>       0.75056634       0.75056634       0.54016219 </v>
   <v>       0.74977376       0.87511312       0.42141171 </v>
   <v>       0.75068920       0.87465540       0.45176011 </v>
   <v>       0.74993439       0.87503280       0.50838726 </v>
   <v>       0.75021401       0.87489300       0.53911833 </v>
   <v>       0.87234241       0.00209460       0.42171250 </v>
   <v>       0.87619541      -0.00064238       0.45273794 </v>
   <v>       0.87439671       0.00025386       0.50886605 </v>
   <v>       0.87578307      -0.00051849       0.53922036 </v>
   <v>       0.87234241       0.12556299       0.42171250 </v>
   <v>       0.87619541       0.12444697       0.45273794 </v>
   <v>       0.87439671       0.12534942       0.50886605 </v>
   <v>       0.87578307       0.12473542       0.53922036 </v>
   <v>       0.87511312       0.24977376       0.42141171 </v>
   <v>       0.87465540       0.25068920       0.45176011 </v>
   <v>       0.87503280       0.24993439       0.50838726 </v>
   <v>       0.87489300       0.25021401       0.53911833 </v>
   <v>       0.87511312       0.37511312       0.42141171 </v>
   <v>       0.87465540       0.37465540       0.45176011 </v>
   <v>       0.87503280       0.37503280       0.50838726 </v>
   <v>       0.87489300       0.37489300       0.53911833 </v>
   <v>       0.87234241       0.50209460       0.42171250 </v>
   <v>       0.87619541       0.49935762       0.45273794 </v>
   <v>       0.87439671       0.50025386       0.50886605 </v>
   <v>       0.87578307       0.49948151       0.53922036 </v>
   <v>       0.87234241       0.62556299       0.42171250 </v>
   <v>       0.87619541       0.62444697       0.45273794 </v>
   <v>       0.87439671       0.62534942       0.50886605 </v>
   <v>       0.87578307       0.62473542       0.53922036 </v>
   <v>       0.87511312       0.74977376       0.42141171 </v>
   <v>       0.87465540       0.75068920       0.45176011 </v>
   <v>       0.87503280       0.74993439       0.50838726 </v>
   <v>       0.87489300       0.75021401       0.53911833 </v>
   <v>       0.87511312       0.87511312       0.42141171 </v>
   <v>       0.87465540       0.87465540       0.45176011 </v>
   <v>       0.87503280       0.87503280       0.50838726 </v>
   <v>       0.87489300       0.87489300       0.53911833 </v>
  </varray>
 </structure>
</modeling>
