<?xml version="1.0" encoding="ISO-8859-1"?>
<modeling>
 <generator>
  <i name="program" type="string">vasp </i>
  <i name="version" type="string">6.2.1  </i>
  <i name="subversion" type="string">16May21 (build Jun 16 2021 03:23:30) complex                          parallel </i>
  <i name="platform" type="string">LinuxPGI </i>
  <i name="date" type="string">2022 04 24 </i>
  <i name="time" type="string">18:26:50 </i>
 </generator>
 <incar>
  <i type="string" name="SYSTEM">NiAl</i>
  <i type="int" name="ISTART">     0</i>
  <i type="int" name="NELMIN">     6</i>
  <i name="EDIFF">      0.00000010</i>
  <i name="ENCUT">    360.00000000</i>
  <i type="string" name="LREAL">Auto</i>
  <i type="logical" name="LPLANE"> T  </i>
  <i type="int" name="ISMEAR">     0</i>
  <i name="SIGMA">      0.05000000</i>
  <i type="logical" name="LWAVE"> F  </i>
  <i type="logical" name="LCHARG"> F  </i>
  <i type="int" name="IVDW">    12</i>
 </incar>
 <primitive_cell>
  <structure name="primitive_cell" >
   <crystal>
    <varray name="basis" >
     <v>       2.10830000       0.00000000       0.00000000 </v>
     <v>       0.00000000       2.10830000       0.00000000 </v>
     <v>       0.00000000       0.00000000       2.10830000 </v>
    </varray>
    <i name="volume">      9.37124358 </i>
    <varray name="rec_basis" >
     <v>       0.47431580       0.00000000       0.00000000 </v>
     <v>       0.00000000       0.47431580       0.00000000 </v>
     <v>       0.00000000       0.00000000       0.47431580 </v>
    </varray>
   </crystal>
   <varray name="positions" >
    <v>       0.00000000       0.00000000       0.00000000 </v>
    <v>       0.50000000       0.50000000       0.50000000 </v>
   </varray>
  </structure>
  <varray name="primitive_index" >
   <v type="int" >        1 </v>
   <v type="int" >      126 </v>
  </varray>
 </primitive_cell>
 <kpoints>
  <generation param="Gamma">
   <v type="int" name="divisions">       2        2        2 </v>
   <v name="usershift">      0.00000000       0.00000000       0.00000000 </v>
   <v name="genvec1">      0.50000000       0.00000000       0.00000000 </v>
   <v name="genvec2">      0.00000000       0.50000000       0.00000000 </v>
   <v name="genvec3">      0.00000000       0.00000000       0.50000000 </v>
   <v name="shift">      0.00000000       0.00000000       0.00000000 </v>
  </generation>
  <varray name="kpointlist" >
   <v>       0.00000000       0.00000000       0.00000000 </v>
   <v>       0.50000000       0.00000000       0.00000000 </v>
   <v>       0.50000000       0.50000000       0.00000000 </v>
   <v>       0.50000000       0.50000000       0.50000000 </v>
  </varray>
  <varray name="weights" >
   <v>       0.12500000 </v>
   <v>       0.37500000 </v>
   <v>       0.37500000 </v>
   <v>       0.12500000 </v>
  </varray>
 </kpoints>
 <parameters>
  <separator name="general" >
   <i type="string" name="SYSTEM">NiAl</i>
   <i type="logical" name="LCOMPAT"> F  </i>
  </separator>
  <separator name="electronic" >
   <i type="string" name="PREC">normal</i>
   <i name="ENMAX">    360.00000000</i>
   <i name="ENAUG">   1139.60900000</i>
   <i name="EDIFF">      0.00000010</i>
   <i type="int" name="IALGO">    38</i>
   <i type="int" name="IWAVPR">    10</i>
   <i type="int" name="NBANDS">  1200</i>
   <i type="int" name="NBANDSLOW">    -1</i>
   <i type="int" name="NBANDSHIGH">    -1</i>
   <i name="NELECT">   2000.00000000</i>
   <i type="int" name="TURBO">     0</i>
   <i type="int" name="IRESTART">     0</i>
   <i type="int" name="NREBOOT">     0</i>
   <i type="int" name="NMIN">     0</i>
   <i name="EREF">      0.00000000</i>
   <separator name="electronic smearing" >
    <i type="int" name="ISMEAR">     0</i>
    <i name="SIGMA">      0.05000000</i>
    <i name="KSPACING">      0.50000000</i>
    <i type="logical" name="KGAMMA"> T  </i>
    <i type="logical" name="KBLOWUP"> T  </i>
   </separator>
   <separator name="electronic projectors" >
    <i type="logical" name="LREAL"> T  </i>
    <v name="ROPT">     -0.00050000     -0.00050000</v>
    <i type="int" name="LMAXPAW">  -100</i>
    <i type="int" name="LMAXMIX">     2</i>
    <i type="logical" name="NLSPLINE"> F  </i>
   </separator>
   <separator name="electronic startup" >
    <i type="int" name="ISTART">     0</i>
    <i type="int" name="ICHARG">     2</i>
    <i type="int" name="INIWAV">     1</i>
   </separator>
   <separator name="electronic spin" >
    <i type="int" name="ISPIN">     1</i>
    <i type="logical" name="LNONCOLLINEAR"> F  </i>
    <v name="MAGMOM">      1.00000000      1.00000000      1.00000000      1.00000000      1.00000000      1.00000000      1.00000000      1.00000000      1.00000000      1.00000000      1.00000000      1.00000000      1.00000000      1.00000000      1.00000000      1.00000000      1.00000000      1.00000000      1.00000000      1.00000000
      1.00000000      1.00000000      1.00000000      1.00000000      1.00000000      1.00000000      1.00000000      1.00000000      1.00000000      1.00000000      1.00000000      1.00000000      1.00000000      1.00000000      1.00000000      1.00000000      1.00000000      1.00000000      1.00000000      1.00000000
      1.00000000      1.00000000      1.00000000      1.00000000      1.00000000      1.00000000      1.00000000      1.00000000      1.00000000      1.00000000      1.00000000      1.00000000      1.00000000      1.00000000      1.00000000      1.00000000      1.00000000      1.00000000      1.00000000      1.00000000
      1.00000000      1.00000000      1.00000000      1.00000000      1.00000000      1.00000000      1.00000000      1.00000000      1.00000000      1.00000000      1.00000000      1.00000000      1.00000000      1.00000000      1.00000000      1.00000000      1.00000000      1.00000000      1.00000000      1.00000000
      1.00000000      1.00000000      1.00000000      1.00000000      1.00000000      1.00000000      1.00000000      1.00000000      1.00000000      1.00000000      1.00000000      1.00000000      1.00000000      1.00000000      1.00000000      1.00000000      1.00000000      1.00000000      1.00000000      1.00000000
      1.00000000      1.00000000      1.00000000      1.00000000      1.00000000      1.00000000      1.00000000      1.00000000      1.00000000      1.00000000      1.00000000      1.00000000      1.00000000      1.00000000      1.00000000      1.00000000      1.00000000      1.00000000      1.00000000      1.00000000
      1.00000000      1.00000000      1.00000000      1.00000000      1.00000000      1.00000000      1.00000000      1.00000000      1.00000000      1.00000000      1.00000000      1.00000000      1.00000000      1.00000000      1.00000000      1.00000000      1.00000000      1.00000000      1.00000000      1.00000000
      1.00000000      1.00000000      1.00000000      1.00000000      1.00000000      1.00000000      1.00000000      1.00000000      1.00000000      1.00000000      1.00000000      1.00000000      1.00000000      1.00000000      1.00000000      1.00000000      1.00000000      1.00000000      1.00000000      1.00000000
      1.00000000      1.00000000      1.00000000      1.00000000      1.00000000      1.00000000      1.00000000      1.00000000      1.00000000      1.00000000      1.00000000      1.00000000      1.00000000      1.00000000      1.00000000      1.00000000      1.00000000      1.00000000      1.00000000      1.00000000
      1.00000000      1.00000000      1.00000000      1.00000000      1.00000000      1.00000000      1.00000000      1.00000000      1.00000000      1.00000000      1.00000000      1.00000000      1.00000000      1.00000000      1.00000000      1.00000000      1.00000000      1.00000000      1.00000000      1.00000000
      1.00000000      1.00000000      1.00000000      1.00000000      1.00000000      1.00000000      1.00000000      1.00000000      1.00000000      1.00000000      1.00000000      1.00000000      1.00000000      1.00000000      1.00000000      1.00000000      1.00000000      1.00000000      1.00000000      1.00000000
      1.00000000      1.00000000      1.00000000      1.00000000      1.00000000      1.00000000      1.00000000      1.00000000      1.00000000      1.00000000      1.00000000      1.00000000      1.00000000      1.00000000      1.00000000      1.00000000      1.00000000      1.00000000      1.00000000      1.00000000
      1.00000000      1.00000000      1.00000000      1.00000000      1.00000000      1.00000000      1.00000000      1.00000000      1.00000000      1.00000000</v>
    <i name="NUPDOWN">     -1.00000000</i>
    <i type="logical" name="LSORBIT"> F  </i>
    <v name="SAXIS">      0.00000000      0.00000000      1.00000000</v>
    <i type="logical" name="LSPIRAL"> F  </i>
    <v name="QSPIRAL">      0.00000000      0.00000000      0.00000000</v>
    <i type="logical" name="LZEROZ"> F  </i>
   </separator>
   <separator name="electronic exchange-correlation" >
    <i type="logical" name="LASPH"> F  </i>
    <i type="logical" name="LMETAGGA"> F  </i>
   </separator>
   <separator name="electronic convergence" >
    <i type="int" name="NELM">    60</i>
    <i type="int" name="NELMDL">    -5</i>
    <i type="int" name="NELMIN">     6</i>
    <i name="ENINI">    360.00000000</i>
    <separator name="electronic convergence detail" >
     <i type="logical" name="LDIAG"> T  </i>
     <i type="logical" name="LSUBROT"> F  </i>
     <i name="WEIMIN">      0.00000000</i>
     <i name="EBREAK">      0.00000000</i>
     <i name="DEPER">      0.30000000</i>
     <i type="int" name="NRMM">     4</i>
     <i name="TIME">      0.40000000</i>
    </separator>
   </separator>
   <separator name="electronic mixer" >
    <i name="AMIX">      0.40000000</i>
    <i name="BMIX">      1.00000000</i>
    <i name="AMIN">      0.10000000</i>
    <i name="AMIX_MAG">      1.60000000</i>
    <i name="BMIX_MAG">      1.00000000</i>
    <separator name="electronic mixer details" >
     <i type="int" name="IMIX">     4</i>
     <i type="logical" name="MIXFIRST"> F  </i>
     <i type="int" name="MAXMIX">   -45</i>
     <i name="WC">    100.00000000</i>
     <i type="int" name="INIMIX">     1</i>
     <i type="int" name="MIXPRE">     1</i>
     <i type="int" name="MREMOVE">     5</i>
    </separator>
   </separator>
   <separator name="electronic dipolcorrection" >
    <i type="logical" name="LDIPOL"> F  </i>
    <i type="logical" name="LMONO"> F  </i>
    <i type="int" name="IDIPOL">     0</i>
    <i name="EPSILON">      1.00000000</i>
    <v name="DIPOL">   -100.00000000   -100.00000000   -100.00000000</v>
    <i name="EFIELD">      0.00000000</i>
   </separator>
  </separator>
  <separator name="grids" >
   <i type="int" name="NGX">    50</i>
   <i type="int" name="NGY">    50</i>
   <i type="int" name="NGZ">    50</i>
   <i type="int" name="NGXF">   100</i>
   <i type="int" name="NGYF">   100</i>
   <i type="int" name="NGZF">   100</i>
   <i type="logical" name="ADDGRID"> F  </i>
  </separator>
  <separator name="ionic" >
   <i type="int" name="NSW">     0</i>
   <i type="int" name="IBRION">    -1</i>
   <i type="int" name="MDALGO">     0</i>
   <i type="int" name="ISIF">     2</i>
   <i name="PSTRESS">      0.00000000</i>
   <i name="EDIFFG">      0.00000100</i>
   <i type="int" name="NFREE">     0</i>
   <i name="POTIM">      0.50000000</i>
   <i name="SMASS">     -3.00000000</i>
   <i name="SCALEE">      1.00000000</i>
  </separator>
  <separator name="ionic md" >
   <i name="TEBEG">      0.00010000</i>
   <i name="TEEND">      0.00010000</i>
   <i type="int" name="NBLOCK">     1</i>
   <i type="int" name="KBLOCK">     1</i>
   <i type="int" name="NPACO">   256</i>
   <i name="APACO">     16.00000000</i>
  </separator>
  <separator name="symmetry" >
   <i type="int" name="ISYM">     2</i>
   <i name="SYMPREC">      0.00001000</i>
  </separator>
  <separator name="dos" >
   <i type="int" name="LORBIT">     0</i>
   <v name="RWIGS">     -1.00000000     -1.00000000</v>
   <i type="int" name="NEDOS">   301</i>
   <i name="EMIN">     10.00000000</i>
   <i name="EMAX">    -10.00000000</i>
   <i name="EFERMI">      0.00000000</i>
  </separator>
  <separator name="writing" >
   <i type="int" name="NWRITE">     2</i>
   <i type="logical" name="LWAVE"> F  </i>
   <i type="logical" name="LDOWNSAMPLE"> F  </i>
   <i type="logical" name="LCHARG"> F  </i>
   <i type="logical" name="LPARD"> F  </i>
   <i type="logical" name="LVTOT"> F  </i>
   <i type="logical" name="LVHAR"> F  </i>
   <i type="logical" name="LELF"> F  </i>
   <i type="logical" name="LOPTICS"> F  </i>
   <v name="STM">      0.00000000      0.00000000      0.00000000      0.00000000      0.00000000      0.00000000      0.00000000</v>
  </separator>
  <separator name="performance" >
   <i type="int" name="NPAR">     1</i>
   <i type="int" name="NSIM">     4</i>
   <i type="int" name="NBLK">    -1</i>
   <i type="logical" name="LPLANE"> T  </i>
   <i type="logical" name="LSCALAPACK"> T  </i>
   <i type="logical" name="LSCAAWARE"> F  </i>
   <i type="logical" name="LSCALU"> F  </i>
   <i type="logical" name="LASYNC"> F  </i>
   <i type="logical" name="LORBITALREAL"> F  </i>
  </separator>
  <separator name="miscellaneous" >
   <i type="int" name="IDIOT">     3</i>
   <i type="int" name="PHON_NSTRUCT">    -1</i>
   <i type="logical" name="LMUSIC"> F  </i>
   <v name="POMASS">     58.69000000     16.00000000</v>
   <v name="DARWINR">      0.00000000      0.00000000</v>
   <v name="DARWINV">      1.00000000      1.00000000</v>
   <i type="logical" name="LCORR"> T  </i>
  </separator>
  <i type="logical" name="GGA_COMPAT"> T  </i>
  <i type="logical" name="LBERRY"> F  </i>
  <i type="int" name="ICORELEVEL">     0</i>
  <i type="logical" name="LDAU"> F  </i>
  <i type="int" name="I_CONSTRAINED_M">     0</i>
  <separator name="electronic exchange-correlation" >
   <i type="string" name="GGA">--</i>
   <i type="int" name="VOSKOWN">     0</i>
   <i type="logical" name="LHFCALC"> F  </i>
   <i type="string" name="PRECFOCK"></i>
   <i type="logical" name="LSYMGRAD"> F  </i>
   <i type="logical" name="LHFONE"> F  </i>
   <i type="logical" name="LRHFCALC"> F  </i>
   <i type="logical" name="LTHOMAS"> F  </i>
   <i type="logical" name="LMODELHF"> F  </i>
   <i type="logical" name="LFOCKACE"> F  </i>
   <i name="ENCUT4O">     -1.00000000</i>
   <i type="int" name="EXXOEP">     0</i>
   <i type="int" name="FOURORBIT">     0</i>
   <i name="AEXX">      0.00000000</i>
   <i name="HFALPHA">      0.00000000</i>
   <i name="MCALPHA">      0.00000000</i>
   <i name="ALDAX">      1.00000000</i>
   <i name="AGGAX">      1.00000000</i>
   <i name="ALDAC">      1.00000000</i>
   <i name="AGGAC">      1.00000000</i>
   <i type="int" name="NKREDX">     1</i>
   <i type="int" name="NKREDY">     1</i>
   <i type="int" name="NKREDZ">     1</i>
   <i type="logical" name="SHIFTRED"> F  </i>
   <i type="logical" name="ODDONLY"> F  </i>
   <i type="logical" name="EVENONLY"> F  </i>
   <i type="int" name="LMAXFOCK">     0</i>
   <i type="int" name="NMAXFOCKAE">     0</i>
   <i type="logical" name="LFOCKAEDFT"> F  </i>
   <i name="HFSCREEN">      0.00000000</i>
   <i name="HFSCREENC">      0.00000000</i>
   <i type="int" name="NBANDSGWLOW">     0</i>
  </separator>
  <separator name="vdW DFT" >
   <i type="logical" name="LUSE_VDW"> F  </i>
   <i name="Zab_VDW">     -0.84910000</i>
   <i name="PARAM1">      0.12340000</i>
   <i name="PARAM2">      1.00000000</i>
   <i name="PARAM3">      0.00000000</i>
  </separator>
  <separator name="model GW" >
   <i type="int" name="MODEL_GW">     0</i>
   <i name="MODEL_EPS0">      2.81137307</i>
   <i name="MODEL_ALPHA">      1.00000000</i>
  </separator>
  <separator name="linear response parameters" >
   <i type="logical" name="LEPSILON"> F  </i>
   <i type="logical" name="LRPA"> F  </i>
   <i type="logical" name="LNABLA"> F  </i>
   <i type="logical" name="LVEL"> F  </i>
   <i type="int" name="KINTER">     0</i>
   <i name="CSHIFT">      0.10000000</i>
   <i name="OMEGAMAX">     -1.00000000</i>
   <i name="DEG_THRESHOLD">      0.00200000</i>
   <i name="RTIME">     -0.10000000</i>
   <i name="WPLASMAI">      0.00000000</i>
   <v name="DFIELD">      0.00000000      0.00000000      0.00000000</v>
   <v name="WPLASMA">      0.00000000      0.00000000      0.00000000      0.00000000      0.00000000      0.00000000      0.00000000      0.00000000      0.00000000</v>
  </separator>
  <separator name="orbital magnetization" >
   <i type="logical" name="NUCIND"> F  </i>
   <v name="MAGPOS">      0.00000000      0.00000000      0.00000000</v>
   <i type="logical" name="LNICSALL"> T  </i>
   <i type="logical" name="ORBITALMAG"> F  </i>
   <i type="logical" name="LMAGBLOCH"> F  </i>
   <i type="logical" name="LCHIMAG"> F  </i>
   <i type="logical" name="LGAUGE"> T  </i>
   <i type="int" name="MAGATOM">     0</i>
   <v name="MAGDIPOL">      0.00000000      0.00000000      0.00000000</v>
   <v name="AVECCONST">      0.00000000      0.00000000      0.00000000</v>
  </separator>
  <separator name="response functions" >
   <i type="logical" name="LFINITE_TEMPERATURE"> F  </i>
   <i type="logical" name="LADDER"> F  </i>
   <i type="logical" name="LRPAFORCE"> F  </i>
   <i type="logical" name="LFXC"> F  </i>
   <i type="logical" name="LHARTREE"> T  </i>
   <i type="int" name="IBSE">     0</i>
   <v type="int" name="KPOINT">    -1     0     0     0</v>
   <i type="logical" name="LTCTC"> F  </i>
   <i type="logical" name="LTCTE"> F  </i>
   <i type="logical" name="LTETE"> F  </i>
   <i type="logical" name="LTRIPLET"> F  </i>
   <i type="logical" name="LFXCEPS"> F  </i>
   <i type="logical" name="LFXHEG"> F  </i>
   <i type="int" name="NATURALO">     2</i>
   <i type="logical" name="LHOLEGF"> F  </i>
   <i type="logical" name="L2ORDER"> F  </i>
   <i type="logical" name="LDMP1"> F  </i>
   <i type="logical" name="LMP2LT"> F  </i>
   <i type="logical" name="LSMP2LT"> F  </i>
   <i type="logical" name="LGWLF"> F  </i>
   <i name="ENCUTGW">     -2.00000000</i>
   <i name="ENCUTGWSOFT">     -2.00000000</i>
   <i name="ENCUTLF">     -1.00000000</i>
   <i type="logical" name="LESF_SPLINES"> F  </i>
   <i type="int" name="LMAXMP2">    -1</i>
   <i name="SCISSOR">      0.00000000</i>
   <i type="int" name="NOMEGA">     0</i>
   <i type="int" name="NOMEGAR">     0</i>
   <i type="int" name="NBANDSGW">    -1</i>
   <i type="int" name="NBANDSO">    -1</i>
   <i type="int" name="NBANDSV">    -1</i>
   <i type="int" name="NELM">     1</i>
   <i type="int" name="NELMHF">     1</i>
   <i type="int" name="DIM">     3</i>
   <i type="int" name="IESPILON">     4</i>
   <i type="int" name="ANTIRES">     0</i>
   <i name="OMEGAMAX">    -30.00000000</i>
   <i name="OMEGAMIN">    -30.00000000</i>
   <i name="OMEGATL">   -200.00000000</i>
   <i type="int" name="OMEGAGRID">     0</i>
   <i name="CSHIFT">     -0.10000000</i>
   <i type="logical" name="LSELFENERGY"> F  </i>
   <i type="logical" name="LSPECTRAL"> F  </i>
   <i type="logical" name="LSPECTRALGW"> F  </i>
   <i type="logical" name="LSINGLES"> F  </i>
   <i type="logical" name="LFERMIGW"> F  </i>
   <i type="logical" name="ODDONLYGW"> F  </i>
   <i type="logical" name="EVENONLYGW"> F  </i>
   <i type="int" name="NKREDLFX">     1</i>
   <i type="int" name="NKREDLFY">     1</i>
   <i type="int" name="NKREDLFZ">     1</i>
   <i type="int" name="MAXMEM">  2800</i>
   <i type="int" name="TELESCOPE">     0</i>
   <i type="int" name="NTAUPAR">    -1</i>
   <i type="int" name="NOMEGAPAR">    -1</i>
   <i name="DAMP_NEWTON">      0.80000001</i>
   <i name="LAMBDA">      1.00000000</i>
  </separator>
  <separator name="External order field" >
   <i name="OFIELD_KAPPA">      0.00000000</i>
   <v name="OFIELD_K">      0.00000000      0.00000000      0.00000000</v>
   <i name="OFIELD_Q6_NEAR">      0.00000000</i>
   <i name="OFIELD_Q6_FAR">      0.00000000</i>
   <i name="OFIELD_A">      0.00000000</i>
  </separator>
  <separator name="solvation model" >
   <i type="logical" name="LSOL"> F  </i>
  </separator>
 </parameters>
 <atominfo>
  <atoms>     250 </atoms>
  <types>       2 </types>
  <array name="atoms" >
   <dimension dim="1">ion</dimension>
   <field type="string">element</field>
   <field type="int">atomtype</field>
   <set>
    <rc><c>Ni</c><c>   1</c></rc>
    <rc><c>Ni</c><c>   1</c></rc>
    <rc><c>Ni</c><c>   1</c></rc>
    <rc><c>Ni</c><c>   1</c></rc>
    <rc><c>Ni</c><c>   1</c></rc>
    <rc><c>Ni</c><c>   1</c></rc>
    <rc><c>Ni</c><c>   1</c></rc>
    <rc><c>Ni</c><c>   1</c></rc>
    <rc><c>Ni</c><c>   1</c></rc>
    <rc><c>Ni</c><c>   1</c></rc>
    <rc><c>Ni</c><c>   1</c></rc>
    <rc><c>Ni</c><c>   1</c></rc>
    <rc><c>Ni</c><c>   1</c></rc>
    <rc><c>Ni</c><c>   1</c></rc>
    <rc><c>Ni</c><c>   1</c></rc>
    <rc><c>Ni</c><c>   1</c></rc>
    <rc><c>Ni</c><c>   1</c></rc>
    <rc><c>Ni</c><c>   1</c></rc>
    <rc><c>Ni</c><c>   1</c></rc>
    <rc><c>Ni</c><c>   1</c></rc>
    <rc><c>Ni</c><c>   1</c></rc>
    <rc><c>Ni</c><c>   1</c></rc>
    <rc><c>Ni</c><c>   1</c></rc>
    <rc><c>Ni</c><c>   1</c></rc>
    <rc><c>Ni</c><c>   1</c></rc>
    <rc><c>Ni</c><c>   1</c></rc>
    <rc><c>Ni</c><c>   1</c></rc>
    <rc><c>Ni</c><c>   1</c></rc>
    <rc><c>Ni</c><c>   1</c></rc>
    <rc><c>Ni</c><c>   1</c></rc>
    <rc><c>Ni</c><c>   1</c></rc>
    <rc><c>Ni</c><c>   1</c></rc>
    <rc><c>Ni</c><c>   1</c></rc>
    <rc><c>Ni</c><c>   1</c></rc>
    <rc><c>Ni</c><c>   1</c></rc>
    <rc><c>Ni</c><c>   1</c></rc>
    <rc><c>Ni</c><c>   1</c></rc>
    <rc><c>Ni</c><c>   1</c></rc>
    <rc><c>Ni</c><c>   1</c></rc>
    <rc><c>Ni</c><c>   1</c></rc>
    <rc><c>Ni</c><c>   1</c></rc>
    <rc><c>Ni</c><c>   1</c></rc>
    <rc><c>Ni</c><c>   1</c></rc>
    <rc><c>Ni</c><c>   1</c></rc>
    <rc><c>Ni</c><c>   1</c></rc>
    <rc><c>Ni</c><c>   1</c></rc>
    <rc><c>Ni</c><c>   1</c></rc>
    <rc><c>Ni</c><c>   1</c></rc>
    <rc><c>Ni</c><c>   1</c></rc>
    <rc><c>Ni</c><c>   1</c></rc>
    <rc><c>Ni</c><c>   1</c></rc>
    <rc><c>Ni</c><c>   1</c></rc>
    <rc><c>Ni</c><c>   1</c></rc>
    <rc><c>Ni</c><c>   1</c></rc>
    <rc><c>Ni</c><c>   1</c></rc>
    <rc><c>Ni</c><c>   1</c></rc>
    <rc><c>Ni</c><c>   1</c></rc>
    <rc><c>Ni</c><c>   1</c></rc>
    <rc><c>Ni</c><c>   1</c></rc>
    <rc><c>Ni</c><c>   1</c></rc>
    <rc><c>Ni</c><c>   1</c></rc>
    <rc><c>Ni</c><c>   1</c></rc>
    <rc><c>Ni</c><c>   1</c></rc>
    <rc><c>Ni</c><c>   1</c></rc>
    <rc><c>Ni</c><c>   1</c></rc>
    <rc><c>Ni</c><c>   1</c></rc>
    <rc><c>Ni</c><c>   1</c></rc>
    <rc><c>Ni</c><c>   1</c></rc>
    <rc><c>Ni</c><c>   1</c></rc>
    <rc><c>Ni</c><c>   1</c></rc>
    <rc><c>Ni</c><c>   1</c></rc>
    <rc><c>Ni</c><c>   1</c></rc>
    <rc><c>Ni</c><c>   1</c></rc>
    <rc><c>Ni</c><c>   1</c></rc>
    <rc><c>Ni</c><c>   1</c></rc>
    <rc><c>Ni</c><c>   1</c></rc>
    <rc><c>Ni</c><c>   1</c></rc>
    <rc><c>Ni</c><c>   1</c></rc>
    <rc><c>Ni</c><c>   1</c></rc>
    <rc><c>Ni</c><c>   1</c></rc>
    <rc><c>Ni</c><c>   1</c></rc>
    <rc><c>Ni</c><c>   1</c></rc>
    <rc><c>Ni</c><c>   1</c></rc>
    <rc><c>Ni</c><c>   1</c></rc>
    <rc><c>Ni</c><c>   1</c></rc>
    <rc><c>Ni</c><c>   1</c></rc>
    <rc><c>Ni</c><c>   1</c></rc>
    <rc><c>Ni</c><c>   1</c></rc>
    <rc><c>Ni</c><c>   1</c></rc>
    <rc><c>Ni</c><c>   1</c></rc>
    <rc><c>Ni</c><c>   1</c></rc>
    <rc><c>Ni</c><c>   1</c></rc>
    <rc><c>Ni</c><c>   1</c></rc>
    <rc><c>Ni</c><c>   1</c></rc>
    <rc><c>Ni</c><c>   1</c></rc>
    <rc><c>Ni</c><c>   1</c></rc>
    <rc><c>Ni</c><c>   1</c></rc>
    <rc><c>Ni</c><c>   1</c></rc>
    <rc><c>Ni</c><c>   1</c></rc>
    <rc><c>Ni</c><c>   1</c></rc>
    <rc><c>Ni</c><c>   1</c></rc>
    <rc><c>Ni</c><c>   1</c></rc>
    <rc><c>Ni</c><c>   1</c></rc>
    <rc><c>Ni</c><c>   1</c></rc>
    <rc><c>Ni</c><c>   1</c></rc>
    <rc><c>Ni</c><c>   1</c></rc>
    <rc><c>Ni</c><c>   1</c></rc>
    <rc><c>Ni</c><c>   1</c></rc>
    <rc><c>Ni</c><c>   1</c></rc>
    <rc><c>Ni</c><c>   1</c></rc>
    <rc><c>Ni</c><c>   1</c></rc>
    <rc><c>Ni</c><c>   1</c></rc>
    <rc><c>Ni</c><c>   1</c></rc>
    <rc><c>Ni</c><c>   1</c></rc>
    <rc><c>Ni</c><c>   1</c></rc>
    <rc><c>Ni</c><c>   1</c></rc>
    <rc><c>Ni</c><c>   1</c></rc>
    <rc><c>Ni</c><c>   1</c></rc>
    <rc><c>Ni</c><c>   1</c></rc>
    <rc><c>Ni</c><c>   1</c></rc>
    <rc><c>Ni</c><c>   1</c></rc>
    <rc><c>Ni</c><c>   1</c></rc>
    <rc><c>Ni</c><c>   1</c></rc>
    <rc><c>Ni</c><c>   1</c></rc>
    <rc><c>Ni</c><c>   1</c></rc>
    <rc><c>O </c><c>   2</c></rc>
    <rc><c>O </c><c>   2</c></rc>
    <rc><c>O </c><c>   2</c></rc>
    <rc><c>O </c><c>   2</c></rc>
    <rc><c>O </c><c>   2</c></rc>
    <rc><c>O </c><c>   2</c></rc>
    <rc><c>O </c><c>   2</c></rc>
    <rc><c>O </c><c>   2</c></rc>
    <rc><c>O </c><c>   2</c></rc>
    <rc><c>O </c><c>   2</c></rc>
    <rc><c>O </c><c>   2</c></rc>
    <rc><c>O </c><c>   2</c></rc>
    <rc><c>O </c><c>   2</c></rc>
    <rc><c>O </c><c>   2</c></rc>
    <rc><c>O </c><c>   2</c></rc>
    <rc><c>O </c><c>   2</c></rc>
    <rc><c>O </c><c>   2</c></rc>
    <rc><c>O </c><c>   2</c></rc>
    <rc><c>O </c><c>   2</c></rc>
    <rc><c>O </c><c>   2</c></rc>
    <rc><c>O </c><c>   2</c></rc>
    <rc><c>O </c><c>   2</c></rc>
    <rc><c>O </c><c>   2</c></rc>
    <rc><c>O </c><c>   2</c></rc>
    <rc><c>O </c><c>   2</c></rc>
    <rc><c>O </c><c>   2</c></rc>
    <rc><c>O </c><c>   2</c></rc>
    <rc><c>O </c><c>   2</c></rc>
    <rc><c>O </c><c>   2</c></rc>
    <rc><c>O </c><c>   2</c></rc>
    <rc><c>O </c><c>   2</c></rc>
    <rc><c>O </c><c>   2</c></rc>
    <rc><c>O </c><c>   2</c></rc>
    <rc><c>O </c><c>   2</c></rc>
    <rc><c>O </c><c>   2</c></rc>
    <rc><c>O </c><c>   2</c></rc>
    <rc><c>O </c><c>   2</c></rc>
    <rc><c>O </c><c>   2</c></rc>
    <rc><c>O </c><c>   2</c></rc>
    <rc><c>O </c><c>   2</c></rc>
    <rc><c>O </c><c>   2</c></rc>
    <rc><c>O </c><c>   2</c></rc>
    <rc><c>O </c><c>   2</c></rc>
    <rc><c>O </c><c>   2</c></rc>
    <rc><c>O </c><c>   2</c></rc>
    <rc><c>O </c><c>   2</c></rc>
    <rc><c>O </c><c>   2</c></rc>
    <rc><c>O </c><c>   2</c></rc>
    <rc><c>O </c><c>   2</c></rc>
    <rc><c>O </c><c>   2</c></rc>
    <rc><c>O </c><c>   2</c></rc>
    <rc><c>O </c><c>   2</c></rc>
    <rc><c>O </c><c>   2</c></rc>
    <rc><c>O </c><c>   2</c></rc>
    <rc><c>O </c><c>   2</c></rc>
    <rc><c>O </c><c>   2</c></rc>
    <rc><c>O </c><c>   2</c></rc>
    <rc><c>O </c><c>   2</c></rc>
    <rc><c>O </c><c>   2</c></rc>
    <rc><c>O </c><c>   2</c></rc>
    <rc><c>O </c><c>   2</c></rc>
    <rc><c>O </c><c>   2</c></rc>
    <rc><c>O </c><c>   2</c></rc>
    <rc><c>O </c><c>   2</c></rc>
    <rc><c>O </c><c>   2</c></rc>
    <rc><c>O </c><c>   2</c></rc>
    <rc><c>O </c><c>   2</c></rc>
    <rc><c>O </c><c>   2</c></rc>
    <rc><c>O </c><c>   2</c></rc>
    <rc><c>O </c><c>   2</c></rc>
    <rc><c>O </c><c>   2</c></rc>
    <rc><c>O </c><c>   2</c></rc>
    <rc><c>O </c><c>   2</c></rc>
    <rc><c>O </c><c>   2</c></rc>
    <rc><c>O </c><c>   2</c></rc>
    <rc><c>O </c><c>   2</c></rc>
    <rc><c>O </c><c>   2</c></rc>
    <rc><c>O </c><c>   2</c></rc>
    <rc><c>O </c><c>   2</c></rc>
    <rc><c>O </c><c>   2</c></rc>
    <rc><c>O </c><c>   2</c></rc>
    <rc><c>O </c><c>   2</c></rc>
    <rc><c>O </c><c>   2</c></rc>
    <rc><c>O </c><c>   2</c></rc>
    <rc><c>O </c><c>   2</c></rc>
    <rc><c>O </c><c>   2</c></rc>
    <rc><c>O </c><c>   2</c></rc>
    <rc><c>O </c><c>   2</c></rc>
    <rc><c>O </c><c>   2</c></rc>
    <rc><c>O </c><c>   2</c></rc>
    <rc><c>O </c><c>   2</c></rc>
    <rc><c>O </c><c>   2</c></rc>
    <rc><c>O </c><c>   2</c></rc>
    <rc><c>O </c><c>   2</c></rc>
    <rc><c>O </c><c>   2</c></rc>
    <rc><c>O </c><c>   2</c></rc>
    <rc><c>O </c><c>   2</c></rc>
    <rc><c>O </c><c>   2</c></rc>
    <rc><c>O </c><c>   2</c></rc>
    <rc><c>O </c><c>   2</c></rc>
    <rc><c>O </c><c>   2</c></rc>
    <rc><c>O </c><c>   2</c></rc>
    <rc><c>O </c><c>   2</c></rc>
    <rc><c>O </c><c>   2</c></rc>
    <rc><c>O </c><c>   2</c></rc>
    <rc><c>O </c><c>   2</c></rc>
    <rc><c>O </c><c>   2</c></rc>
    <rc><c>O </c><c>   2</c></rc>
    <rc><c>O </c><c>   2</c></rc>
    <rc><c>O </c><c>   2</c></rc>
    <rc><c>O </c><c>   2</c></rc>
    <rc><c>O </c><c>   2</c></rc>
    <rc><c>O </c><c>   2</c></rc>
    <rc><c>O </c><c>   2</c></rc>
    <rc><c>O </c><c>   2</c></rc>
    <rc><c>O </c><c>   2</c></rc>
    <rc><c>O </c><c>   2</c></rc>
    <rc><c>O </c><c>   2</c></rc>
    <rc><c>O </c><c>   2</c></rc>
    <rc><c>O </c><c>   2</c></rc>
    <rc><c>O </c><c>   2</c></rc>
    <rc><c>O </c><c>   2</c></rc>
    <rc><c>O </c><c>   2</c></rc>
    <rc><c>O </c><c>   2</c></rc>
    <rc><c>O </c><c>   2</c></rc>
   </set>
  </array>
  <array name="atomtypes" >
   <dimension dim="1">type</dimension>
   <field type="int">atomspertype</field>
   <field type="string">element</field>
   <field>mass</field>
   <field>valence</field>
   <field type="string">pseudopotential</field>
   <set>
    <rc><c> 125</c><c>Ni</c><c>     58.69000000</c><c>     10.00000000</c><c>  PAW Ni_GW 31Mar2010                   </c></rc>
    <rc><c> 125</c><c>O </c><c>     16.00000000</c><c>      6.00000000</c><c>  PAW O_GW 19Mar2012                    </c></rc>
   </set>
  </array>
 </atominfo>
 <structure name="initialpos" >
  <crystal>
   <varray name="basis" >
    <v>      10.54150000       0.00000000       0.00000000 </v>
    <v>       0.00000000      10.54150000       0.00000000 </v>
    <v>       0.00000000       0.00000000      10.54150000 </v>
   </varray>
   <i name="volume">   1171.40544735 </i>
   <varray name="rec_basis" >
    <v>       0.09486316       0.00000000       0.00000000 </v>
    <v>       0.00000000       0.09486316       0.00000000 </v>
    <v>       0.00000000       0.00000000       0.09486316 </v>
   </varray>
  </crystal>
  <varray name="positions" >
   <v>       0.00000000       0.00000000       0.00000000 </v>
   <v>       0.00000000       0.00000000       0.20000000 </v>
   <v>       0.00000000       0.00000000       0.40000000 </v>
   <v>       0.00000000       0.00000000       0.60000000 </v>
   <v>       0.00000000       0.00000000       0.80000000 </v>
   <v>       0.00000000       0.20000000       0.00000000 </v>
   <v>       0.00000000       0.20000000       0.20000000 </v>
   <v>       0.00000000       0.20000000       0.40000000 </v>
   <v>       0.00000000       0.20000000       0.60000000 </v>
   <v>       0.00000000       0.20000000       0.80000000 </v>
   <v>       0.00000000       0.40000000       0.00000000 </v>
   <v>       0.00000000       0.40000000       0.20000000 </v>
   <v>       0.00000000       0.40000000       0.40000000 </v>
   <v>       0.00000000       0.40000000       0.60000000 </v>
   <v>       0.00000000       0.40000000       0.80000000 </v>
   <v>       0.00000000       0.60000000       0.00000000 </v>
   <v>       0.00000000       0.60000000       0.20000000 </v>
   <v>       0.00000000       0.60000000       0.40000000 </v>
   <v>       0.00000000       0.60000000       0.60000000 </v>
   <v>       0.00000000       0.60000000       0.80000000 </v>
   <v>       0.00000000       0.80000000       0.00000000 </v>
   <v>       0.00000000       0.80000000       0.20000000 </v>
   <v>       0.00000000       0.80000000       0.40000000 </v>
   <v>       0.00000000       0.80000000       0.60000000 </v>
   <v>       0.00000000       0.80000000       0.80000000 </v>
   <v>       0.20000000       0.00000000       0.00000000 </v>
   <v>       0.20000000       0.00000000       0.20000000 </v>
   <v>       0.20000000       0.00000000       0.40000000 </v>
   <v>       0.20000000       0.00000000       0.60000000 </v>
   <v>       0.20000000       0.00000000       0.80000000 </v>
   <v>       0.20000000       0.20000000       0.00000000 </v>
   <v>       0.20000000       0.20000000       0.20000000 </v>
   <v>       0.20000000       0.20000000       0.40000000 </v>
   <v>       0.20000000       0.20000000       0.60000000 </v>
   <v>       0.20000000       0.20000000       0.80000000 </v>
   <v>       0.20000000       0.40000000       0.00000000 </v>
   <v>       0.20000000       0.40000000       0.20000000 </v>
   <v>       0.20000000       0.40000000       0.40000000 </v>
   <v>       0.20000000       0.40000000       0.60000000 </v>
   <v>       0.20000000       0.40000000       0.80000000 </v>
   <v>       0.20000000       0.60000000       0.00000000 </v>
   <v>       0.20000000       0.60000000       0.20000000 </v>
   <v>       0.20000000       0.60000000       0.40000000 </v>
   <v>       0.20000000       0.60000000       0.60000000 </v>
   <v>       0.20000000       0.60000000       0.80000000 </v>
   <v>       0.20000000       0.80000000       0.00000000 </v>
   <v>       0.20000000       0.80000000       0.20000000 </v>
   <v>       0.20000000       0.80000000       0.40000000 </v>
   <v>       0.20000000       0.80000000       0.60000000 </v>
   <v>       0.20000000       0.80000000       0.80000000 </v>
   <v>       0.40000000       0.00000000       0.00000000 </v>
   <v>       0.40000000       0.00000000       0.20000000 </v>
   <v>       0.40000000       0.00000000       0.40000000 </v>
   <v>       0.40000000       0.00000000       0.60000000 </v>
   <v>       0.40000000       0.00000000       0.80000000 </v>
   <v>       0.40000000       0.20000000       0.00000000 </v>
   <v>       0.40000000       0.20000000       0.20000000 </v>
   <v>       0.40000000       0.20000000       0.40000000 </v>
   <v>       0.40000000       0.20000000       0.60000000 </v>
   <v>       0.40000000       0.20000000       0.80000000 </v>
   <v>       0.40000000       0.40000000       0.00000000 </v>
   <v>       0.40000000       0.40000000       0.20000000 </v>
   <v>       0.40000000       0.40000000       0.40000000 </v>
   <v>       0.40000000       0.40000000       0.60000000 </v>
   <v>       0.40000000       0.40000000       0.80000000 </v>
   <v>       0.40000000       0.60000000       0.00000000 </v>
   <v>       0.40000000       0.60000000       0.20000000 </v>
   <v>       0.40000000       0.60000000       0.40000000 </v>
   <v>       0.40000000       0.60000000       0.60000000 </v>
   <v>       0.40000000       0.60000000       0.80000000 </v>
   <v>       0.40000000       0.80000000       0.00000000 </v>
   <v>       0.40000000       0.80000000       0.20000000 </v>
   <v>       0.40000000       0.80000000       0.40000000 </v>
   <v>       0.40000000       0.80000000       0.60000000 </v>
   <v>       0.40000000       0.80000000       0.80000000 </v>
   <v>       0.60000000       0.00000000       0.00000000 </v>
   <v>       0.60000000       0.00000000       0.20000000 </v>
   <v>       0.60000000       0.00000000       0.40000000 </v>
   <v>       0.60000000       0.00000000       0.60000000 </v>
   <v>       0.60000000       0.00000000       0.80000000 </v>
   <v>       0.60000000       0.20000000       0.00000000 </v>
   <v>       0.60000000       0.20000000       0.20000000 </v>
   <v>       0.60000000       0.20000000       0.40000000 </v>
   <v>       0.60000000       0.20000000       0.60000000 </v>
   <v>       0.60000000       0.20000000       0.80000000 </v>
   <v>       0.60000000       0.40000000       0.00000000 </v>
   <v>       0.60000000       0.40000000       0.20000000 </v>
   <v>       0.60000000       0.40000000       0.40000000 </v>
   <v>       0.60000000       0.40000000       0.60000000 </v>
   <v>       0.60000000       0.40000000       0.80000000 </v>
   <v>       0.60000000       0.60000000       0.00000000 </v>
   <v>       0.60000000       0.60000000       0.20000000 </v>
   <v>       0.60000000       0.60000000       0.40000000 </v>
   <v>       0.60000000       0.60000000       0.60000000 </v>
   <v>       0.60000000       0.60000000       0.80000000 </v>
   <v>       0.60000000       0.80000000       0.00000000 </v>
   <v>       0.60000000       0.80000000       0.20000000 </v>
   <v>       0.60000000       0.80000000       0.40000000 </v>
   <v>       0.60000000       0.80000000       0.60000000 </v>
   <v>       0.60000000       0.80000000       0.80000000 </v>
   <v>       0.80000000       0.00000000       0.00000000 </v>
   <v>       0.80000000       0.00000000       0.20000000 </v>
   <v>       0.80000000       0.00000000       0.40000000 </v>
   <v>       0.80000000       0.00000000       0.60000000 </v>
   <v>       0.80000000       0.00000000       0.80000000 </v>
   <v>       0.80000000       0.20000000       0.00000000 </v>
   <v>       0.80000000       0.20000000       0.20000000 </v>
   <v>       0.80000000       0.20000000       0.40000000 </v>
   <v>       0.80000000       0.20000000       0.60000000 </v>
   <v>       0.80000000       0.20000000       0.80000000 </v>
   <v>       0.80000000       0.40000000       0.00000000 </v>
   <v>       0.80000000       0.40000000       0.20000000 </v>
   <v>       0.80000000       0.40000000       0.40000000 </v>
   <v>       0.80000000       0.40000000       0.60000000 </v>
   <v>       0.80000000       0.40000000       0.80000000 </v>
   <v>       0.80000000       0.60000000       0.00000000 </v>
   <v>       0.80000000       0.60000000       0.20000000 </v>
   <v>       0.80000000       0.60000000       0.40000000 </v>
   <v>       0.80000000       0.60000000       0.60000000 </v>
   <v>       0.80000000       0.60000000       0.80000000 </v>
   <v>       0.80000000       0.80000000       0.00000000 </v>
   <v>       0.80000000       0.80000000       0.20000000 </v>
   <v>       0.80000000       0.80000000       0.40000000 </v>
   <v>       0.80000000       0.80000000       0.60000000 </v>
   <v>       0.80000000       0.80000000       0.80000000 </v>
   <v>       0.10000000       0.10000000       0.10000000 </v>
   <v>       0.10000000       0.10000000       0.30000000 </v>
   <v>       0.10000000       0.10000000       0.50000000 </v>
   <v>       0.10000000       0.10000000       0.70000000 </v>
   <v>       0.10000000       0.10000000       0.90000000 </v>
   <v>       0.10000000       0.30000000       0.10000000 </v>
   <v>       0.10000000       0.30000000       0.30000000 </v>
   <v>       0.10000000       0.30000000       0.50000000 </v>
   <v>       0.10000000       0.30000000       0.70000000 </v>
   <v>       0.10000000       0.30000000       0.90000000 </v>
   <v>       0.10000000       0.50000000       0.10000000 </v>
   <v>       0.10000000       0.50000000       0.30000000 </v>
   <v>       0.10000000       0.50000000       0.50000000 </v>
   <v>       0.10000000       0.50000000       0.70000000 </v>
   <v>       0.10000000       0.50000000       0.90000000 </v>
   <v>       0.10000000       0.70000000       0.10000000 </v>
   <v>       0.10000000       0.70000000       0.30000000 </v>
   <v>       0.10000000       0.70000000       0.50000000 </v>
   <v>       0.10000000       0.70000000       0.70000000 </v>
   <v>       0.10000000       0.70000000       0.90000000 </v>
   <v>       0.10000000       0.90000000       0.10000000 </v>
   <v>       0.10000000       0.90000000       0.30000000 </v>
   <v>       0.10000000       0.90000000       0.50000000 </v>
   <v>       0.10000000       0.90000000       0.70000000 </v>
   <v>       0.10000000       0.90000000       0.90000000 </v>
   <v>       0.30000000       0.10000000       0.10000000 </v>
   <v>       0.30000000       0.10000000       0.30000000 </v>
   <v>       0.30000000       0.10000000       0.50000000 </v>
   <v>       0.30000000       0.10000000       0.70000000 </v>
   <v>       0.30000000       0.10000000       0.90000000 </v>
   <v>       0.30000000       0.30000000       0.10000000 </v>
   <v>       0.30000000       0.30000000       0.30000000 </v>
   <v>       0.30000000       0.30000000       0.50000000 </v>
   <v>       0.30000000       0.30000000       0.70000000 </v>
   <v>       0.30000000       0.30000000       0.90000000 </v>
   <v>       0.30000000       0.50000000       0.10000000 </v>
   <v>       0.30000000       0.50000000       0.30000000 </v>
   <v>       0.30000000       0.50000000       0.50000000 </v>
   <v>       0.30000000       0.50000000       0.70000000 </v>
   <v>       0.30000000       0.50000000       0.90000000 </v>
   <v>       0.30000000       0.70000000       0.10000000 </v>
   <v>       0.30000000       0.70000000       0.30000000 </v>
   <v>       0.30000000       0.70000000       0.50000000 </v>
   <v>       0.30000000       0.70000000       0.70000000 </v>
   <v>       0.30000000       0.70000000       0.90000000 </v>
   <v>       0.30000000       0.90000000       0.10000000 </v>
   <v>       0.30000000       0.90000000       0.30000000 </v>
   <v>       0.30000000       0.90000000       0.50000000 </v>
   <v>       0.30000000       0.90000000       0.70000000 </v>
   <v>       0.30000000       0.90000000       0.90000000 </v>
   <v>       0.50000000       0.10000000       0.10000000 </v>
   <v>       0.50000000       0.10000000       0.30000000 </v>
   <v>       0.50000000       0.10000000       0.50000000 </v>
   <v>       0.50000000       0.10000000       0.70000000 </v>
   <v>       0.50000000       0.10000000       0.90000000 </v>
   <v>       0.50000000       0.30000000       0.10000000 </v>
   <v>       0.50000000       0.30000000       0.30000000 </v>
   <v>       0.50000000       0.30000000       0.50000000 </v>
   <v>       0.50000000       0.30000000       0.70000000 </v>
   <v>       0.50000000       0.30000000       0.90000000 </v>
   <v>       0.50000000       0.50000000       0.10000000 </v>
   <v>       0.50000000       0.50000000       0.30000000 </v>
   <v>       0.50000000       0.50000000       0.50000000 </v>
   <v>       0.50000000       0.50000000       0.70000000 </v>
   <v>       0.50000000       0.50000000       0.90000000 </v>
   <v>       0.50000000       0.70000000       0.10000000 </v>
   <v>       0.50000000       0.70000000       0.30000000 </v>
   <v>       0.50000000       0.70000000       0.50000000 </v>
   <v>       0.50000000       0.70000000       0.70000000 </v>
   <v>       0.50000000       0.70000000       0.90000000 </v>
   <v>       0.50000000       0.90000000       0.10000000 </v>
   <v>       0.50000000       0.90000000       0.30000000 </v>
   <v>       0.50000000       0.90000000       0.50000000 </v>
   <v>       0.50000000       0.90000000       0.70000000 </v>
   <v>       0.50000000       0.90000000       0.90000000 </v>
   <v>       0.70000000       0.10000000       0.10000000 </v>
   <v>       0.70000000       0.10000000       0.30000000 </v>
   <v>       0.70000000       0.10000000       0.50000000 </v>
   <v>       0.70000000       0.10000000       0.70000000 </v>
   <v>       0.70000000       0.10000000       0.90000000 </v>
   <v>       0.70000000       0.30000000       0.10000000 </v>
   <v>       0.70000000       0.30000000       0.30000000 </v>
   <v>       0.70000000       0.30000000       0.50000000 </v>
   <v>       0.70000000       0.30000000       0.70000000 </v>
   <v>       0.70000000       0.30000000       0.90000000 </v>
   <v>       0.70000000       0.50000000       0.10000000 </v>
   <v>       0.70000000       0.50000000       0.30000000 </v>
   <v>       0.70000000       0.50000000       0.50000000 </v>
   <v>       0.70000000       0.50000000       0.70000000 </v>
   <v>       0.70000000       0.50000000       0.90000000 </v>
   <v>       0.70000000       0.70000000       0.10000000 </v>
   <v>       0.70000000       0.70000000       0.30000000 </v>
   <v>       0.70000000       0.70000000       0.50000000 </v>
   <v>       0.70000000       0.70000000       0.70000000 </v>
   <v>       0.70000000       0.70000000       0.90000000 </v>
   <v>       0.70000000       0.90000000       0.10000000 </v>
   <v>       0.70000000       0.90000000       0.30000000 </v>
   <v>       0.70000000       0.90000000       0.50000000 </v>
   <v>       0.70000000       0.90000000       0.70000000 </v>
   <v>       0.70000000       0.90000000       0.90000000 </v>
   <v>       0.90000000       0.10000000       0.10000000 </v>
   <v>       0.90000000       0.10000000       0.30000000 </v>
   <v>       0.90000000       0.10000000       0.50000000 </v>
   <v>       0.90000000       0.10000000       0.70000000 </v>
   <v>       0.90000000       0.10000000       0.90000000 </v>
   <v>       0.90000000       0.30000000       0.10000000 </v>
   <v>       0.90000000       0.30000000       0.30000000 </v>
   <v>       0.90000000       0.30000000       0.50000000 </v>
   <v>       0.90000000       0.30000000       0.70000000 </v>
   <v>       0.90000000       0.30000000       0.90000000 </v>
   <v>       0.90000000       0.50000000       0.10000000 </v>
   <v>       0.90000000       0.50000000       0.30000000 </v>
   <v>       0.90000000       0.50000000       0.50000000 </v>
   <v>       0.90000000       0.50000000       0.70000000 </v>
   <v>       0.90000000       0.50000000       0.90000000 </v>
   <v>       0.90000000       0.70000000       0.10000000 </v>
   <v>       0.90000000       0.70000000       0.30000000 </v>
   <v>       0.90000000       0.70000000       0.50000000 </v>
   <v>       0.90000000       0.70000000       0.70000000 </v>
   <v>       0.90000000       0.70000000       0.90000000 </v>
   <v>       0.90000000       0.90000000       0.10000000 </v>
   <v>       0.90000000       0.90000000       0.30000000 </v>
   <v>       0.90000000       0.90000000       0.50000000 </v>
   <v>       0.90000000       0.90000000       0.70000000 </v>
   <v>       0.90000000       0.90000000       0.90000000 </v>
  </varray>
 </structure>
 <calculation>
  <scstep>
   <time name="dav">   13.03   13.04</time>
   <time name="total">   13.48   13.50</time>
   <energy>
    <i name="alphaZ">  25516.34838959 </i>
    <i name="ewald">-205799.95837987 </i>
    <i name="hartreedc"> -20239.81946139 </i>
    <i name="XCdc">   5283.64332194 </i>
    <i name="pawpsdc"> 162665.39147911 </i>
    <i name="pawaedc">-172267.95055365 </i>
    <i name="eentropy">     -0.03525407 </i>
    <i name="bandstr">  44843.27387712 </i>
    <i name="atom"> 188700.74019153 </i>
    <i name="e_fr_energy">  28701.63361030 </i>
    <i name="e_wo_entrp">  28701.66886437 </i>
    <i name="e_0_energy">  28701.65123734 </i>
   </energy>
  </scstep>
  <scstep>
   <time name="dav">   12.90   12.90</time>
   <time name="total">   12.90   12.91</time>
   <energy>
    <i name="e_fr_energy">   3990.03673026 </i>
    <i name="e_wo_entrp">   3990.11517004 </i>
    <i name="e_0_energy">   3990.07595015 </i>
   </energy>
  </scstep>
  <scstep>
   <time name="dav">   13.57   13.57</time>
   <time name="total">   13.58   13.58</time>
   <energy>
    <i name="e_fr_energy">   -170.66988434 </i>
    <i name="e_wo_entrp">   -170.31053869 </i>
    <i name="e_0_energy">   -170.49021151 </i>
   </energy>
  </scstep>
  <scstep>
   <time name="dav">   17.86   17.86</time>
   <time name="total">   17.86   17.86</time>
   <energy>
    <i name="e_fr_energy">   -621.39742191 </i>
    <i name="e_wo_entrp">   -621.07792981 </i>
    <i name="e_0_energy">   -621.23767586 </i>
   </energy>
  </scstep>
  <scstep>
   <time name="dav">   17.65   17.65</time>
   <time name="total">   18.57   18.58</time>
   <energy>
    <i name="e_fr_energy">   -635.95078167 </i>
    <i name="e_wo_entrp">   -635.62142679 </i>
    <i name="e_0_energy">   -635.78610423 </i>
   </energy>
  </scstep>
  <scstep>
   <time name="dav">   17.94   17.94</time>
   <time name="total">   19.35   19.35</time>
   <energy>
    <i name="e_fr_energy">   -447.02369473 </i>
    <i name="e_wo_entrp">   -446.84749913 </i>
    <i name="e_0_energy">   -446.93559693 </i>
   </energy>
  </scstep>
  <scstep>
   <time name="dav">   14.36   14.36</time>
   <time name="total">   15.75   15.75</time>
   <energy>
    <i name="e_fr_energy">   -580.08016501 </i>
    <i name="e_wo_entrp">   -579.70643114 </i>
    <i name="e_0_energy">   -579.89329807 </i>
   </energy>
  </scstep>
  <scstep>
   <time name="dav">   15.09   15.09</time>
   <time name="total">   16.46   16.46</time>
   <energy>
    <i name="e_fr_energy">   -383.24122987 </i>
    <i name="e_wo_entrp">   -382.98809925 </i>
    <i name="e_0_energy">   -383.11466456 </i>
   </energy>
  </scstep>
  <scstep>
   <time name="dav">   15.83   15.83</time>
   <time name="total">   17.25   17.26</time>
   <energy>
    <i name="e_fr_energy">   -385.24808635 </i>
    <i name="e_wo_entrp">   -384.99411370 </i>
    <i name="e_0_energy">   -385.12110003 </i>
   </energy>
  </scstep>
  <scstep>
   <time name="dav">   14.71   14.71</time>
   <time name="total">   16.08   16.08</time>
   <energy>
    <i name="e_fr_energy">   -384.70651243 </i>
    <i name="e_wo_entrp">   -384.45710615 </i>
    <i name="e_0_energy">   -384.58180929 </i>
   </energy>
  </scstep>
  <scstep>
   <time name="dav">   16.45   16.45</time>
   <time name="total">   17.79   17.79</time>
   <energy>
    <i name="e_fr_energy">   -384.61842807 </i>
    <i name="e_wo_entrp">   -384.37265927 </i>
    <i name="e_0_energy">   -384.49554367 </i>
   </energy>
  </scstep>
  <scstep>
   <time name="dav">   19.02   19.02</time>
   <time name="total">   20.37   20.37</time>
   <energy>
    <i name="e_fr_energy">   -384.37854605 </i>
    <i name="e_wo_entrp">   -384.13917933 </i>
    <i name="e_0_energy">   -384.25886269 </i>
   </energy>
  </scstep>
  <scstep>
   <time name="dav">   14.01   14.01</time>
   <time name="total">   15.40   15.40</time>
   <energy>
    <i name="e_fr_energy">   -384.39274132 </i>
    <i name="e_wo_entrp">   -384.15351618 </i>
    <i name="e_0_energy">   -384.27312875 </i>
   </energy>
  </scstep>
  <scstep>
   <time name="dav">   14.34   14.34</time>
   <time name="total">   15.71   15.72</time>
   <energy>
    <i name="e_fr_energy">   -384.39044611 </i>
    <i name="e_wo_entrp">   -384.15084303 </i>
    <i name="e_0_energy">   -384.27064457 </i>
   </energy>
  </scstep>
  <scstep>
   <time name="dav">   13.77   13.78</time>
   <time name="total">   15.18   15.18</time>
   <energy>
    <i name="e_fr_energy">   -384.39064261 </i>
    <i name="e_wo_entrp">   -384.15102028 </i>
    <i name="e_0_energy">   -384.27083144 </i>
   </energy>
  </scstep>
  <scstep>
   <time name="dav">   14.56   14.56</time>
   <time name="total">   15.93   15.93</time>
   <energy>
    <i name="e_fr_energy">   -384.39047650 </i>
    <i name="e_wo_entrp">   -384.15070889 </i>
    <i name="e_0_energy">   -384.27059270 </i>
   </energy>
  </scstep>
  <scstep>
   <time name="dav">   15.79   15.80</time>
   <time name="total">   17.21   17.22</time>
   <energy>
    <i name="e_fr_energy">   -384.39043019 </i>
    <i name="e_wo_entrp">   -384.15061476 </i>
    <i name="e_0_energy">   -384.27052247 </i>
   </energy>
  </scstep>
  <scstep>
   <time name="dav">   15.62   15.62</time>
   <time name="total">   17.06   17.06</time>
   <energy>
    <i name="e_fr_energy">   -384.39043416 </i>
    <i name="e_wo_entrp">   -384.15062539 </i>
    <i name="e_0_energy">   -384.27052978 </i>
   </energy>
  </scstep>
  <scstep>
   <time name="dav">   15.39   15.40</time>
   <time name="total">   16.80   16.80</time>
   <energy>
    <i name="e_fr_energy">   -384.39043703 </i>
    <i name="e_wo_entrp">   -384.15062906 </i>
    <i name="e_0_energy">   -384.27053304 </i>
   </energy>
  </scstep>
  <scstep>
   <time name="dav">   12.07   12.07</time>
   <time name="total">   13.52   13.52</time>
   <energy>
    <i name="e_fr_energy">   -384.39044076 </i>
    <i name="e_wo_entrp">   -384.15063268 </i>
    <i name="e_0_energy">   -384.27053672 </i>
   </energy>
  </scstep>
  <scstep>
   <time name="dav">    8.99    8.99</time>
   <time name="total">   10.36   10.36</time>
   <energy>
    <i name="e_fr_energy">   -384.39044113 </i>
    <i name="e_wo_entrp">   -384.15063262 </i>
    <i name="e_0_energy">   -384.27053688 </i>
   </energy>
  </scstep>
  <scstep>
   <time name="dav">    8.98    8.98</time>
   <time name="total">   10.36   10.36</time>
   <energy>
    <i name="e_fr_energy">   -384.39044100 </i>
    <i name="e_wo_entrp">   -384.15063282 </i>
    <i name="e_0_energy">   -384.27053691 </i>
   </energy>
  </scstep>
  <scstep>
   <time name="dav">    8.96    8.97</time>
   <time name="total">    9.40    9.40</time>
   <energy>
    <i name="alphaZ">  25516.34838959 </i>
    <i name="ewald">-205799.95837987 </i>
    <i name="hartreedc"> -19637.21016595 </i>
    <i name="XCdc">   5315.02775911 </i>
    <i name="pawpsdc"> 456308.75895378 </i>
    <i name="pawaedc">-467248.81485268 </i>
    <i name="eentropy">     -0.23980784 </i>
    <i name="bandstr">  16460.95747135 </i>
    <i name="atom"> 188700.74019153 </i>
    <i name="e_fr_energy">   -384.39044099 </i>
    <i name="e_wo_entrp">   -384.15063315 </i>
    <i name="e_0_energy">   -384.27053707 </i>
   </energy>
  </scstep>
  <structure>
   <crystal>
    <varray name="basis" >
     <v>      10.54150000       0.00000000       0.00000000 </v>
     <v>       0.00000000      10.54150000       0.00000000 </v>
     <v>       0.00000000       0.00000000      10.54150000 </v>
    </varray>
    <i name="volume">   1171.40544735 </i>
    <varray name="rec_basis" >
     <v>       0.09486316       0.00000000       0.00000000 </v>
     <v>       0.00000000       0.09486316       0.00000000 </v>
     <v>       0.00000000       0.00000000       0.09486316 </v>
    </varray>
   </crystal>
   <varray name="positions" >
    <v>       0.00000000       0.00000000       0.00000000 </v>
    <v>       0.00000000       0.00000000       0.20000000 </v>
    <v>       0.00000000       0.00000000       0.40000000 </v>
    <v>       0.00000000       0.00000000       0.60000000 </v>
    <v>       0.00000000       0.00000000       0.80000000 </v>
    <v>       0.00000000       0.20000000       0.00000000 </v>
    <v>       0.00000000       0.20000000       0.20000000 </v>
    <v>       0.00000000       0.20000000       0.40000000 </v>
    <v>       0.00000000       0.20000000       0.60000000 </v>
    <v>       0.00000000       0.20000000       0.80000000 </v>
    <v>       0.00000000       0.40000000       0.00000000 </v>
    <v>       0.00000000       0.40000000       0.20000000 </v>
    <v>       0.00000000       0.40000000       0.40000000 </v>
    <v>       0.00000000       0.40000000       0.60000000 </v>
    <v>       0.00000000       0.40000000       0.80000000 </v>
    <v>       0.00000000       0.60000000       0.00000000 </v>
    <v>       0.00000000       0.60000000       0.20000000 </v>
    <v>       0.00000000       0.60000000       0.40000000 </v>
    <v>       0.00000000       0.60000000       0.60000000 </v>
    <v>       0.00000000       0.60000000       0.80000000 </v>
    <v>       0.00000000       0.80000000       0.00000000 </v>
    <v>       0.00000000       0.80000000       0.20000000 </v>
    <v>       0.00000000       0.80000000       0.40000000 </v>
    <v>       0.00000000       0.80000000       0.60000000 </v>
    <v>       0.00000000       0.80000000       0.80000000 </v>
    <v>       0.20000000       0.00000000       0.00000000 </v>
    <v>       0.20000000       0.00000000       0.20000000 </v>
    <v>       0.20000000       0.00000000       0.40000000 </v>
    <v>       0.20000000       0.00000000       0.60000000 </v>
    <v>       0.20000000       0.00000000       0.80000000 </v>
    <v>       0.20000000       0.20000000       0.00000000 </v>
    <v>       0.20000000       0.20000000       0.20000000 </v>
    <v>       0.20000000       0.20000000       0.40000000 </v>
    <v>       0.20000000       0.20000000       0.60000000 </v>
    <v>       0.20000000       0.20000000       0.80000000 </v>
    <v>       0.20000000       0.40000000       0.00000000 </v>
    <v>       0.20000000       0.40000000       0.20000000 </v>
    <v>       0.20000000       0.40000000       0.40000000 </v>
    <v>       0.20000000       0.40000000       0.60000000 </v>
    <v>       0.20000000       0.40000000       0.80000000 </v>
    <v>       0.20000000       0.60000000       0.00000000 </v>
    <v>       0.20000000       0.60000000       0.20000000 </v>
    <v>       0.20000000       0.60000000       0.40000000 </v>
    <v>       0.20000000       0.60000000       0.60000000 </v>
    <v>       0.20000000       0.60000000       0.80000000 </v>
    <v>       0.20000000       0.80000000       0.00000000 </v>
    <v>       0.20000000       0.80000000       0.20000000 </v>
    <v>       0.20000000       0.80000000       0.40000000 </v>
    <v>       0.20000000       0.80000000       0.60000000 </v>
    <v>       0.20000000       0.80000000       0.80000000 </v>
    <v>       0.40000000       0.00000000       0.00000000 </v>
    <v>       0.40000000       0.00000000       0.20000000 </v>
    <v>       0.40000000       0.00000000       0.40000000 </v>
    <v>       0.40000000       0.00000000       0.60000000 </v>
    <v>       0.40000000       0.00000000       0.80000000 </v>
    <v>       0.40000000       0.20000000       0.00000000 </v>
    <v>       0.40000000       0.20000000       0.20000000 </v>
    <v>       0.40000000       0.20000000       0.40000000 </v>
    <v>       0.40000000       0.20000000       0.60000000 </v>
    <v>       0.40000000       0.20000000       0.80000000 </v>
    <v>       0.40000000       0.40000000       0.00000000 </v>
    <v>       0.40000000       0.40000000       0.20000000 </v>
    <v>       0.40000000       0.40000000       0.40000000 </v>
    <v>       0.40000000       0.40000000       0.60000000 </v>
    <v>       0.40000000       0.40000000       0.80000000 </v>
    <v>       0.40000000       0.60000000       0.00000000 </v>
    <v>       0.40000000       0.60000000       0.20000000 </v>
    <v>       0.40000000       0.60000000       0.40000000 </v>
    <v>       0.40000000       0.60000000       0.60000000 </v>
    <v>       0.40000000       0.60000000       0.80000000 </v>
    <v>       0.40000000       0.80000000       0.00000000 </v>
    <v>       0.40000000       0.80000000       0.20000000 </v>
    <v>       0.40000000       0.80000000       0.40000000 </v>
    <v>       0.40000000       0.80000000       0.60000000 </v>
    <v>       0.40000000       0.80000000       0.80000000 </v>
    <v>       0.60000000       0.00000000       0.00000000 </v>
    <v>       0.60000000       0.00000000       0.20000000 </v>
    <v>       0.60000000       0.00000000       0.40000000 </v>
    <v>       0.60000000       0.00000000       0.60000000 </v>
    <v>       0.60000000       0.00000000       0.80000000 </v>
    <v>       0.60000000       0.20000000       0.00000000 </v>
    <v>       0.60000000       0.20000000       0.20000000 </v>
    <v>       0.60000000       0.20000000       0.40000000 </v>
    <v>       0.60000000       0.20000000       0.60000000 </v>
    <v>       0.60000000       0.20000000       0.80000000 </v>
    <v>       0.60000000       0.40000000       0.00000000 </v>
    <v>       0.60000000       0.40000000       0.20000000 </v>
    <v>       0.60000000       0.40000000       0.40000000 </v>
    <v>       0.60000000       0.40000000       0.60000000 </v>
    <v>       0.60000000       0.40000000       0.80000000 </v>
    <v>       0.60000000       0.60000000       0.00000000 </v>
    <v>       0.60000000       0.60000000       0.20000000 </v>
    <v>       0.60000000       0.60000000       0.40000000 </v>
    <v>       0.60000000       0.60000000       0.60000000 </v>
    <v>       0.60000000       0.60000000       0.80000000 </v>
    <v>       0.60000000       0.80000000       0.00000000 </v>
    <v>       0.60000000       0.80000000       0.20000000 </v>
    <v>       0.60000000       0.80000000       0.40000000 </v>
    <v>       0.60000000       0.80000000       0.60000000 </v>
    <v>       0.60000000       0.80000000       0.80000000 </v>
    <v>       0.80000000       0.00000000       0.00000000 </v>
    <v>       0.80000000       0.00000000       0.20000000 </v>
    <v>       0.80000000       0.00000000       0.40000000 </v>
    <v>       0.80000000       0.00000000       0.60000000 </v>
    <v>       0.80000000       0.00000000       0.80000000 </v>
    <v>       0.80000000       0.20000000       0.00000000 </v>
    <v>       0.80000000       0.20000000       0.20000000 </v>
    <v>       0.80000000       0.20000000       0.40000000 </v>
    <v>       0.80000000       0.20000000       0.60000000 </v>
    <v>       0.80000000       0.20000000       0.80000000 </v>
    <v>       0.80000000       0.40000000       0.00000000 </v>
    <v>       0.80000000       0.40000000       0.20000000 </v>
    <v>       0.80000000       0.40000000       0.40000000 </v>
    <v>       0.80000000       0.40000000       0.60000000 </v>
    <v>       0.80000000       0.40000000       0.80000000 </v>
    <v>       0.80000000       0.60000000       0.00000000 </v>
    <v>       0.80000000       0.60000000       0.20000000 </v>
    <v>       0.80000000       0.60000000       0.40000000 </v>
    <v>       0.80000000       0.60000000       0.60000000 </v>
    <v>       0.80000000       0.60000000       0.80000000 </v>
    <v>       0.80000000       0.80000000       0.00000000 </v>
    <v>       0.80000000       0.80000000       0.20000000 </v>
    <v>       0.80000000       0.80000000       0.40000000 </v>
    <v>       0.80000000       0.80000000       0.60000000 </v>
    <v>       0.80000000       0.80000000       0.80000000 </v>
    <v>       0.10000000       0.10000000       0.10000000 </v>
    <v>       0.10000000       0.10000000       0.30000000 </v>
    <v>       0.10000000       0.10000000       0.50000000 </v>
    <v>       0.10000000       0.10000000       0.70000000 </v>
    <v>       0.10000000       0.10000000       0.90000000 </v>
    <v>       0.10000000       0.30000000       0.10000000 </v>
    <v>       0.10000000       0.30000000       0.30000000 </v>
    <v>       0.10000000       0.30000000       0.50000000 </v>
    <v>       0.10000000       0.30000000       0.70000000 </v>
    <v>       0.10000000       0.30000000       0.90000000 </v>
    <v>       0.10000000       0.50000000       0.10000000 </v>
    <v>       0.10000000       0.50000000       0.30000000 </v>
    <v>       0.10000000       0.50000000       0.50000000 </v>
    <v>       0.10000000       0.50000000       0.70000000 </v>
    <v>       0.10000000       0.50000000       0.90000000 </v>
    <v>       0.10000000       0.70000000       0.10000000 </v>
    <v>       0.10000000       0.70000000       0.30000000 </v>
    <v>       0.10000000       0.70000000       0.50000000 </v>
    <v>       0.10000000       0.70000000       0.70000000 </v>
    <v>       0.10000000       0.70000000       0.90000000 </v>
    <v>       0.10000000       0.90000000       0.10000000 </v>
    <v>       0.10000000       0.90000000       0.30000000 </v>
    <v>       0.10000000       0.90000000       0.50000000 </v>
    <v>       0.10000000       0.90000000       0.70000000 </v>
    <v>       0.10000000       0.90000000       0.90000000 </v>
    <v>       0.30000000       0.10000000       0.10000000 </v>
    <v>       0.30000000       0.10000000       0.30000000 </v>
    <v>       0.30000000       0.10000000       0.50000000 </v>
    <v>       0.30000000       0.10000000       0.70000000 </v>
    <v>       0.30000000       0.10000000       0.90000000 </v>
    <v>       0.30000000       0.30000000       0.10000000 </v>
    <v>       0.30000000       0.30000000       0.30000000 </v>
    <v>       0.30000000       0.30000000       0.50000000 </v>
    <v>       0.30000000       0.30000000       0.70000000 </v>
    <v>       0.30000000       0.30000000       0.90000000 </v>
    <v>       0.30000000       0.50000000       0.10000000 </v>
    <v>       0.30000000       0.50000000       0.30000000 </v>
    <v>       0.30000000       0.50000000       0.50000000 </v>
    <v>       0.30000000       0.50000000       0.70000000 </v>
    <v>       0.30000000       0.50000000       0.90000000 </v>
    <v>       0.30000000       0.70000000       0.10000000 </v>
    <v>       0.30000000       0.70000000       0.30000000 </v>
    <v>       0.30000000       0.70000000       0.50000000 </v>
    <v>       0.30000000       0.70000000       0.70000000 </v>
    <v>       0.30000000       0.70000000       0.90000000 </v>
    <v>       0.30000000       0.90000000       0.10000000 </v>
    <v>       0.30000000       0.90000000       0.30000000 </v>
    <v>       0.30000000       0.90000000       0.50000000 </v>
    <v>       0.30000000       0.90000000       0.70000000 </v>
    <v>       0.30000000       0.90000000       0.90000000 </v>
    <v>       0.50000000       0.10000000       0.10000000 </v>
    <v>       0.50000000       0.10000000       0.30000000 </v>
    <v>       0.50000000       0.10000000       0.50000000 </v>
    <v>       0.50000000       0.10000000       0.70000000 </v>
    <v>       0.50000000       0.10000000       0.90000000 </v>
    <v>       0.50000000       0.30000000       0.10000000 </v>
    <v>       0.50000000       0.30000000       0.30000000 </v>
    <v>       0.50000000       0.30000000       0.50000000 </v>
    <v>       0.50000000       0.30000000       0.70000000 </v>
    <v>       0.50000000       0.30000000       0.90000000 </v>
    <v>       0.50000000       0.50000000       0.10000000 </v>
    <v>       0.50000000       0.50000000       0.30000000 </v>
    <v>       0.50000000       0.50000000       0.50000000 </v>
    <v>       0.50000000       0.50000000       0.70000000 </v>
    <v>       0.50000000       0.50000000       0.90000000 </v>
    <v>       0.50000000       0.70000000       0.10000000 </v>
    <v>       0.50000000       0.70000000       0.30000000 </v>
    <v>       0.50000000       0.70000000       0.50000000 </v>
    <v>       0.50000000       0.70000000       0.70000000 </v>
    <v>       0.50000000       0.70000000       0.90000000 </v>
    <v>       0.50000000       0.90000000       0.10000000 </v>
    <v>       0.50000000       0.90000000       0.30000000 </v>
    <v>       0.50000000       0.90000000       0.50000000 </v>
    <v>       0.50000000       0.90000000       0.70000000 </v>
    <v>       0.50000000       0.90000000       0.90000000 </v>
    <v>       0.70000000       0.10000000       0.10000000 </v>
    <v>       0.70000000       0.10000000       0.30000000 </v>
    <v>       0.70000000       0.10000000       0.50000000 </v>
    <v>       0.70000000       0.10000000       0.70000000 </v>
    <v>       0.70000000       0.10000000       0.90000000 </v>
    <v>       0.70000000       0.30000000       0.10000000 </v>
    <v>       0.70000000       0.30000000       0.30000000 </v>
    <v>       0.70000000       0.30000000       0.50000000 </v>
    <v>       0.70000000       0.30000000       0.70000000 </v>
    <v>       0.70000000       0.30000000       0.90000000 </v>
    <v>       0.70000000       0.50000000       0.10000000 </v>
    <v>       0.70000000       0.50000000       0.30000000 </v>
    <v>       0.70000000       0.50000000       0.50000000 </v>
    <v>       0.70000000       0.50000000       0.70000000 </v>
    <v>       0.70000000       0.50000000       0.90000000 </v>
    <v>       0.70000000       0.70000000       0.10000000 </v>
    <v>       0.70000000       0.70000000       0.30000000 </v>
    <v>       0.70000000       0.70000000       0.50000000 </v>
    <v>       0.70000000       0.70000000       0.70000000 </v>
    <v>       0.70000000       0.70000000       0.90000000 </v>
    <v>       0.70000000       0.90000000       0.10000000 </v>
    <v>       0.70000000       0.90000000       0.30000000 </v>
    <v>       0.70000000       0.90000000       0.50000000 </v>
    <v>       0.70000000       0.90000000       0.70000000 </v>
    <v>       0.70000000       0.90000000       0.90000000 </v>
    <v>       0.90000000       0.10000000       0.10000000 </v>
    <v>       0.90000000       0.10000000       0.30000000 </v>
    <v>       0.90000000       0.10000000       0.50000000 </v>
    <v>       0.90000000       0.10000000       0.70000000 </v>
    <v>       0.90000000       0.10000000       0.90000000 </v>
    <v>       0.90000000       0.30000000       0.10000000 </v>
    <v>       0.90000000       0.30000000       0.30000000 </v>
    <v>       0.90000000       0.30000000       0.50000000 </v>
    <v>       0.90000000       0.30000000       0.70000000 </v>
    <v>       0.90000000       0.30000000       0.90000000 </v>
    <v>       0.90000000       0.50000000       0.10000000 </v>
    <v>       0.90000000       0.50000000       0.30000000 </v>
    <v>       0.90000000       0.50000000       0.50000000 </v>
    <v>       0.90000000       0.50000000       0.70000000 </v>
    <v>       0.90000000       0.50000000       0.90000000 </v>
    <v>       0.90000000       0.70000000       0.10000000 </v>
    <v>       0.90000000       0.70000000       0.30000000 </v>
    <v>       0.90000000       0.70000000       0.50000000 </v>
    <v>       0.90000000       0.70000000       0.70000000 </v>
    <v>       0.90000000       0.70000000       0.90000000 </v>
    <v>       0.90000000       0.90000000       0.10000000 </v>
    <v>       0.90000000       0.90000000       0.30000000 </v>
    <v>       0.90000000       0.90000000       0.50000000 </v>
    <v>       0.90000000       0.90000000       0.70000000 </v>
    <v>       0.90000000       0.90000000       0.90000000 </v>
   </varray>
  </structure>
  <varray name="forces" >
   <v>      -0.00000000       0.00000000       0.00000000 </v>
   <v>       0.00000000      -0.00000000      -0.00000000 </v>
   <v>       0.00000000       0.00000000       0.00000000 </v>
   <v>      -0.00000000       0.00000000      -0.00000000 </v>
   <v>       0.00000000      -0.00000000       0.00000000 </v>
   <v>       0.00000000      -0.00000000      -0.00000000 </v>
   <v>       0.00000000      -0.00000000       0.00000000 </v>
   <v>       0.00000000       0.00000000       0.00000000 </v>
   <v>       0.00000000       0.00000000       0.00000000 </v>
   <v>       0.00000000      -0.00000000      -0.00000000 </v>
   <v>       0.00000000       0.00000000       0.00000000 </v>
   <v>       0.00000000      -0.00000000      -0.00000000 </v>
   <v>       0.00000000       0.00000000      -0.00000000 </v>
   <v>       0.00000000      -0.00000000      -0.00000000 </v>
   <v>       0.00000000       0.00000000       0.00000000 </v>
   <v>       0.00000000       0.00000000       0.00000000 </v>
   <v>       0.00000000      -0.00000000      -0.00000000 </v>
   <v>      -0.00000000       0.00000000      -0.00000000 </v>
   <v>       0.00000000      -0.00000000      -0.00000000 </v>
   <v>       0.00000000       0.00000000       0.00000000 </v>
   <v>       0.00000000       0.00000000       0.00000000 </v>
   <v>       0.00000000       0.00000000       0.00000000 </v>
   <v>       0.00000000       0.00000000      -0.00000000 </v>
   <v>       0.00000000       0.00000000       0.00000000 </v>
   <v>       0.00000000      -0.00000000       0.00000000 </v>
   <v>      -0.00000000      -0.00000000       0.00000000 </v>
   <v>       0.00000000      -0.00000000      -0.00000000 </v>
   <v>      -0.00000000      -0.00000000       0.00000000 </v>
   <v>      -0.00000000      -0.00000000      -0.00000000 </v>
   <v>      -0.00000000      -0.00000000       0.00000000 </v>
   <v>       0.00000000       0.00000000      -0.00000000 </v>
   <v>      -0.00000000       0.00000000       0.00000000 </v>
   <v>       0.00000000       0.00000000       0.00000000 </v>
   <v>      -0.00000000       0.00000000       0.00000000 </v>
   <v>      -0.00000000       0.00000000      -0.00000000 </v>
   <v>       0.00000000       0.00000000       0.00000000 </v>
   <v>       0.00000000      -0.00000000      -0.00000000 </v>
   <v>       0.00000000      -0.00000000       0.00000000 </v>
   <v>      -0.00000000       0.00000000      -0.00000000 </v>
   <v>      -0.00000000       0.00000000       0.00000000 </v>
   <v>       0.00000000       0.00000000       0.00000000 </v>
   <v>       0.00000000       0.00000000      -0.00000000 </v>
   <v>      -0.00000000       0.00000000      -0.00000000 </v>
   <v>      -0.00000000       0.00000000      -0.00000000 </v>
   <v>      -0.00000000       0.00000000       0.00000000 </v>
   <v>       0.00000000       0.00000000      -0.00000000 </v>
   <v>       0.00000000      -0.00000000      -0.00000000 </v>
   <v>       0.00000000      -0.00000000      -0.00000000 </v>
   <v>      -0.00000000      -0.00000000       0.00000000 </v>
   <v>      -0.00000000      -0.00000000      -0.00000000 </v>
   <v>      -0.00000000      -0.00000000       0.00000000 </v>
   <v>      -0.00000000      -0.00000000      -0.00000000 </v>
   <v>      -0.00000000      -0.00000000       0.00000000 </v>
   <v>       0.00000000       0.00000000       0.00000000 </v>
   <v>       0.00000000       0.00000000      -0.00000000 </v>
   <v>      -0.00000000       0.00000000      -0.00000000 </v>
   <v>      -0.00000000       0.00000000       0.00000000 </v>
   <v>      -0.00000000       0.00000000       0.00000000 </v>
   <v>       0.00000000       0.00000000       0.00000000 </v>
   <v>      -0.00000000       0.00000000      -0.00000000 </v>
   <v>      -0.00000000      -0.00000000      -0.00000000 </v>
   <v>      -0.00000000      -0.00000000       0.00000000 </v>
   <v>       0.00000000      -0.00000000       0.00000000 </v>
   <v>       0.00000000      -0.00000000       0.00000000 </v>
   <v>      -0.00000000      -0.00000000       0.00000000 </v>
   <v>      -0.00000000       0.00000000       0.00000000 </v>
   <v>      -0.00000000       0.00000000      -0.00000000 </v>
   <v>      -0.00000000      -0.00000000      -0.00000000 </v>
   <v>      -0.00000000      -0.00000000      -0.00000000 </v>
   <v>      -0.00000000       0.00000000       0.00000000 </v>
   <v>      -0.00000000      -0.00000000      -0.00000000 </v>
   <v>      -0.00000000      -0.00000000       0.00000000 </v>
   <v>      -0.00000000      -0.00000000      -0.00000000 </v>
   <v>       0.00000000       0.00000000       0.00000000 </v>
   <v>      -0.00000000      -0.00000000      -0.00000000 </v>
   <v>       0.00000000      -0.00000000       0.00000000 </v>
   <v>       0.00000000      -0.00000000      -0.00000000 </v>
   <v>       0.00000000      -0.00000000       0.00000000 </v>
   <v>      -0.00000000      -0.00000000      -0.00000000 </v>
   <v>       0.00000000      -0.00000000      -0.00000000 </v>
   <v>       0.00000000       0.00000000      -0.00000000 </v>
   <v>       0.00000000       0.00000000       0.00000000 </v>
   <v>      -0.00000000       0.00000000       0.00000000 </v>
   <v>      -0.00000000       0.00000000       0.00000000 </v>
   <v>       0.00000000       0.00000000      -0.00000000 </v>
   <v>       0.00000000      -0.00000000      -0.00000000 </v>
   <v>       0.00000000      -0.00000000       0.00000000 </v>
   <v>       0.00000000      -0.00000000      -0.00000000 </v>
   <v>       0.00000000      -0.00000000       0.00000000 </v>
   <v>      -0.00000000      -0.00000000      -0.00000000 </v>
   <v>       0.00000000       0.00000000       0.00000000 </v>
   <v>       0.00000000       0.00000000      -0.00000000 </v>
   <v>      -0.00000000       0.00000000      -0.00000000 </v>
   <v>       0.00000000       0.00000000      -0.00000000 </v>
   <v>       0.00000000       0.00000000       0.00000000 </v>
   <v>       0.00000000      -0.00000000      -0.00000000 </v>
   <v>       0.00000000      -0.00000000       0.00000000 </v>
   <v>       0.00000000      -0.00000000      -0.00000000 </v>
   <v>      -0.00000000      -0.00000000       0.00000000 </v>
   <v>      -0.00000000      -0.00000000      -0.00000000 </v>
   <v>      -0.00000000       0.00000000       0.00000000 </v>
   <v>       0.00000000      -0.00000000      -0.00000000 </v>
   <v>       0.00000000       0.00000000       0.00000000 </v>
   <v>       0.00000000      -0.00000000      -0.00000000 </v>
   <v>       0.00000000      -0.00000000       0.00000000 </v>
   <v>       0.00000000      -0.00000000      -0.00000000 </v>
   <v>       0.00000000      -0.00000000       0.00000000 </v>
   <v>       0.00000000       0.00000000       0.00000000 </v>
   <v>       0.00000000       0.00000000       0.00000000 </v>
   <v>       0.00000000       0.00000000      -0.00000000 </v>
   <v>       0.00000000       0.00000000      -0.00000000 </v>
   <v>       0.00000000      -0.00000000      -0.00000000 </v>
   <v>       0.00000000       0.00000000      -0.00000000 </v>
   <v>      -0.00000000       0.00000000      -0.00000000 </v>
   <v>       0.00000000       0.00000000      -0.00000000 </v>
   <v>      -0.00000000      -0.00000000       0.00000000 </v>
   <v>      -0.00000000      -0.00000000      -0.00000000 </v>
   <v>      -0.00000000      -0.00000000      -0.00000000 </v>
   <v>       0.00000000       0.00000000      -0.00000000 </v>
   <v>       0.00000000       0.00000000       0.00000000 </v>
   <v>      -0.00000000       0.00000000      -0.00000000 </v>
   <v>       0.00000000      -0.00000000       0.00000000 </v>
   <v>       0.00000000      -0.00000000      -0.00000000 </v>
   <v>       0.00000000      -0.00000000       0.00000000 </v>
   <v>       0.00000000      -0.00000000      -0.00000000 </v>
   <v>      -0.00000000       0.00000000       0.00000000 </v>
   <v>       0.00000000       0.00000000      -0.00000000 </v>
   <v>       0.00000000       0.00000000      -0.00000000 </v>
   <v>       0.00000000       0.00000000       0.00000000 </v>
   <v>       0.00000000       0.00000000       0.00000000 </v>
   <v>       0.00000000      -0.00000000       0.00000000 </v>
   <v>       0.00000000       0.00000000      -0.00000000 </v>
   <v>       0.00000000      -0.00000000      -0.00000000 </v>
   <v>       0.00000000      -0.00000000       0.00000000 </v>
   <v>       0.00000000      -0.00000000      -0.00000000 </v>
   <v>       0.00000000      -0.00000000      -0.00000000 </v>
   <v>       0.00000000      -0.00000000       0.00000000 </v>
   <v>      -0.00000000      -0.00000000       0.00000000 </v>
   <v>      -0.00000000      -0.00000000      -0.00000000 </v>
   <v>       0.00000000      -0.00000000       0.00000000 </v>
   <v>       0.00000000       0.00000000      -0.00000000 </v>
   <v>       0.00000000       0.00000000       0.00000000 </v>
   <v>      -0.00000000       0.00000000       0.00000000 </v>
   <v>       0.00000000       0.00000000      -0.00000000 </v>
   <v>       0.00000000       0.00000000       0.00000000 </v>
   <v>      -0.00000000      -0.00000000      -0.00000000 </v>
   <v>       0.00000000      -0.00000000       0.00000000 </v>
   <v>       0.00000000      -0.00000000       0.00000000 </v>
   <v>       0.00000000      -0.00000000       0.00000000 </v>
   <v>       0.00000000       0.00000000      -0.00000000 </v>
   <v>      -0.00000000       0.00000000       0.00000000 </v>
   <v>      -0.00000000      -0.00000000      -0.00000000 </v>
   <v>      -0.00000000       0.00000000      -0.00000000 </v>
   <v>      -0.00000000      -0.00000000       0.00000000 </v>
   <v>      -0.00000000      -0.00000000      -0.00000000 </v>
   <v>      -0.00000000       0.00000000       0.00000000 </v>
   <v>       0.00000000       0.00000000      -0.00000000 </v>
   <v>      -0.00000000       0.00000000      -0.00000000 </v>
   <v>      -0.00000000       0.00000000       0.00000000 </v>
   <v>      -0.00000000       0.00000000      -0.00000000 </v>
   <v>       0.00000000       0.00000000      -0.00000000 </v>
   <v>      -0.00000000       0.00000000       0.00000000 </v>
   <v>       0.00000000       0.00000000       0.00000000 </v>
   <v>      -0.00000000       0.00000000      -0.00000000 </v>
[...]
       <r>    20.0268     0.0000  2250.0000 </r>
       <r>    20.1760     0.0000  2250.0000 </r>
       <r>    20.3252     0.0000  2250.0000 </r>
       <r>    20.4744     0.0000  2250.0000 </r>
       <r>    20.6236     0.0000  2250.0000 </r>
       <r>    20.7728     0.0000  2250.0000 </r>
       <r>    20.9220     0.0000  2250.0000 </r>
       <r>    21.0712     0.0000  2250.0000 </r>
       <r>    21.2204     0.0000  2250.0000 </r>
       <r>    21.3696     0.0000  2250.0000 </r>
       <r>    21.5188     0.0000  2250.0000 </r>
       <r>    21.6681     0.0000  2250.0000 </r>
       <r>    21.8173     0.0000  2250.0000 </r>
       <r>    21.9665     0.0000  2250.0000 </r>
       <r>    22.1157     0.0000  2250.0000 </r>
       <r>    22.2649     0.0000  2250.0000 </r>
       <r>    22.4141     0.0000  2250.0000 </r>
       <r>    22.5633     0.0000  2250.0000 </r>
       <r>    22.7125     0.0000  2250.0000 </r>
       <r>    22.8617     0.0000  2250.0000 </r>
       <r>    23.0109     0.0000  2250.0000 </r>
       <r>    23.1601     0.0000  2250.0000 </r>
       <r>    23.3093     0.0000  2250.0000 </r>
       <r>    23.4585     0.0000  2250.0000 </r>
       <r>    23.6077     0.0000  2250.0000 </r>
       <r>    23.7569     0.0000  2250.0000 </r>
       <r>    23.9061     0.0000  2250.0000 </r>
       <r>    24.0553     0.0000  2250.0000 </r>
       <r>    24.2045     0.0000  2250.0000 </r>
       <r>    24.3537     0.0000  2250.0000 </r>
       <r>    24.5029     0.0000  2250.0000 </r>
       <r>    24.6521     0.0001  2250.0000 </r>
       <r>    24.8013     1.1191  2250.1670 </r>
       <r>    24.9505     0.5564  2250.2500 </r>
       <r>    25.0997     0.0000  2250.2500 </r>
       <r>    25.2489     0.6480  2250.3467 </r>
       <r>    25.3981    14.3198  2252.4832 </r>
       <r>    25.5473     0.1130  2252.5001 </r>
       <r>    25.6965     6.3600  2253.4490 </r>
       <r>    25.8457    13.9821  2255.5351 </r>
       <r>    25.9949     9.8177  2257.0000 </r>
       <r>    26.1441     0.0002  2257.0000 </r>
       <r>    26.2933     0.7803  2257.1164 </r>
       <r>    26.4425    48.7936  2264.3965 </r>
       <r>    26.5917    24.1512  2267.9999 </r>
       <r>    26.7409     1.7389  2268.2594 </r>
       <r>    26.8901    20.5552  2271.3262 </r>
       <r>    27.0393    94.5485  2285.4330 </r>
       <r>    27.1885    19.1415  2288.2889 </r>
       <r>    27.3377    95.7212  2302.5707 </r>
       <r>    27.4869    93.6437  2316.5425 </r>
       <r>    27.6361    47.7826  2323.6717 </r>
       <r>    27.7853    75.2565  2334.9001 </r>
       <r>    27.9345    70.5300  2345.4233 </r>
       <r>    28.0837    76.1587  2356.7863 </r>
       <r>    28.2329    49.7216  2364.2048 </r>
       <r>    28.3821    52.9662  2372.1074 </r>
       <r>    28.5313   140.9340  2393.1350 </r>
       <r>    28.6805    45.9813  2399.9955 </r>
       <r>    28.8297     0.0304  2400.0000 </r>
       <r>    28.9789     0.0000  2400.0000 </r>
       <r>    29.1281     0.0000  2400.0000 </r>
       <r>    29.2773     0.0000  2400.0000 </r>
       <r>    29.4265     0.0000  2400.0000 </r>
       <r>    29.5757     0.0000  2400.0000 </r>
       <r>    29.7249     0.0000  2400.0000 </r>
       <r>    29.8741     0.0000  2400.0000 </r>
       <r>    30.0233     0.0000  2400.0000 </r>
       <r>    30.1725     0.0000  2400.0000 </r>
       <r>    30.3217     0.0000  2400.0000 </r>
       <r>    30.4709     0.0000  2400.0000 </r>
       <r>    30.6201     0.0000  2400.0000 </r>
      </set>
     </set>
    </array>
   </total>
  </dos>
 </calculation>
 <structure name="finalpos" >
  <crystal>
   <varray name="basis" >
    <v>      10.54150000       0.00000000       0.00000000 </v>
    <v>       0.00000000      10.54150000       0.00000000 </v>
    <v>       0.00000000       0.00000000      10.54150000 </v>
   </varray>
   <i name="volume">   1171.40544735 </i>
   <varray name="rec_basis" >
    <v>       0.09486316       0.00000000       0.00000000 </v>
    <v>       0.00000000       0.09486316       0.00000000 </v>
    <v>       0.00000000       0.00000000       0.09486316 </v>
   </varray>
  </crystal>
  <varray name="positions" >
   <v>       0.00000000       0.00000000       0.00000000 </v>
   <v>       0.00000000       0.00000000       0.20000000 </v>
   <v>       0.00000000       0.00000000       0.40000000 </v>
   <v>       0.00000000       0.00000000       0.60000000 </v>
   <v>       0.00000000       0.00000000       0.80000000 </v>
   <v>       0.00000000       0.20000000       0.00000000 </v>
   <v>       0.00000000       0.20000000       0.20000000 </v>
   <v>       0.00000000       0.20000000       0.40000000 </v>
   <v>       0.00000000       0.20000000       0.60000000 </v>
   <v>       0.00000000       0.20000000       0.80000000 </v>
   <v>       0.00000000       0.40000000       0.00000000 </v>
   <v>       0.00000000       0.40000000       0.20000000 </v>
   <v>       0.00000000       0.40000000       0.40000000 </v>
   <v>       0.00000000       0.40000000       0.60000000 </v>
   <v>       0.00000000       0.40000000       0.80000000 </v>
   <v>       0.00000000       0.60000000       0.00000000 </v>
   <v>       0.00000000       0.60000000       0.20000000 </v>
   <v>       0.00000000       0.60000000       0.40000000 </v>
   <v>       0.00000000       0.60000000       0.60000000 </v>
   <v>       0.00000000       0.60000000       0.80000000 </v>
   <v>       0.00000000       0.80000000       0.00000000 </v>
   <v>       0.00000000       0.80000000       0.20000000 </v>
   <v>       0.00000000       0.80000000       0.40000000 </v>
   <v>       0.00000000       0.80000000       0.60000000 </v>
   <v>       0.00000000       0.80000000       0.80000000 </v>
   <v>       0.20000000       0.00000000       0.00000000 </v>
   <v>       0.20000000       0.00000000       0.20000000 </v>
   <v>       0.20000000       0.00000000       0.40000000 </v>
   <v>       0.20000000       0.00000000       0.60000000 </v>
   <v>       0.20000000       0.00000000       0.80000000 </v>
   <v>       0.20000000       0.20000000       0.00000000 </v>
   <v>       0.20000000       0.20000000       0.20000000 </v>
   <v>       0.20000000       0.20000000       0.40000000 </v>
   <v>       0.20000000       0.20000000       0.60000000 </v>
   <v>       0.20000000       0.20000000       0.80000000 </v>
   <v>       0.20000000       0.40000000       0.00000000 </v>
   <v>       0.20000000       0.40000000       0.20000000 </v>
   <v>       0.20000000       0.40000000       0.40000000 </v>
   <v>       0.20000000       0.40000000       0.60000000 </v>
   <v>       0.20000000       0.40000000       0.80000000 </v>
   <v>       0.20000000       0.60000000       0.00000000 </v>
   <v>       0.20000000       0.60000000       0.20000000 </v>
   <v>       0.20000000       0.60000000       0.40000000 </v>
   <v>       0.20000000       0.60000000       0.60000000 </v>
   <v>       0.20000000       0.60000000       0.80000000 </v>
   <v>       0.20000000       0.80000000       0.00000000 </v>
   <v>       0.20000000       0.80000000       0.20000000 </v>
   <v>       0.20000000       0.80000000       0.40000000 </v>
   <v>       0.20000000       0.80000000       0.60000000 </v>
   <v>       0.20000000       0.80000000       0.80000000 </v>
   <v>       0.40000000       0.00000000       0.00000000 </v>
   <v>       0.40000000       0.00000000       0.20000000 </v>
   <v>       0.40000000       0.00000000       0.40000000 </v>
   <v>       0.40000000       0.00000000       0.60000000 </v>
   <v>       0.40000000       0.00000000       0.80000000 </v>
   <v>       0.40000000       0.20000000       0.00000000 </v>
   <v>       0.40000000       0.20000000       0.20000000 </v>
   <v>       0.40000000       0.20000000       0.40000000 </v>
   <v>       0.40000000       0.20000000       0.60000000 </v>
   <v>       0.40000000       0.20000000       0.80000000 </v>
   <v>       0.40000000       0.40000000       0.00000000 </v>
   <v>       0.40000000       0.40000000       0.20000000 </v>
   <v>       0.40000000       0.40000000       0.40000000 </v>
   <v>       0.40000000       0.40000000       0.60000000 </v>
   <v>       0.40000000       0.40000000       0.80000000 </v>
   <v>       0.40000000       0.60000000       0.00000000 </v>
   <v>       0.40000000       0.60000000       0.20000000 </v>
   <v>       0.40000000       0.60000000       0.40000000 </v>
   <v>       0.40000000       0.60000000       0.60000000 </v>
   <v>       0.40000000       0.60000000       0.80000000 </v>
   <v>       0.40000000       0.80000000       0.00000000 </v>
   <v>       0.40000000       0.80000000       0.20000000 </v>
   <v>       0.40000000       0.80000000       0.40000000 </v>
   <v>       0.40000000       0.80000000       0.60000000 </v>
   <v>       0.40000000       0.80000000       0.80000000 </v>
   <v>       0.60000000       0.00000000       0.00000000 </v>
   <v>       0.60000000       0.00000000       0.20000000 </v>
   <v>       0.60000000       0.00000000       0.40000000 </v>
   <v>       0.60000000       0.00000000       0.60000000 </v>
   <v>       0.60000000       0.00000000       0.80000000 </v>
   <v>       0.60000000       0.20000000       0.00000000 </v>
   <v>       0.60000000       0.20000000       0.20000000 </v>
   <v>       0.60000000       0.20000000       0.40000000 </v>
   <v>       0.60000000       0.20000000       0.60000000 </v>
   <v>       0.60000000       0.20000000       0.80000000 </v>
   <v>       0.60000000       0.40000000       0.00000000 </v>
   <v>       0.60000000       0.40000000       0.20000000 </v>
   <v>       0.60000000       0.40000000       0.40000000 </v>
   <v>       0.60000000       0.40000000       0.60000000 </v>
   <v>       0.60000000       0.40000000       0.80000000 </v>
   <v>       0.60000000       0.60000000       0.00000000 </v>
   <v>       0.60000000       0.60000000       0.20000000 </v>
   <v>       0.60000000       0.60000000       0.40000000 </v>
   <v>       0.60000000       0.60000000       0.60000000 </v>
   <v>       0.60000000       0.60000000       0.80000000 </v>
   <v>       0.60000000       0.80000000       0.00000000 </v>
   <v>       0.60000000       0.80000000       0.20000000 </v>
   <v>       0.60000000       0.80000000       0.40000000 </v>
   <v>       0.60000000       0.80000000       0.60000000 </v>
   <v>       0.60000000       0.80000000       0.80000000 </v>
   <v>       0.80000000       0.00000000       0.00000000 </v>
   <v>       0.80000000       0.00000000       0.20000000 </v>
   <v>       0.80000000       0.00000000       0.40000000 </v>
   <v>       0.80000000       0.00000000       0.60000000 </v>
   <v>       0.80000000       0.00000000       0.80000000 </v>
   <v>       0.80000000       0.20000000       0.00000000 </v>
   <v>       0.80000000       0.20000000       0.20000000 </v>
   <v>       0.80000000       0.20000000       0.40000000 </v>
   <v>       0.80000000       0.20000000       0.60000000 </v>
   <v>       0.80000000       0.20000000       0.80000000 </v>
   <v>       0.80000000       0.40000000       0.00000000 </v>
   <v>       0.80000000       0.40000000       0.20000000 </v>
   <v>       0.80000000       0.40000000       0.40000000 </v>
   <v>       0.80000000       0.40000000       0.60000000 </v>
   <v>       0.80000000       0.40000000       0.80000000 </v>
   <v>       0.80000000       0.60000000       0.00000000 </v>
   <v>       0.80000000       0.60000000       0.20000000 </v>
   <v>       0.80000000       0.60000000       0.40000000 </v>
   <v>       0.80000000       0.60000000       0.60000000 </v>
   <v>       0.80000000       0.60000000       0.80000000 </v>
   <v>       0.80000000       0.80000000       0.00000000 </v>
   <v>       0.80000000       0.80000000       0.20000000 </v>
   <v>       0.80000000       0.80000000       0.40000000 </v>
   <v>       0.80000000       0.80000000       0.60000000 </v>
   <v>       0.80000000       0.80000000       0.80000000 </v>
   <v>       0.10000000       0.10000000       0.10000000 </v>
   <v>       0.10000000       0.10000000       0.30000000 </v>
   <v>       0.10000000       0.10000000       0.50000000 </v>
   <v>       0.10000000       0.10000000       0.70000000 </v>
   <v>       0.10000000       0.10000000       0.90000000 </v>
   <v>       0.10000000       0.30000000       0.10000000 </v>
   <v>       0.10000000       0.30000000       0.30000000 </v>
   <v>       0.10000000       0.30000000       0.50000000 </v>
   <v>       0.10000000       0.30000000       0.70000000 </v>
   <v>       0.10000000       0.30000000       0.90000000 </v>
   <v>       0.10000000       0.50000000       0.10000000 </v>
   <v>       0.10000000       0.50000000       0.30000000 </v>
   <v>       0.10000000       0.50000000       0.50000000 </v>
   <v>       0.10000000       0.50000000       0.70000000 </v>
   <v>       0.10000000       0.50000000       0.90000000 </v>
   <v>       0.10000000       0.70000000       0.10000000 </v>
   <v>       0.10000000       0.70000000       0.30000000 </v>
   <v>       0.10000000       0.70000000       0.50000000 </v>
   <v>       0.10000000       0.70000000       0.70000000 </v>
   <v>       0.10000000       0.70000000       0.90000000 </v>
   <v>       0.10000000       0.90000000       0.10000000 </v>
   <v>       0.10000000       0.90000000       0.30000000 </v>
   <v>       0.10000000       0.90000000       0.50000000 </v>
   <v>       0.10000000       0.90000000       0.70000000 </v>
   <v>       0.10000000       0.90000000       0.90000000 </v>
   <v>       0.30000000       0.10000000       0.10000000 </v>
   <v>       0.30000000       0.10000000       0.30000000 </v>
   <v>       0.30000000       0.10000000       0.50000000 </v>
   <v>       0.30000000       0.10000000       0.70000000 </v>
   <v>       0.30000000       0.10000000       0.90000000 </v>
   <v>       0.30000000       0.30000000       0.10000000 </v>
   <v>       0.30000000       0.30000000       0.30000000 </v>
   <v>       0.30000000       0.30000000       0.50000000 </v>
   <v>       0.30000000       0.30000000       0.70000000 </v>
   <v>       0.30000000       0.30000000       0.90000000 </v>
   <v>       0.30000000       0.50000000       0.10000000 </v>
   <v>       0.30000000       0.50000000       0.30000000 </v>
   <v>       0.30000000       0.50000000       0.50000000 </v>
   <v>       0.30000000       0.50000000       0.70000000 </v>
   <v>       0.30000000       0.50000000       0.90000000 </v>
   <v>       0.30000000       0.70000000       0.10000000 </v>
   <v>       0.30000000       0.70000000       0.30000000 </v>
   <v>       0.30000000       0.70000000       0.50000000 </v>
   <v>       0.30000000       0.70000000       0.70000000 </v>
   <v>       0.30000000       0.70000000       0.90000000 </v>
   <v>       0.30000000       0.90000000       0.10000000 </v>
   <v>       0.30000000       0.90000000       0.30000000 </v>
   <v>       0.30000000       0.90000000       0.50000000 </v>
   <v>       0.30000000       0.90000000       0.70000000 </v>
   <v>       0.30000000       0.90000000       0.90000000 </v>
   <v>       0.50000000       0.10000000       0.10000000 </v>
   <v>       0.50000000       0.10000000       0.30000000 </v>
   <v>       0.50000000       0.10000000       0.50000000 </v>
   <v>       0.50000000       0.10000000       0.70000000 </v>
   <v>       0.50000000       0.10000000       0.90000000 </v>
   <v>       0.50000000       0.30000000       0.10000000 </v>
   <v>       0.50000000       0.30000000       0.30000000 </v>
   <v>       0.50000000       0.30000000       0.50000000 </v>
   <v>       0.50000000       0.30000000       0.70000000 </v>
   <v>       0.50000000       0.30000000       0.90000000 </v>
   <v>       0.50000000       0.50000000       0.10000000 </v>
   <v>       0.50000000       0.50000000       0.30000000 </v>
   <v>       0.50000000       0.50000000       0.50000000 </v>
   <v>       0.50000000       0.50000000       0.70000000 </v>
   <v>       0.50000000       0.50000000       0.90000000 </v>
   <v>       0.50000000       0.70000000       0.10000000 </v>
   <v>       0.50000000       0.70000000       0.30000000 </v>
   <v>       0.50000000       0.70000000       0.50000000 </v>
   <v>       0.50000000       0.70000000       0.70000000 </v>
   <v>       0.50000000       0.70000000       0.90000000 </v>
   <v>       0.50000000       0.90000000       0.10000000 </v>
   <v>       0.50000000       0.90000000       0.30000000 </v>
   <v>       0.50000000       0.90000000       0.50000000 </v>
   <v>       0.50000000       0.90000000       0.70000000 </v>
   <v>       0.50000000       0.90000000       0.90000000 </v>
   <v>       0.70000000       0.10000000       0.10000000 </v>
   <v>       0.70000000       0.10000000       0.30000000 </v>
   <v>       0.70000000       0.10000000       0.50000000 </v>
   <v>       0.70000000       0.10000000       0.70000000 </v>
   <v>       0.70000000       0.10000000       0.90000000 </v>
   <v>       0.70000000       0.30000000       0.10000000 </v>
   <v>       0.70000000       0.30000000       0.30000000 </v>
   <v>       0.70000000       0.30000000       0.50000000 </v>
   <v>       0.70000000       0.30000000       0.70000000 </v>
   <v>       0.70000000       0.30000000       0.90000000 </v>
   <v>       0.70000000       0.50000000       0.10000000 </v>
   <v>       0.70000000       0.50000000       0.30000000 </v>
   <v>       0.70000000       0.50000000       0.50000000 </v>
   <v>       0.70000000       0.50000000       0.70000000 </v>
   <v>       0.70000000       0.50000000       0.90000000 </v>
   <v>       0.70000000       0.70000000       0.10000000 </v>
   <v>       0.70000000       0.70000000       0.30000000 </v>
   <v>       0.70000000       0.70000000       0.50000000 </v>
   <v>       0.70000000       0.70000000       0.70000000 </v>
   <v>       0.70000000       0.70000000       0.90000000 </v>
   <v>       0.70000000       0.90000000       0.10000000 </v>
   <v>       0.70000000       0.90000000       0.30000000 </v>
   <v>       0.70000000       0.90000000       0.50000000 </v>
   <v>       0.70000000       0.90000000       0.70000000 </v>
   <v>       0.70000000       0.90000000       0.90000000 </v>
   <v>       0.90000000       0.10000000       0.10000000 </v>
   <v>       0.90000000       0.10000000       0.30000000 </v>
   <v>       0.90000000       0.10000000       0.50000000 </v>
   <v>       0.90000000       0.10000000       0.70000000 </v>
   <v>       0.90000000       0.10000000       0.90000000 </v>
   <v>       0.90000000       0.30000000       0.10000000 </v>
   <v>       0.90000000       0.30000000       0.30000000 </v>
   <v>       0.90000000       0.30000000       0.50000000 </v>
   <v>       0.90000000       0.30000000       0.70000000 </v>
   <v>       0.90000000       0.30000000       0.90000000 </v>
   <v>       0.90000000       0.50000000       0.10000000 </v>
   <v>       0.90000000       0.50000000       0.30000000 </v>
   <v>       0.90000000       0.50000000       0.50000000 </v>
   <v>       0.90000000       0.50000000       0.70000000 </v>
   <v>       0.90000000       0.50000000       0.90000000 </v>
   <v>       0.90000000       0.70000000       0.10000000 </v>
   <v>       0.90000000       0.70000000       0.30000000 </v>
   <v>       0.90000000       0.70000000       0.50000000 </v>
   <v>       0.90000000       0.70000000       0.70000000 </v>
   <v>       0.90000000       0.70000000       0.90000000 </v>
   <v>       0.90000000       0.90000000       0.10000000 </v>
   <v>       0.90000000       0.90000000       0.30000000 </v>
   <v>       0.90000000       0.90000000       0.50000000 </v>
   <v>       0.90000000       0.90000000       0.70000000 </v>
   <v>       0.90000000       0.90000000       0.90000000 </v>
  </varray>
 </structure>
</modeling>
