 251 251   0   0
  0.1214592E+02  0.1450000E-08  0.1450000E-08  0.1450000E-08  0.2000000E-15
   1.0000000000000000E-004
  CAR 
 NiAl                                    
     12.21397416    -15.82964310  301      6.83043204      1.00000000
    -15.830  0.0000E+00  0.0000E+00
    -15.736  0.0000E+00  0.0000E+00
    -15.643  0.0000E+00  0.0000E+00
    -15.549  0.0000E+00  0.0000E+00
    -15.456  0.0000E+00  0.0000E+00
    -15.362  0.0000E+00  0.0000E+00
    -15.269  0.0000E+00  0.0000E+00
    -15.175  0.0000E+00  0.0000E+00
    -15.082  0.0000E+00  0.0000E+00
    -14.988  0.0000E+00  0.0000E+00
    -14.895  0.0000E+00  0.0000E+00
    -14.801  0.8354E-12  0.7810E-13
    -14.708  0.4023E-05  0.3761E-06
    -14.614  0.2464E-01  0.2304E-02
    -14.521  0.4201E+00  0.4157E-01
    -14.427  0.9007E-01  0.4999E-01
    -14.334  0.8385E-04  0.5000E-01
    -14.241  0.1113E-09  0.5000E-01
    -14.147  0.0000E+00  0.5000E-01
    -14.054  0.0000E+00  0.5000E-01
    -13.960  0.0000E+00  0.5000E-01
    -13.867  0.0000E+00  0.5000E-01
    -13.773  0.0000E+00  0.5000E-01
    -13.680  0.0000E+00  0.5000E-01
    -13.586  0.0000E+00  0.5000E-01
    -13.493  0.0000E+00  0.5000E-01
    -13.399  0.0000E+00  0.5000E-01
    -13.306  0.0000E+00  0.5000E-01
    -13.212  0.0000E+00  0.5000E-01
    -13.119  0.0000E+00  0.5000E-01
    -13.025  0.0000E+00  0.5000E-01
    -12.932  0.0000E+00  0.5000E-01
    -12.838  0.0000E+00  0.5000E-01
    -12.745  0.0000E+00  0.5000E-01
    -12.651  0.0000E+00  0.5000E-01
    -12.558  0.0000E+00  0.5000E-01
    -12.464  0.0000E+00  0.5000E-01
    -12.371  0.0000E+00  0.5000E-01
    -12.277  0.0000E+00  0.5000E-01
    -12.184  0.0000E+00  0.5000E-01
    -12.090  0.0000E+00  0.5000E-01
    -11.997  0.0000E+00  0.5000E-01
    -11.904  0.0000E+00  0.5000E-01
    -11.810  0.0000E+00  0.5000E-01
    -11.717  0.0000E+00  0.5000E-01
    -11.623  0.0000E+00  0.5000E-01
    -11.530  0.0000E+00  0.5000E-01
    -11.436  0.0000E+00  0.5000E-01
    -11.343  0.0000E+00  0.5000E-01
    -11.249  0.0000E+00  0.5000E-01
    -11.156  0.0000E+00  0.5000E-01
    -11.062  0.0000E+00  0.5000E-01
    -10.969  0.0000E+00  0.5000E-01
    -10.875  0.0000E+00  0.5000E-01
    -10.782  0.0000E+00  0.5000E-01
    -10.688  0.0000E+00  0.5000E-01
    -10.595  0.0000E+00  0.5000E-01
    -10.501  0.0000E+00  0.5000E-01
    -10.408  0.0000E+00  0.5000E-01
    -10.314  0.0000E+00  0.5000E-01
    -10.221  0.0000E+00  0.5000E-01
    -10.127  0.0000E+00  0.5000E-01
    -10.034  0.0000E+00  0.5000E-01
     -9.940  0.0000E+00  0.5000E-01
     -9.847  0.0000E+00  0.5000E-01
     -9.754  0.0000E+00  0.5000E-01
     -9.660  0.0000E+00  0.5000E-01
     -9.567  0.0000E+00  0.5000E-01
     -9.473  0.0000E+00  0.5000E-01
     -9.380  0.0000E+00  0.5000E-01
     -9.286  0.0000E+00  0.5000E-01
     -9.193  0.0000E+00  0.5000E-01
     -9.099  0.0000E+00  0.5000E-01
     -9.006  0.0000E+00  0.5000E-01
     -8.912  0.0000E+00  0.5000E-01
     -8.819  0.0000E+00  0.5000E-01
     -8.725  0.0000E+00  0.5000E-01
     -8.632  0.0000E+00  0.5000E-01
     -8.538  0.0000E+00  0.5000E-01
     -8.445  0.0000E+00  0.5000E-01
     -8.351  0.0000E+00  0.5000E-01
     -8.258  0.0000E+00  0.5000E-01
     -8.164  0.0000E+00  0.5000E-01
     -8.071  0.0000E+00  0.5000E-01
     -7.977  0.0000E+00  0.5000E-01
     -7.884  0.0000E+00  0.5000E-01
     -7.790  0.0000E+00  0.5000E-01
     -7.697  0.0000E+00  0.5000E-01
     -7.604  0.0000E+00  0.5000E-01
     -7.510  0.0000E+00  0.5000E-01
     -7.417  0.0000E+00  0.5000E-01
     -7.323  0.0000E+00  0.5000E-01
     -7.230  0.0000E+00  0.5000E-01
     -7.136  0.0000E+00  0.5000E-01
     -7.043  0.0000E+00  0.5000E-01
     -6.949  0.0000E+00  0.5000E-01
     -6.856  0.0000E+00  0.5000E-01
     -6.762  0.0000E+00  0.5000E-01
     -6.669  0.0000E+00  0.5000E-01
     -6.575  0.0000E+00  0.5000E-01
     -6.482  0.0000E+00  0.5000E-01
     -6.388  0.0000E+00  0.5000E-01
     -6.295  0.0000E+00  0.5000E-01
     -6.201  0.0000E+00  0.5000E-01
     -6.108  0.0000E+00  0.5000E-01
     -6.014  0.0000E+00  0.5000E-01
     -5.921  0.0000E+00  0.5000E-01
     -5.827  0.0000E+00  0.5000E-01
     -5.734  0.0000E+00  0.5000E-01
     -5.640  0.0000E+00  0.5000E-01
     -5.547  0.0000E+00  0.5000E-01
     -5.454  0.0000E+00  0.5000E-01
     -5.360  0.0000E+00  0.5000E-01
     -5.267  0.0000E+00  0.5000E-01
     -5.173  0.0000E+00  0.5000E-01
     -5.080  0.0000E+00  0.5000E-01
     -4.986  0.0000E+00  0.5000E-01
     -4.893  0.0000E+00  0.5000E-01
     -4.799  0.0000E+00  0.5000E-01
     -4.706  0.0000E+00  0.5000E-01
     -4.612  0.0000E+00  0.5000E-01
     -4.519  0.0000E+00  0.5000E-01
     -4.425  0.1753E-11  0.5000E-01
     -4.332  0.2962E-05  0.5000E-01
     -4.238  0.6750E-02  0.5063E-01
     -4.145  0.5458E-01  0.5573E-01
     -4.051  0.8106E-01  0.6331E-01
     -3.958  0.2916E+00  0.9057E-01
     -3.864  0.2768E+00  0.1164E+00
     -3.771  0.4694E+00  0.1603E+00
     -3.677  0.3218E+00  0.1904E+00
     -3.584  0.2396E+00  0.2128E+00
     -3.490  0.2494E+00  0.2361E+00
     -3.397  0.2202E+00  0.2567E+00
     -3.303  0.9980E+00  0.3500E+00
     -3.210  0.5555E+00  0.4019E+00
     -3.117  0.1182E+01  0.5124E+00
     -3.023  0.3214E+00  0.5424E+00
     -2.930  0.1522E+00  0.5566E+00
     -2.836  0.1874E+00  0.5742E+00
     -2.743  0.5597E+00  0.6265E+00
     -2.649  0.7008E+00  0.6920E+00
     -2.556  0.1365E+01  0.8196E+00
     -2.462  0.6280E+00  0.8783E+00
     -2.369  0.9382E+00  0.9660E+00
     -2.275  0.8347E+00  0.1044E+01
     -2.182  0.1019E+01  0.1139E+01
     -2.088  0.5249E+00  0.1188E+01
     -1.995  0.5820E+00  0.1243E+01
     -1.901  0.9322E+00  0.1330E+01
     -1.808  0.7420E+00  0.1399E+01
     -1.714  0.2341E+01  0.1618E+01
     -1.621  0.3174E+00  0.1648E+01
     -1.527  0.4229E+00  0.1687E+01
     -1.434  0.3889E+00  0.1724E+01
     -1.340  0.5545E+00  0.1776E+01
     -1.247  0.1957E+01  0.1958E+01
     -1.153  0.9181E+00  0.2044E+01
     -1.060  0.1512E+01  0.2186E+01
     -0.967  0.1167E+01  0.2295E+01
     -0.873  0.1330E+01  0.2419E+01
     -0.780  0.1059E+01  0.2518E+01
     -0.686  0.8650E+00  0.2599E+01
     -0.593  0.2126E+01  0.2798E+01
     -0.499  0.1199E+01  0.2910E+01
     -0.406  0.7954E+00  0.2984E+01
     -0.312  0.8588E+00  0.3064E+01
     -0.219  0.4936E+00  0.3111E+01
     -0.125  0.1005E+01  0.3205E+01
     -0.032  0.7974E+00  0.3279E+01
      0.062  0.1811E+01  0.3448E+01
      0.155  0.2861E+01  0.3716E+01
      0.249  0.1529E+01  0.3859E+01
      0.342  0.8816E+00  0.3941E+01
      0.436  0.1423E+01  0.4074E+01
      0.529  0.3575E+01  0.4408E+01
      0.623  0.1016E+01  0.4503E+01
      0.716  0.8533E+00  0.4583E+01
      0.810  0.8465E+00  0.4662E+01
      0.903  0.2028E+01  0.4852E+01
      0.997  0.3114E+01  0.5143E+01
      1.090  0.2022E+01  0.5332E+01
      1.183  0.1277E+01  0.5451E+01
      1.277  0.1872E+01  0.5626E+01
      1.370  0.1781E+01  0.5793E+01
      1.464  0.1550E+01  0.5938E+01
      1.557  0.1350E+01  0.6064E+01
      1.651  0.1147E+01  0.6171E+01
      1.744  0.4481E+01  0.6590E+01
      1.838  0.3492E+01  0.6916E+01
      1.931  0.1170E+01  0.7026E+01
      2.025  0.1137E+01  0.7132E+01
      2.118  0.2375E+01  0.7354E+01
      2.212  0.3899E+01  0.7718E+01
      2.305  0.1639E+01  0.7872E+01
      2.399  0.8946E+00  0.7955E+01
      2.492  0.1806E+01  0.8124E+01
      2.586  0.2222E+01  0.8332E+01
      2.679  0.3527E+01  0.8662E+01
      2.773  0.2061E+01  0.8854E+01
      2.866  0.3963E+01  0.9225E+01
      2.960  0.7456E+01  0.9922E+01
      3.053  0.5424E+01  0.1043E+02
      3.147  0.5702E+01  0.1096E+02
      3.240  0.6078E+01  0.1153E+02
      3.333  0.3887E+01  0.1189E+02
      3.427  0.5007E+01  0.1236E+02
      3.520  0.5082E+01  0.1284E+02
      3.614  0.5108E+01  0.1331E+02
      3.707  0.1039E+02  0.1428E+02
      3.801  0.1096E+02  0.1531E+02
      3.894  0.8515E+01  0.1611E+02
      3.988  0.1153E+02  0.1718E+02
      4.081  0.6382E+01  0.1778E+02
      4.175  0.7899E+01  0.1852E+02
      4.268  0.5874E+01  0.1907E+02
      4.362  0.6926E+01  0.1971E+02
      4.455  0.9846E+01  0.2063E+02
      4.549  0.1402E+02  0.2195E+02
      4.642  0.1278E+02  0.2314E+02
      4.736  0.1218E+02  0.2428E+02
      4.829  0.2058E+02  0.2620E+02
      4.923  0.3005E+02  0.2901E+02
      5.016  0.2145E+02  0.3102E+02
      5.110  0.1667E+02  0.3258E+02
      5.203  0.1339E+02  0.3383E+02
      5.297  0.1313E+02  0.3505E+02
      5.390  0.8673E+01  0.3586E+02
      5.484  0.4858E+01  0.3632E+02
      5.577  0.3583E+01  0.3665E+02
      5.670  0.2208E+01  0.3686E+02
      5.764  0.7486E+00  0.3693E+02
      5.857  0.2329E+01  0.3715E+02
      5.951  0.1707E+01  0.3731E+02
      6.044  0.2492E+01  0.3754E+02
      6.138  0.3694E+01  0.3789E+02
      6.231  0.7626E+01  0.3860E+02
      6.325  0.3703E+01  0.3894E+02
      6.418  0.5785E+01  0.3949E+02
      6.512  0.4754E+01  0.3993E+02
      6.605  0.3886E+01  0.4029E+02
      6.699  0.2883E+01  0.4056E+02
      6.792  0.1532E+01  0.4071E+02
      6.886  0.2311E+01  0.4092E+02
      6.979  0.2213E+01  0.4113E+02
      7.073  0.1853E+01  0.4130E+02
      7.166  0.2023E+01  0.4149E+02
      7.260  0.2178E+01  0.4169E+02
      7.353  0.2204E+01  0.4190E+02
      7.447  0.3640E+01  0.4224E+02
      7.540  0.1869E+01  0.4242E+02
      7.634  0.1411E+01  0.4255E+02
      7.727  0.1032E+01  0.4264E+02
      7.820  0.8626E+00  0.4272E+02
      7.914  0.1116E+01  0.4283E+02
      8.007  0.1223E+01  0.4294E+02
      8.101  0.5763E+00  0.4300E+02
      8.194  0.4843E+00  0.4304E+02
      8.288  0.3834E+00  0.4308E+02
      8.381  0.4627E+00  0.4312E+02
      8.475  0.5664E+00  0.4317E+02
      8.568  0.6072E+00  0.4323E+02
      8.662  0.2039E+01  0.4342E+02
      8.755  0.2785E+01  0.4368E+02
      8.849  0.4607E+01  0.4411E+02
      8.942  0.2853E+01  0.4438E+02
      9.036  0.2009E+01  0.4457E+02
      9.129  0.2221E+01  0.4478E+02
      9.223  0.2900E+01  0.4505E+02
      9.316  0.2025E+01  0.4524E+02
      9.410  0.1510E+01  0.4538E+02
      9.503  0.1834E+01  0.4555E+02
      9.597  0.4158E+01  0.4594E+02
      9.690  0.3751E+01  0.4629E+02
      9.784  0.1670E+01  0.4644E+02
      9.877  0.3645E+01  0.4678E+02
      9.970  0.3466E+01  0.4711E+02
     10.064  0.1061E+01  0.4721E+02
     10.157  0.1034E+01  0.4730E+02
     10.251  0.2749E+01  0.4756E+02
     10.344  0.3708E+01  0.4791E+02
     10.438  0.1388E+01  0.4804E+02
     10.531  0.1672E+01  0.4819E+02
     10.625  0.2415E+01  0.4842E+02
     10.718  0.2485E+01  0.4865E+02
     10.812  0.1360E+01  0.4878E+02
     10.905  0.6283E+00  0.4884E+02
     10.999  0.6476E+00  0.4890E+02
     11.092  0.2143E-01  0.4890E+02
     11.186  0.2232E-05  0.4890E+02
     11.279  0.3384E-12  0.4890E+02
     11.373  0.0000E+00  0.4890E+02
     11.466  0.0000E+00  0.4890E+02
     11.560  0.0000E+00  0.4890E+02
     11.653  0.0000E+00  0.4890E+02
     11.747  0.0000E+00  0.4890E+02
     11.840  0.0000E+00  0.4890E+02
     11.934  0.0000E+00  0.4890E+02
     12.027  0.0000E+00  0.4890E+02
     12.120  0.0000E+00  0.4890E+02
     12.214  0.0000E+00  0.4890E+02
