         259
 Energy:  -1210.1122097000000     
 X   0.00000000       0.00000000       0.00000000    
 X   14.5000000       0.00000000       0.00000000    
 X   0.00000000       14.5000000       0.00000000    
 X   0.00000000       0.00000000       14.5000000    
 X   14.5000000       14.5000000       0.00000000    
 X   14.5000000       0.00000000       14.5000000    
 X   0.00000000       14.5000000       14.5000000    
 X   14.5000000       14.5000000       14.5000000    
 Ni   0.00000000       0.00000000       0.00000000    
 Ni   0.00000000       0.00000000       2.90000010    
 Ni   0.00000000       0.00000000       5.80000019    
 Ni   0.00000000       0.00000000       8.69999981    
 Ni   0.00000000       0.00000000       11.6000004    
 Ni   0.00000000       2.90000010       0.00000000    
 Ni   0.00000000       2.90000010       2.90000010    
 Ni   0.00000000       2.90000010       5.80000019    
 Ni   0.00000000       2.90000010       8.69999981    
 Ni   0.00000000       2.90000010       11.6000004    
 Ni   0.00000000       5.80000019       0.00000000    
 Ni   0.00000000       5.80000019       2.90000010    
 Ni   0.00000000       5.80000019       5.80000019    
 Ni   0.00000000       5.80000019       8.69999981    
 Ni   0.00000000       5.80000019       11.6000004    
 Ni   0.00000000       8.69999981       0.00000000    
 Ni   0.00000000       8.69999981       2.90000010    
 Ni   0.00000000       8.69999981       5.80000019    
 Ni   0.00000000       8.69999981       8.69999981    
 Ni   0.00000000       8.69999981       11.6000004    
 Ni   0.00000000       11.6000004       0.00000000    
 Ni   0.00000000       11.6000004       2.90000010    
 Ni   0.00000000       11.6000004       5.80000019    
 Ni   0.00000000       11.6000004       8.69999981    
 Ni   0.00000000       11.6000004       11.6000004    
 Ni   2.90000010       0.00000000       0.00000000    
 Ni   2.90000010       0.00000000       2.90000010    
 Ni   2.90000010       0.00000000       5.80000019    
 Ni   2.90000010       0.00000000       8.69999981    
 Ni   2.90000010       0.00000000       11.6000004    
 Ni   2.90000010       2.90000010       0.00000000    
 Ni   2.90000010       2.90000010       2.90000010    
 Ni   2.90000010       2.90000010       5.80000019    
 Ni   2.90000010       2.90000010       8.69999981    
 Ni   2.90000010       2.90000010       11.6000004    
 Ni   2.90000010       5.80000019       0.00000000    
 Ni   2.90000010       5.80000019       2.90000010    
 Ni   2.90000010       5.80000019       5.80000019    
 Ni   2.90000010       5.80000019       8.69999981    
 Ni   2.90000010       5.80000019       11.6000004    
 Ni   2.90000010       8.69999981       0.00000000    
 Ni   2.90000010       8.69999981       2.90000010    
 Ni   2.90000010       8.69999981       5.80000019    
 Ni   2.90000010       8.69999981       8.69999981    
 Ni   2.90000010       8.69999981       11.6000004    
 Ni   2.90000010       11.6000004       0.00000000    
 Ni   2.90000010       11.6000004       2.90000010    
 Ni   2.90000010       11.6000004       5.80000019    
 Ni   2.90000010       11.6000004       8.69999981    
 Ni   2.90000010       11.6000004       11.6000004    
 Ni   5.80000019       0.00000000       0.00000000    
 Ni   5.80000019       0.00000000       2.90000010    
 Ni   5.80000019       0.00000000       5.80000019    
 Ni   5.80000019       0.00000000       8.69999981    
 Ni   5.80000019       0.00000000       11.6000004    
 Ni   5.80000019       2.90000010       0.00000000    
 Ni   5.80000019       2.90000010       2.90000010    
 Ni   5.80000019       2.90000010       5.80000019    
 Ni   5.80000019       2.90000010       8.69999981    
 Ni   5.80000019       2.90000010       11.6000004    
 Ni   5.80000019       5.80000019       0.00000000    
 Ni   5.80000019       5.80000019       2.90000010    
 Ni   5.80000019       5.80000019       5.80000019    
 Ni   5.80000019       5.80000019       8.69999981    
 Ni   5.80000019       5.80000019       11.6000004    
 Ni   5.80000019       8.69999981       0.00000000    
 Ni   5.80000019       8.69999981       2.90000010    
 Ni   5.80000019       8.69999981       5.80000019    
 Ni   5.80000019       8.69999981       8.69999981    
 Ni   5.80000019       8.69999981       11.6000004    
 Ni   5.80000019       11.6000004       0.00000000    
 Ni   5.80000019       11.6000004       2.90000010    
 Ni   5.80000019       11.6000004       5.80000019    
 Ni   5.80000019       11.6000004       8.69999981    
 Ni   5.80000019       11.6000004       11.6000004    
 Ni   8.69999981       0.00000000       0.00000000    
 Ni   8.69999981       0.00000000       2.90000010    
 Ni   8.69999981       0.00000000       5.80000019    
 Ni   8.69999981       0.00000000       8.69999981    
 Ni   8.69999981       0.00000000       11.6000004    
 Ni   8.69999981       2.90000010       0.00000000    
 Ni   8.69999981       2.90000010       2.90000010    
 Ni   8.69999981       2.90000010       5.80000019    
 Ni   8.69999981       2.90000010       8.69999981    
 Ni   8.69999981       2.90000010       11.6000004    
 Ni   8.69999981       5.80000019       0.00000000    
 Ni   8.69999981       5.80000019       2.90000010    
 Ni   8.69999981       5.80000019       5.80000019    
 Ni   8.69999981       5.80000019       8.69999981    
 Ni   8.69999981       5.80000019       11.6000004    
 Ni   8.69999981       8.69999981       0.00000000    
 Ni   8.69999981       8.69999981       2.90000010    
 Ni   8.69999981       8.69999981       5.80000019    
 Ni   8.69999981       8.69999981       8.69999981    
 Ni   8.69999981       8.69999981       11.6000004    
 Ni   8.69999981       11.6000004       0.00000000    
 Ni   8.69999981       11.6000004       2.90000010    
 Ni   8.69999981       11.6000004       5.80000019    
 Ni   8.69999981       11.6000004       8.69999981    
 Ni   8.69999981       11.6000004       11.6000004    
 Ni   11.6000004       0.00000000       0.00000000    
 Ni   11.6000004       0.00000000       2.90000010    
 Ni   11.6000004       0.00000000       5.80000019    
 Ni   11.6000004       0.00000000       8.69999981    
 Ni   11.6000004       0.00000000       11.6000004    
 Ni   11.6000004       2.90000010       0.00000000    
 Ni   11.6000004       2.90000010       2.90000010    
 Ni   11.6000004       2.90000010       5.80000019    
 Ni   11.6000004       2.90000010       8.69999981    
 Ni   11.6000004       2.90000010       11.6000004    
 Ni   11.6000004       5.80000019       0.00000000    
 Ni   11.6000004       5.80000019       2.90000010    
 Ni   11.6000004       5.80000019       5.80000019    
 Ni   11.6000004       5.80000019       8.69999981    
 Ni   11.6000004       5.80000019       11.6000004    
 Ni   11.6000004       8.69999981       0.00000000    
 Ni   11.6000004       8.69999981       2.90000010    
 Ni   11.6000004       8.69999981       5.80000019    
 Ni   11.6000004       8.69999981       8.69999981    
 Ni   11.6000004       8.69999981       11.6000004    
 Ni   11.6000004       11.6000004       0.00000000    
 Ni   11.6000004       11.6000004       2.90000010    
 Ni   11.6000004       11.6000004       5.80000019    
 Ni   11.6000004       11.6000004       8.69999981    
 Ni   11.6000004       11.6000004       11.6000004    
 Al   1.45000005       1.45000005       1.45000005    
 Al   1.45000005       1.45000005       4.34999990    
 Al   1.45000005       1.45000005       7.25000000    
 Al   1.45000005       1.45000005       10.1499996    
 Al   1.45000005       1.45000005       13.0500002    
 Al   1.45000005       4.34999990       1.45000005    
 Al   1.45000005       4.34999990       4.34999990    
 Al   1.45000005       4.34999990       7.25000000    
 Al   1.45000005       4.34999990       10.1499996    
 Al   1.45000005       4.34999990       13.0500002    
 Al   1.45000005       7.25000000       1.45000005    
 Al   1.45000005       7.25000000       4.34999990    
 Al   1.45000005       7.25000000       7.25000000    
 Al   1.45000005       7.25000000       10.1499996    
 Al   1.45000005       7.25000000       13.0500002    
 Al   1.45000005       10.1499996       1.45000005    
 Al   1.45000005       10.1499996       4.34999990    
 Al   1.45000005       10.1499996       7.25000000    
 Al   1.45000005       10.1499996       10.1499996    
 Al   1.45000005       10.1499996       13.0500002    
 Al   1.45000005       13.0500002       1.45000005    
 Al   1.45000005       13.0500002       4.34999990    
 Al   1.45000005       13.0500002       7.25000000    
 Al   1.45000005       13.0500002       10.1499996    
 Al   1.45000005       13.0500002       13.0500002    
 Al   4.34999990       1.45000005       1.45000005    
 Al   4.34999990       1.45000005       4.34999990    
 Al   4.34999990       1.45000005       7.25000000    
 Al   4.34999990       1.45000005       10.1499996    
 Al   4.34999990       1.45000005       13.0500002    
 Al   4.34999990       4.34999990       1.45000005    
 Al   4.34999990       4.34999990       4.34999990    
 Al   4.34999990       4.34999990       7.25000000    
 Al   4.34999990       4.34999990       10.1499996    
 Al   4.34999990       4.34999990       13.0500002    
 Al   4.34999990       7.25000000       1.45000005    
 Al   4.34999990       7.25000000       4.34999990    
 Al   4.34999990       7.25000000       7.25000000    
 Al   4.34999990       7.25000000       10.1499996    
 Al   4.34999990       7.25000000       13.0500002    
 Al   4.34999990       10.1499996       1.45000005    
 Al   4.34999990       10.1499996       4.34999990    
 Al   4.34999990       10.1499996       7.25000000    
 Al   4.34999990       10.1499996       10.1499996    
 Al   4.34999990       10.1499996       13.0500002    
 Al   4.34999990       13.0500002       1.45000005    
 Al   4.34999990       13.0500002       4.34999990    
 Al   4.34999990       13.0500002       7.25000000    
 Al   4.34999990       13.0500002       10.1499996    
 Al   4.34999990       13.0500002       13.0500002    
 Al   7.25000000       1.45000005       1.45000005    
 Al   7.25000000       1.45000005       4.34999990    
 Al   7.25000000       1.45000005       7.25000000    
 Al   7.25000000       1.45000005       10.1499996    
 Al   7.25000000       1.45000005       13.0500002    
 Al   7.25000000       4.34999990       1.45000005    
 Al   7.25000000       4.34999990       4.34999990    
 Al   7.25000000       4.34999990       7.25000000    
 Al   7.25000000       4.34999990       10.1499996    
 Al   7.25000000       4.34999990       13.0500002    
 Al   7.25000000       7.25000000       1.45000005    
 Al   7.25000000       7.25000000       4.34999990    
 Al   7.25000000       7.25000000       7.25000000    
 Al   7.25000000       7.25000000       10.1499996    
 Al   7.25000000       7.25000000       13.0500002    
 Al   7.25000000       10.1499996       1.45000005    
 Al   7.25000000       10.1499996       4.34999990    
 Al   7.25000000       10.1499996       7.25000000    
 Al   7.25000000       10.1499996       10.1499996    
 Al   7.25000000       10.1499996       13.0500002    
 Al   7.25000000       13.0500002       1.45000005    
 Al   7.25000000       13.0500002       4.34999990    
 Al   7.25000000       13.0500002       7.25000000    
 Al   7.25000000       13.0500002       10.1499996    
 Al   7.25000000       13.0500002       13.0500002    
 Al   10.1499996       1.45000005       1.45000005    
 Al   10.1499996       1.45000005       4.34999990    
 Al   10.1499996       1.45000005       7.25000000    
 Al   10.1499996       1.45000005       10.1499996    
 Al   10.1499996       1.45000005       13.0500002    
 Al   10.1499996       4.34999990       1.45000005    
 Al   10.1499996       4.34999990       4.34999990    
 Al   10.1499996       4.34999990       7.25000000    
 Al   10.1499996       4.34999990       10.1499996    
 Al   10.1499996       4.34999990       13.0500002    
 Al   10.1499996       7.25000000       1.45000005    
 Al   10.1499996       7.25000000       4.34999990    
 Al   10.1499996       7.25000000       7.25000000    
 Al   10.1499996       7.25000000       10.1499996    
 Al   10.1499996       7.25000000       13.0500002    
 Al   10.1499996       10.1499996       1.45000005    
 Al   10.1499996       10.1499996       4.34999990    
 Al   10.1499996       10.1499996       7.25000000    
 Al   10.1499996       10.1499996       10.1499996    
 Al   10.1499996       10.1499996       13.0500002    
 Al   10.1499996       13.0500002       1.45000005    
 Al   10.1499996       13.0500002       4.34999990    
 Al   10.1499996       13.0500002       7.25000000    
 Al   10.1499996       13.0500002       10.1499996    
 Al   10.1499996       13.0500002       13.0500002    
 Al   13.0500002       1.45000005       1.45000005    
 Al   13.0500002       1.45000005       4.34999990    
 Al   13.0500002       1.45000005       7.25000000    
 Al   13.0500002       1.45000005       10.1499996    
 Al   13.0500002       1.45000005       13.0500002    
 Al   13.0500002       4.34999990       1.45000005    
 Al   13.0500002       4.34999990       4.34999990    
 Al   13.0500002       4.34999990       7.25000000    
 Al   13.0500002       4.34999990       10.1499996    
 Al   13.0500002       4.34999990       13.0500002    
 Al   13.0500002       7.25000000       1.45000005    
 Al   13.0500002       7.25000000       4.34999990    
 Al   13.0500002       7.25000000       7.25000000    
 Al   13.0500002       7.25000000       10.1499996    
 Al   13.0500002       7.25000000       13.0500002    
 Al   13.0500002       10.1499996       1.45000005    
 Al   13.0500002       10.1499996       4.34999990    
 Al   13.0500002       10.1499996       7.25000000    
 Al   13.0500002       10.1499996       10.1499996    
 Al   13.0500002       10.1499996       13.0500002    
 Al   13.0500002       13.0500002       1.45000005    
 Al   13.0500002       13.0500002       4.34999990    
 Al   13.0500002       13.0500002       7.25000000    
 Al   13.0500002       13.0500002       10.1499996    
 Al   13.0500002       13.0500002       13.0500002    
 O    5.80000019       2.90000010       13.0500002    
         259
 Energy:  -1216.3124631000001     
 X   0.00000000       0.00000000       0.00000000    
 X   14.5000000       0.00000000       0.00000000    
 X   0.00000000       14.5000000       0.00000000    
 X   0.00000000       0.00000000       14.5000000    
 X   14.5000000       14.5000000       0.00000000    
 X   14.5000000       0.00000000       14.5000000    
 X   0.00000000       14.5000000       14.5000000    
 X   14.5000000       14.5000000       14.5000000    
 Ni   1.99999995E-04  -9.00000014E-05   2.99999992E-05
 Ni  -9.00000014E-05   9.00000014E-05   2.89984012    
 Ni  -4.99999987E-05   9.99999975E-05   5.80000019    
 Ni  -9.00000014E-05   9.00000014E-05   8.70016003    
 Ni   1.99999995E-04  -9.00000014E-05   11.5999699    
 Ni  -8.69999989E-04   2.90000010      -3.60000005E-04
 Ni   9.00000014E-05   2.90000010       2.90021992    
 Ni   7.00000019E-05   2.90000010       5.80000019    
 Ni   9.00000014E-05   2.90000010       8.69978046    
 Ni  -8.69999989E-04   2.90000010       11.6003599    
 Ni   1.99999995E-04   5.80008984       2.99999992E-05
 Ni  -9.00000014E-05   5.79991007       2.89984012    
 Ni  -4.99999987E-05   5.79990005       5.80000019    
 Ni  -9.00000014E-05   5.79991007       8.70016003    
 Ni   1.99999995E-04   5.80008984       11.5999699    
 Ni   1.40000004E-04   8.69985962      -1.99999995E-05
 Ni   2.09999998E-04   8.69979000       2.90007997    
 Ni   9.99999975E-05   8.69989967       5.80000019    
 Ni   2.09999998E-04   8.69979000       8.69991970    
 Ni   1.40000004E-04   8.69985962       11.6000204    
 Ni   1.40000004E-04   11.6001396      -1.99999995E-05
 Ni   2.09999998E-04   11.6002102       2.90007997    
 Ni   9.99999975E-05   11.6000996       5.80000019    
 Ni   2.09999998E-04   11.6002102       8.69991970    
 Ni   1.40000004E-04   11.6001396       11.6000204    
 Ni   2.90076995       7.69999984E-04   6.90000015E-04
 Ni   2.89986992      -1.30000000E-04   2.89997005    
 Ni   2.89997005      -2.99999992E-05   5.80000019    
 Ni   2.89986992      -1.30000000E-04   8.70003033    
 Ni   2.90076995       7.69999984E-04   11.5993099    
 Ni   2.89837003       2.90000010      -2.24999990E-03
 Ni   2.90017009       2.90000010       2.89878011    
 Ni   2.89979005       2.90000010       5.80000019    
 Ni   2.90017009       2.90000010       8.70121956    
 Ni   2.89837003       2.90000010       11.6022501    
 Ni   2.90076995       5.79923010       6.90000015E-04
 Ni   2.89986992       5.80012989       2.89997005    
 Ni   2.89997005       5.80003023       5.80000019    
 Ni   2.89986992       5.80012989       8.70003033    
 Ni   2.90076995       5.79923010       11.5993099    
 Ni   2.89990997       8.69979954       2.99999992E-05
 Ni   2.90008998       8.70009041       2.89984012    
 Ni   2.90009999       8.70005035       5.80000019    
 Ni   2.90008998       8.70009041       8.70016003    
 Ni   2.89990997       8.69979954       11.5999699    
 Ni   2.89990997       11.6001997       2.99999992E-05
 Ni   2.90008998       11.5999098       2.89984012    
 Ni   2.90009999       11.5999498       5.80000019    
 Ni   2.90008998       11.5999098       8.70016003    
 Ni   2.89990997       11.6001997       11.5999699    
 Ni   5.80000019      -1.62999996E-03  -2.24999990E-03
 Ni   5.80000019       1.69999999E-04   2.89878011    
 Ni   5.80000019      -2.09999998E-04   5.80000019    
 Ni   5.80000019       1.69999999E-04   8.70121956    
 Ni   5.80000019      -1.62999996E-03   11.6022501    
 Ni   5.80000019       2.90000010      0.389730006    
 Ni   5.80000019       2.90000010       2.89216995    
 Ni   5.80000019       2.90000010       5.80000019    
 Ni   5.80000019       2.90000010       8.70783043    
 Ni   5.80000019       2.90000010       11.2102699    
 Ni   5.80000019       5.80163002      -2.24999990E-03
 Ni   5.80000019       5.79982996       2.89878011    
 Ni   5.80000019       5.80021000       5.80000019    
 Ni   5.80000019       5.79982996       8.70121956    
 Ni   5.80000019       5.80163002       11.6022501    
 Ni   5.80000019       8.70086956      -3.60000005E-04
 Ni   5.80000019       8.69991016       2.90021992    
 Ni   5.80000019       8.69993019       5.80000019    
 Ni   5.80000019       8.69991016       8.69978046    
 Ni   5.80000019       8.70086956       11.6003599    
 Ni   5.80000019       11.5991297      -3.60000005E-04
 Ni   5.80000019       11.6000900       2.90021992    
 Ni   5.80000019       11.6000700       5.80000019    
 Ni   5.80000019       11.6000900       8.69978046    
 Ni   5.80000019       11.5991297       11.6003599    
 Ni   8.69923019       7.69999984E-04   6.90000015E-04
 Ni   8.70013046      -1.30000000E-04   2.89997005    
 Ni   8.70003033      -2.99999992E-05   5.80000019    
 Ni   8.70013046      -1.30000000E-04   8.70003033    
 Ni   8.69923019       7.69999984E-04   11.5993099    
 Ni   8.70162964       2.90000010      -2.24999990E-03
 Ni   8.69983006       2.90000010       2.89878011    
 Ni   8.70020962       2.90000010       5.80000019    
 Ni   8.69983006       2.90000010       8.70121956    
 Ni   8.70162964       2.90000010       11.6022501    
 Ni   8.69923019       5.79923010       6.90000015E-04
 Ni   8.70013046       5.80012989       2.89997005    
 Ni   8.70003033       5.80003023       5.80000019    
 Ni   8.70013046       5.80012989       8.70003033    
 Ni   8.69923019       5.79923010       11.5993099    
 Ni   8.70009041       8.69979954       2.99999992E-05
 Ni   8.69991016       8.70009041       2.89984012    
 Ni   8.69989967       8.70005035       5.80000019    
 Ni   8.69991016       8.70009041       8.70016003    
 Ni   8.70009041       8.69979954       11.5999699    
 Ni   8.70009041       11.6001997       2.99999992E-05
 Ni   8.69991016       11.5999098       2.89984012    
 Ni   8.69989967       11.5999498       5.80000019    
 Ni   8.69991016       11.5999098       8.70016003    
 Ni   8.70009041       11.6001997       11.5999699    
 Ni   11.5998001      -9.00000014E-05   2.99999992E-05
 Ni   11.6000900       9.00000014E-05   2.89984012    
 Ni   11.6000500       9.99999975E-05   5.80000019    
 Ni   11.6000900       9.00000014E-05   8.70016003    
 Ni   11.5998001      -9.00000014E-05   11.5999699    
 Ni   11.6008701       2.90000010      -3.60000005E-04
 Ni   11.5999098       2.90000010       2.90021992    
 Ni   11.5999298       2.90000010       5.80000019    
 Ni   11.5999098       2.90000010       8.69978046    
 Ni   11.6008701       2.90000010       11.6003599    
 Ni   11.5998001       5.80008984       2.99999992E-05
 Ni   11.6000900       5.79991007       2.89984012    
 Ni   11.6000500       5.79990005       5.80000019    
 Ni   11.6000900       5.79991007       8.70016003    
 Ni   11.5998001       5.80008984       11.5999699    
 Ni   11.5998602       8.69985962      -1.99999995E-05
 Ni   11.5997896       8.69979000       2.90007997    
 Ni   11.5999002       8.69989967       5.80000019    
 Ni   11.5997896       8.69979000       8.69991970    
 Ni   11.5998602       8.69985962       11.6000204    
 Ni   11.5998602       11.6001396      -1.99999995E-05
 Ni   11.5997896       11.6002102       2.90007997    
 Ni   11.5999002       11.6000996       5.80000019    
 Ni   11.5997896       11.6002102       8.69991970    
 Ni   11.5998602       11.6001396       11.6000204    
 Al   1.44970000       1.45014000       1.45032001    
 Al   1.45010996       1.45021999       4.34992981    
 Al   1.45010996       1.45021999       7.25007010    
 Al   1.44970000       1.45014000       10.1496801    
 Al   1.44927001       1.45027006       13.0500002    
 Al   1.44970000       4.34986019       1.45032001    
 Al   1.45010996       4.34978008       4.34992981    
 Al   1.45010996       4.34978008       7.25007010    
 Al   1.44970000       4.34986019       10.1496801    
 Al   1.44927001       4.34973001       13.0500002    
 Al   1.44977999       7.25021982       1.45029998    
 Al   1.44973004       7.25026989       4.34991980    
 Al   1.44973004       7.25026989       7.25008011    
 Al   1.44977999       7.25021982       10.1497002    
 Al   1.45015001       7.24984980       13.0500002    
 Al   1.44968998       10.1499996       1.45010996    
 Al   1.44974995       10.1499996       4.34993982    
 Al   1.44974995       10.1499996       7.25006008    
 Al   1.44968998       10.1499996       10.1498899    
 Al   1.44999003       10.1499996       13.0500002    
 Al   1.44977999       13.0497799       1.45029998    
 Al   1.44973004       13.0497303       4.34991980    
 Al   1.44973004       13.0497303       7.25008011    
 Al   1.44977999       13.0497799       10.1497002    
 Al   1.45015001       13.0501499       13.0500002    
 Al   4.34797001       1.44797003       1.45361996    
 Al   4.35040998       1.45041001       4.35024977    
 Al   4.35040998       1.45041001       7.24975014    
 Al   4.34797001       1.44797003       10.1463804    
 Al   4.32753992       1.42753994       13.0500002    
 Al   4.34797001       4.35202980       1.45361996    
 Al   4.35040998       4.34958982       4.35024977    
 Al   4.35040998       4.34958982       7.24975014    
 Al   4.34797001       4.35202980       10.1463804    
 Al   4.32753992       4.37245989       13.0500002    
 Al   4.35014009       7.25029993       1.45032001    
 Al   4.35022020       7.24988985       4.34992981    
 Al   4.35022020       7.24988985       7.25007010    
 Al   4.35014009       7.25029993       10.1496801    
 Al   4.35026979       7.25073004       13.0500002    
 Al   4.35013008       10.1499996       1.45034003    
 Al   4.35036993       10.1499996       4.34985018    
 Al   4.35036993       10.1499996       7.25015020    
 Al   4.35013008       10.1499996       10.1496601    
 Al   4.34975004       10.1499996       13.0500002    
 Al   4.35014009       13.0496998       1.45032001    
 Al   4.35022020       13.0501099       4.34992981    
 Al   4.35022020       13.0501099       7.25007010    
 Al   4.35014009       13.0496998       10.1496801    
 Al   4.35026979       13.0492697       13.0500002    
 Al   7.25202990       1.44797003       1.45361996    
 Al   7.24958992       1.45041001       4.35024977    
 Al   7.24958992       1.45041001       7.24975014    
 Al   7.25202990       1.44797003       10.1463804    
 Al   7.27245998       1.42753994       13.0500002    
 Al   7.25202990       4.35202980       1.45361996    
 Al   7.24958992       4.34958982       4.35024977    
 Al   7.24958992       4.34958982       7.24975014    
 Al   7.25202990       4.35202980       10.1463804    
 Al   7.27245998       4.37245989       13.0500002    
 Al   7.24985981       7.25029993       1.45032001    
 Al   7.24978018       7.24988985       4.34992981    
 Al   7.24978018       7.24988985       7.25007010    
 Al   7.24985981       7.25029993       10.1496801    
 Al   7.24973011       7.25073004       13.0500002    
 Al   7.24986982       10.1499996       1.45034003    
 Al   7.24962997       10.1499996       4.34985018    
 Al   7.24962997       10.1499996       7.25015020    
 Al   7.24986982       10.1499996       10.1496601    
 Al   7.25024986       10.1499996       13.0500002    
 Al   7.24985981       13.0496998       1.45032001    
 Al   7.24978018       13.0501099       4.34992981    
 Al   7.24978018       13.0501099       7.25007010    
 Al   7.24985981       13.0496998       10.1496801    
 Al   7.24973011       13.0492697       13.0500002    
 Al   10.1503000       1.45014000       1.45032001    
 Al   10.1498899       1.45021999       4.34992981    
 Al   10.1498899       1.45021999       7.25007010    
 Al   10.1503000       1.45014000       10.1496801    
 Al   10.1507301       1.45027006       13.0500002    
 Al   10.1503000       4.34986019       1.45032001    
 Al   10.1498899       4.34978008       4.34992981    
 Al   10.1498899       4.34978008       7.25007010    
 Al   10.1503000       4.34986019       10.1496801    
 Al   10.1507301       4.34973001       13.0500002    
 Al   10.1502199       7.25021982       1.45029998    
 Al   10.1502705       7.25026989       4.34991980    
 Al   10.1502705       7.25026989       7.25008011    
 Al   10.1502199       7.25021982       10.1497002    
 Al   10.1498499       7.24984980       13.0500002    
 Al   10.1503096       10.1499996       1.45010996    
 Al   10.1502504       10.1499996       4.34993982    
 Al   10.1502504       10.1499996       7.25006008    
 Al   10.1503096       10.1499996       10.1498899    
 Al   10.1500101       10.1499996       13.0500002    
 Al   10.1502199       13.0497799       1.45029998    
 Al   10.1502705       13.0497303       4.34991980    
 Al   10.1502705       13.0497303       7.25008011    
 Al   10.1502199       13.0497799       10.1497002    
 Al   10.1498499       13.0501499       13.0500002    
 Al   13.0500002       1.45012999       1.45034003    
 Al   13.0500002       1.45036995       4.34985018    
 Al   13.0500002       1.45036995       7.25015020    
 Al   13.0500002       1.45012999       10.1496601    
 Al   13.0500002       1.44974995       13.0500002    
 Al   13.0500002       4.34987020       1.45034003    
 Al   13.0500002       4.34962988       4.34985018    
 Al   13.0500002       4.34962988       7.25015020    
 Al   13.0500002       4.34987020       10.1496601    
 Al   13.0500002       4.35024977       13.0500002    
 Al   13.0500002       7.25030994       1.45010996    
 Al   13.0500002       7.25024986       4.34993982    
 Al   13.0500002       7.25024986       7.25006008    
 Al   13.0500002       7.25030994       10.1498899    
 Al   13.0500002       7.25001001       13.0500002    
 Al   13.0500002       10.1499996       1.45034003    
 Al   13.0500002       10.1499996       4.34981012    
 Al   13.0500002       10.1499996       7.25018978    
 Al   13.0500002       10.1499996       10.1496601    
 Al   13.0500002       10.1499996       13.0500002    
 Al   13.0500002       13.0496902       1.45010996    
 Al   13.0500002       13.0497503       4.34993982    
 Al   13.0500002       13.0497503       7.25006008    
 Al   13.0500002       13.0496902       10.1498899    
 Al   13.0500002       13.0499897       13.0500002    
 O    5.80000019       2.90000010       13.0500002    
         259
 Energy:  -1216.3128971000001     
 X   0.00000000       0.00000000       0.00000000    
 X   14.5000000       0.00000000       0.00000000    
 X   0.00000000       14.5000000       0.00000000    
 X   0.00000000       0.00000000       14.5000000    
 X   14.5000000       14.5000000       0.00000000    
 X   14.5000000       0.00000000       14.5000000    
 X   0.00000000       14.5000000       14.5000000    
 X   14.5000000       14.5000000       14.5000000    
 Ni   2.20000002E-04  -9.99999975E-05   2.99999992E-05
 Ni  -9.00000014E-05   9.00000014E-05   2.89983010    
 Ni  -5.99999985E-05   9.99999975E-05   5.80000019    
 Ni  -9.00000014E-05   9.00000014E-05   8.70016956    
 Ni   2.20000002E-04  -9.99999975E-05   11.5999699    
 Ni  -9.29999980E-04   2.90000010      -3.80000012E-04
 Ni   9.99999975E-05   2.90000010       2.90022993    
 Ni   7.99999980E-05   2.90000010       5.80000019    
 Ni   9.99999975E-05   2.90000010       8.69976997    
 Ni  -9.29999980E-04   2.90000010       11.6003799    
 Ni   2.20000002E-04   5.80009985       2.99999992E-05
 Ni  -9.00000014E-05   5.79991007       2.89983010    
 Ni  -5.99999985E-05   5.79990005       5.80000019    
 Ni  -9.00000014E-05   5.79991007       8.70016956    
 Ni   2.20000002E-04   5.80009985       11.5999699    
 Ni   1.50000007E-04   8.69985008      -1.99999995E-05
 Ni   2.20000002E-04   8.69978046       2.90008998    