<?xml version="1.0" encoding="ISO-8859-1"?>
<modeling>
 <generator>
  <i name="program" type="string">vasp </i>
  <i name="version" type="string">6.2.1  </i>
  <i name="subversion" type="string">16May21 (build Jun 16 2021 03:23:30) complex                          parallel </i>
  <i name="platform" type="string">LinuxPGI </i>
  <i name="date" type="string">2022 04 23 </i>
  <i name="time" type="string">22:45:59 </i>
 </generator>
 <incar>
  <i type="string" name="SYSTEM">NiAl</i>
  <i type="int" name="ISTART">     0</i>
  <i type="int" name="NELMIN">     6</i>
  <i type="int" name="IBRION">     2</i>
  <i name="EDIFF">      0.00000010</i>
  <i type="int" name="NSW">    40</i>
  <i type="int" name="ISIF">     1</i>
  <i name="ENCUT">    360.00000000</i>
  <i name="POTIM">      0.20000000</i>
  <i type="string" name="LREAL">Auto</i>
  <i type="logical" name="LPLANE"> T  </i>
  <i type="int" name="ISMEAR">     0</i>
  <i name="SIGMA">      0.05000000</i>
  <i type="logical" name="LWAVE"> F  </i>
  <i type="logical" name="LCHARG"> F  </i>
  <i type="int" name="IVDW">    12</i>
 </incar>
 <primitive_cell>
  <structure name="primitive_cell" >
   <crystal>
    <varray name="basis" >
     <v>      14.50000000       0.00000000       0.00000000 </v>
     <v>       0.00000000      14.50000000       0.00000000 </v>
     <v>       0.00000000       0.00000000      14.50000000 </v>
    </varray>
    <i name="volume">   3048.62500000 </i>
    <varray name="rec_basis" >
     <v>       0.06896552       0.00000000       0.00000000 </v>
     <v>       0.00000000       0.06896552       0.00000000 </v>
     <v>       0.00000000       0.00000000       0.06896552 </v>
    </varray>
   </crystal>
   <varray name="positions" >
    <v>       0.00000000       0.00000000       0.00000000 </v>
    <v>       0.00000000       0.00000000       0.20000000 </v>
    <v>       0.00000000       0.00000000       0.40000000 </v>
    <v>       0.00000000       0.00000000       0.60000000 </v>
    <v>       0.00000000       0.00000000       0.80000000 </v>
    <v>       0.00000000       0.20000000       0.00000000 </v>
    <v>       0.00000000       0.20000000       0.20000000 </v>
    <v>       0.00000000       0.20000000       0.40000000 </v>
    <v>       0.00000000       0.20000000       0.60000000 </v>
    <v>       0.00000000       0.20000000       0.80000000 </v>
    <v>       0.00000000       0.40000000       0.00000000 </v>
    <v>       0.00000000       0.40000000       0.20000000 </v>
    <v>       0.00000000       0.40000000       0.40000000 </v>
    <v>       0.00000000       0.40000000       0.60000000 </v>
    <v>       0.00000000       0.40000000       0.80000000 </v>
    <v>       0.00000000       0.60000000       0.00000000 </v>
    <v>       0.00000000       0.60000000       0.20000000 </v>
    <v>       0.00000000       0.60000000       0.40000000 </v>
    <v>       0.00000000       0.60000000       0.60000000 </v>
    <v>       0.00000000       0.60000000       0.80000000 </v>
    <v>       0.00000000       0.80000000       0.00000000 </v>
    <v>       0.00000000       0.80000000       0.20000000 </v>
    <v>       0.00000000       0.80000000       0.40000000 </v>
    <v>       0.00000000       0.80000000       0.60000000 </v>
    <v>       0.00000000       0.80000000       0.80000000 </v>
    <v>       0.20000000       0.00000000       0.00000000 </v>
    <v>       0.20000000       0.00000000       0.20000000 </v>
    <v>       0.20000000       0.00000000       0.40000000 </v>
    <v>       0.20000000       0.00000000       0.60000000 </v>
    <v>       0.20000000       0.00000000       0.80000000 </v>
    <v>       0.20000000       0.20000000       0.00000000 </v>
    <v>       0.20000000       0.20000000       0.20000000 </v>
    <v>       0.20000000       0.20000000       0.40000000 </v>
    <v>       0.20000000       0.20000000       0.60000000 </v>
    <v>       0.20000000       0.20000000       0.80000000 </v>
    <v>       0.20000000       0.40000000       0.00000000 </v>
    <v>       0.20000000       0.40000000       0.20000000 </v>
    <v>       0.20000000       0.40000000       0.40000000 </v>
    <v>       0.20000000       0.40000000       0.60000000 </v>
    <v>       0.20000000       0.40000000       0.80000000 </v>
    <v>       0.20000000       0.60000000       0.00000000 </v>
    <v>       0.20000000       0.60000000       0.20000000 </v>
    <v>       0.20000000       0.60000000       0.40000000 </v>
    <v>       0.20000000       0.60000000       0.60000000 </v>
    <v>       0.20000000       0.60000000       0.80000000 </v>
    <v>       0.20000000       0.80000000       0.00000000 </v>
    <v>       0.20000000       0.80000000       0.20000000 </v>
    <v>       0.20000000       0.80000000       0.40000000 </v>
    <v>       0.20000000       0.80000000       0.60000000 </v>
    <v>       0.20000000       0.80000000       0.80000000 </v>
    <v>       0.40000000       0.00000000       0.00000000 </v>
    <v>       0.40000000       0.00000000       0.20000000 </v>
    <v>       0.40000000       0.00000000       0.40000000 </v>
    <v>       0.40000000       0.00000000       0.60000000 </v>
    <v>       0.40000000       0.00000000       0.80000000 </v>
    <v>       0.40000000       0.20000000       0.00000000 </v>
    <v>       0.40000000       0.20000000       0.20000000 </v>
    <v>       0.40000000       0.20000000       0.40000000 </v>
    <v>       0.40000000       0.20000000       0.60000000 </v>
    <v>       0.40000000       0.20000000       0.80000000 </v>
    <v>       0.40000000       0.40000000       0.00000000 </v>
    <v>       0.40000000       0.40000000       0.20000000 </v>
    <v>       0.40000000       0.40000000       0.40000000 </v>
    <v>       0.40000000       0.40000000       0.60000000 </v>
    <v>       0.40000000       0.40000000       0.80000000 </v>
    <v>       0.40000000       0.60000000       0.00000000 </v>
    <v>       0.40000000       0.60000000       0.20000000 </v>
    <v>       0.40000000       0.60000000       0.40000000 </v>
    <v>       0.40000000       0.60000000       0.60000000 </v>
    <v>       0.40000000       0.60000000       0.80000000 </v>
    <v>       0.40000000       0.80000000       0.00000000 </v>
    <v>       0.40000000       0.80000000       0.20000000 </v>
    <v>       0.40000000       0.80000000       0.40000000 </v>
    <v>       0.40000000       0.80000000       0.60000000 </v>
    <v>       0.40000000       0.80000000       0.80000000 </v>
    <v>       0.60000000       0.00000000       0.00000000 </v>
    <v>       0.60000000       0.00000000       0.20000000 </v>
    <v>       0.60000000       0.00000000       0.40000000 </v>
    <v>       0.60000000       0.00000000       0.60000000 </v>
    <v>       0.60000000       0.00000000       0.80000000 </v>
    <v>       0.60000000       0.20000000       0.00000000 </v>
    <v>       0.60000000       0.20000000       0.20000000 </v>
    <v>       0.60000000       0.20000000       0.40000000 </v>
    <v>       0.60000000       0.20000000       0.60000000 </v>
    <v>       0.60000000       0.20000000       0.80000000 </v>
    <v>       0.60000000       0.40000000       0.00000000 </v>
    <v>       0.60000000       0.40000000       0.20000000 </v>
    <v>       0.60000000       0.40000000       0.40000000 </v>
    <v>       0.60000000       0.40000000       0.60000000 </v>
    <v>       0.60000000       0.40000000       0.80000000 </v>
    <v>       0.60000000       0.60000000       0.00000000 </v>
    <v>       0.60000000       0.60000000       0.20000000 </v>
    <v>       0.60000000       0.60000000       0.40000000 </v>
    <v>       0.60000000       0.60000000       0.60000000 </v>
    <v>       0.60000000       0.60000000       0.80000000 </v>
    <v>       0.60000000       0.80000000       0.00000000 </v>
    <v>       0.60000000       0.80000000       0.20000000 </v>
    <v>       0.60000000       0.80000000       0.40000000 </v>
    <v>       0.60000000       0.80000000       0.60000000 </v>
    <v>       0.60000000       0.80000000       0.80000000 </v>
    <v>       0.80000000       0.00000000       0.00000000 </v>
    <v>       0.80000000       0.00000000       0.20000000 </v>
    <v>       0.80000000       0.00000000       0.40000000 </v>
    <v>       0.80000000       0.00000000       0.60000000 </v>
    <v>       0.80000000       0.00000000       0.80000000 </v>
    <v>       0.80000000       0.20000000       0.00000000 </v>
    <v>       0.80000000       0.20000000       0.20000000 </v>
    <v>       0.80000000       0.20000000       0.40000000 </v>
    <v>       0.80000000       0.20000000       0.60000000 </v>
    <v>       0.80000000       0.20000000       0.80000000 </v>
    <v>       0.80000000       0.40000000       0.00000000 </v>
    <v>       0.80000000       0.40000000       0.20000000 </v>
    <v>       0.80000000       0.40000000       0.40000000 </v>
    <v>       0.80000000       0.40000000       0.60000000 </v>
    <v>       0.80000000       0.40000000       0.80000000 </v>
    <v>       0.80000000       0.60000000       0.00000000 </v>
    <v>       0.80000000       0.60000000       0.20000000 </v>
    <v>       0.80000000       0.60000000       0.40000000 </v>
    <v>       0.80000000       0.60000000       0.60000000 </v>
    <v>       0.80000000       0.60000000       0.80000000 </v>
    <v>       0.80000000       0.80000000       0.00000000 </v>
    <v>       0.80000000       0.80000000       0.20000000 </v>
    <v>       0.80000000       0.80000000       0.40000000 </v>
    <v>       0.80000000       0.80000000       0.60000000 </v>
    <v>       0.80000000       0.80000000       0.80000000 </v>
    <v>       0.10000000       0.10000000       0.10000000 </v>
    <v>       0.10000000       0.10000000       0.30000000 </v>
    <v>       0.10000000       0.10000000       0.50000000 </v>
    <v>       0.10000000       0.10000000       0.70000000 </v>
    <v>       0.10000000       0.10000000       0.90000000 </v>
    <v>       0.10000000       0.30000000       0.10000000 </v>
    <v>       0.10000000       0.30000000       0.30000000 </v>
    <v>       0.10000000       0.30000000       0.50000000 </v>
    <v>       0.10000000       0.30000000       0.70000000 </v>
    <v>       0.10000000       0.30000000       0.90000000 </v>
    <v>       0.10000000       0.50000000       0.10000000 </v>
    <v>       0.10000000       0.50000000       0.30000000 </v>
    <v>       0.10000000       0.50000000       0.50000000 </v>
    <v>       0.10000000       0.50000000       0.70000000 </v>
    <v>       0.10000000       0.50000000       0.90000000 </v>
    <v>       0.10000000       0.70000000       0.10000000 </v>
    <v>       0.10000000       0.70000000       0.30000000 </v>
    <v>       0.10000000       0.70000000       0.50000000 </v>
    <v>       0.10000000       0.70000000       0.70000000 </v>
    <v>       0.10000000       0.70000000       0.90000000 </v>
    <v>       0.10000000       0.90000000       0.10000000 </v>
    <v>       0.10000000       0.90000000       0.30000000 </v>
    <v>       0.10000000       0.90000000       0.50000000 </v>
    <v>       0.10000000       0.90000000       0.70000000 </v>
    <v>       0.10000000       0.90000000       0.90000000 </v>
    <v>       0.30000000       0.10000000       0.10000000 </v>
    <v>       0.30000000       0.10000000       0.30000000 </v>
    <v>       0.30000000       0.10000000       0.50000000 </v>
    <v>       0.30000000       0.10000000       0.70000000 </v>
    <v>       0.30000000       0.10000000       0.90000000 </v>
    <v>       0.30000000       0.30000000       0.10000000 </v>
    <v>       0.30000000       0.30000000       0.30000000 </v>
    <v>       0.30000000       0.30000000       0.50000000 </v>
    <v>       0.30000000       0.30000000       0.70000000 </v>
    <v>       0.30000000       0.30000000       0.90000000 </v>
    <v>       0.30000000       0.50000000       0.10000000 </v>
    <v>       0.30000000       0.50000000       0.30000000 </v>
    <v>       0.30000000       0.50000000       0.50000000 </v>
    <v>       0.30000000       0.50000000       0.70000000 </v>
    <v>       0.30000000       0.50000000       0.90000000 </v>
    <v>       0.30000000       0.70000000       0.10000000 </v>
    <v>       0.30000000       0.70000000       0.30000000 </v>
    <v>       0.30000000       0.70000000       0.50000000 </v>
    <v>       0.30000000       0.70000000       0.70000000 </v>
    <v>       0.30000000       0.70000000       0.90000000 </v>
    <v>       0.30000000       0.90000000       0.10000000 </v>
    <v>       0.30000000       0.90000000       0.30000000 </v>
    <v>       0.30000000       0.90000000       0.50000000 </v>
    <v>       0.30000000       0.90000000       0.70000000 </v>
    <v>       0.30000000       0.90000000       0.90000000 </v>
    <v>       0.50000000       0.10000000       0.10000000 </v>
    <v>       0.50000000       0.10000000       0.30000000 </v>
    <v>       0.50000000       0.10000000       0.50000000 </v>
    <v>       0.50000000       0.10000000       0.70000000 </v>
    <v>       0.50000000       0.10000000       0.90000000 </v>
    <v>       0.50000000       0.30000000       0.10000000 </v>
    <v>       0.50000000       0.30000000       0.30000000 </v>
    <v>       0.50000000       0.30000000       0.50000000 </v>
    <v>       0.50000000       0.30000000       0.70000000 </v>
    <v>       0.50000000       0.30000000       0.90000000 </v>
    <v>       0.50000000       0.50000000       0.10000000 </v>
    <v>       0.50000000       0.50000000       0.30000000 </v>
    <v>       0.50000000       0.50000000       0.50000000 </v>
    <v>       0.50000000       0.50000000       0.70000000 </v>
    <v>       0.50000000       0.50000000       0.90000000 </v>
    <v>       0.50000000       0.70000000       0.10000000 </v>
    <v>       0.50000000       0.70000000       0.30000000 </v>
    <v>       0.50000000       0.70000000       0.50000000 </v>
    <v>       0.50000000       0.70000000       0.70000000 </v>
    <v>       0.50000000       0.70000000       0.90000000 </v>
    <v>       0.50000000       0.90000000       0.10000000 </v>
    <v>       0.50000000       0.90000000       0.30000000 </v>
    <v>       0.50000000       0.90000000       0.50000000 </v>
    <v>       0.50000000       0.90000000       0.70000000 </v>
    <v>       0.50000000       0.90000000       0.90000000 </v>
    <v>       0.70000000       0.10000000       0.10000000 </v>
    <v>       0.70000000       0.10000000       0.30000000 </v>
    <v>       0.70000000       0.10000000       0.50000000 </v>
    <v>       0.70000000       0.10000000       0.70000000 </v>
    <v>       0.70000000       0.10000000       0.90000000 </v>
    <v>       0.70000000       0.30000000       0.10000000 </v>
    <v>       0.70000000       0.30000000       0.30000000 </v>
    <v>       0.70000000       0.30000000       0.50000000 </v>
    <v>       0.70000000       0.30000000       0.70000000 </v>
    <v>       0.70000000       0.30000000       0.90000000 </v>
    <v>       0.70000000       0.50000000       0.10000000 </v>
    <v>       0.70000000       0.50000000       0.30000000 </v>
    <v>       0.70000000       0.50000000       0.50000000 </v>
    <v>       0.70000000       0.50000000       0.70000000 </v>
    <v>       0.70000000       0.50000000       0.90000000 </v>
    <v>       0.70000000       0.70000000       0.10000000 </v>
    <v>       0.70000000       0.70000000       0.30000000 </v>
    <v>       0.70000000       0.70000000       0.50000000 </v>
    <v>       0.70000000       0.70000000       0.70000000 </v>
    <v>       0.70000000       0.70000000       0.90000000 </v>
    <v>       0.70000000       0.90000000       0.10000000 </v>
    <v>       0.70000000       0.90000000       0.30000000 </v>
    <v>       0.70000000       0.90000000       0.50000000 </v>
    <v>       0.70000000       0.90000000       0.70000000 </v>
    <v>       0.70000000       0.90000000       0.90000000 </v>
    <v>       0.90000000       0.10000000       0.10000000 </v>
    <v>       0.90000000       0.10000000       0.30000000 </v>
    <v>       0.90000000       0.10000000       0.50000000 </v>
    <v>       0.90000000       0.10000000       0.70000000 </v>
    <v>       0.90000000       0.10000000       0.90000000 </v>
    <v>       0.90000000       0.30000000       0.10000000 </v>
    <v>       0.90000000       0.30000000       0.30000000 </v>
    <v>       0.90000000       0.30000000       0.50000000 </v>
    <v>       0.90000000       0.30000000       0.70000000 </v>
    <v>       0.90000000       0.30000000       0.90000000 </v>
    <v>       0.90000000       0.50000000       0.10000000 </v>
    <v>       0.90000000       0.50000000       0.30000000 </v>
    <v>       0.90000000       0.50000000       0.50000000 </v>
    <v>       0.90000000       0.50000000       0.70000000 </v>
    <v>       0.90000000       0.50000000       0.90000000 </v>
    <v>       0.90000000       0.70000000       0.10000000 </v>
    <v>       0.90000000       0.70000000       0.30000000 </v>
    <v>       0.90000000       0.70000000       0.50000000 </v>
    <v>       0.90000000       0.70000000       0.70000000 </v>
    <v>       0.90000000       0.70000000       0.90000000 </v>
    <v>       0.90000000       0.90000000       0.10000000 </v>
    <v>       0.90000000       0.90000000       0.30000000 </v>
    <v>       0.90000000       0.90000000       0.50000000 </v>
    <v>       0.90000000       0.90000000       0.70000000 </v>
    <v>       0.90000000       0.90000000       0.90000000 </v>
    <v>       0.40000000       0.20000000       0.90000000 </v>
   </varray>
  </structure>
  <varray name="primitive_index" >
   <v type="int" >        1 </v>
   <v type="int" >        2 </v>
   <v type="int" >        3 </v>
   <v type="int" >        4 </v>
   <v type="int" >        5 </v>
   <v type="int" >        6 </v>
   <v type="int" >        7 </v>
   <v type="int" >        8 </v>
   <v type="int" >        9 </v>
   <v type="int" >       10 </v>
   <v type="int" >       11 </v>
   <v type="int" >       12 </v>
   <v type="int" >       13 </v>
   <v type="int" >       14 </v>
   <v type="int" >       15 </v>
   <v type="int" >       16 </v>
   <v type="int" >       17 </v>
   <v type="int" >       18 </v>
   <v type="int" >       19 </v>
   <v type="int" >       20 </v>
   <v type="int" >       21 </v>
   <v type="int" >       22 </v>
   <v type="int" >       23 </v>
   <v type="int" >       24 </v>
   <v type="int" >       25 </v>
   <v type="int" >       26 </v>
   <v type="int" >       27 </v>
   <v type="int" >       28 </v>
   <v type="int" >       29 </v>
   <v type="int" >       30 </v>
   <v type="int" >       31 </v>
   <v type="int" >       32 </v>
   <v type="int" >       33 </v>
   <v type="int" >       34 </v>
   <v type="int" >       35 </v>
   <v type="int" >       36 </v>
   <v type="int" >       37 </v>
   <v type="int" >       38 </v>
   <v type="int" >       39 </v>
   <v type="int" >       40 </v>
   <v type="int" >       41 </v>
   <v type="int" >       42 </v>
   <v type="int" >       43 </v>
   <v type="int" >       44 </v>
   <v type="int" >       45 </v>
   <v type="int" >       46 </v>
   <v type="int" >       47 </v>
   <v type="int" >       48 </v>
   <v type="int" >       49 </v>
   <v type="int" >       50 </v>
   <v type="int" >       51 </v>
   <v type="int" >       52 </v>
   <v type="int" >       53 </v>
   <v type="int" >       54 </v>
   <v type="int" >       55 </v>
   <v type="int" >       56 </v>
   <v type="int" >       57 </v>
   <v type="int" >       58 </v>
   <v type="int" >       59 </v>
   <v type="int" >       60 </v>
   <v type="int" >       61 </v>
   <v type="int" >       62 </v>
   <v type="int" >       63 </v>
   <v type="int" >       64 </v>
   <v type="int" >       65 </v>
   <v type="int" >       66 </v>
   <v type="int" >       67 </v>
   <v type="int" >       68 </v>
   <v type="int" >       69 </v>
   <v type="int" >       70 </v>
   <v type="int" >       71 </v>
   <v type="int" >       72 </v>
   <v type="int" >       73 </v>
   <v type="int" >       74 </v>
   <v type="int" >       75 </v>
   <v type="int" >       76 </v>
   <v type="int" >       77 </v>
   <v type="int" >       78 </v>
   <v type="int" >       79 </v>
   <v type="int" >       80 </v>
   <v type="int" >       81 </v>
   <v type="int" >       82 </v>
   <v type="int" >       83 </v>
   <v type="int" >       84 </v>
   <v type="int" >       85 </v>
   <v type="int" >       86 </v>
   <v type="int" >       87 </v>
   <v type="int" >       88 </v>
   <v type="int" >       89 </v>
   <v type="int" >       90 </v>
   <v type="int" >       91 </v>
   <v type="int" >       92 </v>
   <v type="int" >       93 </v>
   <v type="int" >       94 </v>
   <v type="int" >       95 </v>
   <v type="int" >       96 </v>
   <v type="int" >       97 </v>
   <v type="int" >       98 </v>
   <v type="int" >       99 </v>
   <v type="int" >      100 </v>
   <v type="int" >      101 </v>
   <v type="int" >      102 </v>
   <v type="int" >      103 </v>
   <v type="int" >      104 </v>
   <v type="int" >      105 </v>
   <v type="int" >      106 </v>
   <v type="int" >      107 </v>
   <v type="int" >      108 </v>
   <v type="int" >      109 </v>
   <v type="int" >      110 </v>
   <v type="int" >      111 </v>
   <v type="int" >      112 </v>
   <v type="int" >      113 </v>
   <v type="int" >      114 </v>
   <v type="int" >      115 </v>
   <v type="int" >      116 </v>
   <v type="int" >      117 </v>
   <v type="int" >      118 </v>
   <v type="int" >      119 </v>
   <v type="int" >      120 </v>
   <v type="int" >      121 </v>
   <v type="int" >      122 </v>
   <v type="int" >      123 </v>
   <v type="int" >      124 </v>
   <v type="int" >      125 </v>
   <v type="int" >      126 </v>
   <v type="int" >      127 </v>
   <v type="int" >      128 </v>
   <v type="int" >      129 </v>
   <v type="int" >      130 </v>
   <v type="int" >      131 </v>
   <v type="int" >      132 </v>
   <v type="int" >      133 </v>
   <v type="int" >      134 </v>
   <v type="int" >      135 </v>
   <v type="int" >      136 </v>
   <v type="int" >      137 </v>
   <v type="int" >      138 </v>
   <v type="int" >      139 </v>
   <v type="int" >      140 </v>
   <v type="int" >      141 </v>
   <v type="int" >      142 </v>
   <v type="int" >      143 </v>
   <v type="int" >      144 </v>
   <v type="int" >      145 </v>
   <v type="int" >      146 </v>
   <v type="int" >      147 </v>
   <v type="int" >      148 </v>
   <v type="int" >      149 </v>
   <v type="int" >      150 </v>
   <v type="int" >      151 </v>
   <v type="int" >      152 </v>
   <v type="int" >      153 </v>
   <v type="int" >      154 </v>
   <v type="int" >      155 </v>
   <v type="int" >      156 </v>
   <v type="int" >      157 </v>
   <v type="int" >      158 </v>
   <v type="int" >      159 </v>
   <v type="int" >      160 </v>
   <v type="int" >      161 </v>
   <v type="int" >      162 </v>
   <v type="int" >      163 </v>
   <v type="int" >      164 </v>
   <v type="int" >      165 </v>
   <v type="int" >      166 </v>
   <v type="int" >      167 </v>
   <v type="int" >      168 </v>
   <v type="int" >      169 </v>
   <v type="int" >      170 </v>
   <v type="int" >      171 </v>
   <v type="int" >      172 </v>
   <v type="int" >      173 </v>
   <v type="int" >      174 </v>
   <v type="int" >      175 </v>
   <v type="int" >      176 </v>
   <v type="int" >      177 </v>
   <v type="int" >      178 </v>
   <v type="int" >      179 </v>
   <v type="int" >      180 </v>
   <v type="int" >      181 </v>
   <v type="int" >      182 </v>
   <v type="int" >      183 </v>
   <v type="int" >      184 </v>
   <v type="int" >      185 </v>
   <v type="int" >      186 </v>
   <v type="int" >      187 </v>
   <v type="int" >      188 </v>
   <v type="int" >      189 </v>
   <v type="int" >      190 </v>
   <v type="int" >      191 </v>
   <v type="int" >      192 </v>
   <v type="int" >      193 </v>
   <v type="int" >      194 </v>
   <v type="int" >      195 </v>
   <v type="int" >      196 </v>
   <v type="int" >      197 </v>
   <v type="int" >      198 </v>
   <v type="int" >      199 </v>
   <v type="int" >      200 </v>
   <v type="int" >      201 </v>
   <v type="int" >      202 </v>
   <v type="int" >      203 </v>
   <v type="int" >      204 </v>
   <v type="int" >      205 </v>
   <v type="int" >      206 </v>
   <v type="int" >      207 </v>
   <v type="int" >      208 </v>
   <v type="int" >      209 </v>
   <v type="int" >      210 </v>
   <v type="int" >      211 </v>
   <v type="int" >      212 </v>
   <v type="int" >      213 </v>
   <v type="int" >      214 </v>
   <v type="int" >      215 </v>
   <v type="int" >      216 </v>
   <v type="int" >      217 </v>
   <v type="int" >      218 </v>
   <v type="int" >      219 </v>
   <v type="int" >      220 </v>
   <v type="int" >      221 </v>
   <v type="int" >      222 </v>
   <v type="int" >      223 </v>
   <v type="int" >      224 </v>
   <v type="int" >      225 </v>
   <v type="int" >      226 </v>
   <v type="int" >      227 </v>
   <v type="int" >      228 </v>
   <v type="int" >      229 </v>
   <v type="int" >      230 </v>
   <v type="int" >      231 </v>
   <v type="int" >      232 </v>
   <v type="int" >      233 </v>
   <v type="int" >      234 </v>
   <v type="int" >      235 </v>
   <v type="int" >      236 </v>
   <v type="int" >      237 </v>
   <v type="int" >      238 </v>
   <v type="int" >      239 </v>
   <v type="int" >      240 </v>
   <v type="int" >      241 </v>
   <v type="int" >      242 </v>
   <v type="int" >      243 </v>
   <v type="int" >      244 </v>
   <v type="int" >      245 </v>
   <v type="int" >      246 </v>
   <v type="int" >      247 </v>
   <v type="int" >      248 </v>
   <v type="int" >      249 </v>
   <v type="int" >      250 </v>
   <v type="int" >      251 </v>
  </varray>
 </primitive_cell>
 <kpoints>
  <generation param="Gamma">
   <v type="int" name="divisions">       2        2        2 </v>
   <v name="usershift">      0.00000000       0.00000000       0.00000000 </v>
   <v name="genvec1">      0.50000000       0.00000000       0.00000000 </v>
   <v name="genvec2">      0.00000000       0.50000000       0.00000000 </v>
   <v name="genvec3">      0.00000000       0.00000000       0.50000000 </v>
   <v name="shift">      0.00000000       0.00000000       0.00000000 </v>
  </generation>
  <varray name="kpointlist" >
   <v>       0.00000000       0.00000000       0.00000000 </v>
   <v>       0.50000000       0.00000000       0.00000000 </v>
   <v>       0.00000000       0.00000000       0.50000000 </v>
   <v>       0.50000000       0.50000000       0.00000000 </v>
   <v>       0.00000000       0.50000000       0.50000000 </v>
   <v>       0.50000000       0.50000000       0.50000000 </v>
  </varray>
  <varray name="weights" >
   <v>       0.12500000 </v>
   <v>       0.25000000 </v>
   <v>       0.12500000 </v>
   <v>       0.12500000 </v>
   <v>       0.25000000 </v>
   <v>       0.12500000 </v>
  </varray>
 </kpoints>
 <parameters>
  <separator name="general" >
   <i type="string" name="SYSTEM">NiAl</i>
   <i type="logical" name="LCOMPAT"> F  </i>
  </separator>
  <separator name="electronic" >
   <i type="string" name="PREC">normal</i>
   <i name="ENMAX">    360.00000000</i>
   <i name="ENAUG">   1139.60900000</i>
   <i name="EDIFF">      0.00000010</i>
   <i type="int" name="IALGO">    38</i>
   <i type="int" name="IWAVPR">    11</i>
   <i type="int" name="NBANDS">   978</i>
   <i type="int" name="NBANDSLOW">    -1</i>
   <i type="int" name="NBANDSHIGH">    -1</i>
   <i name="NELECT">   1631.00000000</i>
   <i type="int" name="TURBO">     0</i>
   <i type="int" name="IRESTART">     0</i>
   <i type="int" name="NREBOOT">     0</i>
   <i type="int" name="NMIN">     0</i>
   <i name="EREF">      0.00000000</i>
   <separator name="electronic smearing" >
    <i type="int" name="ISMEAR">     0</i>
    <i name="SIGMA">      0.05000000</i>
    <i name="KSPACING">      0.50000000</i>
    <i type="logical" name="KGAMMA"> T  </i>
    <i type="logical" name="KBLOWUP"> T  </i>
   </separator>
   <separator name="electronic projectors" >
    <i type="logical" name="LREAL"> T  </i>
    <v name="ROPT">     -0.00050000     -0.00050000     -0.00050000</v>
    <i type="int" name="LMAXPAW">  -100</i>
    <i type="int" name="LMAXMIX">     2</i>
    <i type="logical" name="NLSPLINE"> F  </i>
   </separator>
   <separator name="electronic startup" >
    <i type="int" name="ISTART">     0</i>
    <i type="int" name="ICHARG">     2</i>
    <i type="int" name="INIWAV">     1</i>
   </separator>
   <separator name="electronic spin" >
    <i type="int" name="ISPIN">     1</i>
    <i type="logical" name="LNONCOLLINEAR"> F  </i>
    <v name="MAGMOM">      1.00000000      1.00000000      1.00000000      1.00000000      1.00000000      1.00000000      1.00000000      1.00000000      1.00000000      1.00000000      1.00000000      1.00000000      1.00000000      1.00000000      1.00000000      1.00000000      1.00000000      1.00000000      1.00000000      1.00000000
      1.00000000      1.00000000      1.00000000      1.00000000      1.00000000      1.00000000      1.00000000      1.00000000      1.00000000      1.00000000      1.00000000      1.00000000      1.00000000      1.00000000      1.00000000      1.00000000      1.00000000      1.00000000      1.00000000      1.00000000
      1.00000000      1.00000000      1.00000000      1.00000000      1.00000000      1.00000000      1.00000000      1.00000000      1.00000000      1.00000000      1.00000000      1.00000000      1.00000000      1.00000000      1.00000000      1.00000000      1.00000000      1.00000000      1.00000000      1.00000000
      1.00000000      1.00000000      1.00000000      1.00000000      1.00000000      1.00000000      1.00000000      1.00000000      1.00000000      1.00000000      1.00000000      1.00000000      1.00000000      1.00000000      1.00000000      1.00000000      1.00000000      1.00000000      1.00000000      1.00000000
      1.00000000      1.00000000      1.00000000      1.00000000      1.00000000      1.00000000      1.00000000      1.00000000      1.00000000      1.00000000      1.00000000      1.00000000      1.00000000      1.00000000      1.00000000      1.00000000      1.00000000      1.00000000      1.00000000      1.00000000
      1.00000000      1.00000000      1.00000000      1.00000000      1.00000000      1.00000000      1.00000000      1.00000000      1.00000000      1.00000000      1.00000000      1.00000000      1.00000000      1.00000000      1.00000000      1.00000000      1.00000000      1.00000000      1.00000000      1.00000000
      1.00000000      1.00000000      1.00000000      1.00000000      1.00000000      1.00000000      1.00000000      1.00000000      1.00000000      1.00000000      1.00000000      1.00000000      1.00000000      1.00000000      1.00000000      1.00000000      1.00000000      1.00000000      1.00000000      1.00000000
      1.00000000      1.00000000      1.00000000      1.00000000      1.00000000      1.00000000      1.00000000      1.00000000      1.00000000      1.00000000      1.00000000      1.00000000      1.00000000      1.00000000      1.00000000      1.00000000      1.00000000      1.00000000      1.00000000      1.00000000
      1.00000000      1.00000000      1.00000000      1.00000000      1.00000000      1.00000000      1.00000000      1.00000000      1.00000000      1.00000000      1.00000000      1.00000000      1.00000000      1.00000000      1.00000000      1.00000000      1.00000000      1.00000000      1.00000000      1.00000000
      1.00000000      1.00000000      1.00000000      1.00000000      1.00000000      1.00000000      1.00000000      1.00000000      1.00000000      1.00000000      1.00000000      1.00000000      1.00000000      1.00000000      1.00000000      1.00000000      1.00000000      1.00000000      1.00000000      1.00000000
      1.00000000      1.00000000      1.00000000      1.00000000      1.00000000      1.00000000      1.00000000      1.00000000      1.00000000      1.00000000      1.00000000      1.00000000      1.00000000      1.00000000      1.00000000      1.00000000      1.00000000      1.00000000      1.00000000      1.00000000
      1.00000000      1.00000000      1.00000000      1.00000000      1.00000000      1.00000000      1.00000000      1.00000000      1.00000000      1.00000000      1.00000000      1.00000000      1.00000000      1.00000000      1.00000000      1.00000000      1.00000000      1.00000000      1.00000000      1.00000000
      1.00000000      1.00000000      1.00000000      1.00000000      1.00000000      1.00000000      1.00000000      1.00000000      1.00000000      1.00000000      1.00000000</v>
    <i name="NUPDOWN">     -1.00000000</i>
    <i type="logical" name="LSORBIT"> F  </i>
    <v name="SAXIS">      0.00000000      0.00000000      1.00000000</v>
    <i type="logical" name="LSPIRAL"> F  </i>
    <v name="QSPIRAL">      0.00000000      0.00000000      0.00000000</v>
    <i type="logical" name="LZEROZ"> F  </i>
   </separator>
   <separator name="electronic exchange-correlation" >
    <i type="logical" name="LASPH"> F  </i>
    <i type="logical" name="LMETAGGA"> F  </i>
   </separator>
   <separator name="electronic convergence" >
    <i type="int" name="NELM">    60</i>
    <i type="int" name="NELMDL">    -5</i>
    <i type="int" name="NELMIN">     6</i>
    <i name="ENINI">    360.00000000</i>
    <separator name="electronic convergence detail" >
     <i type="logical" name="LDIAG"> T  </i>
     <i type="logical" name="LSUBROT"> F  </i>
     <i name="WEIMIN">      0.00100000</i>
     <i name="EBREAK">      0.00000000</i>
     <i name="DEPER">      0.30000000</i>
     <i type="int" name="NRMM">     4</i>
     <i name="TIME">      0.40000000</i>
    </separator>
   </separator>
   <separator name="electronic mixer" >
    <i name="AMIX">      0.40000000</i>
    <i name="BMIX">      1.00000000</i>
    <i name="AMIN">      0.10000000</i>
    <i name="AMIX_MAG">      1.60000000</i>
    <i name="BMIX_MAG">      1.00000000</i>
    <separator name="electronic mixer details" >
     <i type="int" name="IMIX">     4</i>
     <i type="logical" name="MIXFIRST"> F  </i>
     <i type="int" name="MAXMIX">   -45</i>
     <i name="WC">    100.00000000</i>
     <i type="int" name="INIMIX">     1</i>
     <i type="int" name="MIXPRE">     1</i>
     <i type="int" name="MREMOVE">     5</i>
    </separator>
   </separator>
   <separator name="electronic dipolcorrection" >
    <i type="logical" name="LDIPOL"> F  </i>
    <i type="logical" name="LMONO"> F  </i>
    <i type="int" name="IDIPOL">     0</i>
    <i name="EPSILON">      1.00000000</i>
    <v name="DIPOL">   -100.00000000   -100.00000000   -100.00000000</v>
    <i name="EFIELD">      0.00000000</i>
   </separator>
  </separator>
  <separator name="grids" >
   <i type="int" name="NGX">    70</i>
   <i type="int" name="NGY">    70</i>
   <i type="int" name="NGZ">    70</i>
   <i type="int" name="NGXF">   140</i>
   <i type="int" name="NGYF">   140</i>
   <i type="int" name="NGZF">   140</i>
   <i type="logical" name="ADDGRID"> F  </i>
  </separator>
  <separator name="ionic" >
   <i type="int" name="NSW">    40</i>
   <i type="int" name="IBRION">     2</i>
   <i type="int" name="MDALGO">     0</i>
   <i type="int" name="ISIF">     1</i>
   <i name="PSTRESS">      0.00000000</i>
   <i name="EDIFFG">      0.00000100</i>
   <i type="int" name="NFREE">     1</i>
   <i name="POTIM">      0.20000000</i>
   <i name="SMASS">     -3.00000000</i>
   <i name="SCALEE">      1.00000000</i>
  </separator>
  <separator name="ionic md" >
   <i name="TEBEG">      0.00010000</i>
   <i name="TEEND">      0.00010000</i>
   <i type="int" name="NBLOCK">     1</i>
   <i type="int" name="KBLOCK">    40</i>
   <i type="int" name="NPACO">   256</i>
   <i name="APACO">     16.00000000</i>
  </separator>
  <separator name="symmetry" >
   <i type="int" name="ISYM">     2</i>
   <i name="SYMPREC">      0.00001000</i>
  </separator>
  <separator name="dos" >
   <i type="int" name="LORBIT">     0</i>
   <v name="RWIGS">     -1.00000000     -1.00000000     -1.00000000</v>
   <i type="int" name="NEDOS">   301</i>
   <i name="EMIN">     10.00000000</i>
   <i name="EMAX">    -10.00000000</i>
   <i name="EFERMI">      0.00000000</i>
  </separator>
  <separator name="writing" >
   <i type="int" name="NWRITE">     2</i>
   <i type="logical" name="LWAVE"> F  </i>
   <i type="logical" name="LDOWNSAMPLE"> F  </i>
   <i type="logical" name="LCHARG"> F  </i>
   <i type="logical" name="LPARD"> F  </i>
   <i type="logical" name="LVTOT"> F  </i>
   <i type="logical" name="LVHAR"> F  </i>
   <i type="logical" name="LELF"> F  </i>
   <i type="logical" name="LOPTICS"> F  </i>
   <v name="STM">      0.00000000      0.00000000      0.00000000      0.00000000      0.00000000      0.00000000      0.00000000</v>
  </separator>
  <separator name="performance" >
   <i type="int" name="NPAR">     1</i>
   <i type="int" name="NSIM">     4</i>
   <i type="int" name="NBLK">    -1</i>
   <i type="logical" name="LPLANE"> T  </i>
   <i type="logical" name="LSCALAPACK"> T  </i>
   <i type="logical" name="LSCAAWARE"> F  </i>
   <i type="logical" name="LSCALU"> F  </i>
   <i type="logical" name="LASYNC"> F  </i>
   <i type="logical" name="LORBITALREAL"> F  </i>
  </separator>
  <separator name="miscellaneous" >
   <i type="int" name="IDIOT">     3</i>
   <i type="int" name="PHON_NSTRUCT">    -1</i>
   <i type="logical" name="LMUSIC"> F  </i>
   <v name="POMASS">     58.69000000     26.98200000     16.00000000</v>
   <v name="DARWINR">      0.00000000      0.00000000      0.00000000</v>
   <v name="DARWINV">      1.00000000      1.00000000      1.00000000</v>
   <i type="logical" name="LCORR"> T  </i>
  </separator>
  <i type="logical" name="GGA_COMPAT"> T  </i>
  <i type="logical" name="LBERRY"> F  </i>
  <i type="int" name="ICORELEVEL">     0</i>
  <i type="logical" name="LDAU"> F  </i>
  <i type="int" name="I_CONSTRAINED_M">     0</i>
  <separator name="electronic exchange-correlation" >
   <i type="string" name="GGA">--</i>
   <i type="int" name="VOSKOWN">     0</i>
   <i type="logical" name="LHFCALC"> F  </i>
   <i type="string" name="PRECFOCK"></i>
   <i type="logical" name="LSYMGRAD"> F  </i>
   <i type="logical" name="LHFONE"> F  </i>
   <i type="logical" name="LRHFCALC"> F  </i>
   <i type="logical" name="LTHOMAS"> F  </i>
   <i type="logical" name="LMODELHF"> F  </i>
   <i type="logical" name="LFOCKACE"> F  </i>
   <i name="ENCUT4O">     -1.00000000</i>
   <i type="int" name="EXXOEP">     0</i>
   <i type="int" name="FOURORBIT">     0</i>
   <i name="AEXX">      0.00000000</i>
   <i name="HFALPHA">      0.00000000</i>
   <i name="MCALPHA">      0.00000000</i>
   <i name="ALDAX">      1.00000000</i>
   <i name="AGGAX">      1.00000000</i>
   <i name="ALDAC">      1.00000000</i>
   <i name="AGGAC">      1.00000000</i>
   <i type="int" name="NKREDX">     1</i>
   <i type="int" name="NKREDY">     1</i>
   <i type="int" name="NKREDZ">     1</i>
   <i type="logical" name="SHIFTRED"> F  </i>
   <i type="logical" name="ODDONLY"> F  </i>
   <i type="logical" name="EVENONLY"> F  </i>
   <i type="int" name="LMAXFOCK">     0</i>
   <i type="int" name="NMAXFOCKAE">     0</i>
   <i type="logical" name="LFOCKAEDFT"> F  </i>
   <i name="HFSCREEN">      0.00000000</i>
   <i name="HFSCREENC">      0.00000000</i>
   <i type="int" name="NBANDSGWLOW">     0</i>
  </separator>
  <separator name="vdW DFT" >
   <i type="logical" name="LUSE_VDW"> F  </i>
   <i name="Zab_VDW">     -0.84910000</i>
   <i name="PARAM1">      0.12340000</i>
   <i name="PARAM2">      1.00000000</i>
   <i name="PARAM3">      0.00000000</i>
  </separator>
  <separator name="model GW" >
   <i type="int" name="MODEL_GW">     0</i>
   <i name="MODEL_EPS0">      7.28754980</i>
   <i name="MODEL_ALPHA">      1.00000000</i>
  </separator>
  <separator name="linear response parameters" >
   <i type="logical" name="LEPSILON"> F  </i>
   <i type="logical" name="LRPA"> F  </i>
   <i type="logical" name="LNABLA"> F  </i>
   <i type="logical" name="LVEL"> F  </i>
   <i type="int" name="KINTER">     0</i>
   <i name="CSHIFT">      0.10000000</i>
   <i name="OMEGAMAX">     -1.00000000</i>
   <i name="DEG_THRESHOLD">      0.00200000</i>
   <i name="RTIME">     -0.10000000</i>
   <i name="WPLASMAI">      0.00000000</i>
   <v name="DFIELD">      0.00000000      0.00000000      0.00000000</v>
   <v name="WPLASMA">      0.00000000      0.00000000      0.00000000      0.00000000      0.00000000      0.00000000      0.00000000      0.00000000      0.00000000</v>
  </separator>
  <separator name="orbital magnetization" >
   <i type="logical" name="NUCIND"> F  </i>
   <v name="MAGPOS">      0.00000000      0.00000000      0.00000000</v>
   <i type="logical" name="LNICSALL"> T  </i>
   <i type="logical" name="ORBITALMAG"> F  </i>
   <i type="logical" name="LMAGBLOCH"> F  </i>
   <i type="logical" name="LCHIMAG"> F  </i>
   <i type="logical" name="LGAUGE"> T  </i>
   <i type="int" name="MAGATOM">     0</i>
   <v name="MAGDIPOL">      0.00000000      0.00000000      0.00000000</v>
   <v name="AVECCONST">      0.00000000      0.00000000      0.00000000</v>
  </separator>
  <separator name="response functions" >
   <i type="logical" name="LFINITE_TEMPERATURE"> F  </i>
   <i type="logical" name="LADDER"> F  </i>
   <i type="logical" name="LRPAFORCE"> F  </i>
   <i type="logical" name="LFXC"> F  </i>
   <i type="logical" name="LHARTREE"> T  </i>
   <i type="int" name="IBSE">     0</i>
   <v type="int" name="KPOINT">    -1     0     0     0</v>
   <i type="logical" name="LTCTC"> F  </i>
   <i type="logical" name="LTCTE"> F  </i>
   <i type="logical" name="LTETE"> F  </i>
   <i type="logical" name="LTRIPLET"> F  </i>
   <i type="logical" name="LFXCEPS"> F  </i>
   <i type="logical" name="LFXHEG"> F  </i>
   <i type="int" name="NATURALO">     2</i>
   <i type="logical" name="LHOLEGF"> F  </i>
   <i type="logical" name="L2ORDER"> F  </i>
   <i type="logical" name="LDMP1"> F  </i>
   <i type="logical" name="LMP2LT"> F  </i>
   <i type="logical" name="LSMP2LT"> F  </i>
   <i type="logical" name="LGWLF"> F  </i>
   <i name="ENCUTGW">     -2.00000000</i>
   <i name="ENCUTGWSOFT">     -2.00000000</i>
   <i name="ENCUTLF">     -1.00000000</i>
   <i type="logical" name="LESF_SPLINES"> F  </i>
   <i type="int" name="LMAXMP2">    -1</i>
   <i name="SCISSOR">      0.00000000</i>
   <i type="int" name="NOMEGA">     0</i>
   <i type="int" name="NOMEGAR">     0</i>
   <i type="int" name="NBANDSGW">    -1</i>
   <i type="int" name="NBANDSO">    -1</i>
   <i type="int" name="NBANDSV">    -1</i>
   <i type="int" name="NELM">     1</i>
   <i type="int" name="NELMHF">     1</i>
   <i type="int" name="DIM">     3</i>
   <i type="int" name="IESPILON">     4</i>
   <i type="int" name="ANTIRES">     0</i>
   <i name="OMEGAMAX">    -30.00000000</i>
   <i name="OMEGAMIN">    -30.00000000</i>
   <i name="OMEGATL">   -200.00000000</i>
   <i type="int" name="OMEGAGRID">     0</i>
   <i name="CSHIFT">     -0.10000000</i>
   <i type="logical" name="LSELFENERGY"> F  </i>
   <i type="logical" name="LSPECTRAL"> F  </i>
   <i type="logical" name="LSPECTRALGW"> F  </i>
   <i type="logical" name="LSINGLES"> F  </i>
   <i type="logical" name="LFERMIGW"> F  </i>
   <i type="logical" name="ODDONLYGW"> F  </i>
   <i type="logical" name="EVENONLYGW"> F  </i>
   <i type="int" name="NKREDLFX">     1</i>
   <i type="int" name="NKREDLFY">     1</i>
   <i type="int" name="NKREDLFZ">     1</i>
   <i type="int" name="MAXMEM">  2800</i>
   <i type="int" name="TELESCOPE">     0</i>
   <i type="int" name="NTAUPAR">    -1</i>
   <i type="int" name="NOMEGAPAR">    -1</i>
   <i name="DAMP_NEWTON">      0.80000001</i>
   <i name="LAMBDA">      1.00000000</i>
  </separator>
  <separator name="External order field" >
   <i name="OFIELD_KAPPA">      0.00000000</i>
   <v name="OFIELD_K">      0.00000000      0.00000000      0.00000000</v>
   <i name="OFIELD_Q6_NEAR">      0.00000000</i>
   <i name="OFIELD_Q6_FAR">      0.00000000</i>
   <i name="OFIELD_A">      0.00000000</i>
  </separator>
  <separator name="solvation model" >
   <i type="logical" name="LSOL"> F  </i>
  </separator>
 </parameters>
 <atominfo>
  <atoms>     251 </atoms>
  <types>       3 </types>
  <array name="atoms" >
   <dimension dim="1">ion</dimension>
   <field type="string">element</field>
   <field type="int">atomtype</field>
   <set>
    <rc><c>Ni</c><c>   1</c></rc>
    <rc><c>Ni</c><c>   1</c></rc>
    <rc><c>Ni</c><c>   1</c></rc>
    <rc><c>Ni</c><c>   1</c></rc>
    <rc><c>Ni</c><c>   1</c></rc>
    <rc><c>Ni</c><c>   1</c></rc>
    <rc><c>Ni</c><c>   1</c></rc>
    <rc><c>Ni</c><c>   1</c></rc>
    <rc><c>Ni</c><c>   1</c></rc>
    <rc><c>Ni</c><c>   1</c></rc>
    <rc><c>Ni</c><c>   1</c></rc>
    <rc><c>Ni</c><c>   1</c></rc>
    <rc><c>Ni</c><c>   1</c></rc>
    <rc><c>Ni</c><c>   1</c></rc>
    <rc><c>Ni</c><c>   1</c></rc>
    <rc><c>Ni</c><c>   1</c></rc>
    <rc><c>Ni</c><c>   1</c></rc>
    <rc><c>Ni</c><c>   1</c></rc>
    <rc><c>Ni</c><c>   1</c></rc>
    <rc><c>Ni</c><c>   1</c></rc>
    <rc><c>Ni</c><c>   1</c></rc>
    <rc><c>Ni</c><c>   1</c></rc>
    <rc><c>Ni</c><c>   1</c></rc>
    <rc><c>Ni</c><c>   1</c></rc>
    <rc><c>Ni</c><c>   1</c></rc>
    <rc><c>Ni</c><c>   1</c></rc>
    <rc><c>Ni</c><c>   1</c></rc>
    <rc><c>Ni</c><c>   1</c></rc>
    <rc><c>Ni</c><c>   1</c></rc>
    <rc><c>Ni</c><c>   1</c></rc>
    <rc><c>Ni</c><c>   1</c></rc>
    <rc><c>Ni</c><c>   1</c></rc>
    <rc><c>Ni</c><c>   1</c></rc>
    <rc><c>Ni</c><c>   1</c></rc>
    <rc><c>Ni</c><c>   1</c></rc>
    <rc><c>Ni</c><c>   1</c></rc>
    <rc><c>Ni</c><c>   1</c></rc>
    <rc><c>Ni</c><c>   1</c></rc>
    <rc><c>Ni</c><c>   1</c></rc>
    <rc><c>Ni</c><c>   1</c></rc>
    <rc><c>Ni</c><c>   1</c></rc>
    <rc><c>Ni</c><c>   1</c></rc>
    <rc><c>Ni</c><c>   1</c></rc>
    <rc><c>Ni</c><c>   1</c></rc>
    <rc><c>Ni</c><c>   1</c></rc>
    <rc><c>Ni</c><c>   1</c></rc>
    <rc><c>Ni</c><c>   1</c></rc>
    <rc><c>Ni</c><c>   1</c></rc>
    <rc><c>Ni</c><c>   1</c></rc>
    <rc><c>Ni</c><c>   1</c></rc>
    <rc><c>Ni</c><c>   1</c></rc>
    <rc><c>Ni</c><c>   1</c></rc>
    <rc><c>Ni</c><c>   1</c></rc>
    <rc><c>Ni</c><c>   1</c></rc>
    <rc><c>Ni</c><c>   1</c></rc>
    <rc><c>Ni</c><c>   1</c></rc>
    <rc><c>Ni</c><c>   1</c></rc>
    <rc><c>Ni</c><c>   1</c></rc>
    <rc><c>Ni</c><c>   1</c></rc>
    <rc><c>Ni</c><c>   1</c></rc>
    <rc><c>Ni</c><c>   1</c></rc>
    <rc><c>Ni</c><c>   1</c></rc>
    <rc><c>Ni</c><c>   1</c></rc>
    <rc><c>Ni</c><c>   1</c></rc>
    <rc><c>Ni</c><c>   1</c></rc>
    <rc><c>Ni</c><c>   1</c></rc>
    <rc><c>Ni</c><c>   1</c></rc>
    <rc><c>Ni</c><c>   1</c></rc>
    <rc><c>Ni</c><c>   1</c></rc>
    <rc><c>Ni</c><c>   1</c></rc>
    <rc><c>Ni</c><c>   1</c></rc>
    <rc><c>Ni</c><c>   1</c></rc>
    <rc><c>Ni</c><c>   1</c></rc>
    <rc><c>Ni</c><c>   1</c></rc>
    <rc><c>Ni</c><c>   1</c></rc>
    <rc><c>Ni</c><c>   1</c></rc>
    <rc><c>Ni</c><c>   1</c></rc>
    <rc><c>Ni</c><c>   1</c></rc>
    <rc><c>Ni</c><c>   1</c></rc>
    <rc><c>Ni</c><c>   1</c></rc>
    <rc><c>Ni</c><c>   1</c></rc>
    <rc><c>Ni</c><c>   1</c></rc>
    <rc><c>Ni</c><c>   1</c></rc>
    <rc><c>Ni</c><c>   1</c></rc>
    <rc><c>Ni</c><c>   1</c></rc>
    <rc><c>Ni</c><c>   1</c></rc>
    <rc><c>Ni</c><c>   1</c></rc>
    <rc><c>Ni</c><c>   1</c></rc>
    <rc><c>Ni</c><c>   1</c></rc>
    <rc><c>Ni</c><c>   1</c></rc>
    <rc><c>Ni</c><c>   1</c></rc>
    <rc><c>Ni</c><c>   1</c></rc>
    <rc><c>Ni</c><c>   1</c></rc>
    <rc><c>Ni</c><c>   1</c></rc>
    <rc><c>Ni</c><c>   1</c></rc>
    <rc><c>Ni</c><c>   1</c></rc>
    <rc><c>Ni</c><c>   1</c></rc>
    <rc><c>Ni</c><c>   1</c></rc>
    <rc><c>Ni</c><c>   1</c></rc>
    <rc><c>Ni</c><c>   1</c></rc>
    <rc><c>Ni</c><c>   1</c></rc>
    <rc><c>Ni</c><c>   1</c></rc>
    <rc><c>Ni</c><c>   1</c></rc>
    <rc><c>Ni</c><c>   1</c></rc>
    <rc><c>Ni</c><c>   1</c></rc>
    <rc><c>Ni</c><c>   1</c></rc>
    <rc><c>Ni</c><c>   1</c></rc>
    <rc><c>Ni</c><c>   1</c></rc>
    <rc><c>Ni</c><c>   1</c></rc>
    <rc><c>Ni</c><c>   1</c></rc>
    <rc><c>Ni</c><c>   1</c></rc>
    <rc><c>Ni</c><c>   1</c></rc>
    <rc><c>Ni</c><c>   1</c></rc>
    <rc><c>Ni</c><c>   1</c></rc>
    <rc><c>Ni</c><c>   1</c></rc>
    <rc><c>Ni</c><c>   1</c></rc>
    <rc><c>Ni</c><c>   1</c></rc>
    <rc><c>Ni</c><c>   1</c></rc>
    <rc><c>Ni</c><c>   1</c></rc>
    <rc><c>Ni</c><c>   1</c></rc>
    <rc><c>Ni</c><c>   1</c></rc>
    <rc><c>Ni</c><c>   1</c></rc>
    <rc><c>Ni</c><c>   1</c></rc>
    <rc><c>Ni</c><c>   1</c></rc>
    <rc><c>Ni</c><c>   1</c></rc>
    <rc><c>Al</c><c>   2</c></rc>
    <rc><c>Al</c><c>   2</c></rc>
    <rc><c>Al</c><c>   2</c></rc>
    <rc><c>Al</c><c>   2</c></rc>
    <rc><c>Al</c><c>   2</c></rc>
    <rc><c>Al</c><c>   2</c></rc>
    <rc><c>Al</c><c>   2</c></rc>
    <rc><c>Al</c><c>   2</c></rc>
    <rc><c>Al</c><c>   2</c></rc>
    <rc><c>Al</c><c>   2</c></rc>
    <rc><c>Al</c><c>   2</c></rc>
    <rc><c>Al</c><c>   2</c></rc>
    <rc><c>Al</c><c>   2</c></rc>
    <rc><c>Al</c><c>   2</c></rc>
    <rc><c>Al</c><c>   2</c></rc>
    <rc><c>Al</c><c>   2</c></rc>
    <rc><c>Al</c><c>   2</c></rc>
    <rc><c>Al</c><c>   2</c></rc>
    <rc><c>Al</c><c>   2</c></rc>
    <rc><c>Al</c><c>   2</c></rc>
    <rc><c>Al</c><c>   2</c></rc>
    <rc><c>Al</c><c>   2</c></rc>
    <rc><c>Al</c><c>   2</c></rc>
    <rc><c>Al</c><c>   2</c></rc>
    <rc><c>Al</c><c>   2</c></rc>
    <rc><c>Al</c><c>   2</c></rc>
    <rc><c>Al</c><c>   2</c></rc>
    <rc><c>Al</c><c>   2</c></rc>
    <rc><c>Al</c><c>   2</c></rc>
    <rc><c>Al</c><c>   2</c></rc>
    <rc><c>Al</c><c>   2</c></rc>
    <rc><c>Al</c><c>   2</c></rc>
    <rc><c>Al</c><c>   2</c></rc>
    <rc><c>Al</c><c>   2</c></rc>
    <rc><c>Al</c><c>   2</c></rc>
    <rc><c>Al</c><c>   2</c></rc>
    <rc><c>Al</c><c>   2</c></rc>
    <rc><c>Al</c><c>   2</c></rc>
    <rc><c>Al</c><c>   2</c></rc>
    <rc><c>Al</c><c>   2</c></rc>
    <rc><c>Al</c><c>   2</c></rc>
    <rc><c>Al</c><c>   2</c></rc>
    <rc><c>Al</c><c>   2</c></rc>
    <rc><c>Al</c><c>   2</c></rc>
    <rc><c>Al</c><c>   2</c></rc>
    <rc><c>Al</c><c>   2</c></rc>
    <rc><c>Al</c><c>   2</c></rc>
    <rc><c>Al</c><c>   2</c></rc>
    <rc><c>Al</c><c>   2</c></rc>
    <rc><c>Al</c><c>   2</c></rc>
    <rc><c>Al</c><c>   2</c></rc>
    <rc><c>Al</c><c>   2</c></rc>
    <rc><c>Al</c><c>   2</c></rc>
    <rc><c>Al</c><c>   2</c></rc>
    <rc><c>Al</c><c>   2</c></rc>
    <rc><c>Al</c><c>   2</c></rc>
    <rc><c>Al</c><c>   2</c></rc>
    <rc><c>Al</c><c>   2</c></rc>
    <rc><c>Al</c><c>   2</c></rc>
    <rc><c>Al</c><c>   2</c></rc>
    <rc><c>Al</c><c>   2</c></rc>
    <rc><c>Al</c><c>   2</c></rc>
    <rc><c>Al</c><c>   2</c></rc>
    <rc><c>Al</c><c>   2</c></rc>
    <rc><c>Al</c><c>   2</c></rc>
    <rc><c>Al</c><c>   2</c></rc>
    <rc><c>Al</c><c>   2</c></rc>
    <rc><c>Al</c><c>   2</c></rc>
    <rc><c>Al</c><c>   2</c></rc>
    <rc><c>Al</c><c>   2</c></rc>
    <rc><c>Al</c><c>   2</c></rc>
    <rc><c>Al</c><c>   2</c></rc>
    <rc><c>Al</c><c>   2</c></rc>
    <rc><c>Al</c><c>   2</c></rc>
    <rc><c>Al</c><c>   2</c></rc>
    <rc><c>Al</c><c>   2</c></rc>
    <rc><c>Al</c><c>   2</c></rc>
    <rc><c>Al</c><c>   2</c></rc>
    <rc><c>Al</c><c>   2</c></rc>
    <rc><c>Al</c><c>   2</c></rc>
    <rc><c>Al</c><c>   2</c></rc>
    <rc><c>Al</c><c>   2</c></rc>
    <rc><c>Al</c><c>   2</c></rc>
    <rc><c>Al</c><c>   2</c></rc>
    <rc><c>Al</c><c>   2</c></rc>
    <rc><c>Al</c><c>   2</c></rc>
    <rc><c>Al</c><c>   2</c></rc>
    <rc><c>Al</c><c>   2</c></rc>
    <rc><c>Al</c><c>   2</c></rc>
    <rc><c>Al</c><c>   2</c></rc>
    <rc><c>Al</c><c>   2</c></rc>
    <rc><c>Al</c><c>   2</c></rc>
    <rc><c>Al</c><c>   2</c></rc>
    <rc><c>Al</c><c>   2</c></rc>
    <rc><c>Al</c><c>   2</c></rc>
    <rc><c>Al</c><c>   2</c></rc>
    <rc><c>Al</c><c>   2</c></rc>
    <rc><c>Al</c><c>   2</c></rc>
    <rc><c>Al</c><c>   2</c></rc>
    <rc><c>Al</c><c>   2</c></rc>
    <rc><c>Al</c><c>   2</c></rc>
    <rc><c>Al</c><c>   2</c></rc>
    <rc><c>Al</c><c>   2</c></rc>
    <rc><c>Al</c><c>   2</c></rc>
    <rc><c>Al</c><c>   2</c></rc>
    <rc><c>Al</c><c>   2</c></rc>
    <rc><c>Al</c><c>   2</c></rc>
    <rc><c>Al</c><c>   2</c></rc>
    <rc><c>Al</c><c>   2</c></rc>
    <rc><c>Al</c><c>   2</c></rc>
    <rc><c>Al</c><c>   2</c></rc>
    <rc><c>Al</c><c>   2</c></rc>
    <rc><c>Al</c><c>   2</c></rc>
    <rc><c>Al</c><c>   2</c></rc>
    <rc><c>Al</c><c>   2</c></rc>
    <rc><c>Al</c><c>   2</c></rc>
    <rc><c>Al</c><c>   2</c></rc>
    <rc><c>Al</c><c>   2</c></rc>
    <rc><c>Al</c><c>   2</c></rc>
    <rc><c>Al</c><c>   2</c></rc>
    <rc><c>Al</c><c>   2</c></rc>
    <rc><c>Al</c><c>   2</c></rc>
    <rc><c>Al</c><c>   2</c></rc>
    <rc><c>Al</c><c>   2</c></rc>
    <rc><c>Al</c><c>   2</c></rc>
    <rc><c>O </c><c>   3</c></rc>
   </set>
  </array>
  <array name="atomtypes" >
   <dimension dim="1">type</dimension>
   <field type="int">atomspertype</field>
   <field type="string">element</field>
   <field>mass</field>
   <field>valence</field>
   <field type="string">pseudopotential</field>
   <set>
    <rc><c> 125</c><c>Ni</c><c>     58.69000000</c><c>     10.00000000</c><c>  PAW Ni_GW 31Mar2010                   </c></rc>
    <rc><c> 125</c><c>Al</c><c>     26.98200000</c><c>      3.00000000</c><c>  PAW Al_GW 19Mar2012                   </c></rc>
    <rc><c>   1</c><c>O </c><c>     16.00000000</c><c>      6.00000000</c><c>  PAW O_GW 19Mar2012                    </c></rc>
   </set>
  </array>
 </atominfo>
 <structure name="initialpos" >
  <crystal>
   <varray name="basis" >
    <v>      14.50000000       0.00000000       0.00000000 </v>
    <v>       0.00000000      14.50000000       0.00000000 </v>
    <v>       0.00000000       0.00000000      14.50000000 </v>
   </varray>
   <i name="volume">   3048.62500000 </i>
   <varray name="rec_basis" >
    <v>       0.06896552       0.00000000       0.00000000 </v>
    <v>       0.00000000       0.06896552       0.00000000 </v>
    <v>       0.00000000       0.00000000       0.06896552 </v>
   </varray>
  </crystal>
  <varray name="positions" >
   <v>       0.00000000       0.00000000       0.00000000 </v>
   <v>       0.00000000       0.00000000       0.20000000 </v>
   <v>       0.00000000       0.00000000       0.40000000 </v>
   <v>       0.00000000       0.00000000       0.60000000 </v>
   <v>       0.00000000       0.00000000       0.80000000 </v>
   <v>       0.00000000       0.20000000       0.00000000 </v>
   <v>       0.00000000       0.20000000       0.20000000 </v>
   <v>       0.00000000       0.20000000       0.40000000 </v>
   <v>       0.00000000       0.20000000       0.60000000 </v>
   <v>       0.00000000       0.20000000       0.80000000 </v>
   <v>       0.00000000       0.40000000       0.00000000 </v>
   <v>       0.00000000       0.40000000       0.20000000 </v>
   <v>       0.00000000       0.40000000       0.40000000 </v>
   <v>       0.00000000       0.40000000       0.60000000 </v>
   <v>       0.00000000       0.40000000       0.80000000 </v>
   <v>       0.00000000       0.60000000       0.00000000 </v>
   <v>       0.00000000       0.60000000       0.20000000 </v>
   <v>       0.00000000       0.60000000       0.40000000 </v>
   <v>       0.00000000       0.60000000       0.60000000 </v>
   <v>       0.00000000       0.60000000       0.80000000 </v>
   <v>       0.00000000       0.80000000       0.00000000 </v>
   <v>       0.00000000       0.80000000       0.20000000 </v>
   <v>       0.00000000       0.80000000       0.40000000 </v>
   <v>       0.00000000       0.80000000       0.60000000 </v>
   <v>       0.00000000       0.80000000       0.80000000 </v>
   <v>       0.20000000       0.00000000       0.00000000 </v>
   <v>       0.20000000       0.00000000       0.20000000 </v>
   <v>       0.20000000       0.00000000       0.40000000 </v>
   <v>       0.20000000       0.00000000       0.60000000 </v>
   <v>       0.20000000       0.00000000       0.80000000 </v>
   <v>       0.20000000       0.20000000       0.00000000 </v>
   <v>       0.20000000       0.20000000       0.20000000 </v>
   <v>       0.20000000       0.20000000       0.40000000 </v>
   <v>       0.20000000       0.20000000       0.60000000 </v>
   <v>       0.20000000       0.20000000       0.80000000 </v>
   <v>       0.20000000       0.40000000       0.00000000 </v>
   <v>       0.20000000       0.40000000       0.20000000 </v>
   <v>       0.20000000       0.40000000       0.40000000 </v>
   <v>       0.20000000       0.40000000       0.60000000 </v>
   <v>       0.20000000       0.40000000       0.80000000 </v>
   <v>       0.20000000       0.60000000       0.00000000 </v>
   <v>       0.20000000       0.60000000       0.20000000 </v>
   <v>       0.20000000       0.60000000       0.40000000 </v>
   <v>       0.20000000       0.60000000       0.60000000 </v>
   <v>       0.20000000       0.60000000       0.80000000 </v>
   <v>       0.20000000       0.80000000       0.00000000 </v>
   <v>       0.20000000       0.80000000       0.20000000 </v>
   <v>       0.20000000       0.80000000       0.40000000 </v>
   <v>       0.20000000       0.80000000       0.60000000 </v>
   <v>       0.20000000       0.80000000       0.80000000 </v>
   <v>       0.40000000       0.00000000       0.00000000 </v>
   <v>       0.40000000       0.00000000       0.20000000 </v>
   <v>       0.40000000       0.00000000       0.40000000 </v>
   <v>       0.40000000       0.00000000       0.60000000 </v>
   <v>       0.40000000       0.00000000       0.80000000 </v>
   <v>       0.40000000       0.20000000       0.00000000 </v>
   <v>       0.40000000       0.20000000       0.20000000 </v>
   <v>       0.40000000       0.20000000       0.40000000 </v>
   <v>       0.40000000       0.20000000       0.60000000 </v>
   <v>       0.40000000       0.20000000       0.80000000 </v>
   <v>       0.40000000       0.40000000       0.00000000 </v>
   <v>       0.40000000       0.40000000       0.20000000 </v>
   <v>       0.40000000       0.40000000       0.40000000 </v>
   <v>       0.40000000       0.40000000       0.60000000 </v>
   <v>       0.40000000       0.40000000       0.80000000 </v>
   <v>       0.40000000       0.60000000       0.00000000 </v>
   <v>       0.40000000       0.60000000       0.20000000 </v>
   <v>       0.40000000       0.60000000       0.40000000 </v>
   <v>       0.40000000       0.60000000       0.60000000 </v>
   <v>       0.40000000       0.60000000       0.80000000 </v>
   <v>       0.40000000       0.80000000       0.00000000 </v>
   <v>       0.40000000       0.80000000       0.20000000 </v>
   <v>       0.40000000       0.80000000       0.40000000 </v>
   <v>       0.40000000       0.80000000       0.60000000 </v>
   <v>       0.40000000       0.80000000       0.80000000 </v>
   <v>       0.60000000       0.00000000       0.00000000 </v>
   <v>       0.60000000       0.00000000       0.20000000 </v>
   <v>       0.60000000       0.00000000       0.40000000 </v>
   <v>       0.60000000       0.00000000       0.60000000 </v>
   <v>       0.60000000       0.00000000       0.80000000 </v>
   <v>       0.60000000       0.20000000       0.00000000 </v>
   <v>       0.60000000       0.20000000       0.20000000 </v>
   <v>       0.60000000       0.20000000       0.40000000 </v>
   <v>       0.60000000       0.20000000       0.60000000 </v>
   <v>       0.60000000       0.20000000       0.80000000 </v>
   <v>       0.60000000       0.40000000       0.00000000 </v>
   <v>       0.60000000       0.40000000       0.20000000 </v>
   <v>       0.60000000       0.40000000       0.40000000 </v>
   <v>       0.60000000       0.40000000       0.60000000 </v>
   <v>       0.60000000       0.40000000       0.80000000 </v>
   <v>       0.60000000       0.60000000       0.00000000 </v>
   <v>       0.60000000       0.60000000       0.20000000 </v>
   <v>       0.60000000       0.60000000       0.40000000 </v>
   <v>       0.60000000       0.60000000       0.60000000 </v>
   <v>       0.60000000       0.60000000       0.80000000 </v>
   <v>       0.60000000       0.80000000       0.00000000 </v>
   <v>       0.60000000       0.80000000       0.20000000 </v>
   <v>       0.60000000       0.80000000       0.40000000 </v>
   <v>       0.60000000       0.80000000       0.60000000 </v>
   <v>       0.60000000       0.80000000       0.80000000 </v>
   <v>       0.80000000       0.00000000       0.00000000 </v>
   <v>       0.80000000       0.00000000       0.20000000 </v>
   <v>       0.80000000       0.00000000       0.40000000 </v>
   <v>       0.80000000       0.00000000       0.60000000 </v>
   <v>       0.80000000       0.00000000       0.80000000 </v>
   <v>       0.80000000       0.20000000       0.00000000 </v>
   <v>       0.80000000       0.20000000       0.20000000 </v>
   <v>       0.80000000       0.20000000       0.40000000 </v>
   <v>       0.80000000       0.20000000       0.60000000 </v>
   <v>       0.80000000       0.20000000       0.80000000 </v>
   <v>       0.80000000       0.40000000       0.00000000 </v>
   <v>       0.80000000       0.40000000       0.20000000 </v>
   <v>       0.80000000       0.40000000       0.40000000 </v>
   <v>       0.80000000       0.40000000       0.60000000 </v>
   <v>       0.80000000       0.40000000       0.80000000 </v>
   <v>       0.80000000       0.60000000       0.00000000 </v>
   <v>       0.80000000       0.60000000       0.20000000 </v>
   <v>       0.80000000       0.60000000       0.40000000 </v>
   <v>       0.80000000       0.60000000       0.60000000 </v>
   <v>       0.80000000       0.60000000       0.80000000 </v>
   <v>       0.80000000       0.80000000       0.00000000 </v>
   <v>       0.80000000       0.80000000       0.20000000 </v>
   <v>       0.80000000       0.80000000       0.40000000 </v>
   <v>       0.80000000       0.80000000       0.60000000 </v>
   <v>       0.80000000       0.80000000       0.80000000 </v>
   <v>       0.10000000       0.10000000       0.10000000 </v>
   <v>       0.10000000       0.10000000       0.30000000 </v>
   <v>       0.10000000       0.10000000       0.50000000 </v>
   <v>       0.10000000       0.10000000       0.70000000 </v>
   <v>       0.10000000       0.10000000       0.90000000 </v>
   <v>       0.10000000       0.30000000       0.10000000 </v>
   <v>       0.10000000       0.30000000       0.30000000 </v>
   <v>       0.10000000       0.30000000       0.50000000 </v>
   <v>       0.10000000       0.30000000       0.70000000 </v>
   <v>       0.10000000       0.30000000       0.90000000 </v>
   <v>       0.10000000       0.50000000       0.10000000 </v>
   <v>       0.10000000       0.50000000       0.30000000 </v>
   <v>       0.10000000       0.50000000       0.50000000 </v>
   <v>       0.10000000       0.50000000       0.70000000 </v>
   <v>       0.10000000       0.50000000       0.90000000 </v>
   <v>       0.10000000       0.70000000       0.10000000 </v>
   <v>       0.10000000       0.70000000       0.30000000 </v>
   <v>       0.10000000       0.70000000       0.50000000 </v>
   <v>       0.10000000       0.70000000       0.70000000 </v>
   <v>       0.10000000       0.70000000       0.90000000 </v>
   <v>       0.10000000       0.90000000       0.10000000 </v>
   <v>       0.10000000       0.90000000       0.30000000 </v>
   <v>       0.10000000       0.90000000       0.50000000 </v>
   <v>       0.10000000       0.90000000       0.70000000 </v>
   <v>       0.10000000       0.90000000       0.90000000 </v>
   <v>       0.30000000       0.10000000       0.10000000 </v>
   <v>       0.30000000       0.10000000       0.30000000 </v>
   <v>       0.30000000       0.10000000       0.50000000 </v>
   <v>       0.30000000       0.10000000       0.70000000 </v>
   <v>       0.30000000       0.10000000       0.90000000 </v>
   <v>       0.30000000       0.30000000       0.10000000 </v>
   <v>       0.30000000       0.30000000       0.30000000 </v>
   <v>       0.30000000       0.30000000       0.50000000 </v>
   <v>       0.30000000       0.30000000       0.70000000 </v>
   <v>       0.30000000       0.30000000       0.90000000 </v>
   <v>       0.30000000       0.50000000       0.10000000 </v>
   <v>       0.30000000       0.50000000       0.30000000 </v>
   <v>       0.30000000       0.50000000       0.50000000 </v>
   <v>       0.30000000       0.50000000       0.70000000 </v>
   <v>       0.30000000       0.50000000       0.90000000 </v>
   <v>       0.30000000       0.70000000       0.10000000 </v>
   <v>       0.30000000       0.70000000       0.30000000 </v>
   <v>       0.30000000       0.70000000       0.50000000 </v>
   <v>       0.30000000       0.70000000       0.70000000 </v>
   <v>       0.30000000       0.70000000       0.90000000 </v>
   <v>       0.30000000       0.90000000       0.10000000 </v>
   <v>       0.30000000       0.90000000       0.30000000 </v>
   <v>       0.30000000       0.90000000       0.50000000 </v>
   <v>       0.30000000       0.90000000       0.70000000 </v>
   <v>       0.30000000       0.90000000       0.90000000 </v>
   <v>       0.50000000       0.10000000       0.10000000 </v>
   <v>       0.50000000       0.10000000       0.30000000 </v>
   <v>       0.50000000       0.10000000       0.50000000 </v>
   <v>       0.50000000       0.10000000       0.70000000 </v>
   <v>       0.50000000       0.10000000       0.90000000 </v>
   <v>       0.50000000       0.30000000       0.10000000 </v>
   <v>       0.50000000       0.30000000       0.30000000 </v>
   <v>       0.50000000       0.30000000       0.50000000 </v>
   <v>       0.50000000       0.30000000       0.70000000 </v>
   <v>       0.50000000       0.30000000       0.90000000 </v>
   <v>       0.50000000       0.50000000       0.10000000 </v>
   <v>       0.50000000       0.50000000       0.30000000 </v>
   <v>       0.50000000       0.50000000       0.50000000 </v>
   <v>       0.50000000       0.50000000       0.70000000 </v>
   <v>       0.50000000       0.50000000       0.90000000 </v>
   <v>       0.50000000       0.70000000       0.10000000 </v>
   <v>       0.50000000       0.70000000       0.30000000 </v>
   <v>       0.50000000       0.70000000       0.50000000 </v>
   <v>       0.50000000       0.70000000       0.70000000 </v>
   <v>       0.50000000       0.70000000       0.90000000 </v>
   <v>       0.50000000       0.90000000       0.10000000 </v>
   <v>       0.50000000       0.90000000       0.30000000 </v>
   <v>       0.50000000       0.90000000       0.50000000 </v>
   <v>       0.50000000       0.90000000       0.70000000 </v>
   <v>       0.50000000       0.90000000       0.90000000 </v>
   <v>       0.70000000       0.10000000       0.10000000 </v>
   <v>       0.70000000       0.10000000       0.30000000 </v>
   <v>       0.70000000       0.10000000       0.50000000 </v>
   <v>       0.70000000       0.10000000       0.70000000 </v>
   <v>       0.70000000       0.10000000       0.90000000 </v>
   <v>       0.70000000       0.30000000       0.10000000 </v>
   <v>       0.70000000       0.30000000       0.30000000 </v>
   <v>       0.70000000       0.30000000       0.50000000 </v>
   <v>       0.70000000       0.30000000       0.70000000 </v>
   <v>       0.70000000       0.30000000       0.90000000 </v>
   <v>       0.70000000       0.50000000       0.10000000 </v>
   <v>       0.70000000       0.50000000       0.30000000 </v>
   <v>       0.70000000       0.50000000       0.50000000 </v>
   <v>       0.70000000       0.50000000       0.70000000 </v>
   <v>       0.70000000       0.50000000       0.90000000 </v>
   <v>       0.70000000       0.70000000       0.10000000 </v>
   <v>       0.70000000       0.70000000       0.30000000 </v>
   <v>       0.70000000       0.70000000       0.50000000 </v>
   <v>       0.70000000       0.70000000       0.70000000 </v>
   <v>       0.70000000       0.70000000       0.90000000 </v>
   <v>       0.70000000       0.90000000       0.10000000 </v>
   <v>       0.70000000       0.90000000       0.30000000 </v>
   <v>       0.70000000       0.90000000       0.50000000 </v>
   <v>       0.70000000       0.90000000       0.70000000 </v>
   <v>       0.70000000       0.90000000       0.90000000 </v>
   <v>       0.90000000       0.10000000       0.10000000 </v>
   <v>       0.90000000       0.10000000       0.30000000 </v>
   <v>       0.90000000       0.10000000       0.50000000 </v>
   <v>       0.90000000       0.10000000       0.70000000 </v>
   <v>       0.90000000       0.10000000       0.90000000 </v>
   <v>       0.90000000       0.30000000       0.10000000 </v>
   <v>       0.90000000       0.30000000       0.30000000 </v>
   <v>       0.90000000       0.30000000       0.50000000 </v>
   <v>       0.90000000       0.30000000       0.70000000 </v>
   <v>       0.90000000       0.30000000       0.90000000 </v>
   <v>       0.90000000       0.50000000       0.10000000 </v>
   <v>       0.90000000       0.50000000       0.30000000 </v>
   <v>       0.90000000       0.50000000       0.50000000 </v>
   <v>       0.90000000       0.50000000       0.70000000 </v>
   <v>       0.90000000       0.50000000       0.90000000 </v>
   <v>       0.90000000       0.70000000       0.10000000 </v>
   <v>       0.90000000       0.70000000       0.30000000 </v>
   <v>       0.90000000       0.70000000       0.50000000 </v>
   <v>       0.90000000       0.70000000       0.70000000 </v>
   <v>       0.90000000       0.70000000       0.90000000 </v>
   <v>       0.90000000       0.90000000       0.10000000 </v>
   <v>       0.90000000       0.90000000       0.30000000 </v>
   <v>       0.90000000       0.90000000       0.50000000 </v>
   <v>       0.90000000       0.90000000       0.70000000 </v>
   <v>       0.90000000       0.90000000       0.90000000 </v>
   <v>       0.40000000       0.20000000       0.90000000 </v>
  </varray>
 </structure>
 <calculation>
  <scstep>
   <time name="dav">   17.83   17.84</time>
   <time name="total">   18.30   18.33</time>
   <energy>
    <i name="alphaZ">   8570.86455061 </i>
    <i name="ewald">-111041.28909270 </i>
    <i name="hartreedc"> -41340.23456569 </i>
    <i name="XCdc">  -1727.72984135 </i>
    <i name="pawpsdc"> 127645.62404219 </i>
    <i name="pawaedc">-133353.48305817 </i>
    <i name="eentropy">     -0.11128880 </i>
    <i name="bandstr">  21200.20816279 </i>
    <i name="atom"> 141826.55193982 </i>
    <i name="e_fr_energy">  11780.40084871 </i>
    <i name="e_wo_entrp">  11780.51213751 </i>
    <i name="e_0_energy">  11780.45649311 </i>
   </energy>
  </scstep>
  <scstep>
   <time name="dav">   17.58   17.58</time>
   <time name="total">   17.59   17.59</time>
   <energy>
    <i name="e_fr_energy">   -331.30809925 </i>
    <i name="e_wo_entrp">   -331.20536674 </i>
    <i name="e_0_energy">   -331.25673300 </i>
   </energy>
  </scstep>
  <scstep>
   <time name="dav">   25.48   25.49</time>
   <time name="total">   25.49   25.50</time>
   <energy>
    <i name="e_fr_energy">  -1379.23994001 </i>
    <i name="e_wo_entrp">  -1379.06633338 </i>
    <i name="e_0_energy">  -1379.15313670 </i>
   </energy>
  </scstep>
  <scstep>
   <time name="dav">   23.43   23.44</time>
   <time name="total">   23.44   23.44</time>
   <energy>
    <i name="e_fr_energy">  -1481.67897332 </i>
    <i name="e_wo_entrp">  -1481.47389982 </i>
    <i name="e_0_energy">  -1481.57643657 </i>
   </energy>
  </scstep>
  <scstep>
   <time name="dav">   27.45   27.45</time>
   <time name="total">   28.44   28.45</time>
   <energy>
    <i name="e_fr_energy">  -1490.37648255 </i>
    <i name="e_wo_entrp">  -1490.16787827 </i>
    <i name="e_0_energy">  -1490.27218041 </i>
   </energy>
  </scstep>
  <scstep>
   <time name="dav">   22.58   22.58</time>
   <time name="total">   24.02   24.03</time>
   <energy>
    <i name="e_fr_energy">  -1730.79311142 </i>
    <i name="e_wo_entrp">  -1730.76742085 </i>
    <i name="e_0_energy">  -1730.78026613 </i>
   </energy>
  </scstep>
  <scstep>
   <time name="dav">   20.81   20.81</time>
   <time name="total">   22.24   22.24</time>
   <energy>
    <i name="e_fr_energy">  -1337.60091549 </i>
    <i name="e_wo_entrp">  -1337.37115623 </i>
    <i name="e_0_energy">  -1337.48603586 </i>
   </energy>
  </scstep>
  <scstep>
   <time name="dav">   27.48   27.48</time>
   <time name="total">   28.92   28.93</time>
   <energy>
    <i name="e_fr_energy">  -1324.88362458 </i>
    <i name="e_wo_entrp">  -1324.78552946 </i>
    <i name="e_0_energy">  -1324.83457702 </i>
   </energy>
  </scstep>
  <scstep>
   <time name="dav">   24.75   24.75</time>
   <time name="total">   26.19   26.20</time>
   <energy>
    <i name="e_fr_energy">  -1326.01530260 </i>
    <i name="e_wo_entrp">  -1325.86187148 </i>
    <i name="e_0_energy">  -1325.93858704 </i>
   </energy>
  </scstep>
  <scstep>
   <time name="dav">   20.51   20.51</time>
   <time name="total">   21.96   21.96</time>
   <energy>
    <i name="e_fr_energy">  -1319.16210707 </i>
    <i name="e_wo_entrp">  -1319.06082240 </i>
    <i name="e_0_energy">  -1319.11146473 </i>
   </energy>
  </scstep>
  <scstep>
   <time name="dav">   23.60   23.60</time>
   <time name="total">   25.06   25.06</time>
   <energy>
    <i name="e_fr_energy">  -1319.09488097 </i>
    <i name="e_wo_entrp">  -1318.99422645 </i>
    <i name="e_0_energy">  -1319.04455371 </i>
   </energy>
  </scstep>
  <scstep>
   <time name="dav">   19.65   19.65</time>
   <time name="total">   21.12   21.12</time>
   <energy>
    <i name="e_fr_energy">  -1319.01915939 </i>
    <i name="e_wo_entrp">  -1318.91852112 </i>
    <i name="e_0_energy">  -1318.96884026 </i>
   </energy>
  </scstep>
  <scstep>
   <time name="dav">   21.36   21.36</time>
   <time name="total">   22.80   22.81</time>
   <energy>
    <i name="e_fr_energy">  -1318.97726190 </i>
    <i name="e_wo_entrp">  -1318.88172438 </i>
    <i name="e_0_energy">  -1318.92949314 </i>
   </energy>
  </scstep>
  <scstep>
   <time name="dav">   23.18   23.18</time>
   <time name="total">   24.64   24.64</time>
   <energy>
    <i name="e_fr_energy">  -1318.91435015 </i>
    <i name="e_wo_entrp">  -1318.81653450 </i>
    <i name="e_0_energy">  -1318.86544232 </i>
   </energy>
  </scstep>
  <scstep>
   <time name="dav">   26.98   26.98</time>
   <time name="total">   28.45   28.45</time>
   <energy>
    <i name="e_fr_energy">  -1318.91842619 </i>
    <i name="e_wo_entrp">  -1318.82214217 </i>
    <i name="e_0_energy">  -1318.87028418 </i>
   </energy>
  </scstep>
  <scstep>
   <time name="dav">   20.36   20.36</time>
   <time name="total">   21.85   21.85</time>
   <energy>
    <i name="e_fr_energy">  -1318.90878922 </i>
    <i name="e_wo_entrp">  -1318.81291704 </i>
    <i name="e_0_energy">  -1318.86085313 </i>
   </energy>
  </scstep>
  <scstep>
   <time name="dav">   22.40   22.40</time>
   <time name="total">   23.89   23.89</time>
   <energy>
    <i name="e_fr_energy">  -1318.90995028 </i>
    <i name="e_wo_entrp">  -1318.81399936 </i>
    <i name="e_0_energy">  -1318.86197482 </i>
   </energy>
  </scstep>
  <scstep>
   <time name="dav">   21.06   21.06</time>
   <time name="total">   22.54   22.55</time>
   <energy>
    <i name="e_fr_energy">  -1318.90531679 </i>
    <i name="e_wo_entrp">  -1318.80983963 </i>
    <i name="e_0_energy">  -1318.85757821 </i>
   </energy>
  </scstep>
  <scstep>
   <time name="dav">   27.23   27.23</time>
   <time name="total">   28.72   28.73</time>
   <energy>
    <i name="e_fr_energy">  -1318.90565229 </i>
    <i name="e_wo_entrp">  -1318.81016933 </i>
    <i name="e_0_energy">  -1318.85791081 </i>
   </energy>
  </scstep>
  <scstep>
   <time name="dav">   22.02   22.03</time>
   <time name="total">   23.51   23.51</time>
   <energy>
    <i name="e_fr_energy">  -1318.90548504 </i>
    <i name="e_wo_entrp">  -1318.80984649 </i>
    <i name="e_0_energy">  -1318.85766577 </i>
   </energy>
  </scstep>
  <scstep>
   <time name="dav">   24.03   24.04</time>
   <time name="total">   25.54   25.54</time>
   <energy>
    <i name="e_fr_energy">  -1318.90548561 </i>
    <i name="e_wo_entrp">  -1318.80989794 </i>
    <i name="e_0_energy">  -1318.85769177 </i>
   </energy>
  </scstep>
  <scstep>
   <time name="dav">   20.79   20.79</time>
   <time name="total">   22.30   22.30</time>
   <energy>
    <i name="e_fr_energy">  -1318.90546183 </i>
    <i name="e_wo_entrp">  -1318.80986788 </i>
    <i name="e_0_energy">  -1318.85766485 </i>
   </energy>
  </scstep>
  <scstep>
   <time name="dav">   22.61   22.61</time>
   <time name="total">   24.13   24.13</time>
   <energy>
    <i name="e_fr_energy">  -1318.90539442 </i>
    <i name="e_wo_entrp">  -1318.80987087 </i>
    <i name="e_0_energy">  -1318.85763264 </i>
   </energy>
  </scstep>
  <scstep>
   <time name="dav">   26.51   26.52</time>
   <time name="total">   28.04   28.04</time>
   <energy>
    <i name="e_fr_energy">  -1318.90537247 </i>
    <i name="e_wo_entrp">  -1318.80988288 </i>
    <i name="e_0_energy">  -1318.85762768 </i>
   </energy>
  </scstep>
  <scstep>
   <time name="dav">   25.52   25.52</time>
   <time name="total">   27.04   27.05</time>
   <energy>
    <i name="e_fr_energy">  -1318.90533675 </i>
    <i name="e_wo_entrp">  -1318.80988632 </i>
    <i name="e_0_energy">  -1318.85761153 </i>
   </energy>
  </scstep>
  <scstep>
   <time name="dav">   24.92   24.92</time>
   <time name="total">   26.46   26.47</time>
   <energy>
    <i name="e_fr_energy">  -1318.90532084 </i>
    <i name="e_wo_entrp">  -1318.80989798 </i>
    <i name="e_0_energy">  -1318.85760941 </i>
   </energy>
  </scstep>
  <scstep>
   <time name="dav">   23.36   23.36</time>
   <time name="total">   24.89   24.90</time>
   <energy>
    <i name="e_fr_energy">  -1318.90531469 </i>
    <i name="e_wo_entrp">  -1318.80989598 </i>
    <i name="e_0_energy">  -1318.85760534 </i>
   </energy>
  </scstep>
  <scstep>
   <time name="dav">   26.29   26.29</time>
   <time name="total">   27.86   27.86</time>
   <energy>
    <i name="e_fr_energy">  -1318.90530902 </i>
    <i name="e_wo_entrp">  -1318.80991660 </i>
    <i name="e_0_energy">  -1318.85761281 </i>
   </energy>
  </scstep>
  <scstep>
   <time name="dav">   19.97   19.97</time>
   <time name="total">   21.52   21.52</time>
   <energy>
    <i name="e_fr_energy">  -1318.90530919 </i>
    <i name="e_wo_entrp">  -1318.80991813 </i>
    <i name="e_0_energy">  -1318.85761366 </i>
   </energy>
  </scstep>
  <scstep>
   <time name="dav">   17.51   17.51</time>
   <time name="total">   19.09   19.09</time>
   <energy>
    <i name="e_fr_energy">  -1318.90530969 </i>
    <i name="e_wo_entrp">  -1318.80991883 </i>
    <i name="e_0_energy">  -1318.85761426 </i>
   </energy>
  </scstep>
  <scstep>
   <time name="dav">   15.90   15.90</time>
   <time name="total">   16.37   16.38</time>
   <energy>
    <i name="alphaZ">   8570.86455061 </i>
    <i name="ewald">-111041.28909270 </i>
    <i name="hartreedc"> -39048.88383147 </i>
    <i name="XCdc">  -1803.33455756 </i>
    <i name="pawpsdc"> 149414.48932247 </i>
    <i name="pawaedc">-155225.85672359 </i>
    <i name="eentropy">     -0.09538880 </i>
    <i name="bandstr">   5988.64847148 </i>
    <i name="atom"> 141826.55193982 </i>
    <i name="e_fr_energy">  -1318.90530975 </i>
    <i name="e_wo_entrp">  -1318.80992094 </i>
    <i name="e_0_energy">  -1318.85761535 </i>
[...]
       <r>     5.6705    88.3171  1474.4134 </r>
       <r>     5.7639    29.9451  1477.2126 </r>
       <r>     5.8574    93.1706  1485.9221 </r>
       <r>     5.9509    68.2757  1492.3044 </r>
       <r>     6.0444    99.6895  1501.6233 </r>
       <r>     6.1379   147.7582  1515.4355 </r>
       <r>     6.2313   305.0278  1543.9491 </r>
       <r>     6.3248   148.1225  1557.7954 </r>
       <r>     6.4183   231.3924  1579.4257 </r>
       <r>     6.5118   190.1459  1597.2003 </r>
       <r>     6.6053   155.4281  1611.7295 </r>
       <r>     6.6987   115.3396  1622.5113 </r>
       <r>     6.7922    61.2780  1628.2395 </r>
       <r>     6.8857    92.4224  1636.8790 </r>
       <r>     6.9792    88.5072  1645.1526 </r>
       <r>     7.0726    74.1097  1652.0802 </r>
       <r>     7.1661    80.9246  1659.6450 </r>
       <r>     7.2596    87.1025  1667.7872 </r>
       <r>     7.3531    88.1591  1676.0282 </r>
       <r>     7.4466   145.5973  1689.6385 </r>
       <r>     7.5400    74.7780  1696.6286 </r>
       <r>     7.6335    56.4520  1701.9057 </r>
       <r>     7.7270    41.2709  1705.7636 </r>
       <r>     7.8205    34.5033  1708.9889 </r>
       <r>     7.9140    44.6297  1713.1609 </r>
       <r>     8.0074    48.9056  1717.7325 </r>
       <r>     8.1009    23.0517  1719.8873 </r>
       <r>     8.1944    19.3731  1721.6983 </r>
       <r>     8.2879    15.3353  1723.1318 </r>
       <r>     8.3813    18.5073  1724.8619 </r>
       <r>     8.4748    22.6543  1726.9796 </r>
       <r>     8.5683    24.2876  1729.2500 </r>
       <r>     8.6618    81.5453  1736.8727 </r>
       <r>     8.7553   111.4090  1747.2871 </r>
       <r>     8.8487   184.2822  1764.5135 </r>
       <r>     8.9422   114.1388  1775.1831 </r>
       <r>     9.0357    80.3776  1782.6967 </r>
       <r>     9.1292    88.8299  1791.0004 </r>
       <r>     9.2227   115.9972  1801.8437 </r>
       <r>     9.3161    80.9824  1809.4138 </r>
       <r>     9.4096    60.3893  1815.0589 </r>
       <r>     9.5031    73.3522  1821.9158 </r>
       <r>     9.5966   166.3356  1837.4646 </r>
       <r>     9.6900   150.0333  1851.4895 </r>
       <r>     9.7835    66.8095  1857.7348 </r>
       <r>     9.8770   145.7903  1871.3631 </r>
       <r>     9.9705   138.6377  1884.3228 </r>
       <r>    10.0640    42.4564  1888.2915 </r>
       <r>    10.1574    41.3594  1892.1578 </r>
       <r>    10.2509   109.9521  1902.4359 </r>
       <r>    10.3444   148.3276  1916.3014 </r>
       <r>    10.4379    55.5376  1921.4930 </r>
       <r>    10.5314    66.8905  1927.7458 </r>
       <r>    10.6248    96.5823  1936.7742 </r>
       <r>    10.7183    99.3810  1946.0642 </r>
       <r>    10.8118    54.3967  1951.1492 </r>
       <r>    10.9053    25.1306  1953.4983 </r>
       <r>    10.9988    25.9044  1955.9199 </r>
       <r>    11.0922     0.8573  1956.0000 </r>
       <r>    11.1857     0.0001  1956.0000 </r>
       <r>    11.2792     0.0000  1956.0000 </r>
       <r>    11.3727     0.0000  1956.0000 </r>
       <r>    11.4661     0.0000  1956.0000 </r>
       <r>    11.5596     0.0000  1956.0000 </r>
       <r>    11.6531     0.0000  1956.0000 </r>
       <r>    11.7466     0.0000  1956.0000 </r>
       <r>    11.8401     0.0000  1956.0000 </r>
       <r>    11.9335     0.0000  1956.0000 </r>
       <r>    12.0270     0.0000  1956.0000 </r>
       <r>    12.1205     0.0000  1956.0000 </r>
       <r>    12.2140     0.0000  1956.0000 </r>
      </set>
     </set>
    </array>
   </total>
  </dos>
 </calculation>
 <structure name="finalpos" >
  <crystal>
   <varray name="basis" >
    <v>      14.50000000       0.00000000       0.00000000 </v>
    <v>       0.00000000      14.50000000       0.00000000 </v>
    <v>       0.00000000       0.00000000      14.50000000 </v>
   </varray>
   <i name="volume">   3048.62500000 </i>
   <varray name="rec_basis" >
    <v>       0.06896552       0.00000000       0.00000000 </v>
    <v>       0.00000000       0.06896552       0.00000000 </v>
    <v>       0.00000000       0.00000000       0.06896552 </v>
   </varray>
  </crystal>
  <varray name="positions" >
   <v>       0.00010645      -0.00007260       0.00005346 </v>
   <v>      -0.00024755      -0.00021274       0.19984188 </v>
   <v>      -0.00057809      -0.00032165       0.40000000 </v>
   <v>      -0.00024755      -0.00021274       0.60015812 </v>
   <v>       0.00010645      -0.00007260       0.79994654 </v>
   <v>      -0.00014688       0.20000000      -0.00010078 </v>
   <v>      -0.00026868       0.20000000       0.20027119 </v>
   <v>      -0.00036517       0.20000000       0.40000000 </v>
   <v>      -0.00026868       0.20000000       0.59972881 </v>
   <v>      -0.00014688       0.20000000       0.80010078 </v>
   <v>       0.00010645       0.40007260       0.00005346 </v>
   <v>      -0.00024755       0.40021274       0.19984188 </v>
   <v>      -0.00057809       0.40032165       0.40000000 </v>
   <v>      -0.00024755       0.40021274       0.60015812 </v>
   <v>       0.00010645       0.40007260       0.79994654 </v>
   <v>       0.00007798       0.59992202      -0.00021486 </v>
   <v>      -0.00011607       0.60011607       0.19982635 </v>
   <v>      -0.00028230       0.60028230       0.40000000 </v>
   <v>      -0.00011607       0.60011607       0.60017365 </v>
   <v>       0.00007798       0.59992202       0.80021486 </v>
   <v>       0.00007798       0.80007798      -0.00021486 </v>
   <v>      -0.00011607       0.79988393       0.19982635 </v>
   <v>      -0.00028230       0.79971770       0.40000000 </v>
   <v>      -0.00011607       0.79988393       0.60017365 </v>
   <v>       0.00007798       0.80007798       0.80021486 </v>
   <v>       0.20018340       0.00018340       0.00027495 </v>
   <v>       0.19875039      -0.00124961       0.20148694 </v>
   <v>       0.19930691      -0.00069309       0.40000000 </v>
   <v>       0.19875039      -0.00124961       0.59851306 </v>
   <v>       0.20018340       0.00018340       0.79972505 </v>
   <v>       0.19982248       0.20000000      -0.00001813 </v>
   <v>       0.19801270       0.20000000       0.20166370 </v>
   <v>       0.19884198       0.20000000       0.40000000 </v>
   <v>       0.19801270       0.20000000       0.59833630 </v>
   <v>       0.19982248       0.20000000       0.80001813 </v>
   <v>       0.20018340       0.39981660       0.00027495 </v>
   <v>       0.19875039       0.40124961       0.20148694 </v>
   <v>       0.19930691       0.40069309       0.40000000 </v>
   <v>       0.19875039       0.40124961       0.59851306 </v>
   <v>       0.20018340       0.39981660       0.79972505 </v>
   <v>       0.19992740       0.59989355       0.00005346 </v>
   <v>       0.19978726       0.60024755       0.19984188 </v>
   <v>       0.19967835       0.60057809       0.40000000 </v>
   <v>       0.19978726       0.60024755       0.60015812 </v>
   <v>       0.19992740       0.59989355       0.79994654 </v>
   <v>       0.19992740       0.80010645       0.00005346 </v>
   <v>       0.19978726       0.79975245       0.19984188 </v>
   <v>       0.19967835       0.79942191       0.40000000 </v>
   <v>       0.19978726       0.79975245       0.60015812 </v>
   <v>       0.19992740       0.80010645       0.79994654 </v>
   <v>       0.40000000      -0.00017752      -0.00001813 </v>
   <v>       0.40000000      -0.00198730       0.20166370 </v>
   <v>       0.40000000      -0.00115802       0.40000000 </v>
   <v>       0.40000000      -0.00198730       0.59833630 </v>
   <v>       0.40000000      -0.00017752       0.80001813 </v>
   <v>       0.40000000       0.20000000       0.03173940 </v>
   <v>       0.40000000       0.20000000       0.20360571 </v>
   <v>       0.40000000       0.20000000       0.40000000 </v>
   <v>       0.40000000       0.20000000       0.59639429 </v>
   <v>       0.40000000       0.20000000       0.76826060 </v>
   <v>       0.40000000       0.40017752      -0.00001813 </v>
   <v>       0.40000000       0.40198730       0.20166370 </v>
   <v>       0.40000000       0.40115802       0.40000000 </v>
   <v>       0.40000000       0.40198730       0.59833630 </v>
   <v>       0.40000000       0.40017752       0.80001813 </v>
   <v>       0.40000000       0.60014688      -0.00010078 </v>
   <v>       0.40000000       0.60026868       0.20027119 </v>
   <v>       0.40000000       0.60036517       0.40000000 </v>
   <v>       0.40000000       0.60026868       0.59972881 </v>
   <v>       0.40000000       0.60014688       0.80010078 </v>
   <v>       0.40000000       0.79985312      -0.00010078 </v>
   <v>       0.40000000       0.79973132       0.20027119 </v>
   <v>       0.40000000       0.79963483       0.40000000 </v>
   <v>       0.40000000       0.79973132       0.59972881 </v>
   <v>       0.40000000       0.79985312       0.80010078 </v>
   <v>       0.59981660       0.00018340       0.00027495 </v>
   <v>       0.60124961      -0.00124961       0.20148694 </v>
   <v>       0.60069309      -0.00069309       0.40000000 </v>
   <v>       0.60124961      -0.00124961       0.59851306 </v>
   <v>       0.59981660       0.00018340       0.79972505 </v>
   <v>       0.60017752       0.20000000      -0.00001813 </v>
   <v>       0.60198730       0.20000000       0.20166370 </v>
   <v>       0.60115802       0.20000000       0.40000000 </v>
   <v>       0.60198730       0.20000000       0.59833630 </v>
   <v>       0.60017752       0.20000000       0.80001813 </v>
   <v>       0.59981660       0.39981660       0.00027495 </v>
   <v>       0.60124961       0.40124961       0.20148694 </v>
   <v>       0.60069309       0.40069309       0.40000000 </v>
   <v>       0.60124961       0.40124961       0.59851306 </v>
   <v>       0.59981660       0.39981660       0.79972505 </v>
   <v>       0.60007260       0.59989355       0.00005346 </v>
   <v>       0.60021274       0.60024755       0.19984188 </v>
   <v>       0.60032165       0.60057809       0.40000000 </v>
   <v>       0.60021274       0.60024755       0.60015812 </v>
   <v>       0.60007260       0.59989355       0.79994654 </v>
   <v>       0.60007260       0.80010645       0.00005346 </v>
   <v>       0.60021274       0.79975245       0.19984188 </v>
   <v>       0.60032165       0.79942191       0.40000000 </v>
   <v>       0.60021274       0.79975245       0.60015812 </v>
   <v>       0.60007260       0.80010645       0.79994654 </v>
   <v>       0.79989355      -0.00007260       0.00005346 </v>
   <v>       0.80024755      -0.00021274       0.19984188 </v>
   <v>       0.80057809      -0.00032165       0.40000000 </v>
   <v>       0.80024755      -0.00021274       0.60015812 </v>
   <v>       0.79989355      -0.00007260       0.79994654 </v>
   <v>       0.80014688       0.20000000      -0.00010078 </v>
   <v>       0.80026868       0.20000000       0.20027119 </v>
   <v>       0.80036517       0.20000000       0.40000000 </v>
   <v>       0.80026868       0.20000000       0.59972881 </v>
   <v>       0.80014688       0.20000000       0.80010078 </v>
   <v>       0.79989355       0.40007260       0.00005346 </v>
   <v>       0.80024755       0.40021274       0.19984188 </v>
   <v>       0.80057809       0.40032165       0.40000000 </v>
   <v>       0.80024755       0.40021274       0.60015812 </v>
   <v>       0.79989355       0.40007260       0.79994654 </v>
   <v>       0.79992202       0.59992202      -0.00021486 </v>
   <v>       0.80011607       0.60011607       0.19982635 </v>
   <v>       0.80028230       0.60028230       0.40000000 </v>
   <v>       0.80011607       0.60011607       0.60017365 </v>
   <v>       0.79992202       0.59992202       0.80021486 </v>
   <v>       0.79992202       0.80007798      -0.00021486 </v>
   <v>       0.80011607       0.79988393       0.19982635 </v>
   <v>       0.80028230       0.79971770       0.40000000 </v>
   <v>       0.80011607       0.79988393       0.60017365 </v>
   <v>       0.79992202       0.80007798       0.80021486 </v>
   <v>       0.09948826       0.09992593       0.10036383 </v>
   <v>       0.09924439       0.09957404       0.30041721 </v>
   <v>       0.09924439       0.09957404       0.49958279 </v>
   <v>       0.09948826       0.09992593       0.69963617 </v>
   <v>       0.09981240       0.10015003       0.90000000 </v>
   <v>       0.09948826       0.30007407       0.10036383 </v>
   <v>       0.09924439       0.30042596       0.30041721 </v>
   <v>       0.09924439       0.30042596       0.49958279 </v>
   <v>       0.09948826       0.30007407       0.69963617 </v>
   <v>       0.09981240       0.29984997       0.90000000 </v>
   <v>       0.09978418       0.50021582       0.10003031 </v>
   <v>       0.09927736       0.50072264       0.30023850 </v>
   <v>       0.09927736       0.50072264       0.49976150 </v>
   <v>       0.09978418       0.50021582       0.69996969 </v>
   <v>       0.10032600       0.49967400       0.90000000 </v>
   <v>       0.09978693       0.70000000       0.09978706 </v>
   <v>       0.09968253       0.70000000       0.29977907 </v>
   <v>       0.09968253       0.70000000       0.50022093 </v>
   <v>       0.09978693       0.70000000       0.70021294 </v>
   <v>       0.10012840       0.70000000       0.90000000 </v>
   <v>       0.09978418       0.89978418       0.10003031 </v>
   <v>       0.09927736       0.89927736       0.30023850 </v>
   <v>       0.09927736       0.89927736       0.49976150 </v>
   <v>       0.09978418       0.89978418       0.69996969 </v>
   <v>       0.10032600       0.90032600       0.90000000 </v>
   <v>       0.29683929       0.09683929       0.10454511 </v>
   <v>       0.29947261       0.09947261       0.30109711 </v>
   <v>       0.29947261       0.09947261       0.49890289 </v>
   <v>       0.29683929       0.09683929       0.69545489 </v>
   <v>       0.30008082       0.10008082       0.90000000 </v>
   <v>       0.29683929       0.30316071       0.10454511 </v>
   <v>       0.29947261       0.30052739       0.30109711 </v>
   <v>       0.29947261       0.30052739       0.49890289 </v>
   <v>       0.29683929       0.30316071       0.69545489 </v>
   <v>       0.30008082       0.29991918       0.90000000 </v>
   <v>       0.29992593       0.50051174       0.10036383 </v>
   <v>       0.29957404       0.50075561       0.30041721 </v>
   <v>       0.29957404       0.50075561       0.49958279 </v>
   <v>       0.29992593       0.50051174       0.69963617 </v>
   <v>       0.30015003       0.50018760       0.90000000 </v>
   <v>       0.29998542       0.70000000       0.10003936 </v>
   <v>       0.29986322       0.70000000       0.29990570 </v>
   <v>       0.29986322       0.70000000       0.50009430 </v>
   <v>       0.29998542       0.70000000       0.69996064 </v>
   <v>       0.29973844       0.70000000       0.90000000 </v>
   <v>       0.29992593       0.89948826       0.10036383 </v>
   <v>       0.29957404       0.89924439       0.30041721 </v>
   <v>       0.29957404       0.89924439       0.49958279 </v>
   <v>       0.29992593       0.89948826       0.69963617 </v>
   <v>       0.30015003       0.89981240       0.90000000 </v>
   <v>       0.50316071       0.09683929       0.10454511 </v>
   <v>       0.50052739       0.09947261       0.30109711 </v>
   <v>       0.50052739       0.09947261       0.49890289 </v>
   <v>       0.50316071       0.09683929       0.69545489 </v>
   <v>       0.49991918       0.10008082       0.90000000 </v>
   <v>       0.50316071       0.30316071       0.10454511 </v>
   <v>       0.50052739       0.30052739       0.30109711 </v>
   <v>       0.50052739       0.30052739       0.49890289 </v>
   <v>       0.50316071       0.30316071       0.69545489 </v>
   <v>       0.49991918       0.29991918       0.90000000 </v>
   <v>       0.50007407       0.50051174       0.10036383 </v>
   <v>       0.50042596       0.50075561       0.30041721 </v>
   <v>       0.50042596       0.50075561       0.49958279 </v>
   <v>       0.50007407       0.50051174       0.69963617 </v>
   <v>       0.49984997       0.50018760       0.90000000 </v>
   <v>       0.50001458       0.70000000       0.10003936 </v>
   <v>       0.50013678       0.70000000       0.29990570 </v>
   <v>       0.50013678       0.70000000       0.50009430 </v>
   <v>       0.50001458       0.70000000       0.69996064 </v>
   <v>       0.50026156       0.70000000       0.90000000 </v>
   <v>       0.50007407       0.89948826       0.10036383 </v>
   <v>       0.50042596       0.89924439       0.30041721 </v>
   <v>       0.50042596       0.89924439       0.49958279 </v>
   <v>       0.50007407       0.89948826       0.69963617 </v>
   <v>       0.49984997       0.89981240       0.90000000 </v>
   <v>       0.70051174       0.09992593       0.10036383 </v>
   <v>       0.70075561       0.09957404       0.30041721 </v>
   <v>       0.70075561       0.09957404       0.49958279 </v>
   <v>       0.70051174       0.09992593       0.69963617 </v>
   <v>       0.70018760       0.10015003       0.90000000 </v>
   <v>       0.70051174       0.30007407       0.10036383 </v>
   <v>       0.70075561       0.30042596       0.30041721 </v>
   <v>       0.70075561       0.30042596       0.49958279 </v>
   <v>       0.70051174       0.30007407       0.69963617 </v>
   <v>       0.70018760       0.29984997       0.90000000 </v>
   <v>       0.70021582       0.50021582       0.10003031 </v>
   <v>       0.70072264       0.50072264       0.30023850 </v>
   <v>       0.70072264       0.50072264       0.49976150 </v>
   <v>       0.70021582       0.50021582       0.69996969 </v>
   <v>       0.69967400       0.49967400       0.90000000 </v>
   <v>       0.70021307       0.70000000       0.09978706 </v>
   <v>       0.70031747       0.70000000       0.29977907 </v>
   <v>       0.70031747       0.70000000       0.50022093 </v>
   <v>       0.70021307       0.70000000       0.70021294 </v>
   <v>       0.69987160       0.70000000       0.90000000 </v>
   <v>       0.70021582       0.89978418       0.10003031 </v>
   <v>       0.70072264       0.89927736       0.30023850 </v>
   <v>       0.70072264       0.89927736       0.49976150 </v>
   <v>       0.70021582       0.89978418       0.69996969 </v>
   <v>       0.69967400       0.90032600       0.90000000 </v>
   <v>       0.90000000       0.09998542       0.10003936 </v>
   <v>       0.90000000       0.09986322       0.29990570 </v>
   <v>       0.90000000       0.09986322       0.50009430 </v>
   <v>       0.90000000       0.09998542       0.69996064 </v>
   <v>       0.90000000       0.09973844       0.90000000 </v>
   <v>       0.90000000       0.30001458       0.10003936 </v>
   <v>       0.90000000       0.30013678       0.29990570 </v>
   <v>       0.90000000       0.30013678       0.50009430 </v>
   <v>       0.90000000       0.30001458       0.69996064 </v>
   <v>       0.90000000       0.30026156       0.90000000 </v>
   <v>       0.90000000       0.50021307       0.09978706 </v>
   <v>       0.90000000       0.50031747       0.29977907 </v>
   <v>       0.90000000       0.50031747       0.50022093 </v>
   <v>       0.90000000       0.50021307       0.70021294 </v>
   <v>       0.90000000       0.49987160       0.90000000 </v>
   <v>       0.90000000       0.70000000       0.09972547 </v>
   <v>       0.90000000       0.70000000       0.29966874 </v>
   <v>       0.90000000       0.70000000       0.50033126 </v>
   <v>       0.90000000       0.70000000       0.70027453 </v>
   <v>       0.90000000       0.70000000       0.90000000 </v>
   <v>       0.90000000       0.89978693       0.09978706 </v>
   <v>       0.90000000       0.89968253       0.29977907 </v>
   <v>       0.90000000       0.89968253       0.50022093 </v>
   <v>       0.90000000       0.89978693       0.70021294 </v>
   <v>       0.90000000       0.90012840       0.90000000 </v>
   <v>       0.40000000       0.20000000       0.90000000 </v>
  </varray>
 </structure>
</modeling>
