LAMMPS (24 Mar 2022)
OMP_NUM_THREADS environment is not set. Defaulting to 1 thread. (src/comm.cpp:98)
  using 1 OpenMP thread(s) per MPI task
Reading data file ...
  triclinic box = (0 0 0) to (14.415084 12.483828 33.716254) with tilt (-7.207542 0 0)
  1 by 1 by 1 MPI processor grid
  reading atoms ...
  108 atoms
  read_data CPU = 0.000 seconds
WARNING: Using 'neigh_modify every 1 delay 0 check yes' setting during minimization (src/min.cpp:187)
Neighbor list info ...
  update every 1 steps, delay 0 steps, check yes
  max neighbors/atom: 2000, page size: 100000
  master list distance cutoff = 8.28721
  ghost atom cutoff = 8.28721
  binsize = 4.143605, bins = 6 4 9
  1 neighbor lists, perpetual/occasional/extra = 1 0 0
  (1) pair eam/alloy, perpetual
      attributes: half, newton on
      pair build: half/bin/newton/tri
      stencil: half/bin/3d/tri
      bin: standard
Setting up cg style minimization ...
  Unit style    : metal
  Current step  : 0
Per MPI rank memory allocation (min/avg/max) = 4.477 | 4.477 | 4.477 Mbytes
   Step          Temp          E_pair         E_mol          TotEng         Press     
         0   0             -310.52619      0             -310.52619     -22734.561    
Loop time of 1.905e-06 on 1 procs for 0 steps with 108 atoms

105.0% CPU use with 1 MPI tasks x 1 OpenMP threads

Minimization stats:
  Stopping criterion = max iterations
  Energy initial, next-to-last, final = 
     -310.526189984823                  0  -310.526189984823
  Force two-norm initial, final = 10.02006 10.02006
  Force max component initial, final = 1.6979529 1.6979529
  Final line search alpha, max atom move = 0 0
  Iterations, force evaluations = 0 0

MPI task timing breakdown:
Section |  min time  |  avg time  |  max time  |%varavg| %total
---------------------------------------------------------------
Pair    | 0          | 0          | 0          |   0.0 |  0.00
Neigh   | 0          | 0          | 0          |   0.0 |  0.00
Comm    | 0          | 0          | 0          |   0.0 |  0.00
Output  | 0          | 0          | 0          |   0.0 |  0.00
Modify  | 0          | 0          | 0          |   0.0 |  0.00
Other   |            | 1.905e-06  |            |       |100.00

Nlocal:            108 ave         108 max         108 min
Histogram: 1 0 0 0 0 0 0 0 0 0
Nghost:            792 ave         792 max         792 min
Histogram: 1 0 0 0 0 0 0 0 0 0
Neighs:           4656 ave        4656 max        4656 min
Histogram: 1 0 0 0 0 0 0 0 0 0

Total # of neighbors = 4656
Ave neighs/atom = 43.111111
Neighbor list builds = 0
Dangerous builds = 0
Setting up Verlet run ...
  Unit style    : metal
  Current step  : 0
  Time step     : 0.01
Per MPI rank memory allocation (min/avg/max) = 4.356 | 4.356 | 4.356 Mbytes
   Step          Temp          E_pair         E_mol          TotEng         Press     
         0   300           -310.52619      0             -306.37694     -22004.121    
       100   873.15352     -318.69582      0             -306.61938     -137.93145    
       200   903.25295     -319.11948      0             -306.62673     -1242.1625    
       300   838.8191      -318.18746      0             -306.58589     -3288.3582    
       400   798.2373      -317.61027      0             -306.56998     -5317.2845    
       500   926.49683     -319.43243      0             -306.6182      -3028.7229    
       600   935.73913     -319.56403      0             -306.62198     -3292.5683    
       700   958.10418     -319.86204      0             -306.61066     -2509.7018    
       800   920.48082     -319.31435      0             -306.58333     -2026.361     
       900   826.44004     -317.97188      0             -306.54152     -3718.621     
      1000   903.08738     -319.00648      0             -306.51603     -3046.6539    
      1100   821.56914     -317.92045      0             -306.55746     -6254.9812    
      1200   875.27214     -318.71699      0             -306.61124     -5439.961     
      1300   856.08978     -318.44137      0             -306.60093     -3331.428     
      1400   921.56339     -319.40835      0             -306.66236     -2894.201     
      1500   876.58287     -318.66616      0             -306.54229     -1122.1137    
      1600   813.56888     -317.82457      0             -306.57223      2907.2749    
      1700   929.11179     -319.43726      0             -306.58687     -4036.2365    
      1800   903.98539     -319.05175      0             -306.54888     -1287.2903    
      1900   957.0408      -319.80532      0             -306.56865     -3796.7431    
      2000   974.44732     -320.07676      0             -306.59934      1637.6305    
      2100   881.309       -318.73042      0             -306.54118     -668.32521    
      2200   860.3224      -318.4679       0             -306.56893     -5188.1363    
      2300   977.77837     -320.14615      0             -306.62266     -3737.5271    
      2400   857.90109     -318.40848      0             -306.54299     -1205.3295    
      2500   949.64285     -319.7009       0             -306.56654     -5468.6939    
      2600   963.03712     -319.97686      0             -306.65725     -2061.6315    
      2700   880.35559     -318.71575      0             -306.5397      -2542.0597    
      2800   887.45456     -318.82497      0             -306.55074      219.46734    
      2900   982.50397     -320.174        0             -306.58515     -5252.5434    
      3000   806.92077     -317.60336      0             -306.44297     -4549.8719    
      3100   825.17269     -317.86516      0             -306.45233     -2340.9937    
      3200   937.27447     -319.49978      0             -306.53649     -1400.861     
      3300   801.33076     -317.53957      0             -306.4565      -2944.8391    
      3400   908.31823     -319.02373      0             -306.46093     -1264.2138    
      3500   875.93648     -318.57913      0             -306.4642      -5823.0168    
      3600   908.09053     -318.99435      0             -306.4347       533.63035    
      3700   797.74097     -317.43542      0             -306.402       -2985.6005    
      3800   894.93658     -318.84034      0             -306.46262     -410.49348    
      3900   932.01521     -319.3808       0             -306.49025     -245.91287    
      4000   985.78154     -320.13082      0             -306.49664     -4722.3403    
      4100   904.6224      -318.99408      0             -306.4824      -3164.9871    
      4200   887.85349     -318.68568      0             -306.40592     -3359.652     
      4300   971.93895     -319.94567      0             -306.50294     -1052.2569    
      4400   886.14426     -318.68094      0             -306.42483     -6584.6816    
      4500   902.71886     -318.92463      0             -306.43927     -2386.4314    
      4600   888.06926     -318.68154      0             -306.3988      -4376.111     
      4700   999.45052     -320.31215      0             -306.48891     -1555.9647    
      4800   997.52605     -320.28797      0             -306.49136     -1360.2108    
      4900   973.00847     -319.94379      0             -306.48627     -3215.7524    
      5000   861.75577     -318.29322      0             -306.37442     -2967.0775    
      5100   834.02396     -317.85529      0             -306.32005     -2406.3285    
      5200   906.36326     -318.9694       0             -306.43364     -4168.4399    
      5300   903.87932     -318.90455      0             -306.40314     -5638.5231    
      5400   843.39789     -318.09309      0             -306.42819     -3605.5694    
      5500   832.50029     -317.93093      0             -306.41675     -3689.1953    
      5600   939.49831     -319.41791      0             -306.42387     -5756.9242    
      5700   892.05084     -318.84683      0             -306.50902     -1447.757     
      5800   914.10641     -319.10441      0             -306.46155     -724.86724    
      5900   943.77932     -319.46793      0             -306.41467     -3358.887     
      6000   999.41828     -320.31731      0             -306.49452     -2336.5596    
      6100   802.56224     -317.53118      0             -306.43108     -4110.9167    
      6200   874.10251     -318.47107      0             -306.3815       158.43261    
      6300   934.06957     -319.42412      0             -306.50515     -795.9581     
      6400   887.94163     -318.70633      0             -306.42535     -2645.2448    
      6500   923.03381     -319.20914      0             -306.44281     -1249.0261    
      6600   891.75199     -318.75285      0             -306.41918      58.266717    
      6700   774.68121     -317.16888      0             -306.45439     -628.83105    
      6800   844.75187     -318.17301      0             -306.48938     -3960.678     
      6900   767.26089     -317.03151      0             -306.41965     -5980.3465    
      7000   992.00332     -320.28005      0             -306.55981     -1900.9111    
      7100   1014.2348     -320.53528      0             -306.50756     -3144.942     
      7200   907.03885     -319.00957      0             -306.46446     -979.29298    
      7300   963.41665     -319.73546      0             -306.41061     -864.47847    
      7400   920.24382     -319.14749      0             -306.41975     -3303.8456    
      7500   907.35821     -318.99107      0             -306.44155     -3622.0209    
      7600   962.82235     -319.78926      0             -306.47262     -995.30316    
      7700   866.8023      -318.31791      0             -306.32931     -2735.7836    
      7800   861.15379     -318.32662      0             -306.41614     -7242.8883    
      7900   958.59745     -319.69997      0             -306.44177     -4052.595     
      8000   988.73289     -320.06232      0             -306.38732     -3751.1768    
      8100   849.50833     -318.11843      0             -306.36902     -2388.0338    
      8200   884.83291     -318.58551      0             -306.34753     -4779.2633    
      8300   833.35365     -317.84845      0             -306.32247     -4749.9659    
      8400   968.03014     -319.80404      0             -306.41538     -5135.3433    
      8500   846.44634     -318.05064      0             -306.34358     -7319.1207    
      8600   861.95395     -318.3055       0             -306.38395     -4802.6418    
      8700   888.68197     -318.66903      0             -306.37782     -4731.2881    
      8800   871.65898     -318.39147      0             -306.3357      -541.39794    
      8900   861.84845     -318.25661      0             -306.33652     -4590.3283    
      9000   847.70181     -318.04628      0             -306.32185     -5820.8446    
      9100   759.11849     -316.89534      0             -306.3961      -56.54601     
      9200   927.14011     -319.21476      0             -306.39164     -2340.8859    
      9300   966.82194     -319.72266      0             -306.3507      -5225.2559    
      9400   869.0188      -318.36411      0             -306.34486     -2040.3357    
      9500   901.7054      -318.84139      0             -306.37005     -1631.2597    
      9600   1020.9084     -320.56037      0             -306.44035     -164.35411    
      9700   909.01134     -318.97617      0             -306.40378     -5217.7552    
      9800   835.2048      -317.94678      0             -306.3952      -2900.241     
      9900   884.94718     -318.58925      0             -306.34969     -2638.799     
     10000   902.71249     -318.83335      0             -306.34808     -2594.5194    
Loop time of 2.1614 on 1 procs for 10000 steps with 108 atoms

Performance: 3997.415 ns/day, 0.006 hours/ns, 4626.638 timesteps/s
99.6% CPU use with 1 MPI tasks x 1 OpenMP threads

MPI task timing breakdown:
Section |  min time  |  avg time  |  max time  |%varavg| %total
---------------------------------------------------------------
Pair    | 1.8003     | 1.8003     | 1.8003     |   0.0 | 83.29
Neigh   | 0.20857    | 0.20857    | 0.20857    |   0.0 |  9.65
Comm    | 0.050229   | 0.050229   | 0.050229   |   0.0 |  2.32
Output  | 0.080826   | 0.080826   | 0.080826   |   0.0 |  3.74
Modify  | 0.010241   | 0.010241   | 0.010241   |   0.0 |  0.47
Other   |            | 0.01122    |            |       |  0.52

Nlocal:            108 ave         108 max         108 min
Histogram: 1 0 0 0 0 0 0 0 0 0
Nghost:            845 ave         845 max         845 min
Histogram: 1 0 0 0 0 0 0 0 0 0
Neighs:           5060 ave        5060 max        5060 min
Histogram: 1 0 0 0 0 0 0 0 0 0

Total # of neighbors = 5060
Ave neighs/atom = 46.851852
Neighbor list builds = 998
Dangerous builds = 990
System init for write_restart ...
Total wall time: 0:00:02
