 254 254   0   0
  0.3019211E+02  0.1718057E-08  0.1718057E-08  0.3000000E-08  0.5000000E-15
   1.0000000000000000E-004
  CAR 
 NiAl                                    
      5.76739793    -30.25035272  301      1.78484505      1.00000000
    -30.250  0.0000E+00  0.0000E+00
    -30.130  0.0000E+00  0.0000E+00
    -30.010  0.0000E+00  0.0000E+00
    -29.890  0.0000E+00  0.0000E+00
    -29.770  0.0000E+00  0.0000E+00
    -29.650  0.0000E+00  0.0000E+00
    -29.530  0.0000E+00  0.0000E+00
    -29.410  0.0000E+00  0.0000E+00
    -29.290  0.0000E+00  0.0000E+00
    -29.170  0.0000E+00  0.0000E+00
    -29.050  0.0000E+00  0.0000E+00
    -28.930  0.0000E+00  0.0000E+00
    -28.810  0.2009E-06  0.2412E-07
    -28.690  0.2412E+00  0.2896E-01
    -28.570  0.1454E+02  0.1774E+01
    -28.449  0.1880E+01  0.2000E+01
    -28.329  0.3404E-04  0.2000E+01
    -28.209  0.0000E+00  0.2000E+01
    -28.089  0.0000E+00  0.2000E+01
    -27.969  0.0000E+00  0.2000E+01
    -27.849  0.0000E+00  0.2000E+01
    -27.729  0.0000E+00  0.2000E+01
    -27.609  0.0000E+00  0.2000E+01
    -27.489  0.0000E+00  0.2000E+01
    -27.369  0.0000E+00  0.2000E+01
    -27.249  0.0000E+00  0.2000E+01
    -27.129  0.0000E+00  0.2000E+01
    -27.009  0.0000E+00  0.2000E+01
    -26.889  0.0000E+00  0.2000E+01
    -26.769  0.0000E+00  0.2000E+01
    -26.649  0.0000E+00  0.2000E+01
    -26.529  0.0000E+00  0.2000E+01
    -26.408  0.0000E+00  0.2000E+01
    -26.288  0.0000E+00  0.2000E+01
    -26.168  0.0000E+00  0.2000E+01
    -26.048  0.0000E+00  0.2000E+01
    -25.928  0.0000E+00  0.2000E+01
    -25.808  0.0000E+00  0.2000E+01
    -25.688  0.0000E+00  0.2000E+01
    -25.568  0.0000E+00  0.2000E+01
    -25.448  0.0000E+00  0.2000E+01
    -25.328  0.0000E+00  0.2000E+01
    -25.208  0.0000E+00  0.2000E+01
    -25.088  0.0000E+00  0.2000E+01
    -24.968  0.0000E+00  0.2000E+01
    -24.848  0.0000E+00  0.2000E+01
    -24.728  0.0000E+00  0.2000E+01
    -24.608  0.0000E+00  0.2000E+01
    -24.488  0.0000E+00  0.2000E+01
    -24.367  0.0000E+00  0.2000E+01
    -24.247  0.0000E+00  0.2000E+01
    -24.127  0.0000E+00  0.2000E+01
    -24.007  0.0000E+00  0.2000E+01
    -23.887  0.0000E+00  0.2000E+01
    -23.767  0.0000E+00  0.2000E+01
    -23.647  0.0000E+00  0.2000E+01
    -23.527  0.0000E+00  0.2000E+01
    -23.407  0.0000E+00  0.2000E+01
    -23.287  0.0000E+00  0.2000E+01
    -23.167  0.0000E+00  0.2000E+01
    -23.047  0.0000E+00  0.2000E+01
    -22.927  0.0000E+00  0.2000E+01
    -22.807  0.0000E+00  0.2000E+01
    -22.687  0.0000E+00  0.2000E+01
    -22.567  0.0000E+00  0.2000E+01
    -22.447  0.0000E+00  0.2000E+01
    -22.326  0.0000E+00  0.2000E+01
    -22.206  0.0000E+00  0.2000E+01
    -22.086  0.0000E+00  0.2000E+01
    -21.966  0.0000E+00  0.2000E+01
    -21.846  0.0000E+00  0.2000E+01
    -21.726  0.0000E+00  0.2000E+01
    -21.606  0.0000E+00  0.2000E+01
    -21.486  0.0000E+00  0.2000E+01
    -21.366  0.0000E+00  0.2000E+01
    -21.246  0.0000E+00  0.2000E+01
    -21.126  0.0000E+00  0.2000E+01
    -21.006  0.0000E+00  0.2000E+01
    -20.886  0.0000E+00  0.2000E+01
    -20.766  0.0000E+00  0.2000E+01
    -20.646  0.0000E+00  0.2000E+01
    -20.526  0.0000E+00  0.2000E+01
    -20.406  0.0000E+00  0.2000E+01
    -20.285  0.0000E+00  0.2000E+01
    -20.165  0.0000E+00  0.2000E+01
    -20.045  0.0000E+00  0.2000E+01
    -19.925  0.0000E+00  0.2000E+01
    -19.805  0.0000E+00  0.2000E+01
    -19.685  0.0000E+00  0.2000E+01
    -19.565  0.0000E+00  0.2000E+01
    -19.445  0.0000E+00  0.2000E+01
    -19.325  0.0000E+00  0.2000E+01
    -19.205  0.0000E+00  0.2000E+01
    -19.085  0.0000E+00  0.2000E+01
    -18.965  0.0000E+00  0.2000E+01
    -18.845  0.0000E+00  0.2000E+01
    -18.725  0.0000E+00  0.2000E+01
    -18.605  0.0000E+00  0.2000E+01
    -18.485  0.0000E+00  0.2000E+01
    -18.364  0.0000E+00  0.2000E+01
    -18.244  0.0000E+00  0.2000E+01
    -18.124  0.0000E+00  0.2000E+01
    -18.004  0.0000E+00  0.2000E+01
    -17.884  0.0000E+00  0.2000E+01
    -17.764  0.0000E+00  0.2000E+01
    -17.644  0.0000E+00  0.2000E+01
    -17.524  0.0000E+00  0.2000E+01
    -17.404  0.0000E+00  0.2000E+01
    -17.284  0.0000E+00  0.2000E+01
    -17.164  0.0000E+00  0.2000E+01
    -17.044  0.0000E+00  0.2000E+01
    -16.924  0.0000E+00  0.2000E+01
    -16.804  0.0000E+00  0.2000E+01
    -16.684  0.0000E+00  0.2000E+01
    -16.564  0.0000E+00  0.2000E+01
    -16.444  0.0000E+00  0.2000E+01
    -16.323  0.0000E+00  0.2000E+01
    -16.203  0.0000E+00  0.2000E+01
    -16.083  0.0000E+00  0.2000E+01
    -15.963  0.0000E+00  0.2000E+01
    -15.843  0.0000E+00  0.2000E+01
    -15.723  0.0000E+00  0.2000E+01
    -15.603  0.0000E+00  0.2000E+01
    -15.483  0.0000E+00  0.2000E+01
    -15.363  0.0000E+00  0.2000E+01
    -15.243  0.0000E+00  0.2000E+01
    -15.123  0.0000E+00  0.2000E+01
    -15.003  0.0000E+00  0.2000E+01
    -14.883  0.0000E+00  0.2000E+01
    -14.763  0.0000E+00  0.2000E+01
    -14.643  0.0000E+00  0.2000E+01
    -14.523  0.0000E+00  0.2000E+01
    -14.403  0.0000E+00  0.2000E+01
    -14.282  0.0000E+00  0.2000E+01
    -14.162  0.0000E+00  0.2000E+01
    -14.042  0.0000E+00  0.2000E+01
    -13.922  0.0000E+00  0.2000E+01
    -13.802  0.0000E+00  0.2000E+01
    -13.682  0.0000E+00  0.2000E+01
    -13.562  0.0000E+00  0.2000E+01
    -13.442  0.0000E+00  0.2000E+01
    -13.322  0.0000E+00  0.2000E+01
    -13.202  0.0000E+00  0.2000E+01
    -13.082  0.0000E+00  0.2000E+01
    -12.962  0.0000E+00  0.2000E+01
    -12.842  0.0000E+00  0.2000E+01
    -12.722  0.0000E+00  0.2000E+01
    -12.602  0.2810E-07  0.2000E+01
    -12.482  0.9872E-01  0.2012E+01
    -12.362  0.1340E+02  0.3621E+01
    -12.241  0.3159E+01  0.4000E+01
    -12.121  0.1592E-03  0.4000E+01
    -12.001  0.1424E-12  0.4000E+01
    -11.881  0.0000E+00  0.4000E+01
    -11.761  0.0000E+00  0.4000E+01
    -11.641  0.0000E+00  0.4000E+01
    -11.521  0.0000E+00  0.4000E+01
    -11.401  0.0000E+00  0.4000E+01
    -11.281  0.0000E+00  0.4000E+01
    -11.161  0.0000E+00  0.4000E+01
    -11.041  0.0000E+00  0.4000E+01
    -10.921  0.0000E+00  0.4000E+01
    -10.801  0.0000E+00  0.4000E+01
    -10.681  0.0000E+00  0.4000E+01
    -10.561  0.0000E+00  0.4000E+01
    -10.441  0.0000E+00  0.4000E+01
    -10.321  0.0000E+00  0.4000E+01
    -10.200  0.0000E+00  0.4000E+01
    -10.080  0.0000E+00  0.4000E+01
     -9.960  0.0000E+00  0.4000E+01
     -9.840  0.0000E+00  0.4000E+01
     -9.720  0.0000E+00  0.4000E+01
     -9.600  0.0000E+00  0.4000E+01
     -9.480  0.0000E+00  0.4000E+01
     -9.360  0.1580E-09  0.4000E+01
     -9.240  0.3860E-02  0.4000E+01
     -9.120  0.2543E+01  0.4306E+01
     -9.000  0.5335E+01  0.4946E+01
     -8.880  0.2105E+02  0.7473E+01
     -8.760  0.3031E+01  0.7837E+01
     -8.640  0.1593E+02  0.9750E+01
     -8.520  0.3664E+02  0.1415E+02
     -8.400  0.2287E+02  0.1689E+02
     -8.280  0.1255E+02  0.1840E+02
     -8.159  0.1594E+02  0.2032E+02
     -8.039  0.2705E+02  0.2356E+02
     -7.919  0.6559E+02  0.3144E+02
     -7.799  0.8846E+01  0.3250E+02
     -7.679  0.5588E+01  0.3317E+02
     -7.559  0.9007E+02  0.4398E+02
     -7.439  0.2213E+02  0.4664E+02
     -7.319  0.4147E+02  0.5162E+02
     -7.199  0.2977E+02  0.5519E+02
     -7.079  0.4561E+02  0.6067E+02
     -6.959  0.6348E+02  0.6829E+02
     -6.839  0.4637E+02  0.7386E+02
     -6.719  0.5900E+02  0.8094E+02
     -6.599  0.8164E+02  0.9074E+02
     -6.479  0.3232E+02  0.9462E+02
     -6.359  0.1146E+02  0.9600E+02
     -6.239  0.3312E+01  0.9640E+02
     -6.118  0.8072E+02  0.1061E+03
     -5.998  0.7985E+02  0.1157E+03
     -5.878  0.6603E+02  0.1236E+03
     -5.758  0.3821E+02  0.1282E+03
     -5.638  0.8210E+02  0.1380E+03
     -5.518  0.5845E+02  0.1451E+03
     -5.398  0.2131E+02  0.1476E+03
     -5.278  0.6564E+02  0.1555E+03
     -5.158  0.4235E+02  0.1606E+03
     -5.038  0.7856E+02  0.1700E+03
     -4.918  0.6532E+02  0.1779E+03
     -4.798  0.2276E+02  0.1806E+03
     -4.678  0.9097E+02  0.1915E+03
     -4.558  0.7253E+02  0.2002E+03
     -4.438  0.5978E+02  0.2074E+03
     -4.318  0.4268E+02  0.2125E+03
     -4.198  0.8065E+02  0.2222E+03
     -4.077  0.1159E+03  0.2361E+03
     -3.957  0.6517E+02  0.2439E+03
     -3.837  0.5752E+02  0.2509E+03
     -3.717  0.7157E+02  0.2594E+03
     -3.597  0.7445E+02  0.2684E+03
     -3.477  0.6447E+02  0.2761E+03
     -3.357  0.1194E+02  0.2776E+03
     -3.237  0.4994E+02  0.2835E+03
     -3.117  0.8529E+02  0.2938E+03
     -2.997  0.1095E+03  0.3069E+03
     -2.877  0.1001E+03  0.3190E+03
     -2.757  0.1710E+03  0.3395E+03
     -2.637  0.8332E+02  0.3495E+03
     -2.517  0.1297E+01  0.3496E+03
     -2.397  0.4516E+02  0.3551E+03
     -2.277  0.1225E+03  0.3698E+03
     -2.157  0.7045E+02  0.3782E+03
     -2.036  0.8738E+02  0.3887E+03
     -1.916  0.5890E+02  0.3958E+03
     -1.796  0.1228E+03  0.4105E+03
     -1.676  0.9608E+02  0.4221E+03
     -1.556  0.5452E+02  0.4286E+03
     -1.436  0.6977E+02  0.4370E+03
     -1.316  0.1588E+03  0.4561E+03
     -1.196  0.9849E+02  0.4679E+03
     -1.076  0.8701E+02  0.4783E+03
     -0.956  0.7382E+02  0.4872E+03
     -0.836  0.1320E+03  0.5030E+03
     -0.716  0.7604E+02  0.5122E+03
     -0.596  0.4097E+02  0.5171E+03
     -0.476  0.9374E+02  0.5283E+03
     -0.356  0.1882E+03  0.5509E+03
     -0.236  0.1123E+03  0.5644E+03
     -0.116  0.7079E+02  0.5729E+03
      0.005  0.3399E+02  0.5770E+03
      0.125  0.1103E+03  0.5902E+03
      0.245  0.8840E+02  0.6009E+03
      0.365  0.7765E+02  0.6102E+03
      0.485  0.1199E+03  0.6246E+03
      0.605  0.8755E+02  0.6351E+03
      0.725  0.5322E+02  0.6415E+03
      0.845  0.5026E+02  0.6475E+03
      0.965  0.1651E+03  0.6673E+03
      1.085  0.1879E+03  0.6899E+03
      1.205  0.9075E+02  0.7008E+03
      1.325  0.6836E+02  0.7090E+03
      1.445  0.8253E+02  0.7189E+03
      1.565  0.1298E+03  0.7345E+03
      1.685  0.1837E+03  0.7565E+03
      1.805  0.1084E+03  0.7695E+03
      1.926  0.6105E+02  0.7769E+03
      2.046  0.1689E+03  0.7971E+03
      2.166  0.7083E+02  0.8057E+03
      2.286  0.7041E+02  0.8141E+03
      2.406  0.8236E+02  0.8240E+03
      2.526  0.9527E+02  0.8354E+03
      2.646  0.1387E+03  0.8521E+03
      2.766  0.7131E+02  0.8606E+03
      2.886  0.1113E+03  0.8740E+03
      3.006  0.2962E+03  0.9096E+03
      3.126  0.8089E+02  0.9193E+03
      3.246  0.7921E+02  0.9288E+03
      3.366  0.1190E+03  0.9431E+03
      3.486  0.1499E+03  0.9611E+03
      3.606  0.7269E+02  0.9698E+03
      3.726  0.1100E+03  0.9830E+03
      3.846  0.6942E+02  0.9913E+03
      3.967  0.1557E+03  0.1010E+04
      4.087  0.1057E+03  0.1023E+04
      4.207  0.1068E+02  0.1024E+04
      4.327  0.7882E-01  0.1024E+04
      4.447  0.5964E-07  0.1024E+04
      4.567  0.0000E+00  0.1024E+04
      4.687  0.0000E+00  0.1024E+04
      4.807  0.0000E+00  0.1024E+04
      4.927  0.0000E+00  0.1024E+04
      5.047  0.0000E+00  0.1024E+04
      5.167  0.0000E+00  0.1024E+04
      5.287  0.0000E+00  0.1024E+04
      5.407  0.0000E+00  0.1024E+04
      5.527  0.0000E+00  0.1024E+04
      5.647  0.0000E+00  0.1024E+04
      5.767  0.0000E+00  0.1024E+04
