 running on    1 total cores
 distrk:  each k-point on    1 cores,    1 groups
 distr:  one band on    1 cores,    1 groups
 OpenACC runtime initialized ...    1 GPUs detected
 vasp.6.2.1 16May21 (build Jun 16 2021 03:23:30) complex                         
 POSCAR found type information on POSCAR NiO 
 POSCAR found :  2 types and     254 ions
 scaLAPACK will be used selectively (only on CPU)
 LDA part: xc-table for Pade appr. of Perdew
 POSCAR found type information on POSCAR NiO 
 POSCAR found :  2 types and     254 ions
 POSCAR, INCAR and KPOINTS ok, starting setup
 FFT: planning ...
 WAVECAR not read
 entering main loop
       N       E                     dE             d eps       ncg     rms          rms(c)
DAV:   1     0.223097089394E+05    0.22310E+05   -0.98479E+05 12200   0.134E+03
DAV:   2     0.956594017816E+02   -0.22214E+05   -0.21230E+05 12152   0.469E+02
DAV:   3    -0.133379661240E+04   -0.14295E+04   -0.11983E+04 13472   0.131E+02
DAV:   4    -0.156010090636E+04   -0.22630E+03   -0.18869E+03 21040   0.489E+01
DAV:   5    -0.157114783940E+04   -0.11047E+02   -0.10524E+02 18432   0.117E+01    0.142E+02
DAV:   6    -0.193924320318E+04   -0.36810E+03   -0.28196E+03 15784   0.166E+02    0.289E+02
DAV:   7    -0.174574681064E+04    0.19350E+03   -0.10491E+03 13288   0.140E+02    0.232E+02
DAV:   8    -0.183555868792E+04   -0.89812E+02   -0.63376E+02 16344   0.116E+02    0.269E+02
DAV:   9    -0.207116214266E+04   -0.23560E+03   -0.23696E+02 14248   0.112E+02    0.302E+02
DAV:  10    -0.162698554533E+04    0.44418E+03   -0.35725E+02 17152   0.731E+01    0.188E+02
DAV:  11    -0.155337934295E+04    0.73606E+02   -0.29307E+02 15000   0.775E+01    0.166E+02
DAV:  12    -0.163938538561E+04   -0.86006E+02   -0.36775E+02 16200   0.109E+02    0.197E+02
DAV:  13    -0.150048499219E+04    0.13890E+03   -0.24820E+02 14176   0.723E+01    0.164E+02
DAV:  14    -0.139469285918E+04    0.10579E+03   -0.15416E+02 13616   0.738E+01    0.120E+02
DAV:  15    -0.152022942391E+04   -0.12554E+03   -0.12495E+02 14552   0.699E+01    0.175E+02
DAV:  16    -0.147035289259E+04    0.49877E+02   -0.10323E+02 13208   0.586E+01    0.153E+02
DAV:  17    -0.142448404344E+04    0.45869E+02   -0.59090E+01 12832   0.433E+01    0.124E+02
DAV:  18    -0.138757783346E+04    0.36906E+02   -0.39260E+01 13120   0.369E+01    0.115E+02
DAV:  19    -0.137255402130E+04    0.15024E+02   -0.24580E+01 12992   0.264E+01    0.108E+02
DAV:  20    -0.136525836197E+04    0.72957E+01   -0.16492E+01 13176   0.265E+01    0.957E+01
DAV:  21    -0.135199148425E+04    0.13267E+02   -0.13626E+01 13168   0.204E+01    0.785E+01
DAV:  22    -0.134422123604E+04    0.77702E+01   -0.93661E+00 13144   0.165E+01    0.694E+01
DAV:  23    -0.133890541105E+04    0.53158E+01   -0.72429E+00 13208   0.137E+01    0.594E+01
DAV:  24    -0.133418710800E+04    0.47183E+01   -0.46891E+00 13280   0.101E+01    0.490E+01
DAV:  25    -0.133205545411E+04    0.21317E+01   -0.39722E+00 13264   0.104E+01    0.476E+01
DAV:  26    -0.132950176414E+04    0.25537E+01   -0.25960E+00 13280   0.750E+00    0.385E+01
DAV:  27    -0.132963340402E+04   -0.13164E+00   -0.23810E+00 13344   0.779E+00    0.393E+01
DAV:  28    -0.132871058841E+04    0.92282E+00   -0.16473E+00 13296   0.672E+00    0.382E+01
DAV:  29    -0.132807310578E+04    0.63748E+00   -0.16086E+00 13392   0.699E+00    0.364E+01
DAV:  30    -0.132865556564E+04   -0.58246E+00   -0.18054E+00 13400   0.752E+00    0.316E+01
DAV:  31    -0.132801127991E+04    0.64429E+00   -0.13122E+00 13400   0.616E+00    0.300E+01
DAV:  32    -0.132699796170E+04    0.10133E+01   -0.11076E+00 13464   0.533E+00    0.295E+01
DAV:  33    -0.132773948780E+04   -0.74153E+00   -0.11532E+00 13440   0.640E+00    0.352E+01
DAV:  34    -0.132716024325E+04    0.57924E+00   -0.12460E+00 13504   0.653E+00    0.307E+01
DAV:  35    -0.132651684245E+04    0.64340E+00   -0.96308E-01 13424   0.542E+00    0.277E+01
DAV:  36    -0.132647224583E+04    0.44597E-01   -0.70595E-01 13456   0.465E+00    0.312E+01
DAV:  37    -0.132632782900E+04    0.14442E+00   -0.60968E-01 13552   0.418E+00    0.326E+01
DAV:  38    -0.132562673033E+04    0.70110E+00   -0.51264E-01 13512   0.359E+00    0.274E+01
DAV:  39    -0.132512106882E+04    0.50566E+00   -0.41666E-01 13576   0.298E+00    0.221E+01
DAV:  40    -0.132512397540E+04   -0.29066E-02   -0.50053E-01 13592   0.365E+00    0.215E+01
DAV:  41    -0.132605923101E+04   -0.93526E+00   -0.59949E-01 13656   0.440E+00    0.302E+01
DAV:  42    -0.132605201965E+04    0.72114E-02   -0.45073E-01 13472   0.379E+00    0.314E+01
DAV:  43    -0.132556450004E+04    0.48752E+00   -0.30091E-01 13456   0.267E+00    0.284E+01
DAV:  44    -0.132512389930E+04    0.44060E+00   -0.17709E-01 13440   0.207E+00    0.248E+01
DAV:  45    -0.132474991182E+04    0.37399E+00   -0.24199E-01 13552   0.219E+00    0.203E+01
DAV:  46    -0.132447310276E+04    0.27681E+00   -0.21016E-01 13488   0.236E+00    0.137E+01
DAV:  47    -0.132443618016E+04    0.36923E-01   -0.24144E-01 13640   0.228E+00    0.152E+01
DAV:  48    -0.132428621086E+04    0.14997E+00   -0.15792E-01 13472   0.192E+00    0.134E+01
DAV:  49    -0.132419031258E+04    0.95898E-01   -0.24147E-01 13544   0.143E+00    0.106E+01
DAV:  50    -0.132418831931E+04    0.19933E-02   -0.73688E-02 13472   0.125E+00    0.726E+00
DAV:  51    -0.132438244637E+04   -0.19413E+00   -0.30663E-01 22120   0.192E+00    0.128E+01
DAV:  52    -0.132416974310E+04    0.21270E+00   -0.83742E-02 15344   0.140E+00    0.114E+01
DAV:  53    -0.132406615416E+04    0.10359E+00   -0.68427E-02 14504   0.112E+00    0.928E+00
DAV:  54    -0.132405506544E+04    0.11089E-01   -0.55787E-02 14217   0.970E-01    0.556E+00
DAV:  55    -0.132416413243E+04   -0.10907E+00   -0.42933E-02 14216   0.125E+00    0.711E+00
DAV:  56    -0.132411132522E+04    0.52807E-01   -0.71064E-02 14152   0.146E+00    0.445E+00
DAV:  57    -0.132413460145E+04   -0.23276E-01   -0.39515E-02 14064   0.120E+00    0.405E+00
DAV:  58    -0.132412101095E+04    0.13591E-01   -0.26563E-02 13904   0.101E+00    0.262E+00
DAV:  59    -0.132411477060E+04    0.62403E-02   -0.13286E-02 13600   0.703E-01    0.161E+00
DAV:  60    -0.132411915562E+04   -0.43850E-02   -0.96006E-03 13864   0.533E-01    0.220E+00
DAV:  61    -0.132412229290E+04   -0.31373E-02   -0.12605E-02 13648   0.618E-01    0.244E+00
DAV:  62    -0.132411198532E+04    0.10308E-01   -0.85767E-03 13520   0.514E-01    0.215E+00
DAV:  63    -0.132410328717E+04    0.86982E-02   -0.30257E-03 13504   0.289E-01    0.176E+00
DAV:  64    -0.132410363149E+04   -0.34432E-03   -0.64330E-03 13472   0.247E-01    0.847E-01
DAV:  65    -0.132411504460E+04   -0.11413E-01   -0.30905E-03 13152   0.240E-01    0.145E+00
DAV:  66    -0.132412673364E+04   -0.11689E-01   -0.70726E-03 15176   0.486E-01    0.264E+00
DAV:  67    -0.132411824621E+04    0.84874E-02   -0.62578E-03 14008   0.427E-01    0.156E+00
DAV:  68    -0.132411214477E+04    0.61014E-02   -0.18123E-03 13704   0.169E-01    0.949E-01
DAV:  69    -0.132411581763E+04   -0.36729E-02   -0.11069E-03 13442   0.157E-01    0.446E-01
DAV:  70    -0.132411983626E+04   -0.40186E-02   -0.66565E-04 13280   0.132E-01    0.429E-01
DAV:  71    -0.132412137122E+04   -0.15350E-02   -0.10786E-03 14328   0.186E-01    0.886E-01
DAV:  72    -0.132412089057E+04    0.48065E-03   -0.98341E-04 13736   0.179E-01    0.455E-01
DAV:  73    -0.132412219058E+04   -0.13000E-02   -0.37566E-04 14210   0.101E-01    0.296E-01
DAV:  74    -0.132412281837E+04   -0.62779E-03   -0.20851E-04 14240   0.767E-02    0.269E-01
DAV:  75    -0.132412386500E+04   -0.10466E-02   -0.19073E-04 13803   0.706E-02    0.249E-01
DAV:  76    -0.132412329626E+04    0.56874E-03   -0.44512E-04 13998   0.126E-01    0.753E-01
DAV:  77    -0.132412460662E+04   -0.13104E-02   -0.45838E-04 14207   0.120E-01    0.355E-01
DAV:  78    -0.132412533940E+04   -0.73278E-03   -0.14853E-04 15105   0.669E-02    0.232E-01
DAV:  79    -0.132412605975E+04   -0.72035E-03   -0.10565E-04 14516   0.534E-02    0.196E-01
DAV:  80    -0.132412728993E+04   -0.12302E-02   -0.26617E-04 14064   0.538E-02    0.430E-01
DAV:  81    -0.132412566851E+04    0.16214E-02   -0.31590E-04 13976   0.673E-02    0.294E-01
DAV:  82    -0.132412690674E+04   -0.12382E-02   -0.13653E-04 13928   0.634E-02    0.180E-01
DAV:  83    -0.132412802349E+04   -0.11167E-02   -0.10516E-04 14768   0.471E-02    0.195E-01
DAV:  84    -0.132412875162E+04   -0.72813E-03   -0.87052E-05 14537   0.432E-02    0.109E-01
DAV:  85    -0.132412898258E+04   -0.23096E-03   -0.41009E-05 12450   0.306E-02    0.105E-01
DAV:  86    -0.132412942012E+04   -0.43754E-03   -0.11145E-04 14922   0.612E-02    0.365E-01
DAV:  87    -0.132412933599E+04    0.84132E-04   -0.10045E-04 13897   0.625E-02    0.101E-01
DAV:  88    -0.132412972223E+04   -0.38625E-03   -0.39284E-05 12024   0.296E-02    0.116E-01
DAV:  89    -0.132413001232E+04   -0.29009E-03   -0.29024E-05 11465   0.255E-02    0.994E-02
DAV:  90    -0.132413031309E+04   -0.30077E-03   -0.33910E-05 11836   0.245E-02    0.107E-01
DAV:  91    -0.132413031345E+04   -0.35507E-06   -0.29983E-05 10904   0.309E-02
   1 F= -.14212937E+04 E0= -.14205197E+04  d E =-.154799E+01
