 254 254   0   0
  0.2268316E+02  0.1514622E-08  0.1514622E-08  0.2900000E-08  0.5000000E-15
   1.0000000000000000E-004
  CAR 
 NiAl                                    
      6.10568242    -26.84204153  301     -0.59044229      1.00000000
    -26.842  0.0000E+00  0.0000E+00
    -26.732  0.0000E+00  0.0000E+00
    -26.622  0.0000E+00  0.0000E+00
    -26.513  0.0000E+00  0.0000E+00
    -26.403  0.0000E+00  0.0000E+00
    -26.293  0.0000E+00  0.0000E+00
    -26.183  0.0000E+00  0.0000E+00
    -26.073  0.0000E+00  0.0000E+00
    -25.963  0.0000E+00  0.0000E+00
    -25.854  0.0000E+00  0.0000E+00
    -25.744  0.0000E+00  0.0000E+00
    -25.634  0.2022E-14  0.2220E-15
    -25.524  0.3270E-05  0.3591E-06
    -25.414  0.4312E+00  0.4735E-01
    -25.304  0.1540E+02  0.1739E+01
    -25.195  0.2380E+01  0.2000E+01
    -25.085  0.2133E-03  0.2000E+01
    -24.975  0.2007E-11  0.2000E+01
    -24.865  0.0000E+00  0.2000E+01
    -24.755  0.0000E+00  0.2000E+01
    -24.646  0.0000E+00  0.2000E+01
    -24.536  0.0000E+00  0.2000E+01
    -24.426  0.0000E+00  0.2000E+01
    -24.316  0.0000E+00  0.2000E+01
    -24.206  0.0000E+00  0.2000E+01
    -24.096  0.0000E+00  0.2000E+01
    -23.987  0.0000E+00  0.2000E+01
    -23.877  0.0000E+00  0.2000E+01
    -23.767  0.0000E+00  0.2000E+01
    -23.657  0.0000E+00  0.2000E+01
    -23.547  0.0000E+00  0.2000E+01
    -23.437  0.0000E+00  0.2000E+01
    -23.328  0.0000E+00  0.2000E+01
    -23.218  0.0000E+00  0.2000E+01
    -23.108  0.0000E+00  0.2000E+01
    -22.998  0.0000E+00  0.2000E+01
    -22.888  0.0000E+00  0.2000E+01
    -22.778  0.0000E+00  0.2000E+01
    -22.669  0.0000E+00  0.2000E+01
    -22.559  0.0000E+00  0.2000E+01
    -22.449  0.0000E+00  0.2000E+01
    -22.339  0.0000E+00  0.2000E+01
    -22.229  0.0000E+00  0.2000E+01
    -22.120  0.0000E+00  0.2000E+01
    -22.010  0.0000E+00  0.2000E+01
    -21.900  0.0000E+00  0.2000E+01
    -21.790  0.0000E+00  0.2000E+01
    -21.680  0.0000E+00  0.2000E+01
    -21.570  0.0000E+00  0.2000E+01
    -21.461  0.0000E+00  0.2000E+01
    -21.351  0.0000E+00  0.2000E+01
    -21.241  0.0000E+00  0.2000E+01
    -21.131  0.0000E+00  0.2000E+01
    -21.021  0.0000E+00  0.2000E+01
    -20.911  0.0000E+00  0.2000E+01
    -20.802  0.0000E+00  0.2000E+01
    -20.692  0.0000E+00  0.2000E+01
    -20.582  0.0000E+00  0.2000E+01
    -20.472  0.0000E+00  0.2000E+01
    -20.362  0.0000E+00  0.2000E+01
    -20.252  0.0000E+00  0.2000E+01
    -20.143  0.0000E+00  0.2000E+01
    -20.033  0.0000E+00  0.2000E+01
    -19.923  0.0000E+00  0.2000E+01
    -19.813  0.0000E+00  0.2000E+01
    -19.703  0.0000E+00  0.2000E+01
    -19.594  0.0000E+00  0.2000E+01
    -19.484  0.0000E+00  0.2000E+01
    -19.374  0.0000E+00  0.2000E+01
    -19.264  0.0000E+00  0.2000E+01
    -19.154  0.0000E+00  0.2000E+01
    -19.044  0.0000E+00  0.2000E+01
    -18.935  0.0000E+00  0.2000E+01
    -18.825  0.0000E+00  0.2000E+01
    -18.715  0.0000E+00  0.2000E+01
    -18.605  0.0000E+00  0.2000E+01
    -18.495  0.0000E+00  0.2000E+01
    -18.385  0.0000E+00  0.2000E+01
    -18.276  0.0000E+00  0.2000E+01
    -18.166  0.0000E+00  0.2000E+01
    -18.056  0.0000E+00  0.2000E+01
    -17.946  0.0000E+00  0.2000E+01
    -17.836  0.0000E+00  0.2000E+01
    -17.727  0.0000E+00  0.2000E+01
    -17.617  0.0000E+00  0.2000E+01
    -17.507  0.0000E+00  0.2000E+01
    -17.397  0.0000E+00  0.2000E+01
    -17.287  0.0000E+00  0.2000E+01
    -17.177  0.0000E+00  0.2000E+01
    -17.068  0.0000E+00  0.2000E+01
    -16.958  0.0000E+00  0.2000E+01
    -16.848  0.0000E+00  0.2000E+01
    -16.738  0.0000E+00  0.2000E+01
    -16.628  0.0000E+00  0.2000E+01
    -16.518  0.0000E+00  0.2000E+01
    -16.409  0.0000E+00  0.2000E+01
    -16.299  0.0000E+00  0.2000E+01
    -16.189  0.0000E+00  0.2000E+01
    -16.079  0.0000E+00  0.2000E+01
    -15.969  0.0000E+00  0.2000E+01
    -15.859  0.0000E+00  0.2000E+01
    -15.750  0.0000E+00  0.2000E+01
    -15.640  0.0000E+00  0.2000E+01
    -15.530  0.0000E+00  0.2000E+01
    -15.420  0.0000E+00  0.2000E+01
    -15.310  0.0000E+00  0.2000E+01
    -15.201  0.0000E+00  0.2000E+01
    -15.091  0.0000E+00  0.2000E+01
    -14.981  0.0000E+00  0.2000E+01
    -14.871  0.7739E-07  0.2000E+01
    -14.761  0.7288E-01  0.2008E+01
    -14.651  0.1222E+02  0.3350E+01
    -14.542  0.5911E+01  0.4000E+01
    -14.432  0.3367E-02  0.4000E+01
    -14.322  0.2376E-09  0.4000E+01
    -14.212  0.0000E+00  0.4000E+01
    -14.102  0.0000E+00  0.4000E+01
    -13.992  0.0000E+00  0.4000E+01
    -13.883  0.0000E+00  0.4000E+01
    -13.773  0.0000E+00  0.4000E+01
    -13.663  0.0000E+00  0.4000E+01
    -13.553  0.0000E+00  0.4000E+01
    -13.443  0.0000E+00  0.4000E+01
    -13.333  0.0000E+00  0.4000E+01
    -13.224  0.0000E+00  0.4000E+01
    -13.114  0.0000E+00  0.4000E+01
    -13.004  0.0000E+00  0.4000E+01
    -12.894  0.0000E+00  0.4000E+01
    -12.784  0.0000E+00  0.4000E+01
    -12.675  0.0000E+00  0.4000E+01
    -12.565  0.0000E+00  0.4000E+01
    -12.455  0.0000E+00  0.4000E+01
    -12.345  0.0000E+00  0.4000E+01
    -12.235  0.0000E+00  0.4000E+01
    -12.125  0.0000E+00  0.4000E+01
    -12.016  0.0000E+00  0.4000E+01
    -11.906  0.0000E+00  0.4000E+01
    -11.796  0.0000E+00  0.4000E+01
    -11.686  0.0000E+00  0.4000E+01
    -11.576  0.0000E+00  0.4000E+01
    -11.466  0.0000E+00  0.4000E+01
    -11.357  0.0000E+00  0.4000E+01
    -11.247  0.0000E+00  0.4000E+01
    -11.137  0.0000E+00  0.4000E+01
    -11.027  0.0000E+00  0.4000E+01
    -10.917  0.0000E+00  0.4000E+01
    -10.807  0.0000E+00  0.4000E+01
    -10.698  0.0000E+00  0.4000E+01
    -10.588  0.0000E+00  0.4000E+01
    -10.478  0.0000E+00  0.4000E+01
    -10.368  0.0000E+00  0.4000E+01
    -10.258  0.0000E+00  0.4000E+01
    -10.149  0.0000E+00  0.4000E+01
    -10.039  0.0000E+00  0.4000E+01
     -9.929  0.0000E+00  0.4000E+01
     -9.819  0.0000E+00  0.4000E+01
     -9.709  0.0000E+00  0.4000E+01
     -9.599  0.0000E+00  0.4000E+01
     -9.490  0.0000E+00  0.4000E+01
     -9.380  0.1763E-09  0.4000E+01
     -9.270  0.1539E-02  0.4000E+01
     -9.160  0.1750E+01  0.4192E+01
     -9.050  0.2792E+01  0.4499E+01
     -8.940  0.7157E+01  0.5285E+01
     -8.831  0.1998E+02  0.7480E+01
     -8.721  0.1955E+00  0.7501E+01
     -8.611  0.2734E+01  0.7801E+01
     -8.501  0.5753E+01  0.8433E+01
     -8.391  0.3706E+02  0.1250E+02
     -8.281  0.1721E+02  0.1439E+02
     -8.172  0.2310E+02  0.1693E+02
     -8.062  0.6606E+00  0.1700E+02
     -7.952  0.1313E+02  0.1844E+02
     -7.842  0.1451E+02  0.2004E+02
     -7.732  0.1873E+02  0.2210E+02
     -7.623  0.2776E+02  0.2514E+02
     -7.513  0.6527E+02  0.3231E+02
     -7.403  0.1720E+01  0.3250E+02
     -7.293  0.8704E+01  0.3346E+02
     -7.183  0.3296E+02  0.3708E+02
     -7.073  0.7906E+02  0.4576E+02
     -6.964  0.1563E+02  0.4748E+02
     -6.854  0.1835E+02  0.4949E+02
     -6.744  0.1508E+02  0.5115E+02
     -6.634  0.2200E+02  0.5356E+02
     -6.524  0.4389E+02  0.5838E+02
     -6.414  0.6776E+02  0.6583E+02
     -6.305  0.8198E+02  0.7483E+02
     -6.195  0.1461E+02  0.7644E+02
     -6.085  0.4881E+02  0.8180E+02
     -5.975  0.9787E+02  0.9254E+02
     -5.865  0.3140E+02  0.9599E+02
     -5.755  0.1401E+01  0.9615E+02
     -5.646  0.1397E+02  0.9768E+02
     -5.536  0.5140E+02  0.1033E+03
     -5.426  0.1480E+03  0.1196E+03
     -5.316  0.5151E+02  0.1252E+03
     -5.206  0.7245E+02  0.1332E+03
     -5.097  0.1102E+03  0.1453E+03
     -4.987  0.1004E+03  0.1563E+03
     -4.877  0.3557E+02  0.1602E+03
     -4.767  0.2050E+03  0.1828E+03
     -4.657  0.1829E+03  0.2028E+03
     -4.547  0.2216E+03  0.2272E+03
     -4.438  0.2351E+03  0.2530E+03
     -4.328  0.3006E+03  0.2860E+03
     -4.218  0.2363E+03  0.3120E+03
     -4.108  0.2163E+03  0.3357E+03
     -3.998  0.3811E+03  0.3776E+03
     -3.888  0.4331E+03  0.4251E+03
     -3.779  0.5073E+03  0.4808E+03
     -3.669  0.4030E+03  0.5251E+03
     -3.559  0.4781E+03  0.5776E+03
     -3.449  0.3680E+03  0.6180E+03
     -3.339  0.3341E+03  0.6547E+03
     -3.230  0.4112E+03  0.6999E+03
     -3.120  0.5232E+03  0.7573E+03
     -3.010  0.3703E+03  0.7980E+03
     -2.900  0.5215E+03  0.8553E+03
     -2.790  0.5584E+03  0.9166E+03
     -2.680  0.5068E+03  0.9723E+03
     -2.571  0.5354E+03  0.1031E+04
     -2.461  0.6727E+03  0.1105E+04
     -2.351  0.7267E+03  0.1185E+04
     -2.241  0.9200E+03  0.1286E+04
     -2.131  0.7794E+03  0.1371E+04
     -2.021  0.9284E+03  0.1473E+04
     -1.912  0.7667E+03  0.1558E+04
     -1.802  0.5697E+03  0.1620E+04
     -1.692  0.5745E+03  0.1683E+04
     -1.582  0.5313E+03  0.1742E+04
     -1.472  0.6394E+03  0.1812E+04
     -1.362  0.8266E+03  0.1903E+04
     -1.253  0.6014E+03  0.1969E+04
     -1.143  0.6023E+03  0.2035E+04
     -1.033  0.7600E+03  0.2118E+04
     -0.923  0.8824E+03  0.2215E+04
     -0.813  0.6370E+03  0.2285E+04
     -0.704  0.9213E+03  0.2386E+04
     -0.594  0.1290E+04  0.2528E+04
     -0.484  0.9038E+03  0.2627E+04
     -0.374  0.3163E+03  0.2662E+04
     -0.264  0.1338E+03  0.2677E+04
     -0.154  0.1381E+03  0.2692E+04
     -0.045  0.1721E+03  0.2711E+04
      0.065  0.8114E+02  0.2720E+04
      0.175  0.5677E+02  0.2726E+04
      0.285  0.2552E+02  0.2729E+04
      0.395  0.1155E+03  0.2741E+04
      0.505  0.8404E+02  0.2751E+04
      0.614  0.1035E+03  0.2762E+04
      0.724  0.6771E+02  0.2769E+04
      0.834  0.1163E+03  0.2782E+04
      0.944  0.1453E+03  0.2798E+04
      1.054  0.3654E+02  0.2802E+04
      1.164  0.3010E+02  0.2805E+04
      1.273  0.1311E+03  0.2820E+04
      1.383  0.3556E+02  0.2824E+04
      1.493  0.4800E+02  0.2829E+04
      1.603  0.1116E+03  0.2841E+04
      1.713  0.8387E+02  0.2850E+04
      1.822  0.7796E+02  0.2859E+04
      1.932  0.1058E+03  0.2871E+04
      2.042  0.3719E+02  0.2875E+04
      2.152  0.7466E+02  0.2883E+04
      2.262  0.1280E+03  0.2897E+04
      2.372  0.7608E+02  0.2905E+04
      2.481  0.3227E+02  0.2909E+04
      2.591  0.6080E+02  0.2916E+04
      2.701  0.1787E+02  0.2918E+04
      2.811  0.2806E+02  0.2921E+04
      2.921  0.7047E+02  0.2928E+04
      3.031  0.2098E+03  0.2951E+04
      3.140  0.1213E+03  0.2965E+04
      3.250  0.1943E+02  0.2967E+04
      3.360  0.2413E+02  0.2970E+04
      3.470  0.1195E+03  0.2983E+04
      3.580  0.1250E+02  0.2984E+04
      3.690  0.8952E+02  0.2994E+04
      3.799  0.1536E+02  0.2996E+04
      3.909  0.2213E+02  0.2998E+04
      4.019  0.7180E+01  0.2999E+04
      4.129  0.6323E+02  0.3006E+04
      4.239  0.2504E+02  0.3008E+04
      4.348  0.6306E+02  0.3015E+04
      4.458  0.8436E+02  0.3025E+04
      4.568  0.6375E+02  0.3032E+04
      4.678  0.5735E+02  0.3038E+04
      4.788  0.4683E+00  0.3038E+04
      4.898  0.2509E-05  0.3038E+04
      5.007  0.1516E-14  0.3038E+04
      5.117  0.0000E+00  0.3038E+04
      5.227  0.0000E+00  0.3038E+04
      5.337  0.0000E+00  0.3038E+04
      5.447  0.0000E+00  0.3038E+04
      5.557  0.0000E+00  0.3038E+04
      5.666  0.0000E+00  0.3038E+04
      5.776  0.0000E+00  0.3038E+04
      5.886  0.0000E+00  0.3038E+04
      5.996  0.0000E+00  0.3038E+04
      6.106  0.0000E+00  0.3038E+04
