  254  254    1    1
  0.2268316E+02  0.1514622E-08  0.1514622E-08  0.2900000E-08  0.5000000E-15
   1.0000000000000000E-004
  CAR 
 NiAl                                    
   2532      4   1519
 
  0.1262379E-14  0.1262379E-14  0.1262379E-14  0.2500000E+00
    1      -25.344418   1.000000
    2      -14.667506   1.000000
    3       -9.149744   1.000000
    4       -8.620162   1.000000
    5       -8.241986   1.000000
    6       -8.241977   1.000000
    7       -8.241974   1.000000
    8       -8.241967   1.000000
    9       -8.241966   1.000000
   10       -8.241949   1.000000
   11       -7.791247   1.000000
   12       -7.735912   1.000000
   13       -7.735903   1.000000
   14       -7.735898   1.000000
   15       -7.735870   1.000000
   16       -7.735866   1.000000
   17       -7.735824   1.000000
   18       -7.292292   1.000000
   19       -6.947668   1.000000
   20       -6.947639   1.000000
   21       -6.947632   1.000000
   22       -6.947557   1.000000
   23       -6.947546   1.000000
   24       -6.947452   1.000000
   25       -6.760928   1.000000
   26       -6.601550   1.000000
   27       -6.601547   1.000000
   28       -6.601543   1.000000
   29       -6.601539   1.000000
   30       -6.601519   1.000000
   31       -6.601513   1.000000
   32       -6.408328   1.000000
   33       -6.407799   1.000000
   34       -6.178846   1.000000
   35       -6.178844   1.000000
   36       -6.178834   1.000000
   37       -6.178831   1.000000
   38       -6.178813   1.000000
   39       -6.178809   1.000000
   40       -5.975825   1.000000
   41       -5.975786   1.000000
   42       -5.975774   1.000000
   43       -5.975644   1.000000
   44       -5.975627   1.000000
   45       -5.975416   1.000000
   46       -5.970919   1.000000
   47       -5.970908   1.000000
   48       -5.970904   1.000000
   49       -5.970898   1.000000
   50       -5.970894   1.000000
   51       -5.970890   1.000000
   52       -5.736123   1.000000
   53       -5.635850   1.000000
   54       -5.635844   1.000000
   55       -5.635837   1.000000
   56       -5.635834   1.000000
   57       -5.635831   1.000000
   58       -5.635822   1.000000
   59       -5.545725   1.000000
   60       -5.545722   1.000000
   61       -5.545712   1.000000
   62       -5.545703   1.000000
   63       -5.545691   1.000000
   64       -5.545686   1.000000
   65       -5.178449   1.000000
   66       -5.178444   1.000000
   67       -5.178434   1.000000
   68       -5.178432   1.000000
   69       -5.178414   1.000000
   70       -5.178399   1.000000
   71       -5.080774   1.000000
   72       -5.025046   1.000000
   73       -5.025011   1.000000
   74       -5.024992   1.000000
   75       -5.024834   1.000000
   76       -5.024815   1.000000
   77       -5.024608   1.000000
   78       -4.890767   1.000000
   79       -4.833108   1.000000
   80       -4.833108   1.000000
   81       -4.833048   1.000000
   82       -4.814560   1.000000
   83       -4.814554   1.000000
   84       -4.814548   1.000000
   85       -4.814529   1.000000
   86       -4.814524   1.000000
   87       -4.814513   1.000000
   88       -4.710625   1.000000
   89       -4.710620   1.000000
   90       -4.710618   1.000000
   91       -4.710614   1.000000
   92       -4.710554   1.000000
   93       -4.710547   1.000000
   94       -4.677019   1.000000
   95       -4.677019   1.000000
   96       -4.676922   1.000000
   97       -4.600900   1.000000
   98       -4.600896   1.000000
   99       -4.600895   1.000000
  100       -4.600890   1.000000
  101       -4.600852   1.000000
  102       -4.600848   1.000000
  103       -4.600845   1.000000
  104       -4.600842   1.000000
  105       -4.600832   1.000000
  106       -4.600831   1.000000
  107       -4.600828   1.000000
  108       -4.600827   1.000000
  109       -4.555034   1.000000
  110       -4.555033   1.000000
  111       -4.554966   1.000000
  112       -4.468623   1.000000
  113       -4.468622   1.000000
  114       -4.468522   1.000000
  115       -4.446926   1.000000
  116       -4.446909   1.000000
  117       -4.446881   1.000000
  118       -4.446792   1.000000
  119       -4.446769   1.000000
  120       -4.446629   1.000000
  121       -4.402408   1.000000
  122       -4.402398   1.000000
  123       -4.402397   1.000000
  124       -4.402392   1.000000
  125       -4.402372   1.000000
  126       -4.402365   1.000000
  127       -4.402362   1.000000
  128       -4.402358   1.000000
  129       -4.402332   1.000000
  130       -4.402330   1.000000
  131       -4.402323   1.000000
  132       -4.402321   1.000000
  133       -4.367911   1.000000
  134       -4.367907   1.000000
  135       -4.367904   1.000000
  136       -4.367902   1.000000
  137       -4.367884   1.000000
  138       -4.367880   1.000000
  139       -4.367877   1.000000
  140       -4.367871   1.000000
  141       -4.367854   1.000000
  142       -4.367852   1.000000
  143       -4.367851   1.000000
  144       -4.367842   1.000000
  145       -4.323079   1.000000
  146       -4.323076   1.000000
  147       -4.323054   1.000000
  148       -4.323028   1.000000
  149       -4.323004   1.000000
  150       -4.322963   1.000000
  151       -4.286787   1.000000
  152       -4.286781   1.000000
  153       -4.286770   1.000000
  154       -4.286768   1.000000
  155       -4.286671   1.000000
  156       -4.286663   1.000000
  157       -4.266927   1.000000
  158       -4.266926   1.000000
  159       -4.266823   1.000000
  160       -4.229874   1.000000
  161       -4.229871   1.000000
  162       -4.229869   1.000000
  163       -4.229867   1.000000
  164       -4.229859   1.000000
  165       -4.229855   1.000000
  166       -4.229853   1.000000
  167       -4.229849   1.000000
  168       -4.229822   1.000000
  169       -4.229814   1.000000
  170       -4.229811   1.000000
  171       -4.229805   1.000000
  172       -4.159839   1.000000
  173       -4.159835   1.000000
  174       -4.159824   1.000000
  175       -4.159809   1.000000
  176       -4.159800   1.000000
  177       -4.159792   1.000000
  178       -4.120662   1.000000
  179       -4.120662   1.000000
  180       -4.120492   1.000000
  181       -4.052392   1.000000
  182       -4.052391   1.000000
  183       -4.052279   1.000000
  184       -4.029933   1.000000
  185       -4.029929   1.000000
  186       -4.029923   1.000000
  187       -4.029920   1.000000
  188       -4.029917   1.000000
  189       -4.029914   1.000000
  190       -4.029911   1.000000
  191       -4.029908   1.000000
  192       -4.029867   1.000000
  193       -4.029864   1.000000
  194       -4.029860   1.000000
  195       -4.029858   1.000000
  196       -3.966908   1.000000
  197       -3.966907   1.000000
  198       -3.966769   1.000000
  199       -3.912482   1.000000
  200       -3.912482   1.000000
  201       -3.912333   1.000000
  202       -3.910062   1.000000
  203       -3.910057   1.000000
  204       -3.910054   1.000000
  205       -3.910051   1.000000
  206       -3.909911   1.000000
  207       -3.909905   1.000000
  208       -3.840694   1.000000
  209       -3.840693   1.000000
  210       -3.840686   1.000000
  211       -3.840681   1.000000
  212       -3.840677   1.000000
  213       -3.840674   1.000000
  214       -3.840672   1.000000
  215       -3.840671   1.000000
  216       -3.840500   1.000000
  217       -3.840497   1.000000
  218       -3.840490   1.000000
  219       -3.840487   1.000000
  220       -3.834550   1.000000
  221       -3.834544   1.000000
  222       -3.834536   1.000000
  223       -3.834531   1.000000
  224       -3.834401   1.000000
  225       -3.834393   1.000000
  226       -3.781538   1.000000
  227       -3.781536   1.000000
  228       -3.781522   1.000000
  229       -3.781519   1.000000
  230       -3.781501   1.000000
  231       -3.781497   1.000000
  232       -3.781493   1.000000
  233       -3.781490   1.000000
  234       -3.781465   1.000000
  235       -3.781457   1.000000
  236       -3.781447   1.000000
  237       -3.781441   1.000000
  238       -3.758550   1.000000
  239       -3.758544   1.000000
  240       -3.758499   1.000000
  241       -3.758494   1.000000
  242       -3.758485   1.000000
  243       -3.758483   1.000000
  244       -3.719130   1.000000
  245       -3.719115   1.000000
  246       -3.719111   1.000000
  247       -3.719105   1.000000
  248       -3.719015   1.000000
  249       -3.719000   1.000000
  250       -3.715269   1.000000
  251       -3.715264   1.000000
  252       -3.715206   1.000000
  253       -3.715200   1.000000
  254       -3.707006   1.000000
  255       -3.707000   1.000000
  256       -3.652491   1.000000
  257       -3.652486   1.000000
  258       -3.652473   1.000000
  259       -3.652471   1.000000
  260       -3.652468   1.000000
  261       -3.652463   1.000000
  262       -3.652461   1.000000
  263       -3.652459   1.000000
  264       -3.652315   1.000000
  265       -3.652311   1.000000
  266       -3.652302   1.000000
  267       -3.652293   1.000000
  268       -3.643746   1.000000
  269       -3.643745   1.000000
  270       -3.643642   1.000000
  271       -3.619273   1.000000
  272       -3.619272   1.000000
  273       -3.619239   1.000000
  274       -3.619237   1.000000
  275       -3.597025   1.000000
  276       -3.597022   1.000000
  277       -3.597014   1.000000
  278       -3.597009   1.000000
  279       -3.596836   1.000000
  280       -3.596825   1.000000
  281       -3.585601   1.000000
  282       -3.585599   1.000000
  283       -3.575338   1.000000
  284       -3.575331   1.000000
  285       -3.575260   1.000000
  286       -3.575255   1.000000
  287       -3.573468   1.000000
  288       -3.573466   1.000000
  289       -3.570252   1.000000
  290       -3.570250   1.000000
  291       -3.570226   1.000000
  292       -3.570222   1.000000
  293       -3.570215   1.000000
  294       -3.570211   1.000000
  295       -3.501548   1.000000
  296       -3.501540   1.000000
  297       -3.501467   1.000000
  298       -3.501467   1.000000
  299       -3.494075   1.000000
  300       -3.494067   1.000000
  301       -3.494054   1.000000
  302       -3.494047   1.000000
  303       -3.493985   1.000000
  304       -3.493981   1.000000
  305       -3.493972   1.000000
  306       -3.493966   1.000000
  307       -3.493944   1.000000
  308       -3.493939   1.000000
  309       -3.493928   1.000000
  310       -3.493917   1.000000
  311       -3.422488   1.000000
  312       -3.422484   1.000000
  313       -3.422425   1.000000
  314       -3.422423   1.000000
  315       -3.422418   1.000000
  316       -3.422416   1.000000
  317       -3.386330   1.000000
  318       -3.386325   1.000000
  319       -3.386308   1.000000
  320       -3.386303   1.000000
  321       -3.386294   1.000000
  322       -3.386292   1.000000
  323       -3.386283   1.000000
  324       -3.386279   1.000000
  325       -3.386176   1.000000
  326       -3.386167   1.000000
  327       -3.386163   1.000000
  328       -3.386154   1.000000
  329       -3.375758   1.000000
  330       -3.375754   1.000000
  331       -3.375689   1.000000
  332       -3.375684   1.000000
  333       -3.375683   1.000000
  334       -3.375682   1.000000
  335       -3.368531   1.000000
  336       -3.368527   1.000000
  337       -3.368505   1.000000
  338       -3.368501   1.000000
  339       -3.368399   1.000000
  340       -3.368382   1.000000
  341       -3.280638   1.000000
  342       -3.280637   1.000000
  343       -3.280609   1.000000
  344       -3.240759   1.000000
  345       -3.240750   1.000000
  346       -3.240684   1.000000
  347       -3.240682   1.000000
  348       -3.240676   1.000000
  349       -3.240671   1.000000
  350       -3.229275   1.000000
  351       -3.229271   1.000000
  352       -3.206340   1.000000
  353       -3.206333   1.000000
  354       -3.206310   1.000000
  355       -3.206302   1.000000
  356       -3.206273   1.000000
  357       -3.206267   1.000000
  358       -3.206260   1.000000
  359       -3.206258   1.000000
  360       -3.206235   1.000000
  361       -3.206225   1.000000
  362       -3.206213   1.000000
  363       -3.206208   1.000000
  364       -3.196925   1.000000
  365       -3.196921   1.000000
  366       -3.135231   1.000000
  367       -3.135227   1.000000
  368       -3.135206   1.000000
  369       -3.135199   1.000000
  370       -3.135166   1.000000
  371       -3.135145   1.000000
  372       -3.109812   1.000000
  373       -3.109808   1.000000
  374       -3.109722   1.000000
  375       -3.109720   1.000000
  376       -3.109715   1.000000
  377       -3.109713   1.000000
  378       -3.109338   1.000000
  379       -3.109333   1.000000
  380       -3.109319   1.000000
  381       -3.109313   1.000000
  382       -3.109231   1.000000
  383       -3.109216   1.000000
  384       -3.057741   1.000000
  385       -3.057739   1.000000
  386       -3.057710   1.000000
  387       -3.057706   1.000000
  388       -3.057703   1.000000
  389       -3.057699   1.000000
  390       -3.057689   1.000000
  391       -3.057685   1.000000
  392       -3.057665   1.000000
  393       -3.057660   1.000000
  394       -3.057648   1.000000
  395       -3.057644   1.000000
  396       -3.002519   1.000000
  397       -3.002514   1.000000
  398       -3.002418   1.000000
  399       -3.002415   1.000000
  400       -3.002413   1.000000
  401       -3.002411   1.000000
  402       -2.943635   1.000000
  403       -2.943629   1.000000
  404       -2.943536   1.000000
  405       -2.943526   1.000000
  406       -2.943505   1.000000
  407       -2.943498   1.000000
  408       -2.933325   1.000000
  409       -2.933322   1.000000
  410       -2.933316   1.000000
  411       -2.933306   1.000000
  412       -2.933274   1.000000
  413       -2.933271   1.000000
  414       -2.906984   1.000000
  415       -2.906982   1.000000
  416       -2.906970   1.000000
  417       -2.906969   1.000000
  418       -2.906959   1.000000
  419       -2.906947   1.000000
  420       -2.900646   1.000000
  421       -2.900644   1.000000
  422       -2.900540   1.000000
  423       -2.900534   1.000000
  424       -2.900517   1.000000
  425       -2.900512   1.000000
  426       -2.877300   1.000000
  427       -2.877297   1.000000
  428       -2.877293   1.000000
  429       -2.877283   1.000000
  430       -2.877278   1.000000
  431       -2.877275   1.000000
  432       -2.873129   1.000000
  433       -2.873122   1.000000
  434       -2.873120   1.000000
  435       -2.873108   1.000000
  436       -2.873086   1.000000
  437       -2.873081   1.000000
  438       -2.873063   1.000000
  439       -2.873061   1.000000
  440       -2.873043   1.000000
  441       -2.873038   1.000000
  442       -2.873034   1.000000
  443       -2.873026   1.000000
  444       -2.809640   1.000000
  445       -2.809638   1.000000
  446       -2.809594   1.000000
  447       -2.799970   1.000000
  448       -2.799966   1.000000
  449       -2.799965   1.000000
  450       -2.799958   1.000000
  451       -2.799955   1.000000
  452       -2.799949   1.000000
  453       -2.799947   1.000000
  454       -2.799944   1.000000
  455       -2.799942   1.000000
  456       -2.799940   1.000000
  457       -2.799931   1.000000
  458       -2.799927   1.000000
  459       -2.796383   1.000000
  460       -2.796379   1.000000
  461       -2.796367   1.000000
  462       -2.796358   1.000000
  463       -2.796274   1.000000
  464       -2.796261   1.000000
  465       -2.758925   1.000000
  466       -2.758917   1.000000
  467       -2.758822   1.000000
  468       -2.758819   1.000000
  469       -2.708975   1.000000
  470       -2.708972   1.000000
  471       -2.708963   1.000000
  472       -2.708958   1.000000
  473       -2.708938   1.000000
  474       -2.708935   1.000000
  475       -2.705675   1.000000
  476       -2.705671   1.000000
  477       -2.703439   1.000000
  478       -2.703434   1.000000
  479       -2.703427   1.000000
  480       -2.703422   1.000000
  481       -2.703394   1.000000
  482       -2.703386   1.000000
  483       -2.702920   1.000000
  484       -2.702912   1.000000
  485       -2.702805   1.000000
  486       -2.702803   1.000000
  487       -2.702789   1.000000
  488       -2.702787   1.000000
  489       -2.697231   1.000000
  490       -2.697225   1.000000
  491       -2.697220   1.000000
  492       -2.697217   1.000000
  493       -2.697199   1.000000
  494       -2.697199   1.000000
  495       -2.697194   1.000000
  496       -2.697192   1.000000
  497       -2.697190   1.000000
  498       -2.697189   1.000000
  499       -2.697179   1.000000
  500       -2.697175   1.000000
  501       -2.645049   1.000000
  502       -2.645044   1.000000
  503       -2.644997   1.000000
  504       -2.644983   1.000000
  505       -2.644897   1.000000
  506       -2.644843   1.000000
  507       -2.637067   1.000000
  508       -2.637063   1.000000
  509       -2.637019   1.000000
  510       -2.637017   1.000000
  511       -2.637012   1.000000
  512       -2.637009   1.000000
  513       -2.611220   1.000000
  514       -2.611220   1.000000
  515       -2.611145   1.000000
  516       -2.611136   1.000000
  517       -2.601016   1.000000
  518       -2.582917   1.000000
  519       -2.582912   1.000000
  520       -2.582837   1.000000
  521       -2.582829   1.000000
  522       -2.582810   1.000000
  523       -2.582796   1.000000
  524       -2.561741   1.000000
  525       -2.538172   1.000000
  526       -2.538161   1.000000
  527       -2.538149   1.000000
  528       -2.538143   1.000000
  529       -2.538138   1.000000
  530       -2.538131   1.000000
  531       -2.538104   1.000000
  532       -2.538087   1.000000
  533       -2.538081   1.000000
  534       -2.538079   1.000000
  535       -2.538075   1.000000
  536       -2.538064   1.000000
  537       -2.521342   1.000000
  538       -2.521334   1.000000
  539       -2.521282   1.000000
  540       -2.521254   1.000000
  541       -2.521230   1.000000
  542       -2.521202   1.000000
  543       -2.495008   1.000000
  544       -2.495007   1.000000
  545       -2.494864   1.000000
  546       -2.479996   1.000000
  547       -2.479982   1.000000
  548       -2.479920   1.000000
  549       -2.479894   1.000000
  550       -2.479802   1.000000
  551       -2.479718   1.000000
  552       -2.466359   1.000000
  553       -2.466347   1.000000
  554       -2.466346   1.000000
  555       -2.466342   1.000000
  556       -2.466306   1.000000
  557       -2.466301   1.000000
  558       -2.466299   1.000000
  559       -2.466294   1.000000
  560       -2.466287   1.000000
  561       -2.466279   1.000000
  562       -2.466276   1.000000
  563       -2.466272   1.000000
  564       -2.457306   1.000000
  565       -2.457296   1.000000
  566       -2.457261   1.000000
  567       -2.457238   1.000000
  568       -2.457219   1.000000
  569       -2.457200   1.000000
  570       -2.456419   1.000000
  571       -2.456342   1.000000
  572       -2.456341   1.000000
  573       -2.405803   1.000000
  574       -2.405794   1.000000
  575       -2.405780   1.000000
  576       -2.405777   1.000000
  577       -2.405703   1.000000
  578       -2.405696   1.000000
  579       -2.404386   1.000000
  580       -2.404221   1.000000
  581       -2.402785   1.000000
  582       -2.402565   1.000000
  583       -2.391075   1.000000
  584       -2.391064   1.000000
  585       -2.391050   1.000000
  586       -2.391033   1.000000
  587       -2.390920   1.000000
  588       -2.390893   1.000000
  589       -2.373182   1.000000
  590       -2.362560   1.000000
  591       -2.362551   1.000000
  592       -2.362547   1.000000
  593       -2.362545   1.000000
  594       -2.362541   1.000000
  595       -2.362532   1.000000
  596       -2.349197   1.000000
  597       -2.349192   1.000000
  598       -2.349185   1.000000
  599       -2.349181   1.000000
  600       -2.349141   1.000000
  601       -2.349123   1.000000
  602       -2.344039   1.000000
  603       -2.344038   1.000000
  604       -2.343859   1.000000
  605       -2.330249   1.000000
  606       -2.330240   1.000000
  607       -2.330175   1.000000
  608       -2.330165   1.000000
  609       -2.330161   1.000000
  610       -2.330155   1.000000
  611       -2.314695   1.000000
  612       -2.314474   1.000000
  613       -2.289866   1.000000
  614       -2.289865   1.000000
  615       -2.289838   1.000000
  616       -2.285762   1.000000
  617       -2.285758   1.000000
  618       -2.285744   1.000000
  619       -2.285739   1.000000
  620       -2.285657   1.000000
  621       -2.285650   1.000000
  622       -2.285305   1.000000
  623       -2.269908   1.000000
  624       -2.269730   1.000000
  625       -2.255357   1.000000
  626       -2.255349   1.000000
  627       -2.255258   1.000000
  628       -2.255255   1.000000
  629       -2.255251   1.000000
  630       -2.255245   1.000000
  631       -2.248784   1.000000
  632       -2.248780   1.000000
  633       -2.248772   1.000000
  634       -2.231734   1.000000
  635       -2.231729   1.000000
  636       -2.231725   1.000000
  637       -2.231722   1.000000
  638       -2.231583   1.000000
  639       -2.231570   1.000000
  640       -2.220527   1.000000
  641       -2.220450   1.000000
  642       -2.220450   1.000000
  643       -2.208027   1.000000
  644       -2.207807   1.000000
  645       -2.207676   1.000000
  646       -2.207664   1.000000
  647       -2.207156   1.000000
  648       -2.207156   1.000000
  649       -2.203501   1.000000
  650       -2.203497   1.000000
  651       -2.203493   1.000000
  652       -2.203491   1.000000
  653       -2.203485   1.000000
  654       -2.203477   1.000000
  655       -2.203469   1.000000
  656       -2.203463   1.000000
  657       -2.203457   1.000000
  658       -2.203448   1.000000
  659       -2.203439   1.000000
  660       -2.203423   1.000000
  661       -2.194225   1.000000
  662       -2.194223   1.000000
  663       -2.194218   1.000000
  664       -2.194216   1.000000
  665       -2.194108   1.000000
  666       -2.194100   1.000000
  667       -2.188771   1.000000
  668       -2.188765   1.000000
  669       -2.188757   1.000000
  670       -2.188755   1.000000
  671       -2.188637   1.000000
  672       -2.188635   1.000000
  673       -2.142361   1.000000
  674       -2.142357   1.000000
  675       -2.142328   1.000000
  676       -2.142322   1.000000
  677       -2.142201   1.000000
  678       -2.142184   1.000000
  679       -2.136970   1.000000
  680       -2.120274   1.000000
  681       -2.120265   1.000000
  682       -2.120201   1.000000
  683       -2.120190   1.000000
  684       -2.120189   1.000000
  685       -2.120185   1.000000
  686       -2.095798   1.000000
  687       -2.095798   1.000000
  688       -2.095123   1.000000
  689       -2.095118   1.000000
  690       -2.090635   1.000000
  691       -2.090626   1.000000
  692       -2.090599   1.000000
  693       -2.090596   1.000000
  694       -2.090589   1.000000
  695       -2.090577   1.000000
  696       -2.090540   1.000000
  697       -2.090533   1.000000
  698       -2.090525   1.000000
  699       -2.090513   1.000000
  700       -2.090446   1.000000
  701       -2.090433   1.000000
  702       -2.084958   1.000000
  703       -2.084752   1.000000
  704       -2.076211   1.000000
  705       -2.076206   1.000000
  706       -2.076129   1.000000
  707       -2.076127   1.000000
  708       -2.076123   1.000000
  709       -2.076119   1.000000
  710       -2.076076   1.000000
  711       -2.076074   1.000000
  712       -2.076070   1.000000
  713       -2.076069   1.000000
  714       -2.076021   1.000000
  715       -2.076014   1.000000
  716       -2.073038   1.000000
  717       -2.072820   1.000000
  718       -2.050329   1.000000
  719       -2.050324   1.000000
  720       -2.050175   1.000000
  721       -2.050171   1.000000
  722       -2.050165   1.000000
  723       -2.050159   1.000000
  724       -2.026196   1.000000
  725       -2.026186   1.000000
  726       -2.026165   1.000000
  727       -2.026159   1.000000
  728       -2.026118   1.000000
  729       -2.026100   1.000000
  730       -2.004320   1.000000
  731       -2.004316   1.000000
  732       -2.004287   1.000000
  733       -2.004284   1.000000
  734       -2.004256   1.000000
  735       -2.004243   1.000000
  736       -2.004238   1.000000
  737       -2.004230   1.000000
  738       -2.004168   1.000000
  739       -2.004162   1.000000
  740       -2.004142   1.000000
  741       -2.004105   1.000000
  742       -1.960678   1.000000
  743       -1.960675   1.000000
  744       -1.960525   1.000000
  745       -1.960515   1.000000
  746       -1.960511   1.000000
  747       -1.960506   1.000000
  748       -1.953395   1.000000
  749       -1.953386   1.000000
  750       -1.953376   1.000000
  751       -1.953322   1.000000
  752       -1.953318   1.000000
  753       -1.953259   1.000000
  754       -1.905322   1.000000
  755       -1.905320   1.000000
  756       -1.905305   1.000000
  757       -1.905300   1.000000
  758       -1.905285   1.000000
  759       -1.905281   1.000000
  760       -1.905267   1.000000
  761       -1.905258   1.000000
  762       -1.905216   1.000000
  763       -1.905201   1.000000
  764       -1.905193   1.000000
  765       -1.905179   1.000000
  766       -1.901411   1.000000
  767       -1.901408   1.000000
  768       -1.901364   1.000000
  769       -1.901361   1.000000
  770       -1.901349   1.000000
  771       -1.901338   1.000000
  772       -1.894835   1.000000
  773       -1.894831   1.000000
  774       -1.894772   1.000000
  775       -1.894771   1.000000
  776       -1.894758   1.000000
  777       -1.894751   1.000000
  778       -1.862900   1.000000
  779       -1.862820   1.000000
  780       -1.862817   1.000000
  781       -1.859086   1.000000
  782       -1.859083   1.000000
  783       -1.858955   1.000000
  784       -1.858950   1.000000
  785       -1.858943   1.000000
  786       -1.858938   1.000000
  787       -1.839158   1.000000
  788       -1.839137   1.000000
  789       -1.839122   1.000000
  790       -1.839085   1.000000
  791       -1.839079   1.000000
  792       -1.839044   1.000000
  793       -1.834181   1.000000
  794       -1.834178   1.000000
  795       -1.834042   1.000000
  796       -1.834037   1.000000
  797       -1.834035   1.000000
  798       -1.834029   1.000000
  799       -1.813437   1.000000
  800       -1.813436   1.000000
  801       -1.813358   1.000000
  802       -1.813351   1.000000
  803       -1.813350   1.000000
  804       -1.813340   1.000000
  805       -1.805233   1.000000
  806       -1.805227   1.000000
  807       -1.805185   1.000000
  808       -1.805178   1.000000
  809       -1.805153   1.000000
  810       -1.805133   1.000000
  811       -1.805129   1.000000
  812       -1.805118   1.000000
  813       -1.805063   1.000000
  814       -1.805055   1.000000
  815       -1.805018   1.000000
  816       -1.804994   1.000000
  817       -1.766174   1.000000
  818       -1.766167   1.000000
  819       -1.766119   1.000000
  820       -1.766110   1.000000
  821       -1.766104   1.000000
  822       -1.766081   1.000000
  823       -1.766069   1.000000
  824       -1.766052   1.000000
  825       -1.765998   1.000000
  826       -1.765985   1.000000
  827       -1.765946   1.000000
  828       -1.765936   1.000000
  829       -1.732581   1.000000
  830       -1.732578   1.000000
  831       -1.732429   1.000000
  832       -1.732426   1.000000
  833       -1.732421   1.000000
  834       -1.732417   1.000000
  835       -1.731272   1.000000
  836       -1.731214   1.000000
  837       -1.731212   1.000000
  838       -1.727209   1.000000
  839       -1.727197   1.000000
  840       -1.727194   1.000000
  841       -1.727192   1.000000
  842       -1.727190   1.000000
  843       -1.727183   1.000000
  844       -1.715765   1.000000
  845       -1.715760   1.000000
  846       -1.715680   1.000000
  847       -1.715677   1.000000
  848       -1.715665   1.000000
  849       -1.715658   1.000000
  850       -1.706473   1.000000
  851       -1.706393   1.000000
  852       -1.706315   1.000000
  853       -1.706055   1.000000
  854       -1.705985   1.000000
  855       -1.705622   1.000000
  856       -1.702279   1.000000
  857       -1.702238   1.000000
  858       -1.702222   1.000000
  859       -1.702199   1.000000
  860       -1.702181   1.000000
  861       -1.702139   1.000000
  862       -1.682506   1.000000
  863       -1.682467   1.000000
  864       -1.682463   1.000000
  865       -1.647986   1.000000
  866       -1.647978   1.000000
  867       -1.647958   1.000000
  868       -1.647950   1.000000
  869       -1.647931   1.000000
  870       -1.647910   1.000000
  871       -1.617205   1.000000
  872       -1.617197   1.000000
  873       -1.617195   1.000000
  874       -1.617180   1.000000
  875       -1.617164   1.000000
  876       -1.617156   1.000000
  877       -1.617151   1.000000
  878       -1.617146   1.000000
  879       -1.617142   1.000000
  880       -1.617131   1.000000
  881       -1.617128   1.000000
  882       -1.617115   1.000000
  883       -1.606895   1.000000
  884       -1.595714   1.000000
  885       -1.595527   1.000000
  886       -1.595463   1.000000
  887       -1.594888   1.000000
  888       -1.594822   1.000000
  889       -1.593936   1.000000
  890       -1.544981   1.000000
  891       -1.544974   1.000000
  892       -1.544850   1.000000
  893       -1.544849   1.000000
  894       -1.544847   1.000000
  895       -1.544842   1.000000
  896       -1.490201   1.000000
  897       -1.490187   1.000000
  898       -1.490175   1.000000
  899       -1.490161   1.000000
  900       -1.490153   1.000000
  901       -1.490146   1.000000