<?xml version="1.0" encoding="ISO-8859-1"?>
<modeling>
 <generator>
  <i name="program" type="string">vasp </i>
  <i name="version" type="string">6.2.1  </i>
  <i name="subversion" type="string">16May21 (build Jun 16 2021 03:23:30) complex                          parallel </i>
  <i name="platform" type="string">LinuxPGI </i>
  <i name="date" type="string">2022 04 26 </i>
  <i name="time" type="string">01:48:35 </i>
 </generator>
 <incar>
  <i type="string" name="SYSTEM">NiAl</i>
  <i type="int" name="ISTART">     0</i>
  <i type="int" name="NELM">   250</i>
  <i type="int" name="NELMIN">     6</i>
  <i name="EDIFF">      0.00000500</i>
  <i type="int" name="ISIF">     0</i>
  <i name="ENCUT">    360.00000000</i>
  <i type="string" name="LREAL">Auto</i>
  <i type="logical" name="LPLANE"> T  </i>
  <i type="int" name="ISMEAR">     0</i>
  <i name="SIGMA">      0.05000000</i>
  <i type="logical" name="LWAVE"> F  </i>
  <i type="logical" name="LCHARG"> F  </i>
  <i type="int" name="IVDW">    12</i>
 </incar>
 <primitive_cell>
  <structure name="primitive_cell" >
   <crystal>
    <varray name="basis" >
     <v>       0.00000000     -15.14622176       0.00000000 </v>
     <v>       0.00000000      -7.57311088     -13.11701281 </v>
     <v>      29.00000000       0.00000000       0.00000000 </v>
    </varray>
    <i name="volume">   5761.52236213 </i>
    <varray name="rec_basis" >
     <v>       0.00000000      -0.06602307       0.03811843 </v>
     <v>       0.00000000       0.00000000      -0.07623687 </v>
     <v>       0.03448276       0.00000000       0.00000000 </v>
    </varray>
   </crystal>
   <varray name="positions" >
    <v>       0.44444450       0.44444418       0.10434517 </v>
    <v>       0.44444439       0.77777770       0.10434517 </v>
    <v>       0.44444423       0.11111143       0.10434517 </v>
    <v>       0.77777779       0.44444418       0.10434517 </v>
    <v>       0.77777768       0.77777770       0.10434517 </v>
    <v>       0.77777752       0.11111143       0.10434517 </v>
    <v>       0.11111120       0.44444418       0.10434517 </v>
    <v>       0.11111109       0.77777770       0.10434517 </v>
    <v>       0.11111093       0.11111143       0.10434517 </v>
    <v>       0.55555543       0.55555561       0.17318552 </v>
    <v>       0.55555532       0.88888912       0.17318552 </v>
    <v>       0.55555554       0.22222209       0.17318552 </v>
    <v>       0.88888873       0.55555561       0.17318552 </v>
    <v>       0.88888862       0.88888912       0.17318552 </v>
    <v>       0.88888884       0.22222209       0.17318552 </v>
    <v>       0.22222214       0.55555561       0.17318552 </v>
    <v>       0.22222203       0.88888912       0.17318552 </v>
    <v>       0.22222225       0.22222209       0.17318552 </v>
    <v>       0.66666637       0.66666703       0.24249897 </v>
    <v>       0.66666659       0.00000000       0.24249897 </v>
    <v>       0.66666648       0.33333352       0.24249897 </v>
    <v>       0.99999978       0.66666703       0.24249897 </v>
    <v>       0.00000000       0.00000000       0.24249897 </v>
    <v>       0.99999989       0.33333352       0.24249897 </v>
    <v>       0.33333307       0.66666703       0.24249897 </v>
    <v>       0.33333329       0.00000000       0.24249897 </v>
    <v>       0.33333318       0.33333352       0.24249897 </v>
    <v>       0.77777768       0.77777770       0.31173069 </v>
    <v>       0.77777752       0.11111143       0.31173069 </v>
    <v>       0.77777779       0.44444418       0.31173069 </v>
    <v>       0.11111109       0.77777770       0.31173069 </v>
    <v>       0.11111093       0.11111143       0.31173069 </v>
    <v>       0.11111120       0.44444418       0.31173069 </v>
    <v>       0.44444439       0.77777770       0.31173069 </v>
    <v>       0.44444423       0.11111143       0.31173069 </v>
    <v>       0.44444450       0.44444418       0.31173069 </v>
    <v>       0.88888862       0.88888912       0.38096241 </v>
    <v>       0.88888884       0.22222209       0.38096241 </v>
    <v>       0.88888873       0.55555561       0.38096241 </v>
    <v>       0.22222203       0.88888912       0.38096241 </v>
    <v>       0.22222225       0.22222209       0.38096241 </v>
    <v>       0.22222214       0.55555561       0.38096241 </v>
    <v>       0.55555532       0.88888912       0.38096241 </v>
    <v>       0.55555554       0.22222209       0.38096241 </v>
    <v>       0.55555543       0.55555561       0.38096241 </v>
    <v>       0.00000000       0.00000000       0.45027586 </v>
    <v>       0.99999989       0.33333352       0.45027586 </v>
    <v>       0.99999978       0.66666703       0.45027586 </v>
    <v>       0.33333329       0.00000000       0.45027586 </v>
    <v>       0.33333318       0.33333352       0.45027586 </v>
    <v>       0.33333307       0.66666703       0.45027586 </v>
    <v>       0.66666659       0.00000000       0.45027586 </v>
    <v>       0.66666648       0.33333352       0.45027586 </v>
    <v>       0.66666637       0.66666703       0.45027586 </v>
    <v>       0.11111093       0.11111143       0.51911621 </v>
    <v>       0.11111120       0.44444418       0.51911621 </v>
    <v>       0.11111109       0.77777770       0.51911621 </v>
    <v>       0.44444423       0.11111143       0.51911621 </v>
    <v>       0.44444450       0.44444418       0.51911621 </v>
    <v>       0.44444439       0.77777770       0.51911621 </v>
    <v>       0.77777752       0.11111143       0.51911621 </v>
    <v>       0.77777779       0.44444418       0.51911621 </v>
    <v>       0.77777768       0.77777770       0.51911621 </v>
    <v>       0.27777824       0.27777742       0.10434517 </v>
    <v>       0.27777813       0.61111094       0.10434517 </v>
    <v>       0.27777802       0.94444445       0.10434517 </v>
    <v>       0.61111153       0.27777742       0.10434517 </v>
    <v>       0.61111142       0.61111094       0.10434517 </v>
    <v>       0.61111131       0.94444445       0.10434517 </v>
    <v>       0.94444483       0.27777742       0.10434517 </v>
    <v>       0.94444472       0.61111094       0.10434517 </v>
    <v>       0.94444461       0.94444445       0.10434517 </v>
    <v>       0.38888917       0.38888885       0.17318552 </v>
    <v>       0.38888906       0.72222236       0.17318552 </v>
    <v>       0.38888928       0.05555533       0.17318552 </v>
    <v>       0.72222247       0.38888885       0.17318552 </v>
    <v>       0.72222236       0.72222236       0.17318552 </v>
    <v>       0.72222258       0.05555533       0.17318552 </v>
    <v>       0.05555588       0.38888885       0.17318552 </v>
    <v>       0.05555577       0.72222236       0.17318552 </v>
    <v>       0.05555599       0.05555533       0.17318552 </v>
    <v>       0.50000011       0.50000027       0.24249897 </v>
    <v>       0.50000038       0.83333303       0.24249897 </v>
    <v>       0.50000022       0.16666676       0.24249897 </v>
    <v>       0.83333340       0.50000027       0.24249897 </v>
    <v>       0.83333367       0.83333303       0.24249897 </v>
    <v>       0.83333351       0.16666676       0.24249897 </v>
    <v>       0.16666681       0.50000027       0.24249897 </v>
    <v>       0.16666708       0.83333303       0.24249897 </v>
    <v>       0.16666692       0.16666676       0.24249897 </v>
    <v>       0.61111142       0.61111094       0.31173069 </v>
    <v>       0.61111131       0.94444445       0.31173069 </v>
    <v>       0.61111153       0.27777742       0.31173069 </v>
    <v>       0.94444472       0.61111094       0.31173069 </v>
    <v>       0.94444461       0.94444445       0.31173069 </v>
    <v>       0.94444483       0.27777742       0.31173069 </v>
    <v>       0.27777813       0.61111094       0.31173069 </v>
    <v>       0.27777802       0.94444445       0.31173069 </v>
    <v>       0.27777824       0.27777742       0.31173069 </v>
    <v>       0.72222236       0.72222236       0.38096241 </v>
    <v>       0.72222258       0.05555533       0.38096241 </v>
    <v>       0.72222247       0.38888885       0.38096241 </v>
    <v>       0.05555577       0.72222236       0.38096241 </v>
    <v>       0.05555599       0.05555533       0.38096241 </v>
    <v>       0.05555588       0.38888885       0.38096241 </v>
    <v>       0.38888906       0.72222236       0.38096241 </v>
    <v>       0.38888928       0.05555533       0.38096241 </v>
    <v>       0.38888917       0.38888885       0.38096241 </v>
    <v>       0.83333367       0.83333303       0.45027586 </v>
    <v>       0.83333351       0.16666676       0.45027586 </v>
    <v>       0.83333340       0.50000027       0.45027586 </v>
    <v>       0.16666708       0.83333303       0.45027586 </v>
    <v>       0.16666692       0.16666676       0.45027586 </v>
    <v>       0.16666681       0.50000027       0.45027586 </v>
    <v>       0.50000038       0.83333303       0.45027586 </v>
    <v>       0.50000022       0.16666676       0.45027586 </v>
    <v>       0.50000011       0.50000027       0.45027586 </v>
    <v>       0.94444461       0.94444445       0.51911621 </v>
    <v>       0.94444483       0.27777742       0.51911621 </v>
    <v>       0.94444472       0.61111094       0.51911621 </v>
    <v>       0.27777802       0.94444445       0.51911621 </v>
    <v>       0.27777824       0.27777742       0.51911621 </v>
    <v>       0.27777813       0.61111094       0.51911621 </v>
    <v>       0.61111131       0.94444445       0.51911621 </v>
    <v>       0.61111153       0.27777742       0.51911621 </v>
    <v>       0.61111142       0.61111094       0.51911621 </v>
    <v>       0.27777785       0.44444418       0.10434517 </v>
    <v>       0.27777774       0.77777770       0.10434517 </v>
    <v>       0.27777758       0.11111143       0.10434517 </v>
    <v>       0.61111115       0.44444418       0.10434517 </v>
    <v>       0.61111104       0.77777770       0.10434517 </v>
    <v>       0.61111088       0.11111143       0.10434517 </v>
    <v>       0.94444444       0.44444418       0.10434517 </v>
    <v>       0.94444433       0.77777770       0.10434517 </v>
    <v>       0.94444417       0.11111143       0.10434517 </v>
    <v>       0.38888879       0.55555561       0.17318552 </v>
    <v>       0.38888868       0.88888912       0.17318552 </v>
    <v>       0.38888890       0.22222209       0.17318552 </v>
    <v>       0.72222208       0.55555561       0.17318552 </v>
    <v>       0.72222197       0.88888912       0.17318552 </v>
    <v>       0.72222219       0.22222209       0.17318552 </v>
    <v>       0.05555549       0.55555561       0.17318552 </v>
    <v>       0.05555538       0.88888912       0.17318552 </v>
    <v>       0.05555560       0.22222209       0.17318552 </v>
    <v>       0.49999972       0.66666703       0.24249897 </v>
    <v>       0.49999994       0.00000000       0.24249897 </v>
    <v>       0.49999983       0.33333352       0.24249897 </v>
    <v>       0.83333302       0.66666703       0.24249897 </v>
    <v>       0.83333324       0.00000000       0.24249897 </v>
    <v>       0.83333313       0.33333352       0.24249897 </v>
    <v>       0.16666643       0.66666703       0.24249897 </v>
    <v>       0.16666665       0.00000000       0.24249897 </v>
    <v>       0.16666654       0.33333352       0.24249897 </v>
    <v>       0.61111104       0.77777770       0.31173069 </v>
    <v>       0.61111088       0.11111143       0.31173069 </v>
    <v>       0.61111115       0.44444418       0.31173069 </v>
    <v>       0.94444433       0.77777770       0.31173069 </v>
    <v>       0.94444417       0.11111143       0.31173069 </v>
    <v>       0.94444444       0.44444418       0.31173069 </v>
    <v>       0.27777774       0.77777770       0.31173069 </v>
    <v>       0.27777758       0.11111143       0.31173069 </v>
    <v>       0.27777785       0.44444418       0.31173069 </v>
    <v>       0.72222197       0.88888912       0.38096241 </v>
    <v>       0.72222219       0.22222209       0.38096241 </v>
    <v>       0.72222208       0.55555561       0.38096241 </v>
    <v>       0.05555538       0.88888912       0.38096241 </v>
    <v>       0.05555560       0.22222209       0.38096241 </v>
    <v>       0.05555549       0.55555561       0.38096241 </v>
    <v>       0.38888868       0.88888912       0.38096241 </v>
    <v>       0.38888890       0.22222209       0.38096241 </v>
    <v>       0.38888879       0.55555561       0.38096241 </v>
    <v>       0.83333324       0.00000000       0.45027586 </v>
    <v>       0.83333313       0.33333352       0.45027586 </v>
    <v>       0.83333302       0.66666703       0.45027586 </v>
    <v>       0.16666665       0.00000000       0.45027586 </v>
    <v>       0.16666654       0.33333352       0.45027586 </v>
    <v>       0.16666643       0.66666703       0.45027586 </v>
    <v>       0.49999994       0.00000000       0.45027586 </v>
    <v>       0.49999983       0.33333352       0.45027586 </v>
    <v>       0.49999972       0.66666703       0.45027586 </v>
    <v>       0.94444417       0.11111143       0.51911621 </v>
    <v>       0.94444444       0.44444418       0.51911621 </v>
    <v>       0.94444433       0.77777770       0.51911621 </v>
    <v>       0.27777758       0.11111143       0.51911621 </v>
    <v>       0.27777785       0.44444418       0.51911621 </v>
    <v>       0.27777774       0.77777770       0.51911621 </v>
    <v>       0.61111088       0.11111143       0.51911621 </v>
    <v>       0.61111115       0.44444418       0.51911621 </v>
    <v>       0.61111104       0.77777770       0.51911621 </v>
    <v>       0.44444488       0.27777742       0.10434517 </v>
    <v>       0.44444477       0.61111094       0.10434517 </v>
    <v>       0.44444466       0.94444445       0.10434517 </v>
    <v>       0.77777818       0.27777742       0.10434517 </v>
    <v>       0.77777807       0.61111094       0.10434517 </v>
    <v>       0.77777796       0.94444445       0.10434517 </v>
    <v>       0.11111159       0.27777742       0.10434517 </v>
    <v>       0.11111148       0.61111094       0.10434517 </v>
    <v>       0.11111137       0.94444445       0.10434517 </v>
    <v>       0.55555582       0.38888885       0.17318552 </v>
    <v>       0.55555571       0.72222236       0.17318552 </v>
    <v>       0.55555593       0.05555533       0.17318552 </v>
    <v>       0.88888911       0.38888885       0.17318552 </v>
    <v>       0.88888900       0.72222236       0.17318552 </v>
    <v>       0.88888922       0.05555533       0.17318552 </v>
    <v>       0.22222252       0.38888885       0.17318552 </v>
    <v>       0.22222241       0.72222236       0.17318552 </v>
    <v>       0.22222264       0.05555533       0.17318552 </v>
    <v>       0.66666675       0.50000027       0.24249897 </v>
    <v>       0.66666702       0.83333303       0.24249897 </v>
    <v>       0.66666686       0.16666676       0.24249897 </v>
    <v>       0.00000016       0.50000027       0.24249897 </v>
    <v>       0.00000043       0.83333303       0.24249897 </v>
    <v>       0.00000027       0.16666676       0.24249897 </v>
    <v>       0.33333346       0.50000027       0.24249897 </v>
    <v>       0.33333373       0.83333303       0.24249897 </v>
    <v>       0.33333357       0.16666676       0.24249897 </v>
    <v>       0.77777807       0.61111094       0.31173069 </v>
    <v>       0.77777796       0.94444445       0.31173069 </v>
    <v>       0.77777818       0.27777742       0.31173069 </v>
    <v>       0.11111148       0.61111094       0.31173069 </v>
    <v>       0.11111137       0.94444445       0.31173069 </v>
    <v>       0.11111159       0.27777742       0.31173069 </v>
    <v>       0.44444477       0.61111094       0.31173069 </v>
    <v>       0.44444466       0.94444445       0.31173069 </v>
    <v>       0.44444488       0.27777742       0.31173069 </v>
    <v>       0.88888900       0.72222236       0.38096241 </v>
    <v>       0.88888922       0.05555533       0.38096241 </v>
    <v>       0.88888911       0.38888885       0.38096241 </v>
    <v>       0.22222241       0.72222236       0.38096241 </v>
    <v>       0.22222264       0.05555533       0.38096241 </v>
    <v>       0.22222252       0.38888885       0.38096241 </v>
    <v>       0.55555571       0.72222236       0.38096241 </v>
    <v>       0.55555593       0.05555533       0.38096241 </v>
    <v>       0.55555582       0.38888885       0.38096241 </v>
    <v>       0.00000043       0.83333303       0.45027586 </v>
    <v>       0.00000027       0.16666676       0.45027586 </v>
    <v>       0.00000016       0.50000027       0.45027586 </v>
    <v>       0.33333373       0.83333303       0.45027586 </v>
    <v>       0.33333357       0.16666676       0.45027586 </v>
    <v>       0.33333346       0.50000027       0.45027586 </v>
    <v>       0.66666702       0.83333303       0.45027586 </v>
    <v>       0.66666686       0.16666676       0.45027586 </v>
    <v>       0.66666675       0.50000027       0.45027586 </v>
    <v>       0.11111137       0.94444445       0.51911621 </v>
    <v>       0.11111159       0.27777742       0.51911621 </v>
    <v>       0.11111148       0.61111094       0.51911621 </v>
    <v>       0.44444466       0.94444445       0.51911621 </v>
    <v>       0.44444488       0.27777742       0.51911621 </v>
    <v>       0.44444477       0.61111094       0.51911621 </v>
    <v>       0.77777796       0.94444445       0.51911621 </v>
    <v>       0.77777818       0.27777742       0.51911621 </v>
    <v>       0.77777807       0.61111094       0.51911621 </v>
    <v>       0.54875669       0.40253067       0.69137931 </v>
    <v>       0.50682642       0.48639123       0.69137931 </v>
   </varray>
  </structure>
  <varray name="primitive_index" >
   <v type="int" >        1 </v>
   <v type="int" >        2 </v>
   <v type="int" >        3 </v>
   <v type="int" >        4 </v>
   <v type="int" >        5 </v>
   <v type="int" >        6 </v>
   <v type="int" >        7 </v>
   <v type="int" >        8 </v>
   <v type="int" >        9 </v>
   <v type="int" >       10 </v>
   <v type="int" >       11 </v>
   <v type="int" >       12 </v>
   <v type="int" >       13 </v>
   <v type="int" >       14 </v>
   <v type="int" >       15 </v>
   <v type="int" >       16 </v>
   <v type="int" >       17 </v>
   <v type="int" >       18 </v>
   <v type="int" >       19 </v>
   <v type="int" >       20 </v>
   <v type="int" >       21 </v>
   <v type="int" >       22 </v>
   <v type="int" >       23 </v>
   <v type="int" >       24 </v>
   <v type="int" >       25 </v>
   <v type="int" >       26 </v>
   <v type="int" >       27 </v>
   <v type="int" >       28 </v>
   <v type="int" >       29 </v>
   <v type="int" >       30 </v>
   <v type="int" >       31 </v>
   <v type="int" >       32 </v>
   <v type="int" >       33 </v>
   <v type="int" >       34 </v>
   <v type="int" >       35 </v>
   <v type="int" >       36 </v>
   <v type="int" >       37 </v>
   <v type="int" >       38 </v>
   <v type="int" >       39 </v>
   <v type="int" >       40 </v>
   <v type="int" >       41 </v>
   <v type="int" >       42 </v>
   <v type="int" >       43 </v>
   <v type="int" >       44 </v>
   <v type="int" >       45 </v>
   <v type="int" >       46 </v>
   <v type="int" >       47 </v>
   <v type="int" >       48 </v>
   <v type="int" >       49 </v>
   <v type="int" >       50 </v>
   <v type="int" >       51 </v>
   <v type="int" >       52 </v>
   <v type="int" >       53 </v>
   <v type="int" >       54 </v>
   <v type="int" >       55 </v>
   <v type="int" >       56 </v>
   <v type="int" >       57 </v>
   <v type="int" >       58 </v>
   <v type="int" >       59 </v>
   <v type="int" >       60 </v>
   <v type="int" >       61 </v>
   <v type="int" >       62 </v>
   <v type="int" >       63 </v>
   <v type="int" >       64 </v>
   <v type="int" >       65 </v>
   <v type="int" >       66 </v>
   <v type="int" >       67 </v>
   <v type="int" >       68 </v>
   <v type="int" >       69 </v>
   <v type="int" >       70 </v>
   <v type="int" >       71 </v>
   <v type="int" >       72 </v>
   <v type="int" >       73 </v>
   <v type="int" >       74 </v>
   <v type="int" >       75 </v>
   <v type="int" >       76 </v>
   <v type="int" >       77 </v>
   <v type="int" >       78 </v>
   <v type="int" >       79 </v>
   <v type="int" >       80 </v>
   <v type="int" >       81 </v>
   <v type="int" >       82 </v>
   <v type="int" >       83 </v>
   <v type="int" >       84 </v>
   <v type="int" >       85 </v>
   <v type="int" >       86 </v>
   <v type="int" >       87 </v>
   <v type="int" >       88 </v>
   <v type="int" >       89 </v>
   <v type="int" >       90 </v>
   <v type="int" >       91 </v>
   <v type="int" >       92 </v>
   <v type="int" >       93 </v>
   <v type="int" >       94 </v>
   <v type="int" >       95 </v>
   <v type="int" >       96 </v>
   <v type="int" >       97 </v>
   <v type="int" >       98 </v>
   <v type="int" >       99 </v>
   <v type="int" >      100 </v>
   <v type="int" >      101 </v>
   <v type="int" >      102 </v>
   <v type="int" >      103 </v>
   <v type="int" >      104 </v>
   <v type="int" >      105 </v>
   <v type="int" >      106 </v>
   <v type="int" >      107 </v>
   <v type="int" >      108 </v>
   <v type="int" >      109 </v>
   <v type="int" >      110 </v>
   <v type="int" >      111 </v>
   <v type="int" >      112 </v>
   <v type="int" >      113 </v>
   <v type="int" >      114 </v>
   <v type="int" >      115 </v>
   <v type="int" >      116 </v>
   <v type="int" >      117 </v>
   <v type="int" >      118 </v>
   <v type="int" >      119 </v>
   <v type="int" >      120 </v>
   <v type="int" >      121 </v>
   <v type="int" >      122 </v>
   <v type="int" >      123 </v>
   <v type="int" >      124 </v>
   <v type="int" >      125 </v>
   <v type="int" >      126 </v>
   <v type="int" >      127 </v>
   <v type="int" >      128 </v>
   <v type="int" >      129 </v>
   <v type="int" >      130 </v>
   <v type="int" >      131 </v>
   <v type="int" >      132 </v>
   <v type="int" >      133 </v>
   <v type="int" >      134 </v>
   <v type="int" >      135 </v>
   <v type="int" >      136 </v>
   <v type="int" >      137 </v>
   <v type="int" >      138 </v>
   <v type="int" >      139 </v>
   <v type="int" >      140 </v>
   <v type="int" >      141 </v>
   <v type="int" >      142 </v>
   <v type="int" >      143 </v>
   <v type="int" >      144 </v>
   <v type="int" >      145 </v>
   <v type="int" >      146 </v>
   <v type="int" >      147 </v>
   <v type="int" >      148 </v>
   <v type="int" >      149 </v>
   <v type="int" >      150 </v>
   <v type="int" >      151 </v>
   <v type="int" >      152 </v>
   <v type="int" >      153 </v>
   <v type="int" >      154 </v>
   <v type="int" >      155 </v>
   <v type="int" >      156 </v>
   <v type="int" >      157 </v>
   <v type="int" >      158 </v>
   <v type="int" >      159 </v>
   <v type="int" >      160 </v>
   <v type="int" >      161 </v>
   <v type="int" >      162 </v>
   <v type="int" >      163 </v>
   <v type="int" >      164 </v>
   <v type="int" >      165 </v>
   <v type="int" >      166 </v>
   <v type="int" >      167 </v>
   <v type="int" >      168 </v>
   <v type="int" >      169 </v>
   <v type="int" >      170 </v>
   <v type="int" >      171 </v>
   <v type="int" >      172 </v>
   <v type="int" >      173 </v>
   <v type="int" >      174 </v>
   <v type="int" >      175 </v>
   <v type="int" >      176 </v>
   <v type="int" >      177 </v>
   <v type="int" >      178 </v>
   <v type="int" >      179 </v>
   <v type="int" >      180 </v>
   <v type="int" >      181 </v>
   <v type="int" >      182 </v>
   <v type="int" >      183 </v>
   <v type="int" >      184 </v>
   <v type="int" >      185 </v>
   <v type="int" >      186 </v>
   <v type="int" >      187 </v>
   <v type="int" >      188 </v>
   <v type="int" >      189 </v>
   <v type="int" >      190 </v>
   <v type="int" >      191 </v>
   <v type="int" >      192 </v>
   <v type="int" >      193 </v>
   <v type="int" >      194 </v>
   <v type="int" >      195 </v>
   <v type="int" >      196 </v>
   <v type="int" >      197 </v>
   <v type="int" >      198 </v>
   <v type="int" >      199 </v>
   <v type="int" >      200 </v>
   <v type="int" >      201 </v>
   <v type="int" >      202 </v>
   <v type="int" >      203 </v>
   <v type="int" >      204 </v>
   <v type="int" >      205 </v>
   <v type="int" >      206 </v>
   <v type="int" >      207 </v>
   <v type="int" >      208 </v>
   <v type="int" >      209 </v>
   <v type="int" >      210 </v>
   <v type="int" >      211 </v>
   <v type="int" >      212 </v>
   <v type="int" >      213 </v>
   <v type="int" >      214 </v>
   <v type="int" >      215 </v>
   <v type="int" >      216 </v>
   <v type="int" >      217 </v>
   <v type="int" >      218 </v>
   <v type="int" >      219 </v>
   <v type="int" >      220 </v>
   <v type="int" >      221 </v>
   <v type="int" >      222 </v>
   <v type="int" >      223 </v>
   <v type="int" >      224 </v>
   <v type="int" >      225 </v>
   <v type="int" >      226 </v>
   <v type="int" >      227 </v>
   <v type="int" >      228 </v>
   <v type="int" >      229 </v>
   <v type="int" >      230 </v>
   <v type="int" >      231 </v>
   <v type="int" >      232 </v>
   <v type="int" >      233 </v>
   <v type="int" >      234 </v>
   <v type="int" >      235 </v>
   <v type="int" >      236 </v>
   <v type="int" >      237 </v>
   <v type="int" >      238 </v>
   <v type="int" >      239 </v>
   <v type="int" >      240 </v>
   <v type="int" >      241 </v>
   <v type="int" >      242 </v>
   <v type="int" >      243 </v>
   <v type="int" >      244 </v>
   <v type="int" >      245 </v>
   <v type="int" >      246 </v>
   <v type="int" >      247 </v>
   <v type="int" >      248 </v>
   <v type="int" >      249 </v>
   <v type="int" >      250 </v>
   <v type="int" >      251 </v>
   <v type="int" >      252 </v>
   <v type="int" >      253 </v>
   <v type="int" >      254 </v>
  </varray>
 </primitive_cell>
 <kpoints>
  <generation param="Gamma">
   <v type="int" name="divisions">       2        2        1 </v>
   <v name="usershift">      0.00000000       0.00000000       0.00000000 </v>
   <v name="genvec1">      0.50000000      -0.00000000       0.00000000 </v>
   <v name="genvec2">      0.00000000       0.50000000       0.00000000 </v>
   <v name="genvec3">      0.00000000       0.00000000       1.00000000 </v>
   <v name="shift">      0.00000000       0.00000000       0.00000000 </v>
  </generation>
  <varray name="kpointlist" >
   <v>       0.00000000       0.00000000       0.00000000 </v>
   <v>       0.50000000       0.00000000       0.00000000 </v>
   <v>       0.50000000       0.50000000       0.00000000 </v>
   <v>       0.00000000       0.50000000       0.00000000 </v>
  </varray>
  <varray name="weights" >
   <v>       0.25000000 </v>
   <v>       0.25000000 </v>
   <v>       0.25000000 </v>
   <v>       0.25000000 </v>
  </varray>
 </kpoints>
 <parameters>
  <separator name="general" >
   <i type="string" name="SYSTEM">NiAl</i>
   <i type="logical" name="LCOMPAT"> F  </i>
  </separator>
  <separator name="electronic" >
   <i type="string" name="PREC">normal</i>
   <i name="ENMAX">    360.00000000</i>
   <i name="ENAUG">   1139.60900000</i>
   <i name="EDIFF">      0.00000500</i>
   <i type="int" name="IALGO">    38</i>
   <i type="int" name="IWAVPR">    10</i>
   <i type="int" name="NBANDS">  1519</i>
   <i type="int" name="NBANDSLOW">    -1</i>
   <i type="int" name="NBANDSHIGH">    -1</i>
   <i name="NELECT">   2532.00000000</i>
   <i type="int" name="TURBO">     0</i>
   <i type="int" name="IRESTART">     0</i>
   <i type="int" name="NREBOOT">     0</i>
   <i type="int" name="NMIN">     0</i>
   <i name="EREF">      0.00000000</i>
   <separator name="electronic smearing" >
    <i type="int" name="ISMEAR">     0</i>
    <i name="SIGMA">      0.05000000</i>
    <i name="KSPACING">      0.50000000</i>
    <i type="logical" name="KGAMMA"> T  </i>
    <i type="logical" name="KBLOWUP"> T  </i>
   </separator>
   <separator name="electronic projectors" >
    <i type="logical" name="LREAL"> T  </i>
    <v name="ROPT">     -0.00050000     -0.00050000</v>
    <i type="int" name="LMAXPAW">  -100</i>
    <i type="int" name="LMAXMIX">     2</i>
    <i type="logical" name="NLSPLINE"> F  </i>
   </separator>
   <separator name="electronic startup" >
    <i type="int" name="ISTART">     0</i>
    <i type="int" name="ICHARG">     2</i>
    <i type="int" name="INIWAV">     1</i>
   </separator>
   <separator name="electronic spin" >
    <i type="int" name="ISPIN">     1</i>
    <i type="logical" name="LNONCOLLINEAR"> F  </i>
    <v name="MAGMOM">      1.00000000      1.00000000      1.00000000      1.00000000      1.00000000      1.00000000      1.00000000      1.00000000      1.00000000      1.00000000      1.00000000      1.00000000      1.00000000      1.00000000      1.00000000      1.00000000      1.00000000      1.00000000      1.00000000      1.00000000
      1.00000000      1.00000000      1.00000000      1.00000000      1.00000000      1.00000000      1.00000000      1.00000000      1.00000000      1.00000000      1.00000000      1.00000000      1.00000000      1.00000000      1.00000000      1.00000000      1.00000000      1.00000000      1.00000000      1.00000000
      1.00000000      1.00000000      1.00000000      1.00000000      1.00000000      1.00000000      1.00000000      1.00000000      1.00000000      1.00000000      1.00000000      1.00000000      1.00000000      1.00000000      1.00000000      1.00000000      1.00000000      1.00000000      1.00000000      1.00000000
      1.00000000      1.00000000      1.00000000      1.00000000      1.00000000      1.00000000      1.00000000      1.00000000      1.00000000      1.00000000      1.00000000      1.00000000      1.00000000      1.00000000      1.00000000      1.00000000      1.00000000      1.00000000      1.00000000      1.00000000
      1.00000000      1.00000000      1.00000000      1.00000000      1.00000000      1.00000000      1.00000000      1.00000000      1.00000000      1.00000000      1.00000000      1.00000000      1.00000000      1.00000000      1.00000000      1.00000000      1.00000000      1.00000000      1.00000000      1.00000000
      1.00000000      1.00000000      1.00000000      1.00000000      1.00000000      1.00000000      1.00000000      1.00000000      1.00000000      1.00000000      1.00000000      1.00000000      1.00000000      1.00000000      1.00000000      1.00000000      1.00000000      1.00000000      1.00000000      1.00000000
      1.00000000      1.00000000      1.00000000      1.00000000      1.00000000      1.00000000      1.00000000      1.00000000      1.00000000      1.00000000      1.00000000      1.00000000      1.00000000      1.00000000      1.00000000      1.00000000      1.00000000      1.00000000      1.00000000      1.00000000
      1.00000000      1.00000000      1.00000000      1.00000000      1.00000000      1.00000000      1.00000000      1.00000000      1.00000000      1.00000000      1.00000000      1.00000000      1.00000000      1.00000000      1.00000000      1.00000000      1.00000000      1.00000000      1.00000000      1.00000000
      1.00000000      1.00000000      1.00000000      1.00000000      1.00000000      1.00000000      1.00000000      1.00000000      1.00000000      1.00000000      1.00000000      1.00000000      1.00000000      1.00000000      1.00000000      1.00000000      1.00000000      1.00000000      1.00000000      1.00000000
      1.00000000      1.00000000      1.00000000      1.00000000      1.00000000      1.00000000      1.00000000      1.00000000      1.00000000      1.00000000      1.00000000      1.00000000      1.00000000      1.00000000      1.00000000      1.00000000      1.00000000      1.00000000      1.00000000      1.00000000
      1.00000000      1.00000000      1.00000000      1.00000000      1.00000000      1.00000000      1.00000000      1.00000000      1.00000000      1.00000000      1.00000000      1.00000000      1.00000000      1.00000000      1.00000000      1.00000000      1.00000000      1.00000000      1.00000000      1.00000000
      1.00000000      1.00000000      1.00000000      1.00000000      1.00000000      1.00000000      1.00000000      1.00000000      1.00000000      1.00000000      1.00000000      1.00000000      1.00000000      1.00000000      1.00000000      1.00000000      1.00000000      1.00000000      1.00000000      1.00000000
      1.00000000      1.00000000      1.00000000      1.00000000      1.00000000      1.00000000      1.00000000      1.00000000      1.00000000      1.00000000      1.00000000      1.00000000      1.00000000      1.00000000</v>
    <i name="NUPDOWN">     -1.00000000</i>
    <i type="logical" name="LSORBIT"> F  </i>
    <v name="SAXIS">      0.00000000      0.00000000      1.00000000</v>
    <i type="logical" name="LSPIRAL"> F  </i>
    <v name="QSPIRAL">      0.00000000      0.00000000      0.00000000</v>
    <i type="logical" name="LZEROZ"> F  </i>
   </separator>
   <separator name="electronic exchange-correlation" >
    <i type="logical" name="LASPH"> F  </i>
    <i type="logical" name="LMETAGGA"> F  </i>
   </separator>
   <separator name="electronic convergence" >
    <i type="int" name="NELM">   250</i>
    <i type="int" name="NELMDL">    -5</i>
    <i type="int" name="NELMIN">     6</i>
    <i name="ENINI">    360.00000000</i>
    <separator name="electronic convergence detail" >
     <i type="logical" name="LDIAG"> T  </i>
     <i type="logical" name="LSUBROT"> F  </i>
     <i name="WEIMIN">      0.00000000</i>
     <i name="EBREAK">      0.00000000</i>
     <i name="DEPER">      0.30000000</i>
     <i type="int" name="NRMM">     4</i>
     <i name="TIME">      0.40000000</i>
    </separator>
   </separator>
   <separator name="electronic mixer" >
    <i name="AMIX">      0.40000000</i>
    <i name="BMIX">      1.00000000</i>
    <i name="AMIN">      0.10000000</i>
    <i name="AMIX_MAG">      1.60000000</i>
    <i name="BMIX_MAG">      1.00000000</i>
    <separator name="electronic mixer details" >
     <i type="int" name="IMIX">     4</i>
     <i type="logical" name="MIXFIRST"> F  </i>
     <i type="int" name="MAXMIX">   -45</i>
     <i name="WC">    100.00000000</i>
     <i type="int" name="INIMIX">     1</i>
     <i type="int" name="MIXPRE">     1</i>
     <i type="int" name="MREMOVE">     5</i>
    </separator>
   </separator>
   <separator name="electronic dipolcorrection" >
    <i type="logical" name="LDIPOL"> F  </i>
    <i type="logical" name="LMONO"> F  </i>
    <i type="int" name="IDIPOL">     0</i>
    <i name="EPSILON">      1.00000000</i>
    <v name="DIPOL">   -100.00000000   -100.00000000   -100.00000000</v>
    <i name="EFIELD">      0.00000000</i>
   </separator>
  </separator>
  <separator name="grids" >
   <i type="int" name="NGX">    70</i>
   <i type="int" name="NGY">    70</i>
   <i type="int" name="NGZ">   140</i>
   <i type="int" name="NGXF">   140</i>
   <i type="int" name="NGYF">   140</i>
   <i type="int" name="NGZF">   280</i>
   <i type="logical" name="ADDGRID"> F  </i>
  </separator>
  <separator name="ionic" >
   <i type="int" name="NSW">     0</i>
   <i type="int" name="IBRION">    -1</i>
   <i type="int" name="MDALGO">     0</i>
   <i type="int" name="ISIF">     0</i>
   <i name="PSTRESS">      0.00000000</i>
   <i name="EDIFFG">      0.00005000</i>
   <i type="int" name="NFREE">     0</i>
   <i name="POTIM">      0.50000000</i>
   <i name="SMASS">     -3.00000000</i>
   <i name="SCALEE">      1.00000000</i>
  </separator>
  <separator name="ionic md" >
   <i name="TEBEG">      0.00010000</i>
   <i name="TEEND">      0.00010000</i>
   <i type="int" name="NBLOCK">     1</i>
   <i type="int" name="KBLOCK">     1</i>
   <i type="int" name="NPACO">   256</i>
   <i name="APACO">     16.00000000</i>
  </separator>
  <separator name="symmetry" >
   <i type="int" name="ISYM">     2</i>
   <i name="SYMPREC">      0.00001000</i>
  </separator>
  <separator name="dos" >
   <i type="int" name="LORBIT">     0</i>
   <v name="RWIGS">     -1.00000000     -1.00000000</v>
   <i type="int" name="NEDOS">   301</i>
   <i name="EMIN">     10.00000000</i>
   <i name="EMAX">    -10.00000000</i>
   <i name="EFERMI">      0.00000000</i>
  </separator>
  <separator name="writing" >
   <i type="int" name="NWRITE">     2</i>
   <i type="logical" name="LWAVE"> F  </i>
   <i type="logical" name="LDOWNSAMPLE"> F  </i>
   <i type="logical" name="LCHARG"> F  </i>
   <i type="logical" name="LPARD"> F  </i>
   <i type="logical" name="LVTOT"> F  </i>
   <i type="logical" name="LVHAR"> F  </i>
   <i type="logical" name="LELF"> F  </i>
   <i type="logical" name="LOPTICS"> F  </i>
   <v name="STM">      0.00000000      0.00000000      0.00000000      0.00000000      0.00000000      0.00000000      0.00000000</v>
  </separator>
  <separator name="performance" >
   <i type="int" name="NPAR">     1</i>
   <i type="int" name="NSIM">     4</i>
   <i type="int" name="NBLK">    -1</i>
   <i type="logical" name="LPLANE"> T  </i>
   <i type="logical" name="LSCALAPACK"> T  </i>
   <i type="logical" name="LSCAAWARE"> F  </i>
   <i type="logical" name="LSCALU"> F  </i>
   <i type="logical" name="LASYNC"> F  </i>
   <i type="logical" name="LORBITALREAL"> F  </i>
  </separator>
  <separator name="miscellaneous" >
   <i type="int" name="IDIOT">     3</i>
   <i type="int" name="PHON_NSTRUCT">    -1</i>
   <i type="logical" name="LMUSIC"> F  </i>
   <v name="POMASS">     58.69000000     16.00000000</v>
   <v name="DARWINR">      0.00000000      0.00000000</v>
   <v name="DARWINV">      1.00000000      1.00000000</v>
   <i type="logical" name="LCORR"> T  </i>
  </separator>
  <i type="logical" name="GGA_COMPAT"> T  </i>
  <i type="logical" name="LBERRY"> F  </i>
  <i type="int" name="ICORELEVEL">     0</i>
  <i type="logical" name="LDAU"> F  </i>
  <i type="int" name="I_CONSTRAINED_M">     0</i>
  <separator name="electronic exchange-correlation" >
   <i type="string" name="GGA">--</i>
   <i type="int" name="VOSKOWN">     0</i>
   <i type="logical" name="LHFCALC"> F  </i>
   <i type="string" name="PRECFOCK"></i>
   <i type="logical" name="LSYMGRAD"> F  </i>
   <i type="logical" name="LHFONE"> F  </i>
   <i type="logical" name="LRHFCALC"> F  </i>
   <i type="logical" name="LTHOMAS"> F  </i>
   <i type="logical" name="LMODELHF"> F  </i>
   <i type="logical" name="LFOCKACE"> F  </i>
   <i name="ENCUT4O">     -1.00000000</i>
   <i type="int" name="EXXOEP">     0</i>
   <i type="int" name="FOURORBIT">     0</i>
   <i name="AEXX">      0.00000000</i>
   <i name="HFALPHA">      0.00000000</i>
   <i name="MCALPHA">      0.00000000</i>
   <i name="ALDAX">      1.00000000</i>
   <i name="AGGAX">      1.00000000</i>
   <i name="ALDAC">      1.00000000</i>
   <i name="AGGAC">      1.00000000</i>
   <i type="int" name="NKREDX">     1</i>
   <i type="int" name="NKREDY">     1</i>
   <i type="int" name="NKREDZ">     1</i>
   <i type="logical" name="SHIFTRED"> F  </i>
   <i type="logical" name="ODDONLY"> F  </i>
   <i type="logical" name="EVENONLY"> F  </i>
   <i type="int" name="LMAXFOCK">     0</i>
   <i type="int" name="NMAXFOCKAE">     0</i>
   <i type="logical" name="LFOCKAEDFT"> F  </i>
   <i name="HFSCREEN">      0.00000000</i>
   <i name="HFSCREENC">      0.00000000</i>
   <i type="int" name="NBANDSGWLOW">     0</i>
  </separator>
  <separator name="vdW DFT" >
   <i type="logical" name="LUSE_VDW"> F  </i>
   <i name="Zab_VDW">     -0.84910000</i>
   <i name="PARAM1">      0.12340000</i>
   <i name="PARAM2">      1.00000000</i>
   <i name="PARAM3">      0.00000000</i>
  </separator>
  <separator name="model GW" >
   <i type="int" name="MODEL_GW">     0</i>
   <i name="MODEL_EPS0">     13.60989534</i>
   <i name="MODEL_ALPHA">      1.00000000</i>
  </separator>
  <separator name="linear response parameters" >
   <i type="logical" name="LEPSILON"> F  </i>
   <i type="logical" name="LRPA"> F  </i>
   <i type="logical" name="LNABLA"> F  </i>
   <i type="logical" name="LVEL"> F  </i>
   <i type="int" name="KINTER">     0</i>
   <i name="CSHIFT">      0.10000000</i>
   <i name="OMEGAMAX">     -1.00000000</i>
   <i name="DEG_THRESHOLD">      0.00200000</i>
   <i name="RTIME">     -0.10000000</i>
   <i name="WPLASMAI">      0.00000000</i>
   <v name="DFIELD">      0.00000000      0.00000000      0.00000000</v>
   <v name="WPLASMA">      0.00000000      0.00000000      0.00000000      0.00000000      0.00000000      0.00000000      0.00000000      0.00000000      0.00000000</v>
  </separator>
  <separator name="orbital magnetization" >
   <i type="logical" name="NUCIND"> F  </i>
   <v name="MAGPOS">      0.00000000      0.00000000      0.00000000</v>
   <i type="logical" name="LNICSALL"> T  </i>
   <i type="logical" name="ORBITALMAG"> F  </i>
   <i type="logical" name="LMAGBLOCH"> F  </i>
   <i type="logical" name="LCHIMAG"> F  </i>
   <i type="logical" name="LGAUGE"> T  </i>
   <i type="int" name="MAGATOM">     0</i>
   <v name="MAGDIPOL">      0.00000000      0.00000000      0.00000000</v>
   <v name="AVECCONST">      0.00000000      0.00000000      0.00000000</v>
  </separator>
  <separator name="response functions" >
   <i type="logical" name="LFINITE_TEMPERATURE"> F  </i>
   <i type="logical" name="LADDER"> F  </i>
   <i type="logical" name="LRPAFORCE"> F  </i>
   <i type="logical" name="LFXC"> F  </i>
   <i type="logical" name="LHARTREE"> T  </i>
   <i type="int" name="IBSE">     0</i>
   <v type="int" name="KPOINT">    -1     0     0     0</v>
   <i type="logical" name="LTCTC"> F  </i>
   <i type="logical" name="LTCTE"> F  </i>
   <i type="logical" name="LTETE"> F  </i>
   <i type="logical" name="LTRIPLET"> F  </i>
   <i type="logical" name="LFXCEPS"> F  </i>
   <i type="logical" name="LFXHEG"> F  </i>
   <i type="int" name="NATURALO">     2</i>
   <i type="logical" name="LHOLEGF"> F  </i>
   <i type="logical" name="L2ORDER"> F  </i>
   <i type="logical" name="LDMP1"> F  </i>
   <i type="logical" name="LMP2LT"> F  </i>
   <i type="logical" name="LSMP2LT"> F  </i>
   <i type="logical" name="LGWLF"> F  </i>
   <i name="ENCUTGW">     -2.00000000</i>
   <i name="ENCUTGWSOFT">     -2.00000000</i>
   <i name="ENCUTLF">     -1.00000000</i>
   <i type="logical" name="LESF_SPLINES"> F  </i>
   <i type="int" name="LMAXMP2">    -1</i>
   <i name="SCISSOR">      0.00000000</i>
   <i type="int" name="NOMEGA">     0</i>
   <i type="int" name="NOMEGAR">     0</i>
   <i type="int" name="NBANDSGW">    -1</i>
   <i type="int" name="NBANDSO">    -1</i>
   <i type="int" name="NBANDSV">    -1</i>
   <i type="int" name="NELM">   250</i>
   <i type="int" name="NELMHF">     1</i>
   <i type="int" name="DIM">     3</i>
   <i type="int" name="IESPILON">     4</i>
   <i type="int" name="ANTIRES">     0</i>
   <i name="OMEGAMAX">    -30.00000000</i>
   <i name="OMEGAMIN">    -30.00000000</i>
   <i name="OMEGATL">   -200.00000000</i>
   <i type="int" name="OMEGAGRID">     0</i>
   <i name="CSHIFT">     -0.10000000</i>
   <i type="logical" name="LSELFENERGY"> F  </i>
   <i type="logical" name="LSPECTRAL"> F  </i>
   <i type="logical" name="LSPECTRALGW"> F  </i>
   <i type="logical" name="LSINGLES"> F  </i>
   <i type="logical" name="LFERMIGW"> F  </i>
   <i type="logical" name="ODDONLYGW"> F  </i>
   <i type="logical" name="EVENONLYGW"> F  </i>
   <i type="int" name="NKREDLFX">     1</i>
   <i type="int" name="NKREDLFY">     1</i>
   <i type="int" name="NKREDLFZ">     1</i>
   <i type="int" name="MAXMEM">  2800</i>
   <i type="int" name="TELESCOPE">     0</i>
   <i type="int" name="NTAUPAR">    -1</i>
   <i type="int" name="NOMEGAPAR">    -1</i>
   <i name="DAMP_NEWTON">      0.80000001</i>
   <i name="LAMBDA">      1.00000000</i>
  </separator>
  <separator name="External order field" >
   <i name="OFIELD_KAPPA">      0.00000000</i>
   <v name="OFIELD_K">      0.00000000      0.00000000      0.00000000</v>
   <i name="OFIELD_Q6_NEAR">      0.00000000</i>
   <i name="OFIELD_Q6_FAR">      0.00000000</i>
   <i name="OFIELD_A">      0.00000000</i>
  </separator>
  <separator name="solvation model" >
   <i type="logical" name="LSOL"> F  </i>
  </separator>
 </parameters>
 <atominfo>
  <atoms>     254 </atoms>
  <types>       2 </types>
  <array name="atoms" >
   <dimension dim="1">ion</dimension>
   <field type="string">element</field>
   <field type="int">atomtype</field>
   <set>
    <rc><c>Ni</c><c>   1</c></rc>
    <rc><c>Ni</c><c>   1</c></rc>
    <rc><c>Ni</c><c>   1</c></rc>
    <rc><c>Ni</c><c>   1</c></rc>
    <rc><c>Ni</c><c>   1</c></rc>
    <rc><c>Ni</c><c>   1</c></rc>
    <rc><c>Ni</c><c>   1</c></rc>
    <rc><c>Ni</c><c>   1</c></rc>
    <rc><c>Ni</c><c>   1</c></rc>
    <rc><c>Ni</c><c>   1</c></rc>
    <rc><c>Ni</c><c>   1</c></rc>
    <rc><c>Ni</c><c>   1</c></rc>
    <rc><c>Ni</c><c>   1</c></rc>
    <rc><c>Ni</c><c>   1</c></rc>
    <rc><c>Ni</c><c>   1</c></rc>
    <rc><c>Ni</c><c>   1</c></rc>
    <rc><c>Ni</c><c>   1</c></rc>
    <rc><c>Ni</c><c>   1</c></rc>
    <rc><c>Ni</c><c>   1</c></rc>
    <rc><c>Ni</c><c>   1</c></rc>
    <rc><c>Ni</c><c>   1</c></rc>
    <rc><c>Ni</c><c>   1</c></rc>
    <rc><c>Ni</c><c>   1</c></rc>
    <rc><c>Ni</c><c>   1</c></rc>
    <rc><c>Ni</c><c>   1</c></rc>
    <rc><c>Ni</c><c>   1</c></rc>
    <rc><c>Ni</c><c>   1</c></rc>
    <rc><c>Ni</c><c>   1</c></rc>
    <rc><c>Ni</c><c>   1</c></rc>
    <rc><c>Ni</c><c>   1</c></rc>
    <rc><c>Ni</c><c>   1</c></rc>
    <rc><c>Ni</c><c>   1</c></rc>
    <rc><c>Ni</c><c>   1</c></rc>
    <rc><c>Ni</c><c>   1</c></rc>
    <rc><c>Ni</c><c>   1</c></rc>
    <rc><c>Ni</c><c>   1</c></rc>
    <rc><c>Ni</c><c>   1</c></rc>
    <rc><c>Ni</c><c>   1</c></rc>
    <rc><c>Ni</c><c>   1</c></rc>
    <rc><c>Ni</c><c>   1</c></rc>
    <rc><c>Ni</c><c>   1</c></rc>
    <rc><c>Ni</c><c>   1</c></rc>
    <rc><c>Ni</c><c>   1</c></rc>
    <rc><c>Ni</c><c>   1</c></rc>
    <rc><c>Ni</c><c>   1</c></rc>
    <rc><c>Ni</c><c>   1</c></rc>
    <rc><c>Ni</c><c>   1</c></rc>
    <rc><c>Ni</c><c>   1</c></rc>
    <rc><c>Ni</c><c>   1</c></rc>
    <rc><c>Ni</c><c>   1</c></rc>
    <rc><c>Ni</c><c>   1</c></rc>
    <rc><c>Ni</c><c>   1</c></rc>
    <rc><c>Ni</c><c>   1</c></rc>
    <rc><c>Ni</c><c>   1</c></rc>
    <rc><c>Ni</c><c>   1</c></rc>
    <rc><c>Ni</c><c>   1</c></rc>
    <rc><c>Ni</c><c>   1</c></rc>
    <rc><c>Ni</c><c>   1</c></rc>
    <rc><c>Ni</c><c>   1</c></rc>
    <rc><c>Ni</c><c>   1</c></rc>
    <rc><c>Ni</c><c>   1</c></rc>
    <rc><c>Ni</c><c>   1</c></rc>
    <rc><c>Ni</c><c>   1</c></rc>
    <rc><c>Ni</c><c>   1</c></rc>
    <rc><c>Ni</c><c>   1</c></rc>
    <rc><c>Ni</c><c>   1</c></rc>
    <rc><c>Ni</c><c>   1</c></rc>
    <rc><c>Ni</c><c>   1</c></rc>
    <rc><c>Ni</c><c>   1</c></rc>
    <rc><c>Ni</c><c>   1</c></rc>
    <rc><c>Ni</c><c>   1</c></rc>
    <rc><c>Ni</c><c>   1</c></rc>
    <rc><c>Ni</c><c>   1</c></rc>
    <rc><c>Ni</c><c>   1</c></rc>
    <rc><c>Ni</c><c>   1</c></rc>
    <rc><c>Ni</c><c>   1</c></rc>
    <rc><c>Ni</c><c>   1</c></rc>
    <rc><c>Ni</c><c>   1</c></rc>
    <rc><c>Ni</c><c>   1</c></rc>
    <rc><c>Ni</c><c>   1</c></rc>
    <rc><c>Ni</c><c>   1</c></rc>
    <rc><c>Ni</c><c>   1</c></rc>
    <rc><c>Ni</c><c>   1</c></rc>
    <rc><c>Ni</c><c>   1</c></rc>
    <rc><c>Ni</c><c>   1</c></rc>
    <rc><c>Ni</c><c>   1</c></rc>
    <rc><c>Ni</c><c>   1</c></rc>
    <rc><c>Ni</c><c>   1</c></rc>
    <rc><c>Ni</c><c>   1</c></rc>
    <rc><c>Ni</c><c>   1</c></rc>
    <rc><c>Ni</c><c>   1</c></rc>
    <rc><c>Ni</c><c>   1</c></rc>
    <rc><c>Ni</c><c>   1</c></rc>
    <rc><c>Ni</c><c>   1</c></rc>
    <rc><c>Ni</c><c>   1</c></rc>
    <rc><c>Ni</c><c>   1</c></rc>
    <rc><c>Ni</c><c>   1</c></rc>
    <rc><c>Ni</c><c>   1</c></rc>
    <rc><c>Ni</c><c>   1</c></rc>
    <rc><c>Ni</c><c>   1</c></rc>
    <rc><c>Ni</c><c>   1</c></rc>
    <rc><c>Ni</c><c>   1</c></rc>
    <rc><c>Ni</c><c>   1</c></rc>
    <rc><c>Ni</c><c>   1</c></rc>
    <rc><c>Ni</c><c>   1</c></rc>
    <rc><c>Ni</c><c>   1</c></rc>
    <rc><c>Ni</c><c>   1</c></rc>
    <rc><c>Ni</c><c>   1</c></rc>
    <rc><c>Ni</c><c>   1</c></rc>
    <rc><c>Ni</c><c>   1</c></rc>
    <rc><c>Ni</c><c>   1</c></rc>
    <rc><c>Ni</c><c>   1</c></rc>
    <rc><c>Ni</c><c>   1</c></rc>
    <rc><c>Ni</c><c>   1</c></rc>
    <rc><c>Ni</c><c>   1</c></rc>
    <rc><c>Ni</c><c>   1</c></rc>
    <rc><c>Ni</c><c>   1</c></rc>
    <rc><c>Ni</c><c>   1</c></rc>
    <rc><c>Ni</c><c>   1</c></rc>
    <rc><c>Ni</c><c>   1</c></rc>
    <rc><c>Ni</c><c>   1</c></rc>
    <rc><c>Ni</c><c>   1</c></rc>
    <rc><c>Ni</c><c>   1</c></rc>
    <rc><c>Ni</c><c>   1</c></rc>
    <rc><c>Ni</c><c>   1</c></rc>
    <rc><c>Ni</c><c>   1</c></rc>
    <rc><c>Ni</c><c>   1</c></rc>
    <rc><c>Ni</c><c>   1</c></rc>
    <rc><c>Ni</c><c>   1</c></rc>
    <rc><c>Ni</c><c>   1</c></rc>
    <rc><c>Ni</c><c>   1</c></rc>
    <rc><c>Ni</c><c>   1</c></rc>
    <rc><c>Ni</c><c>   1</c></rc>
    <rc><c>Ni</c><c>   1</c></rc>
    <rc><c>Ni</c><c>   1</c></rc>
    <rc><c>Ni</c><c>   1</c></rc>
    <rc><c>Ni</c><c>   1</c></rc>
    <rc><c>Ni</c><c>   1</c></rc>
    <rc><c>Ni</c><c>   1</c></rc>
    <rc><c>Ni</c><c>   1</c></rc>
    <rc><c>Ni</c><c>   1</c></rc>
    <rc><c>Ni</c><c>   1</c></rc>
    <rc><c>Ni</c><c>   1</c></rc>
    <rc><c>Ni</c><c>   1</c></rc>
    <rc><c>Ni</c><c>   1</c></rc>
    <rc><c>Ni</c><c>   1</c></rc>
    <rc><c>Ni</c><c>   1</c></rc>
    <rc><c>Ni</c><c>   1</c></rc>
    <rc><c>Ni</c><c>   1</c></rc>
    <rc><c>Ni</c><c>   1</c></rc>
    <rc><c>Ni</c><c>   1</c></rc>
    <rc><c>Ni</c><c>   1</c></rc>
    <rc><c>Ni</c><c>   1</c></rc>
    <rc><c>Ni</c><c>   1</c></rc>
    <rc><c>Ni</c><c>   1</c></rc>
    <rc><c>Ni</c><c>   1</c></rc>
    <rc><c>Ni</c><c>   1</c></rc>
    <rc><c>Ni</c><c>   1</c></rc>
    <rc><c>Ni</c><c>   1</c></rc>
    <rc><c>Ni</c><c>   1</c></rc>
    <rc><c>Ni</c><c>   1</c></rc>
    <rc><c>Ni</c><c>   1</c></rc>
    <rc><c>Ni</c><c>   1</c></rc>
    <rc><c>Ni</c><c>   1</c></rc>
    <rc><c>Ni</c><c>   1</c></rc>
    <rc><c>Ni</c><c>   1</c></rc>
    <rc><c>Ni</c><c>   1</c></rc>
    <rc><c>Ni</c><c>   1</c></rc>
    <rc><c>Ni</c><c>   1</c></rc>
    <rc><c>Ni</c><c>   1</c></rc>
    <rc><c>Ni</c><c>   1</c></rc>
    <rc><c>Ni</c><c>   1</c></rc>
    <rc><c>Ni</c><c>   1</c></rc>
    <rc><c>Ni</c><c>   1</c></rc>
    <rc><c>Ni</c><c>   1</c></rc>
    <rc><c>Ni</c><c>   1</c></rc>
    <rc><c>Ni</c><c>   1</c></rc>
    <rc><c>Ni</c><c>   1</c></rc>
    <rc><c>Ni</c><c>   1</c></rc>
    <rc><c>Ni</c><c>   1</c></rc>
    <rc><c>Ni</c><c>   1</c></rc>
    <rc><c>Ni</c><c>   1</c></rc>
    <rc><c>Ni</c><c>   1</c></rc>
    <rc><c>Ni</c><c>   1</c></rc>
    <rc><c>Ni</c><c>   1</c></rc>
    <rc><c>Ni</c><c>   1</c></rc>
    <rc><c>Ni</c><c>   1</c></rc>
    <rc><c>Ni</c><c>   1</c></rc>
    <rc><c>Ni</c><c>   1</c></rc>
    <rc><c>Ni</c><c>   1</c></rc>
    <rc><c>Ni</c><c>   1</c></rc>
    <rc><c>Ni</c><c>   1</c></rc>
    <rc><c>Ni</c><c>   1</c></rc>
    <rc><c>Ni</c><c>   1</c></rc>
    <rc><c>Ni</c><c>   1</c></rc>
    <rc><c>Ni</c><c>   1</c></rc>
    <rc><c>Ni</c><c>   1</c></rc>
    <rc><c>Ni</c><c>   1</c></rc>
    <rc><c>Ni</c><c>   1</c></rc>
    <rc><c>Ni</c><c>   1</c></rc>
    <rc><c>Ni</c><c>   1</c></rc>
    <rc><c>Ni</c><c>   1</c></rc>
    <rc><c>Ni</c><c>   1</c></rc>
    <rc><c>Ni</c><c>   1</c></rc>
    <rc><c>Ni</c><c>   1</c></rc>
    <rc><c>Ni</c><c>   1</c></rc>
    <rc><c>Ni</c><c>   1</c></rc>
    <rc><c>Ni</c><c>   1</c></rc>
    <rc><c>Ni</c><c>   1</c></rc>
    <rc><c>Ni</c><c>   1</c></rc>
    <rc><c>Ni</c><c>   1</c></rc>
    <rc><c>Ni</c><c>   1</c></rc>
    <rc><c>Ni</c><c>   1</c></rc>
    <rc><c>Ni</c><c>   1</c></rc>
    <rc><c>Ni</c><c>   1</c></rc>
    <rc><c>Ni</c><c>   1</c></rc>
    <rc><c>Ni</c><c>   1</c></rc>
    <rc><c>Ni</c><c>   1</c></rc>
    <rc><c>Ni</c><c>   1</c></rc>
    <rc><c>Ni</c><c>   1</c></rc>
    <rc><c>Ni</c><c>   1</c></rc>
    <rc><c>Ni</c><c>   1</c></rc>
    <rc><c>Ni</c><c>   1</c></rc>
    <rc><c>Ni</c><c>   1</c></rc>
    <rc><c>Ni</c><c>   1</c></rc>
    <rc><c>Ni</c><c>   1</c></rc>
    <rc><c>Ni</c><c>   1</c></rc>
    <rc><c>Ni</c><c>   1</c></rc>
    <rc><c>Ni</c><c>   1</c></rc>
    <rc><c>Ni</c><c>   1</c></rc>
    <rc><c>Ni</c><c>   1</c></rc>
    <rc><c>Ni</c><c>   1</c></rc>
    <rc><c>Ni</c><c>   1</c></rc>
    <rc><c>Ni</c><c>   1</c></rc>
    <rc><c>Ni</c><c>   1</c></rc>
    <rc><c>Ni</c><c>   1</c></rc>
    <rc><c>Ni</c><c>   1</c></rc>
    <rc><c>Ni</c><c>   1</c></rc>
    <rc><c>Ni</c><c>   1</c></rc>
    <rc><c>Ni</c><c>   1</c></rc>
    <rc><c>Ni</c><c>   1</c></rc>
    <rc><c>Ni</c><c>   1</c></rc>
    <rc><c>Ni</c><c>   1</c></rc>
    <rc><c>Ni</c><c>   1</c></rc>
    <rc><c>Ni</c><c>   1</c></rc>
    <rc><c>Ni</c><c>   1</c></rc>
    <rc><c>Ni</c><c>   1</c></rc>
    <rc><c>Ni</c><c>   1</c></rc>
    <rc><c>Ni</c><c>   1</c></rc>
    <rc><c>Ni</c><c>   1</c></rc>
    <rc><c>Ni</c><c>   1</c></rc>
    <rc><c>Ni</c><c>   1</c></rc>
    <rc><c>O </c><c>   2</c></rc>
    <rc><c>O </c><c>   2</c></rc>
   </set>
  </array>
  <array name="atomtypes" >
   <dimension dim="1">type</dimension>
   <field type="int">atomspertype</field>
   <field type="string">element</field>
   <field>mass</field>
   <field>valence</field>
   <field type="string">pseudopotential</field>
   <set>
    <rc><c> 252</c><c>Ni</c><c>     58.69000000</c><c>     10.00000000</c><c>  PAW Ni_GW 31Mar2010                   </c></rc>
    <rc><c>   2</c><c>O </c><c>     16.00000000</c><c>      6.00000000</c><c>  PAW O_GW 19Mar2012                    </c></rc>
   </set>
  </array>
 </atominfo>
 <structure name="initialpos" >
  <crystal>
   <varray name="basis" >
    <v>       0.00000000     -15.14622176       0.00000000 </v>
    <v>       0.00000000      -7.57311088     -13.11701281 </v>
    <v>      29.00000000       0.00000000       0.00000000 </v>
   </varray>
   <i name="volume">   5761.52236213 </i>
   <varray name="rec_basis" >
    <v>       0.00000000      -0.06602307       0.03811843 </v>
    <v>       0.00000000       0.00000000      -0.07623687 </v>
    <v>       0.03448276       0.00000000       0.00000000 </v>
   </varray>
  </crystal>
  <varray name="positions" >
   <v>       0.44444450       0.44444418       0.10434517 </v>
   <v>       0.44444439       0.77777770       0.10434517 </v>
   <v>       0.44444423       0.11111143       0.10434517 </v>
   <v>       0.77777779       0.44444418       0.10434517 </v>
   <v>       0.77777768       0.77777770       0.10434517 </v>
   <v>       0.77777752       0.11111143       0.10434517 </v>
   <v>       0.11111120       0.44444418       0.10434517 </v>
   <v>       0.11111109       0.77777770       0.10434517 </v>
   <v>       0.11111093       0.11111143       0.10434517 </v>
   <v>       0.55555543       0.55555561       0.17318552 </v>
   <v>       0.55555532       0.88888912       0.17318552 </v>
   <v>       0.55555554       0.22222209       0.17318552 </v>
   <v>       0.88888873       0.55555561       0.17318552 </v>
   <v>       0.88888862       0.88888912       0.17318552 </v>
   <v>       0.88888884       0.22222209       0.17318552 </v>
   <v>       0.22222214       0.55555561       0.17318552 </v>
   <v>       0.22222203       0.88888912       0.17318552 </v>
   <v>       0.22222225       0.22222209       0.17318552 </v>
   <v>       0.66666637       0.66666703       0.24249897 </v>
   <v>       0.66666659       0.00000000       0.24249897 </v>
   <v>       0.66666648       0.33333352       0.24249897 </v>
   <v>       0.99999978       0.66666703       0.24249897 </v>
   <v>       0.00000000       0.00000000       0.24249897 </v>
   <v>       0.99999989       0.33333352       0.24249897 </v>
   <v>       0.33333307       0.66666703       0.24249897 </v>
   <v>       0.33333329       0.00000000       0.24249897 </v>
   <v>       0.33333318       0.33333352       0.24249897 </v>
   <v>       0.77777768       0.77777770       0.31173069 </v>
   <v>       0.77777752       0.11111143       0.31173069 </v>
   <v>       0.77777779       0.44444418       0.31173069 </v>
   <v>       0.11111109       0.77777770       0.31173069 </v>
   <v>       0.11111093       0.11111143       0.31173069 </v>
   <v>       0.11111120       0.44444418       0.31173069 </v>
   <v>       0.44444439       0.77777770       0.31173069 </v>
   <v>       0.44444423       0.11111143       0.31173069 </v>
   <v>       0.44444450       0.44444418       0.31173069 </v>
   <v>       0.88888862       0.88888912       0.38096241 </v>
   <v>       0.88888884       0.22222209       0.38096241 </v>
   <v>       0.88888873       0.55555561       0.38096241 </v>
   <v>       0.22222203       0.88888912       0.38096241 </v>
   <v>       0.22222225       0.22222209       0.38096241 </v>
   <v>       0.22222214       0.55555561       0.38096241 </v>
   <v>       0.55555532       0.88888912       0.38096241 </v>
   <v>       0.55555554       0.22222209       0.38096241 </v>
   <v>       0.55555543       0.55555561       0.38096241 </v>
   <v>       0.00000000       0.00000000       0.45027586 </v>
   <v>       0.99999989       0.33333352       0.45027586 </v>
   <v>       0.99999978       0.66666703       0.45027586 </v>
   <v>       0.33333329       0.00000000       0.45027586 </v>
   <v>       0.33333318       0.33333352       0.45027586 </v>
   <v>       0.33333307       0.66666703       0.45027586 </v>
   <v>       0.66666659       0.00000000       0.45027586 </v>
   <v>       0.66666648       0.33333352       0.45027586 </v>
   <v>       0.66666637       0.66666703       0.45027586 </v>
   <v>       0.11111093       0.11111143       0.51911621 </v>
   <v>       0.11111120       0.44444418       0.51911621 </v>
   <v>       0.11111109       0.77777770       0.51911621 </v>
   <v>       0.44444423       0.11111143       0.51911621 </v>
   <v>       0.44444450       0.44444418       0.51911621 </v>
   <v>       0.44444439       0.77777770       0.51911621 </v>
   <v>       0.77777752       0.11111143       0.51911621 </v>
   <v>       0.77777779       0.44444418       0.51911621 </v>
   <v>       0.77777768       0.77777770       0.51911621 </v>
   <v>       0.27777824       0.27777742       0.10434517 </v>
   <v>       0.27777813       0.61111094       0.10434517 </v>
   <v>       0.27777802       0.94444445       0.10434517 </v>
   <v>       0.61111153       0.27777742       0.10434517 </v>
   <v>       0.61111142       0.61111094       0.10434517 </v>
   <v>       0.61111131       0.94444445       0.10434517 </v>
   <v>       0.94444483       0.27777742       0.10434517 </v>
   <v>       0.94444472       0.61111094       0.10434517 </v>
   <v>       0.94444461       0.94444445       0.10434517 </v>
   <v>       0.38888917       0.38888885       0.17318552 </v>
   <v>       0.38888906       0.72222236       0.17318552 </v>
   <v>       0.38888928       0.05555533       0.17318552 </v>
   <v>       0.72222247       0.38888885       0.17318552 </v>
   <v>       0.72222236       0.72222236       0.17318552 </v>
   <v>       0.72222258       0.05555533       0.17318552 </v>
   <v>       0.05555588       0.38888885       0.17318552 </v>
   <v>       0.05555577       0.72222236       0.17318552 </v>
   <v>       0.05555599       0.05555533       0.17318552 </v>
   <v>       0.50000011       0.50000027       0.24249897 </v>
   <v>       0.50000038       0.83333303       0.24249897 </v>
   <v>       0.50000022       0.16666676       0.24249897 </v>
   <v>       0.83333340       0.50000027       0.24249897 </v>
   <v>       0.83333367       0.83333303       0.24249897 </v>
   <v>       0.83333351       0.16666676       0.24249897 </v>
   <v>       0.16666681       0.50000027       0.24249897 </v>
   <v>       0.16666708       0.83333303       0.24249897 </v>
   <v>       0.16666692       0.16666676       0.24249897 </v>
   <v>       0.61111142       0.61111094       0.31173069 </v>
   <v>       0.61111131       0.94444445       0.31173069 </v>
   <v>       0.61111153       0.27777742       0.31173069 </v>
   <v>       0.94444472       0.61111094       0.31173069 </v>
   <v>       0.94444461       0.94444445       0.31173069 </v>
   <v>       0.94444483       0.27777742       0.31173069 </v>
   <v>       0.27777813       0.61111094       0.31173069 </v>
   <v>       0.27777802       0.94444445       0.31173069 </v>
   <v>       0.27777824       0.27777742       0.31173069 </v>
   <v>       0.72222236       0.72222236       0.38096241 </v>
   <v>       0.72222258       0.05555533       0.38096241 </v>
   <v>       0.72222247       0.38888885       0.38096241 </v>
   <v>       0.05555577       0.72222236       0.38096241 </v>
   <v>       0.05555599       0.05555533       0.38096241 </v>
   <v>       0.05555588       0.38888885       0.38096241 </v>
   <v>       0.38888906       0.72222236       0.38096241 </v>
   <v>       0.38888928       0.05555533       0.38096241 </v>
   <v>       0.38888917       0.38888885       0.38096241 </v>
   <v>       0.83333367       0.83333303       0.45027586 </v>
   <v>       0.83333351       0.16666676       0.45027586 </v>
   <v>       0.83333340       0.50000027       0.45027586 </v>
   <v>       0.16666708       0.83333303       0.45027586 </v>
   <v>       0.16666692       0.16666676       0.45027586 </v>
   <v>       0.16666681       0.50000027       0.45027586 </v>
   <v>       0.50000038       0.83333303       0.45027586 </v>
   <v>       0.50000022       0.16666676       0.45027586 </v>
   <v>       0.50000011       0.50000027       0.45027586 </v>
   <v>       0.94444461       0.94444445       0.51911621 </v>
   <v>       0.94444483       0.27777742       0.51911621 </v>
   <v>       0.94444472       0.61111094       0.51911621 </v>
   <v>       0.27777802       0.94444445       0.51911621 </v>
   <v>       0.27777824       0.27777742       0.51911621 </v>
   <v>       0.27777813       0.61111094       0.51911621 </v>
   <v>       0.61111131       0.94444445       0.51911621 </v>
   <v>       0.61111153       0.27777742       0.51911621 </v>
   <v>       0.61111142       0.61111094       0.51911621 </v>
   <v>       0.27777785       0.44444418       0.10434517 </v>
   <v>       0.27777774       0.77777770       0.10434517 </v>
   <v>       0.27777758       0.11111143       0.10434517 </v>
   <v>       0.61111115       0.44444418       0.10434517 </v>
   <v>       0.61111104       0.77777770       0.10434517 </v>
   <v>       0.61111088       0.11111143       0.10434517 </v>
   <v>       0.94444444       0.44444418       0.10434517 </v>
   <v>       0.94444433       0.77777770       0.10434517 </v>
   <v>       0.94444417       0.11111143       0.10434517 </v>
   <v>       0.38888879       0.55555561       0.17318552 </v>
   <v>       0.38888868       0.88888912       0.17318552 </v>
   <v>       0.38888890       0.22222209       0.17318552 </v>
   <v>       0.72222208       0.55555561       0.17318552 </v>
   <v>       0.72222197       0.88888912       0.17318552 </v>
   <v>       0.72222219       0.22222209       0.17318552 </v>
   <v>       0.05555549       0.55555561       0.17318552 </v>
   <v>       0.05555538       0.88888912       0.17318552 </v>
   <v>       0.05555560       0.22222209       0.17318552 </v>
   <v>       0.49999972       0.66666703       0.24249897 </v>
   <v>       0.49999994       0.00000000       0.24249897 </v>
   <v>       0.49999983       0.33333352       0.24249897 </v>
   <v>       0.83333302       0.66666703       0.24249897 </v>
   <v>       0.83333324       0.00000000       0.24249897 </v>
   <v>       0.83333313       0.33333352       0.24249897 </v>
   <v>       0.16666643       0.66666703       0.24249897 </v>
   <v>       0.16666665       0.00000000       0.24249897 </v>
   <v>       0.16666654       0.33333352       0.24249897 </v>
   <v>       0.61111104       0.77777770       0.31173069 </v>
   <v>       0.61111088       0.11111143       0.31173069 </v>
   <v>       0.61111115       0.44444418       0.31173069 </v>
   <v>       0.94444433       0.77777770       0.31173069 </v>
   <v>       0.94444417       0.11111143       0.31173069 </v>
   <v>       0.94444444       0.44444418       0.31173069 </v>
   <v>       0.27777774       0.77777770       0.31173069 </v>
   <v>       0.27777758       0.11111143       0.31173069 </v>
   <v>       0.27777785       0.44444418       0.31173069 </v>
   <v>       0.72222197       0.88888912       0.38096241 </v>
   <v>       0.72222219       0.22222209       0.38096241 </v>
   <v>       0.72222208       0.55555561       0.38096241 </v>
   <v>       0.05555538       0.88888912       0.38096241 </v>
   <v>       0.05555560       0.22222209       0.38096241 </v>
   <v>       0.05555549       0.55555561       0.38096241 </v>
   <v>       0.38888868       0.88888912       0.38096241 </v>
   <v>       0.38888890       0.22222209       0.38096241 </v>
   <v>       0.38888879       0.55555561       0.38096241 </v>
   <v>       0.83333324       0.00000000       0.45027586 </v>
   <v>       0.83333313       0.33333352       0.45027586 </v>
   <v>       0.83333302       0.66666703       0.45027586 </v>
   <v>       0.16666665       0.00000000       0.45027586 </v>
   <v>       0.16666654       0.33333352       0.45027586 </v>
   <v>       0.16666643       0.66666703       0.45027586 </v>
   <v>       0.49999994       0.00000000       0.45027586 </v>
   <v>       0.49999983       0.33333352       0.45027586 </v>
   <v>       0.49999972       0.66666703       0.45027586 </v>
   <v>       0.94444417       0.11111143       0.51911621 </v>
   <v>       0.94444444       0.44444418       0.51911621 </v>
   <v>       0.94444433       0.77777770       0.51911621 </v>
   <v>       0.27777758       0.11111143       0.51911621 </v>
   <v>       0.27777785       0.44444418       0.51911621 </v>
   <v>       0.27777774       0.77777770       0.51911621 </v>
   <v>       0.61111088       0.11111143       0.51911621 </v>
   <v>       0.61111115       0.44444418       0.51911621 </v>
   <v>       0.61111104       0.77777770       0.51911621 </v>
   <v>       0.44444488       0.27777742       0.10434517 </v>
   <v>       0.44444477       0.61111094       0.10434517 </v>
   <v>       0.44444466       0.94444445       0.10434517 </v>
   <v>       0.77777818       0.27777742       0.10434517 </v>
   <v>       0.77777807       0.61111094       0.10434517 </v>
   <v>       0.77777796       0.94444445       0.10434517 </v>
   <v>       0.11111159       0.27777742       0.10434517 </v>
   <v>       0.11111148       0.61111094       0.10434517 </v>
   <v>       0.11111137       0.94444445       0.10434517 </v>
   <v>       0.55555582       0.38888885       0.17318552 </v>
   <v>       0.55555571       0.72222236       0.17318552 </v>
   <v>       0.55555593       0.05555533       0.17318552 </v>
   <v>       0.88888911       0.38888885       0.17318552 </v>
   <v>       0.88888900       0.72222236       0.17318552 </v>
   <v>       0.88888922       0.05555533       0.17318552 </v>
   <v>       0.22222252       0.38888885       0.17318552 </v>
   <v>       0.22222241       0.72222236       0.17318552 </v>
   <v>       0.22222264       0.05555533       0.17318552 </v>
   <v>       0.66666675       0.50000027       0.24249897 </v>
   <v>       0.66666702       0.83333303       0.24249897 </v>
   <v>       0.66666686       0.16666676       0.24249897 </v>
   <v>       0.00000016       0.50000027       0.24249897 </v>
   <v>       0.00000043       0.83333303       0.24249897 </v>
   <v>       0.00000027       0.16666676       0.24249897 </v>
   <v>       0.33333346       0.50000027       0.24249897 </v>
   <v>       0.33333373       0.83333303       0.24249897 </v>
   <v>       0.33333357       0.16666676       0.24249897 </v>
   <v>       0.77777807       0.61111094       0.31173069 </v>
   <v>       0.77777796       0.94444445       0.31173069 </v>
   <v>       0.77777818       0.27777742       0.31173069 </v>
   <v>       0.11111148       0.61111094       0.31173069 </v>
   <v>       0.11111137       0.94444445       0.31173069 </v>
   <v>       0.11111159       0.27777742       0.31173069 </v>
   <v>       0.44444477       0.61111094       0.31173069 </v>
   <v>       0.44444466       0.94444445       0.31173069 </v>
   <v>       0.44444488       0.27777742       0.31173069 </v>
   <v>       0.88888900       0.72222236       0.38096241 </v>
   <v>       0.88888922       0.05555533       0.38096241 </v>
   <v>       0.88888911       0.38888885       0.38096241 </v>
   <v>       0.22222241       0.72222236       0.38096241 </v>
   <v>       0.22222264       0.05555533       0.38096241 </v>
   <v>       0.22222252       0.38888885       0.38096241 </v>
   <v>       0.55555571       0.72222236       0.38096241 </v>
   <v>       0.55555593       0.05555533       0.38096241 </v>
   <v>       0.55555582       0.38888885       0.38096241 </v>
   <v>       0.00000043       0.83333303       0.45027586 </v>
   <v>       0.00000027       0.16666676       0.45027586 </v>
   <v>       0.00000016       0.50000027       0.45027586 </v>
   <v>       0.33333373       0.83333303       0.45027586 </v>
   <v>       0.33333357       0.16666676       0.45027586 </v>
   <v>       0.33333346       0.50000027       0.45027586 </v>
   <v>       0.66666702       0.83333303       0.45027586 </v>
   <v>       0.66666686       0.16666676       0.45027586 </v>
   <v>       0.66666675       0.50000027       0.45027586 </v>
   <v>       0.11111137       0.94444445       0.51911621 </v>
   <v>       0.11111159       0.27777742       0.51911621 </v>
   <v>       0.11111148       0.61111094       0.51911621 </v>
   <v>       0.44444466       0.94444445       0.51911621 </v>
   <v>       0.44444488       0.27777742       0.51911621 </v>
   <v>       0.44444477       0.61111094       0.51911621 </v>
   <v>       0.77777796       0.94444445       0.51911621 </v>
   <v>       0.77777818       0.27777742       0.51911621 </v>
   <v>       0.77777807       0.61111094       0.51911621 </v>
   <v>       0.54875669       0.40253067       0.69137931 </v>
   <v>       0.50682642       0.48639123       0.69137931 </v>
  </varray>
 </structure>
 <calculation>
  <scstep>
   <time name="dav">   32.85   32.87</time>
   <time name="total">   33.49   33.53</time>
   <energy>
    <i name="alphaZ">  11989.56231627 </i>
    <i name="ewald">1640333.09457525 </i>
    <i name="hartreedc">**************** </i>
    <i name="XCdc">   2948.52665495 </i>
    <i name="pawpsdc"> 240645.55203634 </i>
    <i name="pawaedc">-260205.15184403 </i>
    <i name="eentropy">     -0.17418734 </i>
    <i name="bandstr">  18942.06289393 </i>
    <i name="atom"> 272423.81458302 </i>
    <i name="e_fr_energy">  22335.74223015 </i>
    <i name="e_wo_entrp">  22335.91641749 </i>
    <i name="e_0_energy">  22335.82932382 </i>
   </energy>
  </scstep>
  <scstep>
   <time name="dav">   32.71   32.72</time>
   <time name="total">   32.72   32.72</time>
   <energy>
    <i name="e_fr_energy">    101.02374411 </i>
    <i name="e_wo_entrp">    101.24100242 </i>
    <i name="e_0_energy">    101.13237327 </i>
   </energy>
  </scstep>
  <scstep>
   <time name="dav">   35.94   35.95</time>
   <time name="total">   35.95   35.95</time>
   <energy>
    <i name="e_fr_energy">  -1337.79475023 </i>
    <i name="e_wo_entrp">  -1336.96813158 </i>
    <i name="e_0_energy">  -1337.38144091 </i>
   </energy>
  </scstep>
  <scstep>
   <time name="dav">   51.44   51.45</time>
   <time name="total">   51.45   51.46</time>
   <energy>
    <i name="e_fr_energy">  -1555.52389707 </i>
    <i name="e_wo_entrp">  -1554.34779748 </i>
    <i name="e_0_energy">  -1554.93584727 </i>
   </energy>
  </scstep>
  <scstep>
   <time name="dav">   46.51   46.53</time>
   <time name="total">   48.33   48.35</time>
   <energy>
    <i name="e_fr_energy">  -1567.29905933 </i>
    <i name="e_wo_entrp">  -1566.10201995 </i>
    <i name="e_0_energy">  -1566.70053964 </i>
   </energy>
  </scstep>
  <scstep>
   <time name="dav">   40.43   40.45</time>
   <time name="total">   42.85   42.86</time>
   <energy>
    <i name="e_fr_energy">  -1944.30191512 </i>
    <i name="e_wo_entrp">  -1943.91548544 </i>
    <i name="e_0_energy">  -1944.10870028 </i>
   </energy>
  </scstep>
  <scstep>
   <time name="dav">   35.42   35.44</time>
   <time name="total">   37.85   37.87</time>
   <energy>
    <i name="e_fr_energy">  -1769.89208688 </i>
    <i name="e_wo_entrp">  -1769.06334350 </i>
    <i name="e_0_energy">  -1769.47771519 </i>
   </energy>
  </scstep>
  <scstep>
   <time name="dav">   42.07   42.09</time>
   <time name="total">   44.47   44.49</time>
   <energy>
    <i name="e_fr_energy">  -2128.77794430 </i>
    <i name="e_wo_entrp">  -2128.51076104 </i>
    <i name="e_0_energy">  -2128.64435267 </i>
   </energy>
  </scstep>
  <scstep>
   <time name="dav">   37.76   37.76</time>
   <time name="total">   40.19   40.20</time>
   <energy>
    <i name="e_fr_energy">  -1861.07078973 </i>
    <i name="e_wo_entrp">  -1860.73140358 </i>
    <i name="e_0_energy">  -1860.90109666 </i>
   </energy>
  </scstep>
  <scstep>
   <time name="dav">   43.12   43.12</time>
   <time name="total">   45.53   45.54</time>
   <energy>
    <i name="e_fr_energy">  -1716.70021990 </i>
    <i name="e_wo_entrp">  -1716.42418210 </i>
    <i name="e_0_energy">  -1716.56220100 </i>
   </energy>
  </scstep>
  <scstep>
   <time name="dav">   37.65   37.65</time>
   <time name="total">   40.07   40.07</time>
   <energy>
    <i name="e_fr_energy">  -1556.60487116 </i>
    <i name="e_wo_entrp">  -1556.23446598 </i>
    <i name="e_0_energy">  -1556.41966857 </i>
   </energy>
  </scstep>
  <scstep>
   <time name="dav">   41.76   41.76</time>
   <time name="total">   44.18   44.19</time>
   <energy>
    <i name="e_fr_energy">  -1618.38733177 </i>
    <i name="e_wo_entrp">  -1618.12000107 </i>
    <i name="e_0_energy">  -1618.25366642 </i>
   </energy>
  </scstep>
  <scstep>
   <time name="dav">   38.41   38.42</time>
   <time name="total">   40.87   40.87</time>
   <energy>
    <i name="e_fr_energy">  -1517.29673617 </i>
    <i name="e_wo_entrp">  -1516.69275504 </i>
    <i name="e_0_energy">  -1516.99474560 </i>
   </energy>
  </scstep>
  <scstep>
   <time name="dav">   36.11   36.11</time>
   <time name="total">   38.55   38.56</time>
   <energy>
    <i name="e_fr_energy">  -1534.32440497 </i>
    <i name="e_wo_entrp">  -1533.98444999 </i>
    <i name="e_0_energy">  -1534.15442748 </i>
   </energy>
  </scstep>
  <scstep>
   <time name="dav">   35.26   35.26</time>
   <time name="total">   37.71   37.71</time>
   <energy>
    <i name="e_fr_energy">  -1497.99817657 </i>
    <i name="e_wo_entrp">  -1497.67711362 </i>
    <i name="e_0_energy">  -1497.83764510 </i>
   </energy>
  </scstep>
  <scstep>
   <time name="dav">   48.73   48.74</time>
   <time name="total">   51.19   51.20</time>
   <energy>
    <i name="e_fr_energy">  -1395.93214756 </i>
    <i name="e_wo_entrp">  -1395.41099870 </i>
    <i name="e_0_energy">  -1395.67157313 </i>
   </energy>
  </scstep>
  <scstep>
   <time name="dav">   34.56   34.56</time>
   <time name="total">   37.03   37.04</time>
   <energy>
    <i name="e_fr_energy">  -1405.16258128 </i>
    <i name="e_wo_entrp">  -1404.61721214 </i>
    <i name="e_0_energy">  -1404.88989671 </i>
   </energy>
  </scstep>
  <scstep>
   <time name="dav">   34.41   34.42</time>
   <time name="total">   36.90   36.91</time>
   <energy>
    <i name="e_fr_energy">  -1353.90134299 </i>
    <i name="e_wo_entrp">  -1352.97813952 </i>
    <i name="e_0_energy">  -1353.43974126 </i>
   </energy>
  </scstep>
  <scstep>
   <time name="dav">   35.08   35.09</time>
   <time name="total">   37.60   37.60</time>
   <energy>
    <i name="e_fr_energy">  -1351.04872680 </i>
    <i name="e_wo_entrp">  -1350.27163192 </i>
    <i name="e_0_energy">  -1350.66017936 </i>
   </energy>
  </scstep>
  <scstep>
   <time name="dav">   34.91   34.91</time>
   <time name="total">   37.41   37.41</time>
   <energy>
    <i name="e_fr_energy">  -1340.09600026 </i>
    <i name="e_wo_entrp">  -1339.06321402 </i>
    <i name="e_0_energy">  -1339.57960714 </i>
   </energy>
  </scstep>
  <scstep>
   <time name="dav">   35.18   35.19</time>
   <time name="total">   37.72   37.72</time>
   <energy>
    <i name="e_fr_energy">  -1339.22947224 </i>
    <i name="e_wo_entrp">  -1338.24893443 </i>
    <i name="e_0_energy">  -1338.73920333 </i>
   </energy>
  </scstep>
  <scstep>
   <time name="dav">   34.93   34.94</time>
   <time name="total">   37.47   37.48</time>
   <energy>
    <i name="e_fr_energy">  -1336.98659834 </i>
    <i name="e_wo_entrp">  -1336.00257950 </i>
    <i name="e_0_energy">  -1336.49458892 </i>
   </energy>
  </scstep>
  <scstep>
   <time name="dav">   35.39   35.40</time>
   <time name="total">   37.95   37.96</time>
   <energy>
    <i name="e_fr_energy">  -1333.53528581 </i>
    <i name="e_wo_entrp">  -1332.48126568 </i>
    <i name="e_0_energy">  -1333.00827574 </i>
   </energy>
  </scstep>
  <scstep>
   <time name="dav">   35.11   35.11</time>
   <time name="total">   37.68   37.69</time>
   <energy>
    <i name="e_fr_energy">  -1332.30234826 </i>
    <i name="e_wo_entrp">  -1331.23403787 </i>
    <i name="e_0_energy">  -1331.76819307 </i>
   </energy>
  </scstep>
  <scstep>
   <time name="dav">   35.16   35.17</time>
   <time name="total">   37.77   37.78</time>
   <energy>
    <i name="e_fr_energy">  -1330.93178302 </i>
    <i name="e_wo_entrp">  -1329.82023089 </i>
    <i name="e_0_energy">  -1330.37600696 </i>
   </energy>
  </scstep>
  <scstep>
   <time name="dav">   35.01   35.01</time>
   <time name="total">   37.63   37.63</time>
   <energy>
    <i name="e_fr_energy">  -1329.00993648 </i>
    <i name="e_wo_entrp">  -1327.77569024 </i>
    <i name="e_0_energy">  -1328.39281336 </i>
   </energy>
  </scstep>
  <scstep>
   <time name="dav">   35.03   35.03</time>
   <time name="total">   37.65   37.66</time>
   <energy>
    <i name="e_fr_energy">  -1326.75136341 </i>
    <i name="e_wo_entrp">  -1325.40906899 </i>
    <i name="e_0_energy">  -1326.08021620 </i>
   </energy>
  </scstep>
  <scstep>
   <time name="dav">   35.52   35.53</time>
   <time name="total">   38.15   38.16</time>
   <energy>
    <i name="e_fr_energy">  -1329.17427642 </i>
    <i name="e_wo_entrp">  -1327.93473164 </i>
    <i name="e_0_energy">  -1328.55450403 </i>
   </energy>
  </scstep>
  <scstep>
   <time name="dav">   35.61   35.61</time>
   <time name="total">   38.28   38.28</time>
   <energy>
    <i name="e_fr_energy">  -1332.63374991 </i>
    <i name="e_wo_entrp">  -1331.58681711 </i>
    <i name="e_0_energy">  -1332.11028351 </i>
   </energy>
  </scstep>
  <scstep>
   <time name="dav">   35.53   35.53</time>
   <time name="total">   38.20   38.21</time>
   <energy>
    <i name="e_fr_energy">  -1331.13752611 </i>
    <i name="e_wo_entrp">  -1330.03460802 </i>
    <i name="e_0_energy">  -1330.58606706 </i>
   </energy>
  </scstep>
  <scstep>
   <time name="dav">   35.33   35.33</time>
   <time name="total">   38.02   38.02</time>
   <energy>
    <i name="e_fr_energy">  -1328.41449947 </i>
    <i name="e_wo_entrp">  -1327.17562038 </i>
    <i name="e_0_energy">  -1327.79505992 </i>
   </energy>
  </scstep>
  <scstep>
   <time name="dav">   35.26   35.26</time>
   <time name="total">   37.98   37.99</time>
   <energy>
    <i name="e_fr_energy">  -1327.19365989 </i>
    <i name="e_wo_entrp">  -1325.92506251 </i>
[...]
       <r>    -2.1311   918.3300  1305.0353 </r>
       <r>    -2.0007   794.0551  1408.5666 </r>
       <r>    -1.8704   915.9672  1527.9931 </r>
       <r>    -1.7400   572.2588  1602.6059 </r>
       <r>    -1.6096   592.5505  1679.8644 </r>
       <r>    -1.4792   532.9125  1749.3471 </r>
       <r>    -1.3488   713.7085  1842.4025 </r>
       <r>    -1.2184   765.2108  1942.1730 </r>
       <r>    -1.0881   510.5428  2008.7391 </r>
       <r>    -0.9577   764.8993  2108.4689 </r>
       <r>    -0.8273   859.7927  2220.5712 </r>
       <r>    -0.6969   656.6540  2306.1877 </r>
       <r>    -0.5665  1059.7775  2444.3646 </r>
       <r>    -0.4361  1190.5591  2599.5933 </r>
       <r>    -0.3058   450.9084  2658.3840 </r>
       <r>    -0.1754   140.8367  2676.7468 </r>
       <r>    -0.0450   143.9991  2695.5218 </r>
       <r>     0.0854   162.1143  2716.6587 </r>
       <r>     0.2158    41.9484  2722.1281 </r>
       <r>     0.3462    48.8869  2728.5021 </r>
       <r>     0.4765    92.3539  2740.5435 </r>
       <r>     0.6069    89.5900  2752.2245 </r>
       <r>     0.7373    93.1046  2764.3637 </r>
       <r>     0.8677    80.0529  2774.8013 </r>
       <r>     0.9981   140.6324  2793.1373 </r>
       <r>     1.1285    68.7733  2802.1042 </r>
       <r>     1.2588    29.2377  2805.9163 </r>
       <r>     1.3892   123.7626  2822.0528 </r>
       <r>     1.5196    29.3066  2825.8739 </r>
       <r>     1.6500    85.7416  2837.0532 </r>
       <r>     1.7804    93.1197  2849.1944 </r>
       <r>     1.9108    77.0487  2859.2402 </r>
       <r>     2.0411    97.8896  2872.0034 </r>
       <r>     2.1715    40.2040  2877.2453 </r>
       <r>     2.3019   103.9852  2890.8032 </r>
       <r>     2.4323   106.9580  2904.7487 </r>
       <r>     2.5627    28.3335  2908.4429 </r>
       <r>     2.6930    61.3745  2916.4451 </r>
       <r>     2.8234    11.4034  2917.9319 </r>
       <r>     2.9538    48.1365  2924.2080 </r>
       <r>     3.0842   153.5572  2944.2293 </r>
       <r>     3.2146   154.5306  2964.3774 </r>
       <r>     3.3450    23.4525  2967.4352 </r>
       <r>     3.4753    39.4390  2972.5774 </r>
       <r>     3.6057    83.6468  2983.4835 </r>
       <r>     3.7361    51.8858  2990.2486 </r>
       <r>     3.8665    40.3675  2995.5118 </r>
       <r>     3.9969    20.1428  2998.1381 </r>
       <r>     4.1273    12.3284  2999.7455 </r>
       <r>     4.2576    66.7275  3008.4456 </r>
       <r>     4.3880    46.2669  3014.4780 </r>
       <r>     4.5184    78.9183  3024.7676 </r>
       <r>     4.6488    60.3487  3032.6361 </r>
       <r>     4.7792    41.0208  3037.9845 </r>
       <r>     4.9096     0.1190  3038.0000 </r>
       <r>     5.0399     0.0000  3038.0000 </r>
       <r>     5.1703     0.0000  3038.0000 </r>
       <r>     5.3007     0.0000  3038.0000 </r>
       <r>     5.4311     0.0000  3038.0000 </r>
       <r>     5.5615     0.0000  3038.0000 </r>
       <r>     5.6919     0.0000  3038.0000 </r>
       <r>     5.8222     0.0000  3038.0000 </r>
       <r>     5.9526     0.0000  3038.0000 </r>
       <r>     6.0830     0.0000  3038.0000 </r>
       <r>     6.2134     0.0000  3038.0000 </r>
       <r>     6.3438     0.0000  3038.0000 </r>
       <r>     6.4742     0.0000  3038.0000 </r>
      </set>
     </set>
    </array>
   </total>
  </dos>
 </calculation>
 <structure name="finalpos" >
  <crystal>
   <varray name="basis" >
    <v>       0.00000000     -15.14622176       0.00000000 </v>
    <v>       0.00000000      -7.57311088     -13.11701281 </v>
    <v>      29.00000000       0.00000000       0.00000000 </v>
   </varray>
   <i name="volume">   5761.52236213 </i>
   <varray name="rec_basis" >
    <v>       0.00000000      -0.06602307       0.03811843 </v>
    <v>       0.00000000       0.00000000      -0.07623687 </v>
    <v>       0.03448276       0.00000000       0.00000000 </v>
   </varray>
  </crystal>
  <varray name="positions" >
   <v>       0.44444450       0.44444418       0.10434517 </v>
   <v>       0.44444439       0.77777770       0.10434517 </v>
   <v>       0.44444423       0.11111143       0.10434517 </v>
   <v>       0.77777779       0.44444418       0.10434517 </v>
   <v>       0.77777768       0.77777770       0.10434517 </v>
   <v>       0.77777752       0.11111143       0.10434517 </v>
   <v>       0.11111120       0.44444418       0.10434517 </v>
   <v>       0.11111109       0.77777770       0.10434517 </v>
   <v>       0.11111093       0.11111143       0.10434517 </v>
   <v>       0.55555543       0.55555561       0.17318552 </v>
   <v>       0.55555532       0.88888912       0.17318552 </v>
   <v>       0.55555554       0.22222209       0.17318552 </v>
   <v>       0.88888873       0.55555561       0.17318552 </v>
   <v>       0.88888862       0.88888912       0.17318552 </v>
   <v>       0.88888884       0.22222209       0.17318552 </v>
   <v>       0.22222214       0.55555561       0.17318552 </v>
   <v>       0.22222203       0.88888912       0.17318552 </v>
   <v>       0.22222225       0.22222209       0.17318552 </v>
   <v>       0.66666637       0.66666703       0.24249897 </v>
   <v>       0.66666659       0.00000000       0.24249897 </v>
   <v>       0.66666648       0.33333352       0.24249897 </v>
   <v>       0.99999978       0.66666703       0.24249897 </v>
   <v>       0.00000000       0.00000000       0.24249897 </v>
   <v>       0.99999989       0.33333352       0.24249897 </v>
   <v>       0.33333307       0.66666703       0.24249897 </v>
   <v>       0.33333329       0.00000000       0.24249897 </v>
   <v>       0.33333318       0.33333352       0.24249897 </v>
   <v>       0.77777768       0.77777770       0.31173069 </v>
   <v>       0.77777752       0.11111143       0.31173069 </v>
   <v>       0.77777779       0.44444418       0.31173069 </v>
   <v>       0.11111109       0.77777770       0.31173069 </v>
   <v>       0.11111093       0.11111143       0.31173069 </v>
   <v>       0.11111120       0.44444418       0.31173069 </v>
   <v>       0.44444439       0.77777770       0.31173069 </v>
   <v>       0.44444423       0.11111143       0.31173069 </v>
   <v>       0.44444450       0.44444418       0.31173069 </v>
   <v>       0.88888862       0.88888912       0.38096241 </v>
   <v>       0.88888884       0.22222209       0.38096241 </v>
   <v>       0.88888873       0.55555561       0.38096241 </v>
   <v>       0.22222203       0.88888912       0.38096241 </v>
   <v>       0.22222225       0.22222209       0.38096241 </v>
   <v>       0.22222214       0.55555561       0.38096241 </v>
   <v>       0.55555532       0.88888912       0.38096241 </v>
   <v>       0.55555554       0.22222209       0.38096241 </v>
   <v>       0.55555543       0.55555561       0.38096241 </v>
   <v>       0.00000000       0.00000000       0.45027586 </v>
   <v>       0.99999989       0.33333352       0.45027586 </v>
   <v>       0.99999978       0.66666703       0.45027586 </v>
   <v>       0.33333329       0.00000000       0.45027586 </v>
   <v>       0.33333318       0.33333352       0.45027586 </v>
   <v>       0.33333307       0.66666703       0.45027586 </v>
   <v>       0.66666659       0.00000000       0.45027586 </v>
   <v>       0.66666648       0.33333352       0.45027586 </v>
   <v>       0.66666637       0.66666703       0.45027586 </v>
   <v>       0.11111093       0.11111143       0.51911621 </v>
   <v>       0.11111120       0.44444418       0.51911621 </v>
   <v>       0.11111109       0.77777770       0.51911621 </v>
   <v>       0.44444423       0.11111143       0.51911621 </v>
   <v>       0.44444450       0.44444418       0.51911621 </v>
   <v>       0.44444439       0.77777770       0.51911621 </v>
   <v>       0.77777752       0.11111143       0.51911621 </v>
   <v>       0.77777779       0.44444418       0.51911621 </v>
   <v>       0.77777768       0.77777770       0.51911621 </v>
   <v>       0.27777824       0.27777742       0.10434517 </v>
   <v>       0.27777813       0.61111094       0.10434517 </v>
   <v>       0.27777802       0.94444445       0.10434517 </v>
   <v>       0.61111153       0.27777742       0.10434517 </v>
   <v>       0.61111142       0.61111094       0.10434517 </v>
   <v>       0.61111131       0.94444445       0.10434517 </v>
   <v>       0.94444483       0.27777742       0.10434517 </v>
   <v>       0.94444472       0.61111094       0.10434517 </v>
   <v>       0.94444461       0.94444445       0.10434517 </v>
   <v>       0.38888917       0.38888885       0.17318552 </v>
   <v>       0.38888906       0.72222236       0.17318552 </v>
   <v>       0.38888928       0.05555533       0.17318552 </v>
   <v>       0.72222247       0.38888885       0.17318552 </v>
   <v>       0.72222236       0.72222236       0.17318552 </v>
   <v>       0.72222258       0.05555533       0.17318552 </v>
   <v>       0.05555588       0.38888885       0.17318552 </v>
   <v>       0.05555577       0.72222236       0.17318552 </v>
   <v>       0.05555599       0.05555533       0.17318552 </v>
   <v>       0.50000011       0.50000027       0.24249897 </v>
   <v>       0.50000038       0.83333303       0.24249897 </v>
   <v>       0.50000022       0.16666676       0.24249897 </v>
   <v>       0.83333340       0.50000027       0.24249897 </v>
   <v>       0.83333367       0.83333303       0.24249897 </v>
   <v>       0.83333351       0.16666676       0.24249897 </v>
   <v>       0.16666681       0.50000027       0.24249897 </v>
   <v>       0.16666708       0.83333303       0.24249897 </v>
   <v>       0.16666692       0.16666676       0.24249897 </v>
   <v>       0.61111142       0.61111094       0.31173069 </v>
   <v>       0.61111131       0.94444445       0.31173069 </v>
   <v>       0.61111153       0.27777742       0.31173069 </v>
   <v>       0.94444472       0.61111094       0.31173069 </v>
   <v>       0.94444461       0.94444445       0.31173069 </v>
   <v>       0.94444483       0.27777742       0.31173069 </v>
   <v>       0.27777813       0.61111094       0.31173069 </v>
   <v>       0.27777802       0.94444445       0.31173069 </v>
   <v>       0.27777824       0.27777742       0.31173069 </v>
   <v>       0.72222236       0.72222236       0.38096241 </v>
   <v>       0.72222258       0.05555533       0.38096241 </v>
   <v>       0.72222247       0.38888885       0.38096241 </v>
   <v>       0.05555577       0.72222236       0.38096241 </v>
   <v>       0.05555599       0.05555533       0.38096241 </v>
   <v>       0.05555588       0.38888885       0.38096241 </v>
   <v>       0.38888906       0.72222236       0.38096241 </v>
   <v>       0.38888928       0.05555533       0.38096241 </v>
   <v>       0.38888917       0.38888885       0.38096241 </v>
   <v>       0.83333367       0.83333303       0.45027586 </v>
   <v>       0.83333351       0.16666676       0.45027586 </v>
   <v>       0.83333340       0.50000027       0.45027586 </v>
   <v>       0.16666708       0.83333303       0.45027586 </v>
   <v>       0.16666692       0.16666676       0.45027586 </v>
   <v>       0.16666681       0.50000027       0.45027586 </v>
   <v>       0.50000038       0.83333303       0.45027586 </v>
   <v>       0.50000022       0.16666676       0.45027586 </v>
   <v>       0.50000011       0.50000027       0.45027586 </v>
   <v>       0.94444461       0.94444445       0.51911621 </v>
   <v>       0.94444483       0.27777742       0.51911621 </v>
   <v>       0.94444472       0.61111094       0.51911621 </v>
   <v>       0.27777802       0.94444445       0.51911621 </v>
   <v>       0.27777824       0.27777742       0.51911621 </v>
   <v>       0.27777813       0.61111094       0.51911621 </v>
   <v>       0.61111131       0.94444445       0.51911621 </v>
   <v>       0.61111153       0.27777742       0.51911621 </v>
   <v>       0.61111142       0.61111094       0.51911621 </v>
   <v>       0.27777785       0.44444418       0.10434517 </v>
   <v>       0.27777774       0.77777770       0.10434517 </v>
   <v>       0.27777758       0.11111143       0.10434517 </v>
   <v>       0.61111115       0.44444418       0.10434517 </v>
   <v>       0.61111104       0.77777770       0.10434517 </v>
   <v>       0.61111088       0.11111143       0.10434517 </v>
   <v>       0.94444444       0.44444418       0.10434517 </v>
   <v>       0.94444433       0.77777770       0.10434517 </v>
   <v>       0.94444417       0.11111143       0.10434517 </v>
   <v>       0.38888879       0.55555561       0.17318552 </v>
   <v>       0.38888868       0.88888912       0.17318552 </v>
   <v>       0.38888890       0.22222209       0.17318552 </v>
   <v>       0.72222208       0.55555561       0.17318552 </v>
   <v>       0.72222197       0.88888912       0.17318552 </v>
   <v>       0.72222219       0.22222209       0.17318552 </v>
   <v>       0.05555549       0.55555561       0.17318552 </v>
   <v>       0.05555538       0.88888912       0.17318552 </v>
   <v>       0.05555560       0.22222209       0.17318552 </v>
   <v>       0.49999972       0.66666703       0.24249897 </v>
   <v>       0.49999994       0.00000000       0.24249897 </v>
   <v>       0.49999983       0.33333352       0.24249897 </v>
   <v>       0.83333302       0.66666703       0.24249897 </v>
   <v>       0.83333324       0.00000000       0.24249897 </v>
   <v>       0.83333313       0.33333352       0.24249897 </v>
   <v>       0.16666643       0.66666703       0.24249897 </v>
   <v>       0.16666665       0.00000000       0.24249897 </v>
   <v>       0.16666654       0.33333352       0.24249897 </v>
   <v>       0.61111104       0.77777770       0.31173069 </v>
   <v>       0.61111088       0.11111143       0.31173069 </v>
   <v>       0.61111115       0.44444418       0.31173069 </v>
   <v>       0.94444433       0.77777770       0.31173069 </v>
   <v>       0.94444417       0.11111143       0.31173069 </v>
   <v>       0.94444444       0.44444418       0.31173069 </v>
   <v>       0.27777774       0.77777770       0.31173069 </v>
   <v>       0.27777758       0.11111143       0.31173069 </v>
   <v>       0.27777785       0.44444418       0.31173069 </v>
   <v>       0.72222197       0.88888912       0.38096241 </v>
   <v>       0.72222219       0.22222209       0.38096241 </v>
   <v>       0.72222208       0.55555561       0.38096241 </v>
   <v>       0.05555538       0.88888912       0.38096241 </v>
   <v>       0.05555560       0.22222209       0.38096241 </v>
   <v>       0.05555549       0.55555561       0.38096241 </v>
   <v>       0.38888868       0.88888912       0.38096241 </v>
   <v>       0.38888890       0.22222209       0.38096241 </v>
   <v>       0.38888879       0.55555561       0.38096241 </v>
   <v>       0.83333324       0.00000000       0.45027586 </v>
   <v>       0.83333313       0.33333352       0.45027586 </v>
   <v>       0.83333302       0.66666703       0.45027586 </v>
   <v>       0.16666665       0.00000000       0.45027586 </v>
   <v>       0.16666654       0.33333352       0.45027586 </v>
   <v>       0.16666643       0.66666703       0.45027586 </v>
   <v>       0.49999994       0.00000000       0.45027586 </v>
   <v>       0.49999983       0.33333352       0.45027586 </v>
   <v>       0.49999972       0.66666703       0.45027586 </v>
   <v>       0.94444417       0.11111143       0.51911621 </v>
   <v>       0.94444444       0.44444418       0.51911621 </v>
   <v>       0.94444433       0.77777770       0.51911621 </v>
   <v>       0.27777758       0.11111143       0.51911621 </v>
   <v>       0.27777785       0.44444418       0.51911621 </v>
   <v>       0.27777774       0.77777770       0.51911621 </v>
   <v>       0.61111088       0.11111143       0.51911621 </v>
   <v>       0.61111115       0.44444418       0.51911621 </v>
   <v>       0.61111104       0.77777770       0.51911621 </v>
   <v>       0.44444488       0.27777742       0.10434517 </v>
   <v>       0.44444477       0.61111094       0.10434517 </v>
   <v>       0.44444466       0.94444445       0.10434517 </v>
   <v>       0.77777818       0.27777742       0.10434517 </v>
   <v>       0.77777807       0.61111094       0.10434517 </v>
   <v>       0.77777796       0.94444445       0.10434517 </v>
   <v>       0.11111159       0.27777742       0.10434517 </v>
   <v>       0.11111148       0.61111094       0.10434517 </v>
   <v>       0.11111137       0.94444445       0.10434517 </v>
   <v>       0.55555582       0.38888885       0.17318552 </v>
   <v>       0.55555571       0.72222236       0.17318552 </v>
   <v>       0.55555593       0.05555533       0.17318552 </v>
   <v>       0.88888911       0.38888885       0.17318552 </v>
   <v>       0.88888900       0.72222236       0.17318552 </v>
   <v>       0.88888922       0.05555533       0.17318552 </v>
   <v>       0.22222252       0.38888885       0.17318552 </v>
   <v>       0.22222241       0.72222236       0.17318552 </v>
   <v>       0.22222264       0.05555533       0.17318552 </v>
   <v>       0.66666675       0.50000027       0.24249897 </v>
   <v>       0.66666702       0.83333303       0.24249897 </v>
   <v>       0.66666686       0.16666676       0.24249897 </v>
   <v>       0.00000016       0.50000027       0.24249897 </v>
   <v>       0.00000043       0.83333303       0.24249897 </v>
   <v>       0.00000027       0.16666676       0.24249897 </v>
   <v>       0.33333346       0.50000027       0.24249897 </v>
   <v>       0.33333373       0.83333303       0.24249897 </v>
   <v>       0.33333357       0.16666676       0.24249897 </v>
   <v>       0.77777807       0.61111094       0.31173069 </v>
   <v>       0.77777796       0.94444445       0.31173069 </v>
   <v>       0.77777818       0.27777742       0.31173069 </v>
   <v>       0.11111148       0.61111094       0.31173069 </v>
   <v>       0.11111137       0.94444445       0.31173069 </v>
   <v>       0.11111159       0.27777742       0.31173069 </v>
   <v>       0.44444477       0.61111094       0.31173069 </v>
   <v>       0.44444466       0.94444445       0.31173069 </v>
   <v>       0.44444488       0.27777742       0.31173069 </v>
   <v>       0.88888900       0.72222236       0.38096241 </v>
   <v>       0.88888922       0.05555533       0.38096241 </v>
   <v>       0.88888911       0.38888885       0.38096241 </v>
   <v>       0.22222241       0.72222236       0.38096241 </v>
   <v>       0.22222264       0.05555533       0.38096241 </v>
   <v>       0.22222252       0.38888885       0.38096241 </v>
   <v>       0.55555571       0.72222236       0.38096241 </v>
   <v>       0.55555593       0.05555533       0.38096241 </v>
   <v>       0.55555582       0.38888885       0.38096241 </v>
   <v>       0.00000043       0.83333303       0.45027586 </v>
   <v>       0.00000027       0.16666676       0.45027586 </v>
   <v>       0.00000016       0.50000027       0.45027586 </v>
   <v>       0.33333373       0.83333303       0.45027586 </v>
   <v>       0.33333357       0.16666676       0.45027586 </v>
   <v>       0.33333346       0.50000027       0.45027586 </v>
   <v>       0.66666702       0.83333303       0.45027586 </v>
   <v>       0.66666686       0.16666676       0.45027586 </v>
   <v>       0.66666675       0.50000027       0.45027586 </v>
   <v>       0.11111137       0.94444445       0.51911621 </v>
   <v>       0.11111159       0.27777742       0.51911621 </v>
   <v>       0.11111148       0.61111094       0.51911621 </v>
   <v>       0.44444466       0.94444445       0.51911621 </v>
   <v>       0.44444488       0.27777742       0.51911621 </v>
   <v>       0.44444477       0.61111094       0.51911621 </v>
   <v>       0.77777796       0.94444445       0.51911621 </v>
   <v>       0.77777818       0.27777742       0.51911621 </v>
   <v>       0.77777807       0.61111094       0.51911621 </v>
   <v>       0.54875669       0.40253067       0.69137931 </v>
   <v>       0.50682642       0.48639123       0.69137931 </v>
  </varray>
 </structure>
</modeling>
