       N       E                     dE             d eps       ncg     rms          rms(c)
DAV:   1     0.238269957764E+04    0.23827E+04   -0.20449E+05  3096   0.854E+02
DAV:   2    -0.705654153252E+03   -0.30884E+04   -0.29155E+04  4176   0.202E+02
DAV:   3    -0.946153816001E+03   -0.24050E+03   -0.23132E+03  4464   0.443E+01
DAV:   4    -0.956517934958E+03   -0.10364E+02   -0.10128E+02  4376   0.897E+00
DAV:   5    -0.956990791017E+03   -0.47286E+00   -0.47065E+00  4968   0.219E+00    0.533E+01
DAV:   6    -0.980450168253E+03   -0.23459E+02   -0.33181E+02  4760   0.179E+01    0.417E+01
DAV:   7    -0.947547365700E+03    0.32903E+02   -0.38340E+02  4016   0.247E+01    0.350E+01
DAV:   8    -0.964637169848E+03   -0.17090E+02   -0.20034E+02  4304   0.181E+01    0.243E+01
DAV:   9    -0.101774412559E+04   -0.53107E+02   -0.54342E+01  4344   0.265E+01    0.275E+01
DAV:  10    -0.929689926108E+03    0.88054E+02   -0.14281E+02  4848   0.182E+01    0.141E+01
DAV:  11    -0.925781370176E+03    0.39086E+01   -0.39418E+01  4128   0.550E+00    0.112E+01
DAV:  12    -0.927706336984E+03   -0.19250E+01   -0.26041E+00  4096   0.203E+00    0.679E+00
DAV:  13    -0.929749931176E+03   -0.20436E+01   -0.24913E+01  4112   0.137E+00    0.121E+01
DAV:  14    -0.929644791183E+03    0.10514E+00   -0.24744E+00  4136   0.548E-01    0.123E+01
DAV:  15    -0.929025612194E+03    0.61918E+00   -0.18724E-01  3904   0.297E-01    0.118E+01
DAV:  16    -0.928286239695E+03    0.73937E+00   -0.13627E+00  3744   0.693E-01    0.130E+01
DAV:  17    -0.929276555152E+03   -0.99032E+00   -0.30745E-01  3928   0.542E-01    0.133E+01
DAV:  18    -0.926871670631E+03    0.24049E+01   -0.41110E-01  3896   0.565E-01    0.340E+00
DAV:  19    -0.926951803984E+03   -0.80133E-01   -0.40267E-02  3696   0.228E-01    0.352E+00
DAV:  20    -0.926949637624E+03    0.21664E-02   -0.12382E-02  4320   0.720E-02    0.288E+00
DAV:  21    -0.928018865574E+03   -0.10692E+01   -0.30853E+00  3640   0.321E-01    0.114E+01
DAV:  22    -0.927164227841E+03    0.85464E+00   -0.62592E-02  3808   0.261E-01    0.108E+01
DAV:  23    -0.927017804226E+03    0.14642E+00   -0.84910E-01  3984   0.171E-01    0.979E+00
DAV:  24    -0.926992161693E+03    0.25643E-01   -0.28083E-02  3528   0.171E-01    0.603E+00
DAV:  25    -0.926818033202E+03    0.17413E+00   -0.17196E-02  3552   0.971E-02    0.458E+00
DAV:  26    -0.926870590858E+03   -0.52558E-01   -0.49454E-01  3848   0.627E-02    0.966E+00
DAV:  27    -0.926921771057E+03   -0.51180E-01   -0.42352E-01  3344   0.149E-01    0.368E+00
DAV:  28    -0.927010616231E+03   -0.88845E-01   -0.10729E-02  3528   0.781E-02    0.227E+00
DAV:  29    -0.927029820379E+03   -0.19204E-01   -0.12584E-02  3328   0.579E-02    0.128E+00
DAV:  30    -0.927023883765E+03    0.59366E-02   -0.22298E-03  3448   0.431E-02    0.295E+00
DAV:  31    -0.926992621731E+03    0.31262E-01   -0.67346E-04  3560   0.193E-02    0.286E+00
DAV:  32    -0.926967304727E+03    0.25317E-01   -0.88351E-04  3504   0.178E-02    0.154E+00
DAV:  33    -0.926986580355E+03   -0.19276E-01   -0.78209E-04  3648   0.218E-02    0.159E+00
DAV:  34    -0.927006264766E+03   -0.19684E-01   -0.10858E-03  3824   0.310E-02    0.172E+00
DAV:  35    -0.927018933783E+03   -0.12669E-01   -0.11571E-03  3760   0.317E-02    0.990E-01
DAV:  36    -0.927032696159E+03   -0.13762E-01   -0.71731E-04  3536   0.324E-02    0.150E+00
DAV:  37    -0.927030367949E+03    0.23282E-02   -0.38754E-04  3768   0.150E-02    0.521E-01
DAV:  38    -0.927040258620E+03   -0.98907E-02   -0.28229E-04  3504   0.969E-03    0.275E-01
DAV:  39    -0.927048725507E+03   -0.84669E-02   -0.37670E-04  3048   0.132E-02    0.115E+00
DAV:  40    -0.927045281153E+03    0.34444E-02   -0.12170E-04  2456   0.779E-03    0.635E-01
DAV:  41    -0.927046609221E+03   -0.13281E-02   -0.15033E-05  2152   0.223E-03    0.417E-01
DAV:  42    -0.927047395892E+03   -0.78667E-03   -0.12002E-05  2400   0.391E-03    0.312E-01
DAV:  43    -0.927048161054E+03   -0.76516E-03   -0.19335E-05  2208   0.276E-03    0.628E-02
DAV:  44    -0.927049015096E+03   -0.85404E-03   -0.89865E-06  2160   0.295E-03    0.527E-02
DAV:  45    -0.927049142293E+03   -0.12720E-03   -0.42581E-06  2008   0.155E-03    0.900E-02
DAV:  46    -0.927049228278E+03   -0.85986E-04   -0.25139E-06  1952   0.135E-03    0.437E-02
DAV:  47    -0.927049271412E+03   -0.43133E-04   -0.10528E-06  1896   0.113E-03    0.938E-03
DAV:  48    -0.927049298397E+03   -0.26985E-04   -0.60252E-07  1832   0.939E-04    0.158E-02
DAV:  49    -0.927049304729E+03   -0.63320E-05   -0.21966E-07  1752   0.675E-04    0.989E-03
DAV:  50    -0.927049306789E+03   -0.20601E-05   -0.16671E-07  1760   0.422E-04
   1 F= -.99966022E+03 E0= -.99960434E+03  d E =-.111755E+00
