 254 254   0   0
  0.2268316E+02  0.1514622E-08  0.1514622E-08  0.2900000E-08  0.5000000E-15
   1.0000000000000000E-004
  CAR 
 NiAl                                    
      6.42758142    -31.46363288  301     -0.49421122      1.00000000
    -31.464  0.0000E+00  0.0000E+00
    -31.337  0.0000E+00  0.0000E+00
    -31.211  0.0000E+00  0.0000E+00
    -31.085  0.0000E+00  0.0000E+00
    -30.958  0.0000E+00  0.0000E+00
    -30.832  0.0000E+00  0.0000E+00
    -30.706  0.0000E+00  0.0000E+00
    -30.580  0.0000E+00  0.0000E+00
    -30.453  0.0000E+00  0.0000E+00
    -30.327  0.0000E+00  0.0000E+00
    -30.201  0.0000E+00  0.0000E+00
    -30.074  0.0000E+00  0.0000E+00
    -29.948  0.3853E-07  0.4866E-08
    -29.822  0.1793E+00  0.2265E-01
    -29.695  0.1410E+02  0.1804E+01
    -29.569  0.1552E+01  0.2000E+01
    -29.443  0.9041E-05  0.2000E+01
    -29.316  0.0000E+00  0.2000E+01
    -29.190  0.0000E+00  0.2000E+01
    -29.064  0.0000E+00  0.2000E+01
    -28.938  0.0000E+00  0.2000E+01
    -28.811  0.0000E+00  0.2000E+01
    -28.685  0.0000E+00  0.2000E+01
    -28.559  0.0000E+00  0.2000E+01
    -28.432  0.0000E+00  0.2000E+01
    -28.306  0.0000E+00  0.2000E+01
    -28.180  0.0000E+00  0.2000E+01
    -28.053  0.0000E+00  0.2000E+01
    -27.927  0.0000E+00  0.2000E+01
    -27.801  0.0000E+00  0.2000E+01
    -27.675  0.0000E+00  0.2000E+01
    -27.548  0.0000E+00  0.2000E+01
    -27.422  0.0000E+00  0.2000E+01
    -27.296  0.0000E+00  0.2000E+01
    -27.169  0.0000E+00  0.2000E+01
    -27.043  0.0000E+00  0.2000E+01
    -26.917  0.0000E+00  0.2000E+01
    -26.790  0.0000E+00  0.2000E+01
    -26.664  0.0000E+00  0.2000E+01
    -26.538  0.0000E+00  0.2000E+01
    -26.411  0.0000E+00  0.2000E+01
    -26.285  0.0000E+00  0.2000E+01
    -26.159  0.0000E+00  0.2000E+01
    -26.033  0.0000E+00  0.2000E+01
    -25.906  0.0000E+00  0.2000E+01
    -25.780  0.0000E+00  0.2000E+01
    -25.654  0.0000E+00  0.2000E+01
    -25.527  0.0000E+00  0.2000E+01
    -25.401  0.0000E+00  0.2000E+01
    -25.275  0.0000E+00  0.2000E+01
    -25.148  0.0000E+00  0.2000E+01
    -25.022  0.0000E+00  0.2000E+01
    -24.896  0.0000E+00  0.2000E+01
    -24.770  0.0000E+00  0.2000E+01
    -24.643  0.0000E+00  0.2000E+01
    -24.517  0.0000E+00  0.2000E+01
    -24.391  0.0000E+00  0.2000E+01
    -24.264  0.0000E+00  0.2000E+01
    -24.138  0.0000E+00  0.2000E+01
    -24.012  0.0000E+00  0.2000E+01
    -23.885  0.0000E+00  0.2000E+01
    -23.759  0.0000E+00  0.2000E+01
    -23.633  0.0000E+00  0.2000E+01
    -23.506  0.0000E+00  0.2000E+01
    -23.380  0.0000E+00  0.2000E+01
    -23.254  0.0000E+00  0.2000E+01
    -23.128  0.0000E+00  0.2000E+01
    -23.001  0.0000E+00  0.2000E+01
    -22.875  0.0000E+00  0.2000E+01
    -22.749  0.0000E+00  0.2000E+01
    -22.622  0.0000E+00  0.2000E+01
    -22.496  0.0000E+00  0.2000E+01
    -22.370  0.0000E+00  0.2000E+01
    -22.243  0.0000E+00  0.2000E+01
    -22.117  0.0000E+00  0.2000E+01
    -21.991  0.0000E+00  0.2000E+01
    -21.865  0.0000E+00  0.2000E+01
    -21.738  0.0000E+00  0.2000E+01
    -21.612  0.0000E+00  0.2000E+01
    -21.486  0.0000E+00  0.2000E+01
    -21.359  0.0000E+00  0.2000E+01
    -21.233  0.0000E+00  0.2000E+01
    -21.107  0.0000E+00  0.2000E+01
    -20.980  0.0000E+00  0.2000E+01
    -20.854  0.0000E+00  0.2000E+01
    -20.728  0.0000E+00  0.2000E+01
    -20.601  0.0000E+00  0.2000E+01
    -20.475  0.0000E+00  0.2000E+01
    -20.349  0.0000E+00  0.2000E+01
    -20.223  0.0000E+00  0.2000E+01
    -20.096  0.0000E+00  0.2000E+01
    -19.970  0.0000E+00  0.2000E+01
    -19.844  0.0000E+00  0.2000E+01
    -19.717  0.0000E+00  0.2000E+01
    -19.591  0.9900E-12  0.2000E+01
    -19.465  0.9784E-03  0.2000E+01
    -19.338  0.6253E+01  0.2790E+01
    -19.212  0.9574E+01  0.3999E+01
    -19.086  0.7495E-02  0.4000E+01
    -18.960  0.4795E-10  0.4000E+01
    -18.833  0.0000E+00  0.4000E+01
    -18.707  0.0000E+00  0.4000E+01
    -18.581  0.0000E+00  0.4000E+01
    -18.454  0.0000E+00  0.4000E+01
    -18.328  0.0000E+00  0.4000E+01
    -18.202  0.0000E+00  0.4000E+01
    -18.075  0.0000E+00  0.4000E+01
    -17.949  0.0000E+00  0.4000E+01
    -17.823  0.0000E+00  0.4000E+01
    -17.696  0.0000E+00  0.4000E+01
    -17.570  0.0000E+00  0.4000E+01
    -17.444  0.0000E+00  0.4000E+01
    -17.318  0.0000E+00  0.4000E+01
    -17.191  0.0000E+00  0.4000E+01
    -17.065  0.0000E+00  0.4000E+01
    -16.939  0.0000E+00  0.4000E+01
    -16.812  0.0000E+00  0.4000E+01
    -16.686  0.0000E+00  0.4000E+01
    -16.560  0.0000E+00  0.4000E+01
    -16.433  0.0000E+00  0.4000E+01
    -16.307  0.0000E+00  0.4000E+01
    -16.181  0.0000E+00  0.4000E+01
    -16.055  0.0000E+00  0.4000E+01
    -15.928  0.0000E+00  0.4000E+01
    -15.802  0.0000E+00  0.4000E+01
    -15.676  0.0000E+00  0.4000E+01
    -15.549  0.0000E+00  0.4000E+01
    -15.423  0.0000E+00  0.4000E+01
    -15.297  0.0000E+00  0.4000E+01
    -15.170  0.0000E+00  0.4000E+01
    -15.044  0.0000E+00  0.4000E+01
    -14.918  0.0000E+00  0.4000E+01
    -14.791  0.0000E+00  0.4000E+01
    -14.665  0.0000E+00  0.4000E+01
    -14.539  0.0000E+00  0.4000E+01
    -14.413  0.0000E+00  0.4000E+01
    -14.286  0.0000E+00  0.4000E+01
    -14.160  0.0000E+00  0.4000E+01
    -14.034  0.0000E+00  0.4000E+01
    -13.907  0.0000E+00  0.4000E+01
    -13.781  0.0000E+00  0.4000E+01
    -13.655  0.0000E+00  0.4000E+01
    -13.528  0.0000E+00  0.4000E+01
    -13.402  0.0000E+00  0.4000E+01
    -13.276  0.0000E+00  0.4000E+01
    -13.150  0.0000E+00  0.4000E+01
    -13.023  0.0000E+00  0.4000E+01
    -12.897  0.0000E+00  0.4000E+01
    -12.771  0.0000E+00  0.4000E+01
    -12.644  0.0000E+00  0.4000E+01
    -12.518  0.1470E-09  0.4000E+01
    -12.392  0.1314E-01  0.4002E+01
    -12.265  0.1052E+02  0.5330E+01
    -12.139  0.5303E+01  0.6000E+01
    -12.013  0.5058E-03  0.6000E+01
    -11.887  0.2967E-12  0.6000E+01
    -11.760  0.9713E-07  0.6000E+01
    -11.634  0.2657E+00  0.6034E+01
    -11.508  0.1439E+02  0.7852E+01
    -11.381  0.1175E+01  0.8000E+01
    -11.255  0.4176E-05  0.8000E+01
    -11.129  0.0000E+00  0.8000E+01
    -11.002  0.7428E-13  0.8000E+01
    -10.876  0.2358E-03  0.8000E+01
    -10.750  0.4328E+01  0.8547E+01
    -10.623  0.1148E+02  0.9997E+01
    -10.497  0.2362E-01  0.1000E+02
    -10.371  0.4813E-09  0.1000E+02
    -10.245  0.0000E+00  0.1000E+02
    -10.118  0.0000E+00  0.1000E+02
     -9.992  0.0000E+00  0.1000E+02
     -9.866  0.0000E+00  0.1000E+02
     -9.739  0.0000E+00  0.1000E+02
     -9.613  0.0000E+00  0.1000E+02
     -9.487  0.0000E+00  0.1000E+02
     -9.360  0.0000E+00  0.1000E+02
     -9.234  0.4440E-06  0.1000E+02
     -9.108  0.2145E+00  0.1003E+02
     -8.982  0.3647E+01  0.1049E+02
     -8.855  0.3841E+01  0.1097E+02
     -8.729  0.1988E+02  0.1348E+02
     -8.603  0.1525E+00  0.1350E+02
     -8.476  0.3439E+01  0.1394E+02
     -8.350  0.1770E+02  0.1617E+02
     -8.224  0.2983E+02  0.1994E+02
     -8.097  0.2206E+02  0.2273E+02
     -7.971  0.2173E+01  0.2300E+02
     -7.845  0.1316E+02  0.2466E+02
     -7.718  0.1158E+02  0.2613E+02
     -7.592  0.2399E+02  0.2916E+02
     -7.466  0.5408E+02  0.3599E+02
     -7.340  0.1989E+02  0.3850E+02
     -7.213  0.2435E-01  0.3850E+02
     -7.087  0.1963E+02  0.4098E+02
     -6.961  0.7261E+02  0.5015E+02
     -6.834  0.3221E+02  0.5422E+02
     -6.708  0.1102E+02  0.5561E+02
     -6.582  0.2601E+02  0.5890E+02
     -6.455  0.3198E+02  0.6294E+02
     -6.329  0.5021E+02  0.6928E+02
     -6.203  0.5999E+02  0.7686E+02
     -6.077  0.2580E+02  0.8011E+02
     -5.950  0.6527E+02  0.8836E+02
     -5.824  0.8680E+02  0.9932E+02
     -5.698  0.5428E+01  0.1000E+03
     -5.571  0.8207E+01  0.1010E+03
     -5.445  0.4450E+02  0.1067E+03
     -5.319  0.1431E+03  0.1247E+03
     -5.192  0.5081E+02  0.1312E+03
     -5.066  0.9191E+02  0.1428E+03
     -4.940  0.1069E+03  0.1563E+03
     -4.813  0.4851E+02  0.1624E+03
     -4.687  0.1575E+03  0.1823E+03
     -4.561  0.1957E+03  0.2070E+03
     -4.435  0.2228E+03  0.2351E+03
     -4.308  0.2574E+03  0.2677E+03
     -4.182  0.2606E+03  0.3006E+03
     -4.056  0.2641E+03  0.3339E+03
     -3.929  0.2911E+03  0.3707E+03
     -3.803  0.4266E+03  0.4246E+03
     -3.677  0.5046E+03  0.4883E+03
     -3.550  0.4193E+03  0.5413E+03
     -3.424  0.4454E+03  0.5975E+03
     -3.298  0.3525E+03  0.6421E+03
     -3.172  0.3744E+03  0.6894E+03
     -3.045  0.4973E+03  0.7522E+03
     -2.919  0.4007E+03  0.8028E+03
     -2.793  0.5287E+03  0.8696E+03
     -2.666  0.5282E+03  0.9363E+03
     -2.540  0.5449E+03  0.1005E+04
     -2.414  0.5885E+03  0.1079E+04
     -2.287  0.7089E+03  0.1169E+04
     -2.161  0.8682E+03  0.1279E+04
     -2.035  0.8029E+03  0.1380E+04
     -1.908  0.9133E+03  0.1495E+04
     -1.782  0.6767E+03  0.1581E+04
     -1.656  0.5873E+03  0.1655E+04
     -1.530  0.5458E+03  0.1724E+04
     -1.403  0.5705E+03  0.1796E+04
     -1.277  0.8092E+03  0.1898E+04
     -1.151  0.6088E+03  0.1975E+04
     -1.024  0.6492E+03  0.2057E+04
     -0.898  0.7807E+03  0.2156E+04
     -0.772  0.7763E+03  0.2254E+04
     -0.645  0.7593E+03  0.2350E+04
     -0.519  0.1197E+04  0.2501E+04
     -0.393  0.9516E+03  0.2621E+04
     -0.267  0.3207E+03  0.2662E+04
     -0.140  0.1225E+03  0.2677E+04
     -0.014  0.1663E+03  0.2698E+04
      0.112  0.1256E+03  0.2714E+04
      0.239  0.6572E+02  0.2722E+04
      0.365  0.4867E+02  0.2728E+04
      0.491  0.8922E+02  0.2740E+04
      0.618  0.8687E+02  0.2751E+04
      0.744  0.8890E+02  0.2762E+04
      0.870  0.8777E+02  0.2773E+04
      0.997  0.1339E+03  0.2790E+04
      1.123  0.8809E+02  0.2801E+04
      1.249  0.2824E+02  0.2804E+04
      1.375  0.1064E+03  0.2818E+04
      1.502  0.5233E+02  0.2825E+04
      1.628  0.5592E+02  0.2832E+04
      1.754  0.9736E+02  0.2844E+04
      1.881  0.8619E+02  0.2855E+04
      2.007  0.9479E+02  0.2867E+04
      2.133  0.5092E+02  0.2873E+04
      2.260  0.8670E+02  0.2884E+04
      2.386  0.1125E+03  0.2898E+04
      2.512  0.4391E+02  0.2904E+04
      2.638  0.6545E+02  0.2912E+04
      2.765  0.3395E+02  0.2916E+04
      2.891  0.2478E+02  0.2920E+04
      3.017  0.6696E+02  0.2928E+04
      3.144  0.1898E+03  0.2952E+04
      3.270  0.9125E+02  0.2964E+04
      3.396  0.2676E+02  0.2967E+04
      3.523  0.7854E+02  0.2977E+04
      3.649  0.4167E+02  0.2982E+04
      3.775  0.7229E+02  0.2991E+04
      3.902  0.2622E+02  0.2995E+04
      4.028  0.1589E+02  0.2997E+04
      4.154  0.2924E+02  0.3000E+04
      4.280  0.5516E+02  0.3007E+04
      4.407  0.6708E+02  0.3016E+04
      4.533  0.7747E+02  0.3025E+04
      4.659  0.6506E+02  0.3034E+04
      4.786  0.3432E+02  0.3038E+04
      4.912  0.1293E+00  0.3038E+04
      5.038  0.2341E-07  0.3038E+04
      5.165  0.0000E+00  0.3038E+04
      5.291  0.0000E+00  0.3038E+04
      5.417  0.0000E+00  0.3038E+04
      5.543  0.0000E+00  0.3038E+04
      5.670  0.0000E+00  0.3038E+04
      5.796  0.0000E+00  0.3038E+04
      5.922  0.0000E+00  0.3038E+04
      6.049  0.0000E+00  0.3038E+04
      6.175  0.0000E+00  0.3038E+04
      6.301  0.0000E+00  0.3038E+04
      6.428  0.0000E+00  0.3038E+04
