  254  254    1    1
  0.2268316E+02  0.1514622E-08  0.1514622E-08  0.2900000E-08  0.5000000E-15
   1.0000000000000000E-004
  CAR 
 NiAl                                    
   2532      4   1519
 
  0.1262379E-14  0.1262379E-14  0.1262379E-14  0.2500000E+00
    1      -29.741305   1.000000
    2      -19.329094   1.000000
    3      -12.281528   1.000000
    4      -11.559968   1.000000
    5      -10.728932   1.000000
    6       -9.051052   1.000000
    7       -8.516183   1.000000
    8       -8.146417   1.000000
    9       -8.146137   1.000000
   10       -8.145969   1.000000
   11       -8.145835   1.000000
   12       -8.145062   1.000000
   13       -8.138648   1.000000
   14       -7.686672   1.000000
   15       -7.642507   1.000000
   16       -7.640381   1.000000
   17       -7.640288   1.000000
   18       -7.640059   1.000000
   19       -7.637558   1.000000
   20       -7.610024   1.000000
   21       -6.886484   1.000000
   22       -6.857063   1.000000
   23       -6.852181   1.000000
   24       -6.852169   1.000000
   25       -6.851920   1.000000
   26       -6.848585   1.000000
   27       -6.811728   1.000000
   28       -6.643876   1.000000
   29       -6.508852   1.000000
   30       -6.506047   1.000000
   31       -6.505616   1.000000
   32       -6.505545   1.000000
   33       -6.504936   1.000000
   34       -6.504277   1.000000
   35       -6.122434   1.000000
   36       -6.085222   1.000000
   37       -6.084276   1.000000
   38       -6.083498   1.000000
   39       -6.081718   1.000000
   40       -6.080835   1.000000
   41       -6.019071   1.000000
   42       -5.881999   1.000000
   43       -5.881212   1.000000
   44       -5.880360   1.000000
   45       -5.879143   1.000000
   46       -5.878082   1.000000
   47       -5.876797   1.000000
   48       -5.875498   1.000000
   49       -5.875059   1.000000
   50       -5.874695   1.000000
   51       -5.874014   1.000000
   52       -5.862631   1.000000
   53       -5.820090   1.000000
   54       -5.622286   1.000000
   55       -5.546355   1.000000
   56       -5.544879   1.000000
   57       -5.542026   1.000000
   58       -5.539345   1.000000
   59       -5.538319   1.000000
   60       -5.531715   1.000000
   61       -5.454301   1.000000
   62       -5.454064   1.000000
   63       -5.451698   1.000000
   64       -5.451523   1.000000
   65       -5.446615   1.000000
   66       -5.442645   1.000000
   67       -5.093524   1.000000
   68       -5.091522   1.000000
   69       -5.085760   1.000000
   70       -5.082022   1.000000
   71       -5.080613   1.000000
   72       -5.074419   1.000000
   73       -4.981323   1.000000
   74       -4.935042   1.000000
   75       -4.931545   1.000000
   76       -4.930464   1.000000
   77       -4.929699   1.000000
   78       -4.928423   1.000000
   79       -4.874708   1.000000
   80       -4.792096   1.000000
   81       -4.739865   1.000000
   82       -4.738080   1.000000
   83       -4.737694   1.000000
   84       -4.727912   1.000000
   85       -4.724524   1.000000
   86       -4.722121   1.000000
   87       -4.720110   1.000000
   88       -4.716561   1.000000
   89       -4.706553   1.000000
   90       -4.625317   1.000000
   91       -4.620631   1.000000
   92       -4.617324   1.000000
   93       -4.616676   1.000000
   94       -4.613285   1.000000
   95       -4.605681   1.000000
   96       -4.581575   1.000000
   97       -4.581144   1.000000
   98       -4.581015   1.000000
   99       -4.511747   1.000000
  100       -4.511099   1.000000
  101       -4.508851   1.000000
  102       -4.505267   1.000000
  103       -4.504795   1.000000
  104       -4.504698   1.000000
  105       -4.504656   1.000000
  106       -4.504528   1.000000
  107       -4.504293   1.000000
  108       -4.504182   1.000000
  109       -4.504080   1.000000
  110       -4.503897   1.000000
  111       -4.465193   1.000000
  112       -4.463264   1.000000
  113       -4.461878   1.000000
  114       -4.379342   1.000000
  115       -4.378401   1.000000
  116       -4.375377   1.000000
  117       -4.366861   1.000000
  118       -4.354478   1.000000
  119       -4.352209   1.000000
  120       -4.351741   1.000000
  121       -4.350811   1.000000
  122       -4.338630   1.000000
  123       -4.325663   1.000000
  124       -4.323541   1.000000
  125       -4.313834   1.000000
  126       -4.307221   1.000000
  127       -4.306723   1.000000
  128       -4.306496   1.000000
  129       -4.306179   1.000000
  130       -4.306055   1.000000
  131       -4.305734   1.000000
  132       -4.305347   1.000000
  133       -4.304954   1.000000
  134       -4.302266   1.000000
  135       -4.282524   1.000000
  136       -4.279383   1.000000
  137       -4.276523   1.000000
  138       -4.274811   1.000000
  139       -4.272231   1.000000
  140       -4.272222   1.000000
  141       -4.271725   1.000000
  142       -4.271690   1.000000
  143       -4.271390   1.000000
  144       -4.271188   1.000000
  145       -4.270797   1.000000
  146       -4.270773   1.000000
  147       -4.236157   1.000000
  148       -4.228799   1.000000
  149       -4.227623   1.000000
  150       -4.227449   1.000000
  151       -4.226891   1.000000
  152       -4.226023   1.000000
  153       -4.208254   1.000000
  154       -4.198804   1.000000
  155       -4.194856   1.000000
  156       -4.193680   1.000000
  157       -4.190365   1.000000
  158       -4.178976   1.000000
  159       -4.176027   1.000000
  160       -4.172496   1.000000
  161       -4.167464   1.000000
  162       -4.155050   1.000000
  163       -4.150918   1.000000
  164       -4.149265   1.000000
  165       -4.143626   1.000000
  166       -4.134916   1.000000
  167       -4.134259   1.000000
  168       -4.133757   1.000000
  169       -4.133677   1.000000
  170       -4.133065   1.000000
  171       -4.131643   1.000000
  172       -4.130118   1.000000
  173       -4.129416   1.000000
  174       -4.078327   1.000000
  175       -4.068451   1.000000
  176       -4.068070   1.000000
  177       -4.064895   1.000000
  178       -4.064500   1.000000
  179       -4.055231   1.000000
  180       -4.030165   1.000000
  181       -4.024951   1.000000
  182       -4.024261   1.000000
  183       -4.019112   1.000000
  184       -3.960290   1.000000
  185       -3.951971   1.000000
  186       -3.950414   1.000000
  187       -3.947772   1.000000
  188       -3.944385   1.000000
  189       -3.943366   1.000000
  190       -3.934880   1.000000
  191       -3.934028   1.000000
  192       -3.933844   1.000000
  193       -3.933567   1.000000
  194       -3.933007   1.000000
  195       -3.932761   1.000000
  196       -3.929199   1.000000
  197       -3.915791   1.000000
  198       -3.887424   1.000000
  199       -3.872809   1.000000
  200       -3.867301   1.000000
  201       -3.861668   1.000000
  202       -3.827428   1.000000
  203       -3.818601   1.000000
  204       -3.817901   1.000000
  205       -3.816119   1.000000
  206       -3.814303   1.000000
  207       -3.813484   1.000000
  208       -3.800593   1.000000
  209       -3.785966   1.000000
  210       -3.762251   1.000000
  211       -3.749087   1.000000
  212       -3.747233   1.000000
  213       -3.746386   1.000000
  214       -3.745710   1.000000
  215       -3.744663   1.000000
  216       -3.744597   1.000000
  217       -3.744548   1.000000
  218       -3.744394   1.000000
  219       -3.744220   1.000000
  220       -3.744175   1.000000
  221       -3.742218   1.000000
  222       -3.741414   1.000000
  223       -3.740769   1.000000
  224       -3.739177   1.000000
  225       -3.739126   1.000000
  226       -3.735612   1.000000
  227       -3.728031   1.000000
  228       -3.715360   1.000000
  229       -3.702003   1.000000
  230       -3.700796   1.000000
  231       -3.690384   1.000000
  232       -3.689099   1.000000
  233       -3.687252   1.000000
  234       -3.687179   1.000000
  235       -3.685516   1.000000
  236       -3.685469   1.000000
  237       -3.684945   1.000000
  238       -3.682990   1.000000
  239       -3.678596   1.000000
  240       -3.672686   1.000000
  241       -3.665415   1.000000
  242       -3.664733   1.000000
  243       -3.663075   1.000000
  244       -3.662748   1.000000
  245       -3.646522   1.000000
  246       -3.627667   1.000000
  247       -3.625137   1.000000
  248       -3.624742   1.000000
  249       -3.623909   1.000000
  250       -3.623207   1.000000
  251       -3.622461   1.000000
  252       -3.621842   1.000000
  253       -3.619383   1.000000
  254       -3.618205   1.000000
  255       -3.618185   1.000000
  256       -3.610879   1.000000
  257       -3.610477   1.000000
  258       -3.607905   1.000000
  259       -3.579971   1.000000
  260       -3.566214   1.000000
  261       -3.561881   1.000000
  262       -3.560402   1.000000
  263       -3.557875   1.000000
  264       -3.557150   1.000000
  265       -3.556984   1.000000
  266       -3.556462   1.000000
  267       -3.556302   1.000000
  268       -3.556254   1.000000
  269       -3.552698   1.000000
  270       -3.550684   1.000000
  271       -3.550326   1.000000
  272       -3.535437   1.000000
  273       -3.534658   1.000000
  274       -3.528420   1.000000
  275       -3.523442   1.000000
  276       -3.522993   1.000000
  277       -3.517646   1.000000
  278       -3.511874   1.000000
  279       -3.506996   1.000000
  280       -3.504676   1.000000
  281       -3.498946   1.000000
  282       -3.488741   1.000000
  283       -3.488568   1.000000
  284       -3.482712   1.000000
  285       -3.482125   1.000000
  286       -3.480089   1.000000
  287       -3.479527   1.000000
  288       -3.479511   1.000000
  289       -3.478695   1.000000
  290       -3.476929   1.000000
  291       -3.476591   1.000000
  292       -3.476330   1.000000
  293       -3.474677   1.000000
  294       -3.474186   1.000000
  295       -3.474159   1.000000
  296       -3.470769   1.000000
  297       -3.454968   1.000000
  298       -3.439903   1.000000
  299       -3.418756   1.000000
  300       -3.405862   1.000000
  301       -3.405843   1.000000
  302       -3.404982   1.000000
  303       -3.404655   1.000000
  304       -3.402417   1.000000
  305       -3.399897   1.000000
  306       -3.399838   1.000000
  307       -3.398536   1.000000
  308       -3.397848   1.000000
  309       -3.397692   1.000000
  310       -3.395564   1.000000
  311       -3.394798   1.000000
  312       -3.383307   1.000000
  313       -3.361978   1.000000
  314       -3.340726   1.000000
  315       -3.332512   1.000000
  316       -3.328331   1.000000
  317       -3.326213   1.000000
  318       -3.324542   1.000000
  319       -3.324194   1.000000
  320       -3.320389   1.000000
  321       -3.310740   1.000000
  322       -3.308690   1.000000
  323       -3.295407   1.000000
  324       -3.295008   1.000000
  325       -3.293471   1.000000
  326       -3.292690   1.000000
  327       -3.290388   1.000000
  328       -3.290089   1.000000
  329       -3.289357   1.000000
  330       -3.286485   1.000000
  331       -3.284310   1.000000
  332       -3.283890   1.000000
  333       -3.282223   1.000000
  334       -3.280936   1.000000
  335       -3.279403   1.000000
  336       -3.278630   1.000000
  337       -3.278376   1.000000
  338       -3.276183   1.000000
  339       -3.275961   1.000000
  340       -3.275550   1.000000
  341       -3.261197   1.000000
  342       -3.216447   1.000000
  343       -3.208167   1.000000
  344       -3.194571   1.000000
  345       -3.185359   1.000000
  346       -3.172077   1.000000
  347       -3.167711   1.000000
  348       -3.162812   1.000000
  349       -3.161734   1.000000
  350       -3.145498   1.000000
  351       -3.144831   1.000000
  352       -3.139498   1.000000
  353       -3.138467   1.000000
  354       -3.137039   1.000000
  355       -3.136528   1.000000
  356       -3.125036   1.000000
  357       -3.123388   1.000000
  358       -3.122162   1.000000
  359       -3.115815   1.000000
  360       -3.112672   1.000000
  361       -3.111315   1.000000
  362       -3.110337   1.000000
  363       -3.106180   1.000000
  364       -3.105629   1.000000
  365       -3.104585   1.000000
  366       -3.100251   1.000000
  367       -3.072680   1.000000
  368       -3.060186   1.000000
  369       -3.056249   1.000000
  370       -3.053723   1.000000
  371       -3.052844   1.000000
  372       -3.044985   1.000000
  373       -3.033761   1.000000
  374       -3.026391   1.000000
  375       -3.023386   1.000000
  376       -3.017092   1.000000
  377       -3.014420   1.000000
  378       -3.014410   1.000000
  379       -3.014301   1.000000
  380       -3.013800   1.000000
  381       -3.013448   1.000000
  382       -3.013100   1.000000
  383       -3.012542   1.000000
  384       -3.012463   1.000000
  385       -2.998870   1.000000
  386       -2.978827   1.000000
  387       -2.973512   1.000000
  388       -2.973203   1.000000
  389       -2.971661   1.000000
  390       -2.969272   1.000000
  391       -2.965557   1.000000
  392       -2.964755   1.000000
  393       -2.964209   1.000000
  394       -2.961700   1.000000
  395       -2.961646   1.000000
  396       -2.959673   1.000000
  397       -2.955114   1.000000
  398       -2.914024   1.000000
  399       -2.913960   1.000000
  400       -2.908019   1.000000
  401       -2.907543   1.000000
  402       -2.906713   1.000000
  403       -2.906018   1.000000
  404       -2.873711   1.000000
  405       -2.867993   1.000000
  406       -2.863628   1.000000
  407       -2.857367   1.000000
  408       -2.853548   1.000000
  409       -2.849282   1.000000
  410       -2.842830   1.000000
  411       -2.840597   1.000000
  412       -2.840157   1.000000
  413       -2.838466   1.000000
  414       -2.838100   1.000000
  415       -2.835274   1.000000
  416       -2.829881   1.000000
  417       -2.824075   1.000000
  418       -2.822258   1.000000
  419       -2.821624   1.000000
  420       -2.813279   1.000000
  421       -2.811740   1.000000
  422       -2.810588   1.000000
  423       -2.810327   1.000000
  424       -2.810096   1.000000
  425       -2.808895   1.000000
  426       -2.806831   1.000000
  427       -2.803551   1.000000
  428       -2.800292   1.000000
  429       -2.796787   1.000000
  430       -2.786576   1.000000
  431       -2.785146   1.000000
  432       -2.784272   1.000000
  433       -2.783019   1.000000
  434       -2.782825   1.000000
  435       -2.781598   1.000000
  436       -2.779744   1.000000
  437       -2.778214   1.000000
  438       -2.777122   1.000000
  439       -2.777025   1.000000
  440       -2.776616   1.000000
  441       -2.776594   1.000000
  442       -2.776433   1.000000
  443       -2.775446   1.000000
  444       -2.774688   1.000000
  445       -2.752407   1.000000
  446       -2.734233   1.000000
  447       -2.732322   1.000000
  448       -2.721645   1.000000
  449       -2.717487   1.000000
  450       -2.714450   1.000000
  451       -2.712892   1.000000
  452       -2.710516   1.000000
  453       -2.708904   1.000000
  454       -2.705624   1.000000
  455       -2.705407   1.000000
  456       -2.704215   1.000000
  457       -2.703757   1.000000
  458       -2.703463   1.000000
  459       -2.703335   1.000000
  460       -2.703239   1.000000
  461       -2.703158   1.000000
  462       -2.702512   1.000000
  463       -2.702240   1.000000
  464       -2.699793   1.000000
  465       -2.699388   1.000000
  466       -2.690889   1.000000
  467       -2.678915   1.000000
  468       -2.671582   1.000000
  469       -2.665672   1.000000
  470       -2.661858   1.000000
  471       -2.656200   1.000000
  472       -2.654559   1.000000
  473       -2.647111   1.000000
  474       -2.644650   1.000000
  475       -2.627295   1.000000
  476       -2.618185   1.000000
  477       -2.616105   1.000000
  478       -2.615549   1.000000
  479       -2.612619   1.000000
  480       -2.611882   1.000000
  481       -2.611489   1.000000
  482       -2.610505   1.000000
  483       -2.609488   1.000000
  484       -2.608949   1.000000
  485       -2.608766   1.000000
  486       -2.608260   1.000000
  487       -2.607882   1.000000
  488       -2.606899   1.000000
  489       -2.606872   1.000000
  490       -2.606004   1.000000
  491       -2.604898   1.000000
  492       -2.604217   1.000000
  493       -2.603759   1.000000
  494       -2.602487   1.000000
  495       -2.601928   1.000000
  496       -2.601886   1.000000
  497       -2.601156   1.000000
  498       -2.600639   1.000000
  499       -2.600564   1.000000
  500       -2.599095   1.000000
  501       -2.595975   1.000000
  502       -2.581335   1.000000
  503       -2.575518   1.000000
  504       -2.567057   1.000000
  505       -2.561251   1.000000
  506       -2.557288   1.000000
  507       -2.551786   1.000000
  508       -2.545128   1.000000
  509       -2.544352   1.000000
  510       -2.544234   1.000000
  511       -2.543303   1.000000
  512       -2.541952   1.000000
  513       -2.541100   1.000000
  514       -2.540655   1.000000
  515       -2.540003   1.000000
  516       -2.539527   1.000000
  517       -2.534742   1.000000
  518       -2.518325   1.000000
  519       -2.516531   1.000000
  520       -2.515582   1.000000
  521       -2.510179   1.000000
  522       -2.506112   1.000000
  523       -2.502892   1.000000
  524       -2.489594   1.000000
  525       -2.472893   1.000000
  526       -2.466496   1.000000
  527       -2.461084   1.000000
  528       -2.456179   1.000000
  529       -2.454490   1.000000
  530       -2.449059   1.000000
  531       -2.449045   1.000000
  532       -2.448459   1.000000
  533       -2.443785   1.000000
  534       -2.443276   1.000000
  535       -2.443017   1.000000
  536       -2.441770   1.000000
  537       -2.441215   1.000000
  538       -2.440670   1.000000
  539       -2.439823   1.000000
  540       -2.437644   1.000000
  541       -2.436228   1.000000
  542       -2.434081   1.000000
  543       -2.428385   1.000000
  544       -2.408633   1.000000
  545       -2.403238   1.000000
  546       -2.398351   1.000000
  547       -2.396488   1.000000
  548       -2.394243   1.000000
  549       -2.391306   1.000000
  550       -2.387064   1.000000
  551       -2.386276   1.000000
  552       -2.385976   1.000000
  553       -2.382720   1.000000
  554       -2.382145   1.000000
  555       -2.378303   1.000000
  556       -2.377664   1.000000
  557       -2.375195   1.000000
  558       -2.374767   1.000000
  559       -2.372505   1.000000
  560       -2.371511   1.000000
  561       -2.370884   1.000000
  562       -2.370052   1.000000
  563       -2.369737   1.000000
  564       -2.369018   1.000000
  565       -2.368143   1.000000
  566       -2.367058   1.000000
  567       -2.366344   1.000000
  568       -2.365751   1.000000
  569       -2.362947   1.000000
  570       -2.360033   1.000000
  571       -2.359830   1.000000
  572       -2.359269   1.000000
  573       -2.357022   1.000000
  574       -2.341159   1.000000
  575       -2.335246   1.000000
  576       -2.327925   1.000000
  577       -2.321724   1.000000
  578       -2.320594   1.000000
  579       -2.316792   1.000000
  580       -2.310300   1.000000
  581       -2.307637   1.000000
  582       -2.307151   1.000000
  583       -2.306196   1.000000
  584       -2.305750   1.000000
  585       -2.302321   1.000000
  586       -2.301668   1.000000
  587       -2.297849   1.000000
  588       -2.296098   1.000000
  589       -2.289212   1.000000
  590       -2.285480   1.000000
  591       -2.276847   1.000000
  592       -2.274470   1.000000
  593       -2.274340   1.000000
  594       -2.271116   1.000000
  595       -2.267757   1.000000
  596       -2.267669   1.000000
  597       -2.266075   1.000000
  598       -2.255977   1.000000
  599       -2.255612   1.000000
  600       -2.254253   1.000000
  601       -2.253502   1.000000
  602       -2.253230   1.000000
  603       -2.253062   1.000000
  604       -2.249814   1.000000
  605       -2.249170   1.000000
  606       -2.244068   1.000000
  607       -2.240526   1.000000
  608       -2.239217   1.000000
  609       -2.234519   1.000000
  610       -2.234172   1.000000
  611       -2.234105   1.000000
  612       -2.233448   1.000000
  613       -2.231500   1.000000
  614       -2.230847   1.000000
  615       -2.230078   1.000000
  616       -2.221827   1.000000
  617       -2.219523   1.000000
  618       -2.215006   1.000000
  619       -2.202954   1.000000
  620       -2.198080   1.000000
  621       -2.196877   1.000000
  622       -2.193753   1.000000
  623       -2.190491   1.000000
  624       -2.186286   1.000000
  625       -2.181468   1.000000
  626       -2.176608   1.000000
  627       -2.174015   1.000000
  628       -2.169017   1.000000
  629       -2.162951   1.000000
  630       -2.162397   1.000000
  631       -2.159672   1.000000
  632       -2.159213   1.000000
  633       -2.159150   1.000000
  634       -2.158845   1.000000
  635       -2.157883   1.000000
  636       -2.155490   1.000000
  637       -2.145222   1.000000
  638       -2.140860   1.000000
  639       -2.138461   1.000000
  640       -2.136536   1.000000
  641       -2.136349   1.000000
  642       -2.135372   1.000000
  643       -2.135323   1.000000
  644       -2.133955   1.000000
  645       -2.130535   1.000000
  646       -2.127713   1.000000
  647       -2.124966   1.000000
  648       -2.124597   1.000000
  649       -2.120278   1.000000
  650       -2.119072   1.000000
  651       -2.114679   1.000000
  652       -2.112510   1.000000
  653       -2.112165   1.000000
  654       -2.112100   1.000000
  655       -2.111444   1.000000
  656       -2.111037   1.000000
  657       -2.109844   1.000000
  658       -2.109037   1.000000
  659       -2.107934   1.000000
  660       -2.107753   1.000000
  661       -2.107023   1.000000
  662       -2.106030   1.000000
  663       -2.102790   1.000000
  664       -2.101060   1.000000
  665       -2.100085   1.000000
  666       -2.099236   1.000000
  667       -2.098490   1.000000
  668       -2.097765   1.000000
  669       -2.096816   1.000000
  670       -2.095954   1.000000
  671       -2.094362   1.000000
  672       -2.091440   1.000000
  673       -2.088110   1.000000
  674       -2.070615   1.000000
  675       -2.066395   1.000000
  676       -2.060706   1.000000
  677       -2.056192   1.000000
  678       -2.049351   1.000000
  679       -2.046462   1.000000
  680       -2.045691   1.000000
  681       -2.043509   1.000000
  682       -2.042546   1.000000
  683       -2.034291   1.000000
  684       -2.030885   1.000000
  685       -2.029842   1.000000
  686       -2.027862   1.000000
  687       -2.024329   1.000000
  688       -2.022578   1.000000
  689       -2.022189   1.000000
  690       -2.015751   1.000000
  691       -2.009561   1.000000
  692       -2.005377   1.000000
  693       -2.002682   1.000000
  694       -2.000960   1.000000
  695       -2.000910   1.000000
  696       -2.000103   1.000000
  697       -2.000084   1.000000
  698       -1.998907   1.000000
  699       -1.996922   1.000000
  700       -1.996859   1.000000
  701       -1.996049   1.000000
  702       -1.994960   1.000000
  703       -1.994793   1.000000
  704       -1.988188   1.000000
  705       -1.985481   1.000000
  706       -1.985123   1.000000
  707       -1.984513   1.000000
  708       -1.983350   1.000000
  709       -1.983274   1.000000
  710       -1.982219   1.000000
  711       -1.980917   1.000000
  712       -1.980122   1.000000
  713       -1.979749   1.000000
  714       -1.979674   1.000000
  715       -1.979311   1.000000
  716       -1.978086   1.000000
  717       -1.977956   1.000000
  718       -1.966789   1.000000
  719       -1.958258   1.000000
  720       -1.957705   1.000000
  721       -1.954990   1.000000
  722       -1.954533   1.000000
  723       -1.954179   1.000000
  724       -1.954030   1.000000
  725       -1.951985   1.000000
  726       -1.947633   1.000000
  727       -1.941491   1.000000
  728       -1.935182   1.000000
  729       -1.933452   1.000000
  730       -1.928754   1.000000
  731       -1.927705   1.000000
  732       -1.927417   1.000000
  733       -1.918327   1.000000
  734       -1.918183   1.000000
  735       -1.913096   1.000000
  736       -1.912890   1.000000
  737       -1.910474   1.000000
  738       -1.910163   1.000000
  739       -1.909371   1.000000
  740       -1.908752   1.000000
  741       -1.903516   1.000000
  742       -1.897627   1.000000
  743       -1.891843   1.000000
  744       -1.879582   1.000000
  745       -1.876073   1.000000
  746       -1.867872   1.000000
  747       -1.867780   1.000000
  748       -1.866113   1.000000
  749       -1.865758   1.000000
  750       -1.864688   1.000000
  751       -1.863624   1.000000
  752       -1.860920   1.000000
  753       -1.859250   1.000000
  754       -1.855185   1.000000
  755       -1.853833   1.000000
  756       -1.853338   1.000000
  757       -1.845746   1.000000
  758       -1.843721   1.000000
  759       -1.831271   1.000000
  760       -1.827040   1.000000
  761       -1.825904   1.000000
  762       -1.818976   1.000000
  763       -1.814080   1.000000
  764       -1.812843   1.000000
  765       -1.810542   1.000000
  766       -1.809504   1.000000
  767       -1.809455   1.000000
  768       -1.808458   1.000000
  769       -1.807137   1.000000
  770       -1.806406   1.000000
  771       -1.802937   1.000000
  772       -1.802732   1.000000
  773       -1.802540   1.000000
  774       -1.801530   1.000000
  775       -1.801292   1.000000
  776       -1.800959   1.000000
  777       -1.800028   1.000000
  778       -1.797347   1.000000
  779       -1.792275   1.000000
  780       -1.790873   1.000000
  781       -1.784212   1.000000
  782       -1.782765   1.000000
  783       -1.775568   1.000000
  784       -1.773152   1.000000
  785       -1.766633   1.000000
  786       -1.766554   1.000000
  787       -1.763659   1.000000
  788       -1.763046   1.000000
  789       -1.762944   1.000000
  790       -1.762616   1.000000
  791       -1.761462   1.000000
  792       -1.760388   1.000000
  793       -1.758369   1.000000
  794       -1.753559   1.000000
  795       -1.752189   1.000000
  796       -1.747929   1.000000
  797       -1.744924   1.000000
  798       -1.739734   1.000000
  799       -1.738336   1.000000
  800       -1.734758   1.000000
  801       -1.734631   1.000000
  802       -1.730417   1.000000
  803       -1.726634   1.000000
  804       -1.725654   1.000000
  805       -1.724413   1.000000
  806       -1.720728   1.000000
  807       -1.719246   1.000000
  808       -1.717458   1.000000
  809       -1.716660   1.000000
  810       -1.714022   1.000000
  811       -1.713038   1.000000
  812       -1.711964   1.000000
  813       -1.710815   1.000000
  814       -1.710373   1.000000
  815       -1.706791   1.000000
  816       -1.698955   1.000000
  817       -1.692324   1.000000
  818       -1.691347   1.000000
  819       -1.690140   1.000000
  820       -1.685788   1.000000
  821       -1.685183   1.000000
  822       -1.682807   1.000000
  823       -1.682190   1.000000
  824       -1.674647   1.000000
  825       -1.672915   1.000000
  826       -1.672164   1.000000
  827       -1.670322   1.000000
  828       -1.669278   1.000000
  829       -1.669210   1.000000
  830       -1.660572   1.000000
  831       -1.658016   1.000000
  832       -1.647602   1.000000
  833       -1.643710   1.000000
  834       -1.643217   1.000000
  835       -1.642054   1.000000
  836       -1.641762   1.000000
  837       -1.639300   1.000000
  838       -1.637298   1.000000
  839       -1.636245   1.000000
  840       -1.635247   1.000000
  841       -1.634753   1.000000
  842       -1.633992   1.000000
  843       -1.632195   1.000000
  844       -1.629449   1.000000
  845       -1.628686   1.000000
  846       -1.626706   1.000000
  847       -1.625377   1.000000
  848       -1.624426   1.000000
  849       -1.623130   1.000000
  850       -1.622479   1.000000
  851       -1.620366   1.000000
  852       -1.619818   1.000000
  853       -1.618474   1.000000
  854       -1.617042   1.000000
  855       -1.615924   1.000000
  856       -1.615668   1.000000
  857       -1.612308   1.000000
  858       -1.611063   1.000000
  859       -1.610226   1.000000
  860       -1.607553   1.000000
  861       -1.596338   1.000000
  862       -1.593454   1.000000
  863       -1.592127   1.000000
  864       -1.575307   1.000000
  865       -1.567227   1.000000
  866       -1.566796   1.000000
  867       -1.561109   1.000000
  868       -1.557105   1.000000
  869       -1.551983   1.000000
  870       -1.550094   1.000000
  871       -1.545165   1.000000
  872       -1.536310   1.000000
  873       -1.532495   1.000000
  874       -1.530738   1.000000
  875       -1.529478   1.000000
  876       -1.529040   1.000000
  877       -1.526474   1.000000
  878       -1.525231   1.000000
  879       -1.523505   1.000000
  880       -1.522404   1.000000
  881       -1.521243   1.000000
  882       -1.519889   1.000000
  883       -1.518873   1.000000
  884       -1.513102   1.000000
  885       -1.504204   1.000000
  886       -1.503184   1.000000
  887       -1.502123   1.000000
  888       -1.493347   1.000000
  889       -1.482120   1.000000
  890       -1.461083   1.000000
  891       -1.459532   1.000000
  892       -1.452698   1.000000
  893       -1.450337   1.000000
  894       -1.449574   1.000000
  895       -1.442967   1.000000
  896       -1.430698   1.000000
  897       -1.423699   1.000000
  898       -1.419089   1.000000
  899       -1.414240   1.000000
  900       -1.405392   1.000000
  901       -1.403557   1.000000