 316 316   0   0
  0.2288514E+02  0.1514622E-08  0.1514622E-08  0.3640000E-08  0.2000000E-15
   1.0000000000000000E-004
  CAR 
 NiAl                                    
      5.77831732    -30.12901815  301     -1.01806418      1.00000000
    -30.129  0.0000E+00  0.0000E+00
    -30.009  0.0000E+00  0.0000E+00
    -29.890  0.0000E+00  0.0000E+00
    -29.770  0.0000E+00  0.0000E+00
    -29.650  0.0000E+00  0.0000E+00
    -29.531  0.0000E+00  0.0000E+00
    -29.411  0.0000E+00  0.0000E+00
    -29.291  0.0000E+00  0.0000E+00
    -29.171  0.0000E+00  0.0000E+00
    -29.052  0.0000E+00  0.0000E+00
    -28.932  0.0000E+00  0.0000E+00
    -28.812  0.0000E+00  0.0000E+00
    -28.693  0.4063E-08  0.4864E-09
    -28.573  0.9633E-02  0.1153E-02
    -28.453  0.1311E+01  0.1581E+00
    -28.334  0.3503E+00  0.2000E+00
    -28.214  0.2709E-04  0.2000E+00
    -28.094  0.4699E-13  0.2000E+00
    -27.975  0.0000E+00  0.2000E+00
    -27.855  0.0000E+00  0.2000E+00
    -27.735  0.0000E+00  0.2000E+00
    -27.616  0.0000E+00  0.2000E+00
    -27.496  0.5463E-12  0.2000E+00
    -27.376  0.1175E-03  0.2000E+00
    -27.256  0.5603E+00  0.2671E+00
    -27.137  0.1109E+01  0.3998E+00
    -27.017  0.5510E+00  0.4657E+00
    -26.897  0.1332E+01  0.6251E+00
    -26.778  0.1563E+01  0.8123E+00
    -26.658  0.1402E+01  0.9801E+00
    -26.538  0.1667E+00  0.1000E+01
    -26.419  0.5485E-05  0.1000E+01
    -26.299  0.3873E-14  0.1000E+01
    -26.179  0.0000E+00  0.1000E+01
    -26.060  0.0000E+00  0.1000E+01
    -25.940  0.0000E+00  0.1000E+01
    -25.820  0.1931E-12  0.1000E+01
    -25.700  0.5064E-04  0.1000E+01
    -25.581  0.5318E+00  0.1064E+01
    -25.461  0.2756E+01  0.1393E+01
    -25.341  0.5454E-01  0.1400E+01
    -25.222  0.1501E-06  0.1400E+01
    -25.102  0.0000E+00  0.1400E+01
    -24.982  0.0000E+00  0.1400E+01
    -24.863  0.0000E+00  0.1400E+01
    -24.743  0.0000E+00  0.1400E+01
    -24.623  0.0000E+00  0.1400E+01
    -24.504  0.0000E+00  0.1400E+01
    -24.384  0.0000E+00  0.1400E+01
    -24.264  0.0000E+00  0.1400E+01
    -24.144  0.0000E+00  0.1400E+01
    -24.025  0.0000E+00  0.1400E+01
    -23.905  0.0000E+00  0.1400E+01
    -23.785  0.0000E+00  0.1400E+01
    -23.666  0.0000E+00  0.1400E+01
    -23.546  0.0000E+00  0.1400E+01
    -23.426  0.0000E+00  0.1400E+01
    -23.307  0.0000E+00  0.1400E+01
    -23.187  0.0000E+00  0.1400E+01
    -23.067  0.0000E+00  0.1400E+01
    -22.948  0.0000E+00  0.1400E+01
    -22.828  0.0000E+00  0.1400E+01
    -22.708  0.0000E+00  0.1400E+01
    -22.588  0.0000E+00  0.1400E+01
    -22.469  0.0000E+00  0.1400E+01
    -22.349  0.0000E+00  0.1400E+01
    -22.229  0.8419E-12  0.1400E+01
    -22.110  0.1513E-03  0.1400E+01
    -21.990  0.6012E+00  0.1472E+01
    -21.870  0.1068E+01  0.1600E+01
    -21.751  0.2066E-02  0.1600E+01
    -21.631  0.1200E-09  0.1600E+01
    -21.511  0.0000E+00  0.1600E+01
    -21.392  0.0000E+00  0.1600E+01
    -21.272  0.0000E+00  0.1600E+01
    -21.152  0.0000E+00  0.1600E+01
    -21.032  0.0000E+00  0.1600E+01
    -20.913  0.0000E+00  0.1600E+01
    -20.793  0.0000E+00  0.1600E+01
    -20.673  0.0000E+00  0.1600E+01
    -20.554  0.0000E+00  0.1600E+01
    -20.434  0.0000E+00  0.1600E+01
    -20.314  0.2623E-11  0.1600E+01
    -20.195  0.2194E-03  0.1600E+01
    -20.075  0.6463E+00  0.1677E+01
    -19.955  0.2631E+01  0.1992E+01
    -19.836  0.6486E-01  0.2000E+01
    -19.716  0.2032E-06  0.2000E+01
    -19.596  0.0000E+00  0.2000E+01
    -19.477  0.0000E+00  0.2000E+01
    -19.357  0.0000E+00  0.2000E+01
    -19.237  0.0000E+00  0.2000E+01
    -19.117  0.0000E+00  0.2000E+01
    -18.998  0.0000E+00  0.2000E+01
    -18.878  0.0000E+00  0.2000E+01
    -18.758  0.0000E+00  0.2000E+01
    -18.639  0.0000E+00  0.2000E+01
    -18.519  0.0000E+00  0.2000E+01
    -18.399  0.0000E+00  0.2000E+01
    -18.280  0.0000E+00  0.2000E+01
    -18.160  0.0000E+00  0.2000E+01
    -18.040  0.0000E+00  0.2000E+01
    -17.921  0.0000E+00  0.2000E+01
    -17.801  0.1583E-10  0.2000E+01
    -17.681  0.9269E-03  0.2000E+01
    -17.561  0.1547E+01  0.2185E+01
    -17.442  0.1792E+01  0.2400E+01
    -17.322  0.1796E-02  0.2400E+01
    -17.202  0.5393E-10  0.2400E+01
    -17.083  0.0000E+00  0.2400E+01
    -16.963  0.0000E+00  0.2400E+01
    -16.843  0.0000E+00  0.2400E+01
    -16.724  0.0000E+00  0.2400E+01
    -16.604  0.0000E+00  0.2400E+01
    -16.484  0.0000E+00  0.2400E+01
    -16.365  0.1391E-15  0.2400E+01
    -16.245  0.6485E-06  0.2400E+01
    -16.125  0.6435E-01  0.2408E+01
    -16.005  0.1324E+01  0.2566E+01
    -15.886  0.7819E+00  0.2660E+01
    -15.766  0.2283E+01  0.2933E+01
    -15.646  0.5590E+00  0.3000E+01
    -15.527  0.1537E-02  0.3000E+01
    -15.407  0.1782E-09  0.3000E+01
    -15.287  0.0000E+00  0.3000E+01
    -15.168  0.0000E+00  0.3000E+01
    -15.048  0.1275E-15  0.3000E+01
    -14.928  0.3085E-06  0.3000E+01
    -14.809  0.1319E-01  0.3002E+01
    -14.689  0.1613E+00  0.3021E+01
    -14.569  0.5928E+00  0.3092E+01
    -14.449  0.8626E+00  0.3195E+01
    -14.330  0.4114E-01  0.3200E+01
    -14.210  0.1801E-06  0.3200E+01
    -14.090  0.0000E+00  0.3200E+01
    -13.971  0.0000E+00  0.3200E+01
    -13.851  0.0000E+00  0.3200E+01
    -13.731  0.0000E+00  0.3200E+01
    -13.612  0.0000E+00  0.3200E+01
    -13.492  0.0000E+00  0.3200E+01
    -13.372  0.0000E+00  0.3200E+01
    -13.253  0.0000E+00  0.3200E+01
    -13.133  0.0000E+00  0.3200E+01
    -13.013  0.0000E+00  0.3200E+01
    -12.893  0.0000E+00  0.3200E+01
    -12.774  0.0000E+00  0.3200E+01
    -12.654  0.0000E+00  0.3200E+01
    -12.534  0.0000E+00  0.3200E+01
    -12.415  0.3565E-14  0.3200E+01
    -12.295  0.4935E-05  0.3200E+01
    -12.175  0.1386E+00  0.3217E+01
    -12.056  0.7913E+00  0.3311E+01
    -11.936  0.1571E+00  0.3330E+01
    -11.816  0.4771E+00  0.3387E+01
    -11.697  0.5586E-01  0.3394E+01
    -11.577  0.5299E-01  0.3400E+01
    -11.457  0.9275E-01  0.3411E+01
    -11.338  0.1000E-01  0.3413E+01
    -11.218  0.3435E+00  0.3454E+01
    -11.098  0.2826E+00  0.3487E+01
    -10.978  0.1448E-03  0.3488E+01
    -10.859  0.9722E-01  0.3499E+01
    -10.739  0.8202E+00  0.3597E+01
    -10.619  0.3278E-01  0.3601E+01
    -10.500  0.1774E+01  0.3814E+01
    -10.380  0.1552E+01  0.3999E+01
    -10.260  0.1292E-01  0.4001E+01
    -10.141  0.2982E+00  0.4036E+01
    -10.021  0.1305E+01  0.4193E+01
     -9.901  0.6167E-01  0.4200E+01
     -9.782  0.7014E-06  0.4200E+01
     -9.662  0.1104E-01  0.4201E+01
     -9.542  0.1042E+01  0.4326E+01
     -9.422  0.6292E+00  0.4401E+01
     -9.303  0.2449E+00  0.4431E+01
     -9.183  0.1155E+01  0.4569E+01
     -9.063  0.1776E+01  0.4782E+01
     -8.944  0.1814E+01  0.4999E+01
     -8.824  0.1041E+01  0.5123E+01
     -8.704  0.1198E+01  0.5267E+01
     -8.585  0.1701E+01  0.5470E+01
     -8.465  0.2057E+01  0.5717E+01
     -8.345  0.1286E+01  0.5870E+01
     -8.226  0.9615E+00  0.5986E+01
     -8.106  0.3312E+00  0.6025E+01
     -7.986  0.1332E+01  0.6185E+01
     -7.866  0.2759E+01  0.6515E+01
     -7.747  0.1438E+01  0.6687E+01
     -7.627  0.1570E+01  0.6875E+01
     -7.507  0.2832E+01  0.7214E+01
     -7.388  0.1828E+01  0.7433E+01
     -7.268  0.1731E+01  0.7640E+01
     -7.148  0.1814E+01  0.7857E+01
     -7.029  0.2492E+01  0.8155E+01
     -6.909  0.2066E+01  0.8403E+01
     -6.789  0.1653E+01  0.8600E+01
     -6.670  0.1714E+01  0.8806E+01
     -6.550  0.7501E+00  0.8895E+01
     -6.430  0.2114E+01  0.9148E+01
     -6.310  0.2559E+01  0.9455E+01
     -6.191  0.2254E+01  0.9724E+01
     -6.071  0.9243E+00  0.9835E+01
     -5.951  0.1803E+01  0.1005E+02
     -5.832  0.2766E+01  0.1038E+02
     -5.712  0.2208E+01  0.1065E+02
     -5.592  0.1911E+01  0.1087E+02
     -5.473  0.2755E+01  0.1120E+02
     -5.353  0.2567E+01  0.1151E+02
     -5.233  0.3607E+01  0.1194E+02
     -5.114  0.7087E+01  0.1279E+02
     -4.994  0.4899E+01  0.1338E+02
     -4.874  0.6097E+01  0.1411E+02
     -4.755  0.8112E+01  0.1508E+02
     -4.635  0.7389E+01  0.1596E+02
     -4.515  0.7527E+01  0.1686E+02
     -4.395  0.9142E+01  0.1796E+02
     -4.276  0.1193E+02  0.1939E+02
     -4.156  0.1299E+02  0.2094E+02
     -4.036  0.1202E+02  0.2238E+02
     -3.917  0.1062E+02  0.2365E+02
     -3.797  0.8738E+01  0.2470E+02
     -3.677  0.1047E+02  0.2595E+02
     -3.558  0.1136E+02  0.2731E+02
     -3.438  0.1002E+02  0.2851E+02
     -3.318  0.1225E+02  0.2997E+02
     -3.199  0.1440E+02  0.3170E+02
     -3.079  0.1390E+02  0.3336E+02
     -2.959  0.1584E+02  0.3526E+02
     -2.839  0.1893E+02  0.3752E+02
     -2.720  0.2043E+02  0.3997E+02
     -2.600  0.2027E+02  0.4240E+02
     -2.480  0.2080E+02  0.4489E+02
     -2.361  0.1969E+02  0.4724E+02
     -2.241  0.1348E+02  0.4885E+02
     -2.121  0.1524E+02  0.5068E+02
     -2.002  0.1322E+02  0.5226E+02
     -1.882  0.2022E+02  0.5468E+02
     -1.762  0.1909E+02  0.5697E+02
     -1.643  0.1542E+02  0.5881E+02
     -1.523  0.1703E+02  0.6085E+02
     -1.403  0.2089E+02  0.6335E+02
     -1.283  0.1835E+02  0.6555E+02
     -1.164  0.2189E+02  0.6817E+02
     -1.044  0.3044E+02  0.7181E+02
     -0.924  0.2414E+02  0.7470E+02
     -0.805  0.8290E+01  0.7569E+02
     -0.685  0.5163E+01  0.7631E+02
     -0.565  0.4873E+01  0.7690E+02
     -0.446  0.2826E+01  0.7723E+02
     -0.326  0.3048E+01  0.7760E+02
     -0.206  0.2090E+01  0.7785E+02
     -0.087  0.2024E+01  0.7809E+02
      0.033  0.2562E+01  0.7840E+02
      0.153  0.2707E+01  0.7872E+02
      0.273  0.1978E+01  0.7896E+02
      0.392  0.2950E+01  0.7931E+02
      0.512  0.2358E+01  0.7959E+02
      0.632  0.3140E+01  0.7997E+02
      0.751  0.1881E+01  0.8020E+02
      0.871  0.2083E+01  0.8044E+02
      0.991  0.2944E+01  0.8080E+02
      1.110  0.1878E+01  0.8102E+02
      1.230  0.3355E+01  0.8142E+02
      1.350  0.2640E+01  0.8174E+02
      1.469  0.1850E+01  0.8196E+02
      1.589  0.1992E+01  0.8220E+02
      1.709  0.2132E+01  0.8245E+02
      1.829  0.2243E+01  0.8272E+02
      1.948  0.2411E+01  0.8301E+02
      2.068  0.7524E+00  0.8310E+02
      2.188  0.3082E+01  0.8347E+02
      2.307  0.2937E+01  0.8382E+02
      2.427  0.2589E+01  0.8413E+02
      2.547  0.4325E+01  0.8465E+02
      2.666  0.1910E+01  0.8488E+02
      2.786  0.2876E+01  0.8522E+02
      2.906  0.2655E+01  0.8554E+02
      3.025  0.1638E+01  0.8574E+02
      3.145  0.1349E+01  0.8590E+02
      3.265  0.1509E+01  0.8608E+02
      3.384  0.1343E+01  0.8624E+02
      3.504  0.1081E+01  0.8637E+02
      3.624  0.1297E+01  0.8652E+02
      3.744  0.5268E+00  0.8659E+02
      3.863  0.1795E+01  0.8680E+02
      3.983  0.1709E+01  0.8701E+02
      4.103  0.6941E+00  0.8709E+02
      4.222  0.9295E-01  0.8710E+02
      4.342  0.1630E-02  0.8710E+02
      4.462  0.1582E-08  0.8710E+02
      4.581  0.0000E+00  0.8710E+02
      4.701  0.0000E+00  0.8710E+02
      4.821  0.0000E+00  0.8710E+02
      4.940  0.0000E+00  0.8710E+02
      5.060  0.0000E+00  0.8710E+02
      5.180  0.0000E+00  0.8710E+02
      5.300  0.0000E+00  0.8710E+02
      5.419  0.0000E+00  0.8710E+02
      5.539  0.0000E+00  0.8710E+02
      5.659  0.0000E+00  0.8710E+02
      5.778  0.0000E+00  0.8710E+02
