         324
 Energy:  -1338.1469936999999     
 X   0.00000000       0.00000000       0.00000000    
 X   15.1462221       0.00000000       0.00000000    
 X   7.57311106       13.1170130       0.00000000    
 X   0.00000000       0.00000000       36.4000015    
 X   22.7193336       13.1170130       0.00000000    
 X   15.1462221       0.00000000       36.4000015    
 X   7.57311106       13.1170130       36.4000015    
 X   22.7193336       13.1170130       36.4000015    
 Ni   10.0974798       5.82978010       2.25640011    
 Ni   12.6218500       10.2021198       2.25640011    
 Ni   7.57311010       1.45745003       2.25640011    
 Ni   15.1462202       5.82978010       2.25640011    
 Ni   17.6705894       10.2021198       2.25640011    
 Ni   12.6218500       1.45745003       2.25640011    
 Ni   5.04873991       5.82978010       2.25640011    
 Ni   7.57311010       10.2021198       2.25640011    
 Ni   2.52436996       1.45745003       2.25640011    
 Ni   12.6218500       7.28723001       4.54539013    
 Ni   15.1462202       11.6595697       4.54539013    
 Ni   10.0974798       2.91489005       4.54539013    
 Ni   17.6705894       7.28723001       4.54539013    
 Ni   20.1949596       11.6595697       4.54539013    
 Ni   15.1462202       2.91489005       4.54539013    
 Ni   7.57311010       7.28723001       4.54539013    
 Ni   10.0974798       11.6595697       4.54539013    
 Ni   5.04873991       2.91489005       4.54539013    
 Ni   15.1462202       8.74468040       6.76043987    
 Ni   10.0974798       0.00000000       6.76043987    
 Ni   12.6218500       4.37234020       6.76043987    
 Ni   5.04873991       8.74468040       6.76043987    
 Ni   0.00000000       0.00000000       6.76043987    
 Ni   2.52436996       4.37234020       6.76043987    
 Ni   10.0974798       8.74468040       6.76043987    
 Ni   5.04873991       0.00000000       6.76043987    
 Ni   7.57311010       4.37234020       6.76043987    
 Ni   17.6705894       10.2021198       9.04018974    
 Ni   12.6218500       1.45745003       9.04018974    
 Ni   15.1462202       5.82978010       9.04018974    
 Ni   7.57311010       10.2021198       9.04018974    
 Ni   2.52436996       1.45745003       9.04018974    
 Ni   5.04873991       5.82978010       9.04018974    
 Ni   12.6218500       10.2021198       9.04018974    
 Ni   7.57311010       1.45745003       9.04018974    
 Ni   10.0974798       5.82978010       9.04018974    
 Ni   20.1949596       11.6595697       11.3199396    
 Ni   15.1462202       2.91489005       11.3199396    
 Ni   17.6705894       7.28723001       11.3199396    
 Ni   10.0974798       11.6595697       11.3199396    
 Ni   5.04873991       2.91489005       11.3199396    
 Ni   7.57311010       7.28723001       11.3199396    
 Ni   15.1462202       11.6595697       11.3199396    
 Ni   10.0974798       2.91489005       11.3199396    
 Ni   12.6218500       7.28723001       11.3199396    
 Ni   0.00000000       0.00000000       13.5349903    
 Ni   2.52436996       4.37234020       13.5349903    
 Ni   5.04873991       8.74468040       13.5349903    
 Ni   5.04873991       0.00000000       13.5349903    
 Ni   7.57311010       4.37234020       13.5349903    
 Ni   10.0974798       8.74468040       13.5349903    
 Ni   10.0974798       0.00000000       13.5349903    
 Ni   12.6218500       4.37234020       13.5349903    
 Ni   15.1462202       8.74468040       13.5349903    
 Ni   2.52436996       1.45745003       15.8239803    
 Ni   5.04873991       5.82978010       15.8239803    
 Ni   7.57311010       10.2021198       15.8239803    
 Ni   7.57311010       1.45745003       15.8239803    
 Ni   10.0974798       5.82978010       15.8239803    
 Ni   12.6218500       10.2021198       15.8239803    
 Ni   12.6218500       1.45745003       15.8239803    
 Ni   15.1462202       5.82978010       15.8239803    
 Ni   17.6705894       10.2021198       15.8239803    
 Ni   6.31092978       3.64361000       2.25640011    
 Ni   8.83530045       8.01595020       2.25640011    
 Ni   11.3596697       12.3882904       2.25640011    
 Ni   11.3596697       3.64361000       2.25640011    
 Ni   13.8840399       8.01595020       2.25640011    
 Ni   16.4084091       12.3882904       2.25640011    
 Ni   16.4084091       3.64361000       2.25640011    
 Ni   18.9327793       8.01595020       2.25640011    
 Ni   21.4571495       12.3882904       2.25640011    
 Ni   8.83530045       5.10105991       4.54539013    
 Ni   11.3596697       9.47340012       4.54539013    
 Ni   6.31092978      0.728720009       4.54539013    
 Ni   13.8840399       5.10105991       4.54539013    
 Ni   16.4084091       9.47340012       4.54539013    
 Ni   11.3596697      0.728720009       4.54539013    
 Ni   3.78656006       5.10105991       4.54539013    
 Ni   6.31092978       9.47340012       4.54539013    
 Ni   1.26218998      0.728720009       4.54539013    
 Ni   11.3596697       6.55850983       6.76043987    
 Ni   13.8840399       10.9308395       6.76043987    
 Ni   8.83530045       2.18617010       6.76043987    
 Ni   16.4084091       6.55850983       6.76043987    
 Ni   18.9327793       10.9308395       6.76043987    
 Ni   13.8840399       2.18617010       6.76043987    
 Ni   6.31092978       6.55850983       6.76043987    
 Ni   8.83530045       10.9308395       6.76043987    
 Ni   3.78656006       2.18617010       6.76043987    
 Ni   13.8840399       8.01595020       9.04018974    
 Ni   16.4084091       12.3882904       9.04018974    
 Ni   11.3596697       3.64361000       9.04018974    
 Ni   18.9327793       8.01595020       9.04018974    
 Ni   21.4571495       12.3882904       9.04018974    
 Ni   16.4084091       3.64361000       9.04018974    
 Ni   8.83530045       8.01595020       9.04018974    
 Ni   11.3596697       12.3882904       9.04018974    
 Ni   6.31092978       3.64361000       9.04018974    
 Ni   16.4084091       9.47340012       11.3199396    
 Ni   11.3596697      0.728720009       11.3199396    
 Ni   13.8840399       5.10105991       11.3199396    
 Ni   6.31092978       9.47340012       11.3199396    
 Ni   1.26218998      0.728720009       11.3199396    
 Ni   3.78656006       5.10105991       11.3199396    
 Ni   11.3596697       9.47340012       11.3199396    
 Ni   6.31092978      0.728720009       11.3199396    
 Ni   8.83530045       5.10105991       11.3199396    
 Ni   18.9327793       10.9308395       13.5349903    
 Ni   13.8840399       2.18617010       13.5349903    
 Ni   16.4084091       6.55850983       13.5349903    
 Ni   8.83530045       10.9308395       13.5349903    
 Ni   3.78656006       2.18617010       13.5349903    
 Ni   6.31092978       6.55850983       13.5349903    
 Ni   13.8840399       10.9308395       13.5349903    
 Ni   8.83530045       2.18617010       13.5349903    
 Ni   11.3596697       6.55850983       13.5349903    
 Ni   21.4571495       12.3882904       15.8239803    
 Ni   16.4084091       3.64361000       15.8239803    
 Ni   18.9327793       8.01595020       15.8239803    
 Ni   11.3596697       12.3882904       15.8239803    
 Ni   6.31092978       3.64361000       15.8239803    
 Ni   8.83530045       8.01595020       15.8239803    
 Ni   16.4084091       12.3882904       15.8239803    
 Ni   11.3596697       3.64361000       15.8239803    
 Ni   13.8840399       8.01595020       15.8239803    
 Ni   7.57311010       5.82978010       2.25640011    
 Ni   10.0974798       10.2021198       2.25640011    
 Ni   5.04873991       1.45745003       2.25640011    
 Ni   12.6218500       5.82978010       2.25640011    
 Ni   15.1462202       10.2021198       2.25640011    
 Ni   10.0974798       1.45745003       2.25640011    
 Ni   17.6705894       5.82978010       2.25640011    
 Ni   20.1949596       10.2021198       2.25640011    
 Ni   15.1462202       1.45745003       2.25640011    
 Ni   10.0974798       7.28723001       4.54539013    
 Ni   12.6218500       11.6595697       4.54539013    
 Ni   7.57311010       2.91489005       4.54539013    
 Ni   15.1462202       7.28723001       4.54539013    
 Ni   17.6705894       11.6595697       4.54539013    
 Ni   12.6218500       2.91489005       4.54539013    
 Ni   5.04873991       7.28723001       4.54539013    
 Ni   7.57311010       11.6595697       4.54539013    
 Ni   2.52436996       2.91489005       4.54539013    
 Ni   12.6218500       8.74468040       6.76043987    
 Ni   7.57311010       0.00000000       6.76043987    
 Ni   10.0974798       4.37234020       6.76043987    
 Ni   17.6705894       8.74468040       6.76043987    
 Ni   12.6218500       0.00000000       6.76043987    
 Ni   15.1462202       4.37234020       6.76043987    
 Ni   7.57311010       8.74468040       6.76043987    
 Ni   2.52436996       0.00000000       6.76043987    
 Ni   5.04873991       4.37234020       6.76043987    
 Ni   15.1462202       10.2021198       9.04018974    
 Ni   10.0974798       1.45745003       9.04018974    
 Ni   12.6218500       5.82978010       9.04018974    
 Ni   20.1949596       10.2021198       9.04018974    
 Ni   15.1462202       1.45745003       9.04018974    
 Ni   17.6705894       5.82978010       9.04018974    
 Ni   10.0974798       10.2021198       9.04018974    
 Ni   5.04873991       1.45745003       9.04018974    
 Ni   7.57311010       5.82978010       9.04018974    
 Ni   17.6705894       11.6595697       11.3199396    
 Ni   12.6218500       2.91489005       11.3199396    
 Ni   15.1462202       7.28723001       11.3199396    
 Ni   7.57311010       11.6595697       11.3199396    
 Ni   2.52436996       2.91489005       11.3199396    
 Ni   5.04873991       7.28723001       11.3199396    
 Ni   12.6218500       11.6595697       11.3199396    
 Ni   7.57311010       2.91489005       11.3199396    
 Ni   10.0974798       7.28723001       11.3199396    
 Ni   12.6218500       0.00000000       13.5349903    
 Ni   15.1462202       4.37234020       13.5349903    
 Ni   17.6705894       8.74468040       13.5349903    
 Ni   2.52436996       0.00000000       13.5349903    
 Ni   5.04873991       4.37234020       13.5349903    
 Ni   7.57311010       8.74468040       13.5349903    
 Ni   7.57311010       0.00000000       13.5349903    
 Ni   10.0974798       4.37234020       13.5349903    
 Ni   12.6218500       8.74468040       13.5349903    
 Ni   15.1462202       1.45745003       15.8239803    
 Ni   17.6705894       5.82978010       15.8239803    
 Ni   20.1949596       10.2021198       15.8239803    
 Ni   5.04873991       1.45745003       15.8239803    
 Ni   7.57311010       5.82978010       15.8239803    
 Ni   10.0974798       10.2021198       15.8239803    
 Ni   10.0974798       1.45745003       15.8239803    
 Ni   12.6218500       5.82978010       15.8239803    
 Ni   15.1462202       10.2021198       15.8239803    
 Ni   8.83530045       3.64361000       2.25640011    
 Ni   11.3596697       8.01595020       2.25640011    
 Ni   13.8840399       12.3882904       2.25640011    
 Ni   13.8840399       3.64361000       2.25640011    
 Ni   16.4084091       8.01595020       2.25640011    
 Ni   18.9327793       12.3882904       2.25640011    
 Ni   3.78656006       3.64361000       2.25640011    
 Ni   6.31092978       8.01595020       2.25640011    
 Ni   8.83530045       12.3882904       2.25640011    
 Ni   11.3596697       5.10105991       4.54539013    
 Ni   13.8840399       9.47340012       4.54539013    
 Ni   8.83530045      0.728720009       4.54539013    
 Ni   16.4084091       5.10105991       4.54539013    
 Ni   18.9327793       9.47340012       4.54539013    
 Ni   13.8840399      0.728720009       4.54539013    
 Ni   6.31092978       5.10105991       4.54539013    
 Ni   8.83530045       9.47340012       4.54539013    
 Ni   3.78656006      0.728720009       4.54539013    
 Ni   13.8840399       6.55850983       6.76043987    
 Ni   16.4084091       10.9308395       6.76043987    
 Ni   11.3596697       2.18617010       6.76043987    
 Ni   3.78656006       6.55850983       6.76043987    
 Ni   6.31092978       10.9308395       6.76043987    
 Ni   1.26218998       2.18617010       6.76043987    
 Ni   8.83530045       6.55850983       6.76043987    
 Ni   11.3596697       10.9308395       6.76043987    
 Ni   6.31092978       2.18617010       6.76043987    
 Ni   16.4084091       8.01595020       9.04018974    
 Ni   18.9327793       12.3882904       9.04018974    
 Ni   13.8840399       3.64361000       9.04018974    
 Ni   6.31092978       8.01595020       9.04018974    
 Ni   8.83530045       12.3882904       9.04018974    
 Ni   3.78656006       3.64361000       9.04018974    
 Ni   11.3596697       8.01595020       9.04018974    
 Ni   13.8840399       12.3882904       9.04018974    
 Ni   8.83530045       3.64361000       9.04018974    
 Ni   18.9327793       9.47340012       11.3199396    
 Ni   13.8840399      0.728720009       11.3199396    
 Ni   16.4084091       5.10105991       11.3199396    
 Ni   8.83530045       9.47340012       11.3199396    
 Ni   3.78656006      0.728720009       11.3199396    
 Ni   6.31092978       5.10105991       11.3199396    
 Ni   13.8840399       9.47340012       11.3199396    
 Ni   8.83530045      0.728720009       11.3199396    
 Ni   11.3596697       5.10105991       11.3199396    
 Ni   6.31092978       10.9308395       13.5349903    
 Ni   1.26218998       2.18617010       13.5349903    
 Ni   3.78656006       6.55850983       13.5349903    
 Ni   11.3596697       10.9308395       13.5349903    
 Ni   6.31092978       2.18617010       13.5349903    
 Ni   8.83530045       6.55850983       13.5349903    
 Ni   16.4084091       10.9308395       13.5349903    
 Ni   11.3596697       2.18617010       13.5349903    
 Ni   13.8840399       6.55850983       13.5349903    
 Ni   8.83530045       12.3882904       15.8239803    
 Ni   3.78656006       3.64361000       15.8239803    
 Ni   6.31092978       8.01595020       15.8239803    
 Ni   13.8840399       12.3882904       15.8239803    
 Ni   8.83530045       3.64361000       15.8239803    
 Ni   11.3596697       8.01595020       15.8239803    
 Ni   18.9327793       12.3882904       15.8239803    
 Ni   13.8840399       3.64361000       15.8239803    
 Ni   16.4084091       8.01595020       15.8239803    
 O    0.00000000       0.00000000       17.2239799    
 O   0.946640015       1.63962996       17.2239799    
 O    1.89328003       3.27924991       17.2239799    
 O    2.83992004       4.91887999       17.2239799    
 O    3.78656006       6.55850983       17.2239799    
 O    4.73319006       8.19812965       17.2239799    
 O    5.67983007       9.83775997       17.2239799    
 O    6.62647009       11.4773903       17.2239799    
 O    1.89328003       0.00000000       17.2239799    
 O    2.83992004       1.63962996       17.2239799    
 O    3.78656006       3.27924991       17.2239799    
 O    4.73319006       4.91887999       17.2239799    
 O    5.67983007       6.55850983       17.2239799    
 O    6.62647009       8.19812965       17.2239799    
 O    7.57311010       9.83775997       17.2239799    
 O    8.51974964       11.4773903       17.2239799    
 O    3.78656006       0.00000000       17.2239799    
 O    4.73319006       1.63962996       17.2239799    
 O    5.67983007       3.27924991       17.2239799    
 O    6.62647009       4.91887999       17.2239799    
 O    7.57311010       6.55850983       17.2239799    
 O    8.51974964       8.19812965       17.2239799    
 O    9.46638966       9.83775997       17.2239799    
 O    10.4130297       11.4773903       17.2239799    
 O    5.67983007       0.00000000       17.2239799    
 O    6.62647009       1.63962996       17.2239799    
 O    7.57311010       3.27924991       17.2239799    
 O    8.51974964       4.91887999       17.2239799    
 O    9.46638966       6.55850983       17.2239799    
 O    10.4130297       8.19812965       17.2239799    
 O    11.3596697       9.83775997       17.2239799    
 O    12.3063097       11.4773903       17.2239799    
 O    7.57311010       0.00000000       17.2239799    
 O    8.51974964       1.63962996       17.2239799    
 O    9.46638966       3.27924991       17.2239799    
 O    10.4130297       4.91887999       17.2239799    
 O    11.3596697       6.55850983       17.2239799    
 O    12.3063097       8.19812965       17.2239799    
 O    13.2529402       9.83775997       17.2239799    
 O    14.1995802       11.4773903       17.2239799    
 O    9.46638966       0.00000000       17.2239799    
 O    10.4130297       1.63962996       17.2239799    
 O    11.3596697       3.27924991       17.2239799    
 O    12.3063097       4.91887999       17.2239799    
 O    13.2529402       6.55850983       17.2239799    
 O    14.1995802       8.19812965       17.2239799    
 O    15.1462202       9.83775997       17.2239799    
 O    16.0928593       11.4773903       17.2239799    
 O    11.3596697       0.00000000       17.2239799    
 O    12.3063097       1.63962996       17.2239799    
 O    13.2529402       3.27924991       17.2239799    
 O    14.1995802       4.91887999       17.2239799    
 O    15.1462202       6.55850983       17.2239799    
 O    16.0928593       8.19812965       17.2239799    
 O    17.0394993       9.83775997       17.2239799    
 O    17.9861393       11.4773903       17.2239799    
 O    13.2529402       0.00000000       17.2239799    
 O    14.1995802       1.63962996       17.2239799    
 O    15.1462202       3.27924991       17.2239799    
 O    16.0928593       4.91887999       17.2239799    
 O    17.0394993       6.55850983       17.2239799    
 O    17.9861393       8.19812965       17.2239799    
 O    18.9327793       9.83775997       17.2239799    
 O    19.8794193       11.4773903       17.2239799    
         324
 Energy:  -1384.9439702000000     
 X   0.00000000       0.00000000       0.00000000    
 X   15.1462221       0.00000000       0.00000000    
 X   7.57311106       13.1170130       0.00000000    
 X   0.00000000       0.00000000       36.4000015    
 X   22.7193336       13.1170130       0.00000000    
 X   15.1462221       0.00000000       36.4000015    
 X   7.57311106       13.1170130       36.4000015    
 X   22.7193336       13.1170130       36.4000015    
 Ni   10.0973501       5.82971001       2.27746010    
 Ni   12.6217003       10.2022104       2.27723002    
 Ni   7.57311010       1.45758998       2.27746010    
 Ni   15.1462202       5.82960987       2.27723002    
 Ni   17.6707401       10.2022104       2.27723002    
 Ni   12.6217804       1.45748997       2.27737999    
 Ni   5.04887009       5.82971001       2.27746010    
 Ni   7.57311010       10.2020397       2.27737999    
 Ni   2.52444005       1.45748997       2.27737999    
 Ni   12.6220598       7.28735018       4.54228020    
 Ni   15.1462202       11.6593304       4.54228020    
 Ni   10.0977697       2.91472006       4.54225016    
 Ni   17.6703796       7.28735018       4.54228020    
 Ni   20.1949806       11.6595802       4.54223013    
 Ni   15.1462202       2.91487002       4.54223013    
 Ni   7.57311010       7.28757000       4.54225016    
 Ni   10.0974598       11.6595802       4.54223013    
 Ni   5.04844999       2.91472006       4.54225016    
 Ni   15.1462202       8.74468040       6.76281023    
 Ni   10.0975199      -2.99999992E-05   6.76261997    
 Ni   12.6218996       4.37232018       6.76261997    
 Ni   5.04872990       8.74472046       6.76261997    
 Ni  -0.00000000       0.00000000       6.76248980    
 Ni   2.52431989       4.37232018       6.76261997    
 Ni   10.0974903       8.74472046       6.76261997    
 Ni   5.04869986      -2.99999992E-05   6.76261997    
 Ni   7.57311010       4.37234020       6.76277018    
 Ni   17.6705799       10.2021103       9.03989029    
 Ni   12.6216602       1.45755994       9.03985023    
 Ni   15.1462202       5.82980013       9.03989029    
 Ni   7.57311010       10.2018995       9.03985023    
 Ni   2.52455997       1.45755994       9.03985023    
 Ni   5.04877996       5.82976007       9.04010010    
 Ni   12.6218700       10.2021103       9.03989029    
 Ni   7.57311010       1.45748997       9.04010010    
 Ni   10.0974398       5.82976007       9.04010010    
 Ni   20.1946793       11.6594000       11.3176603    
 Ni   15.1462202       2.91522002       11.3176603    
 Ni   17.6707401       7.28713989       11.3176298    
 Ni   10.0977602       11.6594000       11.3176603    
 Ni   5.04830980       2.91463995       11.3178797    
 Ni   7.57311010       7.28773022       11.3178797    
 Ni   15.1462202       11.6597404       11.3176298    
 Ni   10.0979099       2.91463995       11.3178797    
 Ni   12.6217003       7.28713989       11.3176298    
 Ni  -0.00000000       0.00000000       13.5348196    
 Ni   2.52464008       4.37301016       13.5358601    
 Ni   5.04829979       8.74409962       13.5358601    
 Ni   5.04945993      -9.99999975E-05   13.5358601    
 Ni   7.57311010       4.37234020       13.5368204    
 Ni   10.0979300       8.74409962       13.5358601    
 Ni   10.0967598      -9.99999975E-05   13.5358601    
 Ni   12.6215801       4.37301016       13.5358601    
 Ni   15.1462202       8.74468040       13.5315504    
 Ni   2.48097992       1.43239999       15.5137501    
 Ni   5.04281998       5.83319998       15.7100201    
 Ni   7.57311010       10.2522202       15.5137501    
 Ni   7.57311010       1.45060003       15.7100201    
 Ni   10.1034098       5.83319998       15.7100201    
 Ni   12.5873203       10.2220602       15.6744804    
 Ni   12.6652403       1.43239999       15.5137501    
 Ni   15.1462202       5.78990984       15.6744804    
 Ni   17.7051201       10.2220602       15.6744804    
 Ni   6.31107998       3.64369988       2.27723002    
 Ni   8.83522987       8.01599026       2.27737999    
 Ni   11.3596697       12.3881197       2.27723002    
 Ni   11.3596697       3.64352989       2.27737999    
 Ni   13.8841105       8.01599026       2.27737999    
 Ni   16.4085407       12.3882198       2.27746010    
 Ni   16.4082603       3.64369988       2.27723002    
 Ni   18.9327793       8.01609993       2.27746010    
 Ni   21.4570198       12.3882198       2.27746010    
 Ni   8.83532047       5.10106993       4.54223013    
 Ni   11.3596697       9.47336960       4.54223013    
 Ni   6.31071997      0.728839993       4.54228020    
 Ni   13.8840103       5.10106993       4.54223013    
 Ni   16.4081097       9.47323036       4.54225016    
 Ni   11.3596697      0.729059994       4.54225016    
 Ni   3.78656006       5.10082006       4.54228020    
 Ni   6.31122017       9.47323036       4.54225016    
 Ni   1.26239002      0.728839993       4.54228020    
 Ni   11.3596697       6.55850983       6.76248980    
 Ni   13.8839903       10.9308300       6.76261997    
 Ni   8.83528996       2.18621993       6.76261997    
 Ni   16.4083691       6.55846977       6.76261997    
 Ni   18.9327793       10.9308395       6.76277018    
 Ni   13.8840504       2.18621993       6.76261997    
 Ni   6.31095982       6.55846977       6.76261997    
 Ni   8.83533955       10.9308300       6.76261997    
 Ni   3.78656006       2.18617010       6.76281023    
 Ni   13.8842297       8.01605988       9.03985023    
 Ni   16.4084492       12.3882704       9.04010010    
 Ni   11.3596697       3.64338994       9.03985023    
 Ni   18.9327793       8.01599979       9.04010010    
 Ni   21.4571095       12.3882704       9.04010010    
 Ni   16.4084206       3.64361000       9.03989029    
 Ni   8.83510017       8.01605988       9.03985023    
 Ni   11.3596697       12.3883104       9.03989029    
 Ni   6.31091022       3.64361000       9.03989029    
 Ni   16.4079704       9.47315025       11.3178797    
 Ni   11.3596697      0.729219973       11.3178797    
 Ni   13.8843203       5.10090017       11.3176603    
 Ni   6.31135988       9.47315025       11.3178797    
 Ni   1.26204002      0.728640020       11.3176298    
 Ni   3.78656006       5.10123014       11.3176298    
 Ni   11.3596697       9.47373009       11.3176603    
 Ni   6.31106997      0.728640020       11.3176298    
 Ni   8.83500957       5.10090017       11.3176603    
 Ni   18.9327793       10.9308395       13.5368204    
 Ni   13.8844805       2.18560004       13.5358601    
 Ni   16.4091301       6.55841017       13.5358601    
 Ni   8.83502007       10.9315205       13.5358601    
 Ni   3.78656006       2.18617010       13.5315504    
 Ni   6.31021023       6.55841017       13.5358601    
 Ni   13.8843098       10.9315205       13.5358601    
 Ni   8.83485031       2.18560004       13.5358601    
 Ni   11.3596697       6.55850983       13.5348196    
 Ni   21.4630699       12.3917103       15.7100201    
 Ni   16.3738708       3.66354990       15.6744804    
 Ni   18.9327793       8.00911045       15.7100201    
 Ni   11.3596697       12.3484201       15.6744804    
 Ni   6.34545994       3.66354990       15.6744804    
 Ni   8.87868023       7.99090004       15.5137501    
 Ni   16.4024792       12.3917103       15.7100201    
 Ni   11.3596697       3.69371009       15.5137501    
 Ni   13.8406496       7.99090004       15.5137501    
 Ni   7.57311010       5.82960987       2.27723002    
 Ni   10.0976295       10.2022104       2.27723002    
 Ni   5.04866982       1.45748997       2.27737999    
 Ni   12.6219797       5.82971001       2.27746010    
 Ni   15.1462202       10.2020397       2.27737999    
 Ni   10.0975504       1.45748997       2.27737999    
 Ni   17.6704597       5.82971001       2.27746010    
 Ni   20.1948109       10.2022104       2.27723002    
 Ni   15.1462202       1.45758998       2.27746010    
 Ni   10.0972700       7.28735018       4.54228020    
 Ni   12.6218700       11.6595802       4.54223013    
 Ni   7.57311010       2.91487002       4.54223013    
 Ni   15.1462202       7.28757000       4.54225016    
 Ni   17.6705704       11.6595802       4.54223013    
 Ni   12.6215601       2.91472006       4.54225016    
 Ni   5.04895020       7.28735018       4.54228020    
 Ni   7.57311010       11.6593304       4.54228020    
 Ni   2.52466011       2.91472006       4.54225016    
 Ni   12.6218395       8.74472046       6.76261997    
 Ni   7.57311010       0.00000000       6.76248980    
 Ni   10.0974302       4.37232018       6.76261997    
 Ni   17.6706009       8.74472046       6.76261997    
 Ni   12.6218100      -2.99999992E-05   6.76261997    
 Ni   15.1462202       4.37234020       6.76277018    
 Ni   7.57311010       8.74468040       6.76281023    
 Ni   2.52441001      -2.99999992E-05   6.76261997    
 Ni   5.04878998       4.37232018       6.76261997    
 Ni   15.1462202       10.2018995       9.03985023    
 Ni   10.0976696       1.45755994       9.03985023    
 Ni   12.6218901       5.82976007       9.04010010    
 Ni   20.1949806       10.2021103       9.03989029    
 Ni   15.1462202       1.45748997       9.04010010    
 Ni   17.6705494       5.82976007       9.04010010    
 Ni   10.0974598       10.2021103       9.03989029    
 Ni   5.04855013       1.45755994       9.03985023    
 Ni   7.57311010       5.82980013       9.03989029    
 Ni   17.6708794       11.6594000       11.3176603    
 Ni   12.6214199       2.91463995       11.3178797    
 Ni   15.1462202       7.28773022       11.3178797    
 Ni   7.57311010       11.6597404       11.3176298    
 Ni   2.52480006       2.91463995       11.3178797    
 Ni   5.04859018       7.28713989       11.3176298    
 Ni   12.6215696       11.6594000       11.3176603    
 Ni   7.57311010       2.91522002       11.3176603    
 Ni   10.0976295       7.28713989       11.3176298    
 Ni   12.6225700      -9.99999975E-05   13.5358601    
 Ni   15.1462202       4.37234020       13.5368204    
 Ni   17.6710396       8.74409962       13.5358601    
 Ni   2.52364993      -9.99999975E-05   13.5358601    
 Ni   5.04847002       4.37301016       13.5358601    
 Ni   7.57311010       8.74468040       13.5315504    
 Ni   7.57311010       0.00000000       13.5348196    
 Ni   10.0977497       4.37301016       13.5358601    
 Ni   12.6214104       8.74409962       13.5358601    
 Ni   15.1462202       1.45060003       15.7100201    
 Ni   17.6765194       5.83319998       15.7100201    
 Ni   20.1604309       10.2220602       15.6744804    
 Ni   5.09213018       1.43239999       15.5137501    
 Ni   7.57311010       5.78990984       15.6744804    
 Ni   10.1320105       10.2220602       15.6744804    
 Ni   10.0540895       1.43239999       15.5137501    
 Ni   12.6159296       5.83319998       15.7100201    
 Ni   15.1462202       10.2522202       15.5137501    
 Ni   8.83514977       3.64369988       2.27723002    
 Ni   11.3596697       8.01609993       2.27746010    
 Ni   13.8839102       12.3882198       2.27746010    
 Ni   13.8841896       3.64369988       2.27723002    
 Ni   16.4083405       8.01599026       2.27737999    
 Ni   18.9327793       12.3881197       2.27723002    
 Ni   3.78656006       3.64352989       2.27737999    
 Ni   6.31099987       8.01599026       2.27737999    
 Ni   8.83543015       12.3882198       2.27746010    
 Ni   11.3596697       5.10082006       4.54228020    
 Ni   13.8843298       9.47323036       4.54225016    
 Ni   8.83549976      0.728839993       4.54228020    
 Ni   16.4084301       5.10106993       4.54223013    
 Ni   18.9327793       9.47336960       4.54223013    
 Ni   13.8838301      0.728839993       4.54228020    
 Ni   6.31090021       5.10106993       4.54223013    
 Ni   8.83500004       9.47323036       4.54225016    
 Ni   3.78656006      0.729059994       4.54225016    
 Ni   13.8840704       6.55846977       6.76261997    
 Ni   16.4084492       10.9308300       6.76261997    
 Ni   11.3596697       2.18617010       6.76281023    
 Ni   3.78656006       6.55850983       6.76248980    
 Ni   6.31088018       10.9308300       6.76261997    