NiAl                                    
            1
    15.146222    0.000000    0.000000
     7.573111   13.117013    0.000000
     0.000000    0.000000   36.400000
   Ni   O 
   252    64
Direct configuration=     1
   0.44444444  0.44444444  0.06198901
   0.44444444  0.77777778  0.06198901
   0.44444444  0.11111111  0.06198901
   0.77777778  0.44444444  0.06198901
   0.77777778  0.77777778  0.06198901
   0.77777778  0.11111111  0.06198901
   0.11111111  0.44444444  0.06198901
   0.11111111  0.77777778  0.06198901
   0.11111111  0.11111111  0.06198901
   0.55555556  0.55555556  0.12487340
   0.55555556  0.88888889  0.12487340
   0.55555556  0.22222222  0.12487340
   0.88888889  0.55555556  0.12487340
   0.88888889  0.88888889  0.12487340
   0.88888889  0.22222222  0.12487340
   0.22222222  0.55555556  0.12487340
   0.22222222  0.88888889  0.12487340
   0.22222222  0.22222222  0.12487340
   0.66666667  0.66666667  0.18572635
   0.66666667  0.00000000  0.18572635
   0.66666667  0.33333333  0.18572635
   0.00000000  0.66666667  0.18572635
   0.00000000  0.00000000  0.18572635
   0.00000000  0.33333333  0.18572635
   0.33333333  0.66666667  0.18572635
   0.33333333  0.00000000  0.18572635
   0.33333333  0.33333333  0.18572635
   0.77777778  0.77777778  0.24835684
   0.77777778  0.11111111  0.24835684
   0.77777778  0.44444444  0.24835684
   0.11111111  0.77777778  0.24835684
   0.11111111  0.11111111  0.24835684
   0.11111111  0.44444444  0.24835684
   0.44444444  0.77777778  0.24835684
   0.44444444  0.11111111  0.24835684
   0.44444444  0.44444444  0.24835684
   0.88888889  0.88888889  0.31098733
   0.88888889  0.22222222  0.31098733
   0.88888889  0.55555556  0.31098733
   0.22222222  0.88888889  0.31098733
   0.22222222  0.22222222  0.31098733
   0.22222222  0.55555556  0.31098733
   0.55555556  0.88888889  0.31098733
   0.55555556  0.22222222  0.31098733
   0.55555556  0.55555556  0.31098733
   0.00000000  0.00000000  0.37184028
   0.00000000  0.33333333  0.37184028
   0.00000000  0.66666667  0.37184028
   0.33333333  0.00000000  0.37184028
   0.33333333  0.33333333  0.37184028
   0.33333333  0.66666667  0.37184028
   0.66666667  0.00000000  0.37184028
   0.66666667  0.33333333  0.37184028
   0.66666667  0.66666667  0.37184028
   0.11111111  0.11111111  0.43472467
   0.11111111  0.44444444  0.43472467
   0.11111111  0.77777778  0.43472467
   0.44444444  0.11111111  0.43472467
   0.44444444  0.44444444  0.43472467
   0.44444444  0.77777778  0.43472467
   0.77777778  0.11111111  0.43472467
   0.77777778  0.44444444  0.43472467
   0.77777778  0.77777778  0.43472467
   0.27777778  0.27777778  0.06198901
   0.27777778  0.61111111  0.06198901
   0.27777778  0.94444444  0.06198901
   0.61111111  0.27777778  0.06198901
   0.61111111  0.61111111  0.06198901
   0.61111111  0.94444444  0.06198901
   0.94444444  0.27777778  0.06198901
   0.94444444  0.61111111  0.06198901
   0.94444444  0.94444444  0.06198901
   0.38888889  0.38888889  0.12487340
   0.38888889  0.72222222  0.12487340
   0.38888889  0.05555556  0.12487340
   0.72222222  0.38888889  0.12487340
   0.72222222  0.72222222  0.12487340
   0.72222222  0.05555556  0.12487340
   0.05555556  0.38888889  0.12487340
   0.05555556  0.72222222  0.12487340
   0.05555556  0.05555556  0.12487340
   0.50000000  0.50000000  0.18572635
   0.50000000  0.83333333  0.18572635
   0.50000000  0.16666667  0.18572635
   0.83333333  0.50000000  0.18572635
   0.83333333  0.83333333  0.18572635
   0.83333333  0.16666667  0.18572635
   0.16666667  0.50000000  0.18572635
   0.16666667  0.83333333  0.18572635
   0.16666667  0.16666667  0.18572635
   0.61111111  0.61111111  0.24835684
   0.61111111  0.94444444  0.24835684
   0.61111111  0.27777778  0.24835684
   0.94444444  0.61111111  0.24835684
   0.94444444  0.94444444  0.24835684
   0.94444444  0.27777778  0.24835684
   0.27777778  0.61111111  0.24835684
   0.27777778  0.94444444  0.24835684
   0.27777778  0.27777778  0.24835684
   0.72222222  0.72222222  0.31098733
   0.72222222  0.05555556  0.31098733
   0.72222222  0.38888889  0.31098733
   0.05555556  0.72222222  0.31098733
   0.05555556  0.05555556  0.31098733
   0.05555556  0.38888889  0.31098733
   0.38888889  0.72222222  0.31098733
   0.38888889  0.05555556  0.31098733
   0.38888889  0.38888889  0.31098733
   0.83333333  0.83333333  0.37184028
   0.83333333  0.16666667  0.37184028
   0.83333333  0.50000000  0.37184028
   0.16666667  0.83333333  0.37184028
   0.16666667  0.16666667  0.37184028
   0.16666667  0.50000000  0.37184028
   0.50000000  0.83333333  0.37184028
   0.50000000  0.16666667  0.37184028
   0.50000000  0.50000000  0.37184028
   0.94444444  0.94444444  0.43472467
   0.94444444  0.27777778  0.43472467
   0.94444444  0.61111111  0.43472467
   0.27777778  0.94444444  0.43472467
   0.27777778  0.27777778  0.43472467
   0.27777778  0.61111111  0.43472467
   0.61111111  0.94444444  0.43472467
   0.61111111  0.27777778  0.43472467
   0.61111111  0.61111111  0.43472467
   0.27777778  0.44444444  0.06198901
   0.27777778  0.77777778  0.06198901
   0.27777778  0.11111111  0.06198901
   0.61111111  0.44444444  0.06198901
   0.61111111  0.77777778  0.06198901
   0.61111111  0.11111111  0.06198901
   0.94444444  0.44444444  0.06198901
   0.94444444  0.77777778  0.06198901
   0.94444444  0.11111111  0.06198901
   0.38888889  0.55555556  0.12487340
   0.38888889  0.88888889  0.12487340
   0.38888889  0.22222222  0.12487340
   0.72222222  0.55555556  0.12487340
   0.72222222  0.88888889  0.12487340
   0.72222222  0.22222222  0.12487340
   0.05555556  0.55555556  0.12487340
   0.05555556  0.88888889  0.12487340
   0.05555556  0.22222222  0.12487340
   0.50000000  0.66666667  0.18572635
   0.50000000  0.00000000  0.18572635
   0.50000000  0.33333333  0.18572635
   0.83333333  0.66666667  0.18572635
   0.83333333  0.00000000  0.18572635
   0.83333333  0.33333333  0.18572635
   0.16666667  0.66666667  0.18572635
   0.16666667  0.00000000  0.18572635
   0.16666667  0.33333333  0.18572635
   0.61111111  0.77777778  0.24835684
   0.61111111  0.11111111  0.24835684
   0.61111111  0.44444444  0.24835684
   0.94444444  0.77777778  0.24835684
   0.94444444  0.11111111  0.24835684
   0.94444444  0.44444444  0.24835684
   0.27777778  0.77777778  0.24835684
   0.27777778  0.11111111  0.24835684
   0.27777778  0.44444444  0.24835684
   0.72222222  0.88888889  0.31098733
   0.72222222  0.22222222  0.31098733
   0.72222222  0.55555556  0.31098733
   0.05555556  0.88888889  0.31098733
   0.05555556  0.22222222  0.31098733
   0.05555556  0.55555556  0.31098733
   0.38888889  0.88888889  0.31098733
   0.38888889  0.22222222  0.31098733
   0.38888889  0.55555556  0.31098733
   0.83333333  0.00000000  0.37184028
   0.83333333  0.33333333  0.37184028
   0.83333333  0.66666667  0.37184028
   0.16666667  0.00000000  0.37184028
   0.16666667  0.33333333  0.37184028
   0.16666667  0.66666667  0.37184028
   0.50000000  0.00000000  0.37184028
   0.50000000  0.33333333  0.37184028
   0.50000000  0.66666667  0.37184028
   0.94444444  0.11111111  0.43472467
   0.94444444  0.44444444  0.43472467
   0.94444444  0.77777778  0.43472467
   0.27777778  0.11111111  0.43472467
   0.27777778  0.44444444  0.43472467
   0.27777778  0.77777778  0.43472467
   0.61111111  0.11111111  0.43472467
   0.61111111  0.44444444  0.43472467
   0.61111111  0.77777778  0.43472467
   0.44444444  0.27777778  0.06198901
   0.44444444  0.61111111  0.06198901
   0.44444444  0.94444444  0.06198901
   0.77777778  0.27777778  0.06198901
   0.77777778  0.61111111  0.06198901
   0.77777778  0.94444444  0.06198901
   0.11111111  0.27777778  0.06198901
   0.11111111  0.61111111  0.06198901
   0.11111111  0.94444444  0.06198901
   0.55555556  0.38888889  0.12487340
   0.55555556  0.72222222  0.12487340
   0.55555556  0.05555556  0.12487340
   0.88888889  0.38888889  0.12487340
   0.88888889  0.72222222  0.12487340
   0.88888889  0.05555556  0.12487340
   0.22222222  0.38888889  0.12487340
   0.22222222  0.72222222  0.12487340
   0.22222222  0.05555556  0.12487340
   0.66666667  0.50000000  0.18572635
   0.66666667  0.83333333  0.18572635
   0.66666667  0.16666667  0.18572635
   0.00000000  0.50000000  0.18572635
   0.00000000  0.83333333  0.18572635
   0.00000000  0.16666667  0.18572635
   0.33333333  0.50000000  0.18572635
   0.33333333  0.83333333  0.18572635
   0.33333333  0.16666667  0.18572635
   0.77777778  0.61111111  0.24835684
   0.77777778  0.94444444  0.24835684
   0.77777778  0.27777778  0.24835684
   0.11111111  0.61111111  0.24835684
   0.11111111  0.94444444  0.24835684
   0.11111111  0.27777778  0.24835684
   0.44444444  0.61111111  0.24835684
   0.44444444  0.94444444  0.24835684
   0.44444444  0.27777778  0.24835684
   0.88888889  0.72222222  0.31098733
   0.88888889  0.05555556  0.31098733
   0.88888889  0.38888889  0.31098733
   0.22222222  0.72222222  0.31098733
   0.22222222  0.05555556  0.31098733
   0.22222222  0.38888889  0.31098733
   0.55555556  0.72222222  0.31098733
   0.55555556  0.05555556  0.31098733
   0.55555556  0.38888889  0.31098733
   0.00000000  0.83333333  0.37184028
   0.00000000  0.16666667  0.37184028
   0.00000000  0.50000000  0.37184028
   0.33333333  0.83333333  0.37184028
   0.33333333  0.16666667  0.37184028
   0.33333333  0.50000000  0.37184028
   0.66666667  0.83333333  0.37184028
   0.66666667  0.16666667  0.37184028
   0.66666667  0.50000000  0.37184028
   0.11111111  0.94444444  0.43472467
   0.11111111  0.27777778  0.43472467
   0.11111111  0.61111111  0.43472467
   0.44444444  0.94444444  0.43472467
   0.44444444  0.27777778  0.43472467
   0.44444444  0.61111111  0.43472467
   0.77777778  0.94444444  0.43472467
   0.77777778  0.27777778  0.43472467
   0.77777778  0.61111111  0.43472467
   0.00000000  0.00000000  0.47318621
   0.00000000  0.12500000  0.47318621
   0.00000000  0.25000000  0.47318621
   0.00000000  0.37500000  0.47318621
   0.00000000  0.50000000  0.47318621
   0.00000000  0.62500000  0.47318621
   0.00000000  0.75000000  0.47318621
   0.00000000  0.87500000  0.47318621
   0.12500000  0.00000000  0.47318621
   0.12500000  0.12500000  0.47318621
   0.12500000  0.25000000  0.47318621
   0.12500000  0.37500000  0.47318621
   0.12500000  0.50000000  0.47318621
   0.12500000  0.62500000  0.47318621
   0.12500000  0.75000000  0.47318621
   0.12500000  0.87500000  0.47318621
   0.25000000  0.00000000  0.47318621
   0.25000000  0.12500000  0.47318621
   0.25000000  0.25000000  0.47318621
   0.25000000  0.37500000  0.47318621
   0.25000000  0.50000000  0.47318621
   0.25000000  0.62500000  0.47318621
   0.25000000  0.75000000  0.47318621
   0.25000000  0.87500000  0.47318621
   0.37500000  0.00000000  0.47318621
   0.37500000  0.12500000  0.47318621
   0.37500000  0.25000000  0.47318621
   0.37500000  0.37500000  0.47318621
   0.37500000  0.50000000  0.47318621
   0.37500000  0.62500000  0.47318621
   0.37500000  0.75000000  0.47318621
   0.37500000  0.87500000  0.47318621
   0.50000000  0.00000000  0.47318621
   0.50000000  0.12500000  0.47318621
   0.50000000  0.25000000  0.47318621
   0.50000000  0.37500000  0.47318621
   0.50000000  0.50000000  0.47318621
   0.50000000  0.62500000  0.47318621
   0.50000000  0.75000000  0.47318621
   0.50000000  0.87500000  0.47318621
   0.62500000  0.00000000  0.47318621
   0.62500000  0.12500000  0.47318621
   0.62500000  0.25000000  0.47318621
   0.62500000  0.37500000  0.47318621
   0.62500000  0.50000000  0.47318621
   0.62500000  0.62500000  0.47318621
   0.62500000  0.75000000  0.47318621
   0.62500000  0.87500000  0.47318621
   0.75000000  0.00000000  0.47318621
   0.75000000  0.12500000  0.47318621
   0.75000000  0.25000000  0.47318621
   0.75000000  0.37500000  0.47318621
   0.75000000  0.50000000  0.47318621
   0.75000000  0.62500000  0.47318621
   0.75000000  0.75000000  0.47318621
   0.75000000  0.87500000  0.47318621
   0.87500000  0.00000000  0.47318621
   0.87500000  0.12500000  0.47318621
   0.87500000  0.25000000  0.47318621
   0.87500000  0.37500000  0.47318621
   0.87500000  0.50000000  0.47318621
   0.87500000  0.62500000  0.47318621
   0.87500000  0.75000000  0.47318621
   0.87500000  0.87500000  0.47318621
Direct configuration=     2
   0.44443876  0.44443876  0.06256746
   0.44443116  0.77778442  0.06256133
   0.44443876  0.11112248  0.06256746
   0.77778442  0.44443116  0.06256133
   0.77778442  0.77778442  0.06256133
   0.77777165  0.11111418  0.06256527
   0.11112248  0.44443876  0.06256746
   0.11111418  0.77777165  0.06256527
   0.11111418  0.11111418  0.06256527
   0.55556468  0.55556468  0.12478794
   0.55556468  0.88887064  0.12478794
   0.55558130  0.22220935  0.12478700
   0.88887064  0.55556468  0.12478794
   0.88888986  0.88888986  0.12478645
   0.88888986  0.22222027  0.12478645
   0.22220935  0.55558130  0.12478700
   0.22222027  0.88888986  0.12478645
   0.22220935  0.22220935  0.12478700
   0.66666667  0.66666667  0.18579136
   0.66667037 -0.00000254  0.18578615
   0.66667037  0.33333217  0.18578615
  -0.00000254  0.66667037  0.18578615
  -0.00000000  0.00000000  0.18578275
  -0.00000254  0.33333217  0.18578615
   0.33333217  0.66667037  0.18578615
   0.33333217 -0.00000254  0.18578615
   0.33333333  0.33333333  0.18579034
   0.77777705  0.77777705  0.24834858
   0.77776094  0.11111953  0.24834755
   0.77777705  0.44444589  0.24834858
   0.11111953  0.77776094  0.24834755
   0.11111953  0.11111953  0.24834755
   0.11111484  0.44444258  0.24835427
   0.44444589  0.77777705  0.24834858
   0.44444258  0.11111484  0.24835427
   0.44444258  0.44444258  0.24835427
   0.88887643  0.88887643  0.31092465
   0.88887643  0.22224714  0.31092465
   0.88890184  0.55554908  0.31092384
   0.22224714  0.88887643  0.31092465
   0.22220320  0.22220320  0.31093069
   0.22220320  0.55559360  0.31093069
   0.55554908  0.88890184  0.31092384
   0.55559360  0.22220320  0.31093069
   0.55554908  0.55554908  0.31092384
  -0.00000000  0.00000000  0.37183569
  -0.00000761  0.33338455  0.37186429
  -0.00000761  0.66662306  0.37186429
   0.33338455 -0.00000761  0.37186429
   0.33333333  0.33333333  0.37189070
   0.33338455  0.66662306  0.37186429
   0.66662306 -0.00000761  0.37186429
   0.66662306  0.33338455  0.37186429
   0.66666667  0.66666667  0.37174595
   0.10920141  0.10920141  0.42620184
   0.11058950  0.44470525  0.43159399
   0.10920141  0.78159718  0.42620184
   0.44470525  0.11058950  0.43159399
   0.44470525  0.44470525  0.43159399
   0.44140453  0.77929774  0.43061754
   0.78159718  0.10920141  0.42620184
   0.77929774  0.44140453  0.43061754
   0.77929774  0.77929774  0.43061754
   0.27778442  0.27778442  0.06256133
   0.27777165  0.61111418  0.06256527
   0.27778442  0.94443116  0.06256133
   0.61111418  0.27777165  0.06256527
   0.61111418  0.61111418  0.06256527
   0.61112248  0.94443876  0.06256746
   0.94443116  0.27778442  0.06256133
   0.94443876  0.61112248  0.06256746
   0.94443876  0.94443876  0.06256746
   0.38888986  0.38888986  0.12478645
   0.38888986  0.72222027  0.12478645
   0.38887064  0.05556468  0.12478794
   0.72222027  0.38888986  0.12478645
   0.72220935  0.72220935  0.12478700
   0.72220935  0.05558130  0.12478700
   0.05556468  0.38887064  0.12478794
   0.05558130  0.72220935  0.12478700
   0.05556468  0.05556468  0.12478794
   0.50000000  0.50000000  0.18578275
   0.49999746  0.83333217  0.18578615
   0.49999746  0.16667037  0.18578615
   0.83333217  0.49999746  0.18578615
   0.83333333  0.83333333  0.18579034
   0.83333217  0.16667037  0.18578615
   0.16667037  0.49999746  0.18578615
   0.16667037  0.83333217  0.18578615
   0.16666667  0.16666667  0.18579136
   0.61111953  0.61111953  0.24834755
   0.61111484  0.94444258  0.24835427
   0.61111953  0.27776094  0.24834755
   0.94444258  0.61111484  0.24835427
   0.94444258  0.94444258  0.24835427
   0.94444589  0.27777705  0.24834858
   0.27776094  0.61111953  0.24834755
   0.27777705  0.94444589  0.24834858
   0.27777705  0.27777705  0.24834858
   0.72220320  0.72220320  0.31093069
   0.72220320  0.05559360  0.31093069
   0.72224714  0.38887643  0.31092465
   0.05559360  0.72220320  0.31093069
   0.05554908  0.05554908  0.31092384
   0.05554908  0.38890184  0.31092384
   0.38887643  0.72224714  0.31092465
   0.38890184  0.05554908  0.31092384
   0.38887643  0.38887643  0.31092465
   0.83333333  0.83333333  0.37189070
   0.83338455  0.16662306  0.37186429
   0.83338455  0.49999239  0.37186429
   0.16662306  0.83338455  0.37186429
   0.16666667  0.16666667  0.37174595
   0.16662306  0.49999239  0.37186429
   0.49999239  0.83338455  0.37186429
   0.49999239  0.16662306  0.37186429
   0.50000000  0.50000000  0.37183569
   0.94470525  0.94470525  0.43159399
   0.94140453  0.27929774  0.43061754
   0.94470525  0.61058950  0.43159399
   0.27929774  0.94140453  0.43061754
   0.27929774  0.27929774  0.43061754
   0.28159718  0.60920141  0.42620184
   0.61058950  0.94470525  0.43159399
   0.60920141  0.28159718  0.42620184
   0.60920141  0.60920141  0.42620184
   0.27778442  0.44443116  0.06256133
   0.27778442  0.77778442  0.06256133
   0.27777165  0.11111418  0.06256527
   0.61112248  0.44443876  0.06256746
   0.61111418  0.77777165  0.06256527
   0.61111418  0.11111418  0.06256527
   0.94443876  0.44443876  0.06256746
   0.94443116  0.77778442  0.06256133
   0.94443876  0.11112248  0.06256746
   0.38887064  0.55556468  0.12478794
   0.38888986  0.88888986  0.12478645
   0.38888986  0.22222027  0.12478645
   0.72220935  0.55558130  0.12478700
   0.72222027  0.88888986  0.12478645
   0.72220935  0.22220935  0.12478700
   0.05556468  0.55556468  0.12478794
   0.05556468  0.88887064  0.12478794
   0.05558130  0.22220935  0.12478700
   0.49999746  0.66667037  0.18578615
   0.50000000  0.00000000  0.18578275
   0.49999746  0.33333217  0.18578615
   0.83333217  0.66667037  0.18578615
   0.83333217 -0.00000254  0.18578615
   0.83333333  0.33333333  0.18579034
   0.16666667  0.66666667  0.18579136
   0.16667037 -0.00000254  0.18578615
   0.16667037  0.33333217  0.18578615
   0.61111953  0.77776094  0.24834755
   0.61111953  0.11111953  0.24834755
   0.61111484  0.44444258  0.24835427
   0.94444589  0.77777705  0.24834858
   0.94444258  0.11111484  0.24835427
   0.94444258  0.44444258  0.24835427
   0.27777705  0.77777705  0.24834858
   0.27776094  0.11111953  0.24834755
   0.27777705  0.44444589  0.24834858
   0.72224714  0.88887643  0.31092465
   0.72220320  0.22220320  0.31093069
   0.72220320  0.55559360  0.31093069
   0.05554908  0.88890184  0.31092384
   0.05559360  0.22220320  0.31093069
   0.05554908  0.55554908  0.31092384
   0.38887643  0.88887643  0.31092465
   0.38887643  0.22224714  0.31092465
   0.38890184  0.55554908  0.31092384
   0.83338455 -0.00000761  0.37186429
   0.83333333  0.33333333  0.37189070
   0.83338455  0.66662306  0.37186429
   0.16662306 -0.00000761  0.37186429
   0.16662306  0.33338455  0.37186429
   0.16666667  0.66666667  0.37174595
   0.50000000  0.00000000  0.37183569
   0.49999239  0.33338455  0.37186429
   0.49999239  0.66662306  0.37186429
   0.94470525  0.11058950  0.43159399
   0.94470525  0.44470525  0.43159399
   0.94140453  0.77929774  0.43061754
   0.28159718  0.10920141  0.42620184
   0.27929774  0.44140453  0.43061754
   0.27929774  0.77929774  0.43061754
   0.60920141  0.10920141  0.42620184
   0.61058950  0.44470525  0.43159399
   0.60920141  0.78159718  0.42620184
   0.44443116  0.27778442  0.06256133
   0.44443876  0.61112248  0.06256746
   0.44443876  0.94443876  0.06256746
   0.77778442  0.27778442  0.06256133
   0.77777165  0.61111418  0.06256527
   0.77778442  0.94443116  0.06256133
   0.11111418  0.27777165  0.06256527
   0.11111418  0.61111418  0.06256527
   0.11112248  0.94443876  0.06256746
   0.55556468  0.38887064  0.12478794
   0.55558130  0.72220935  0.12478700
   0.55556468  0.05556468  0.12478794
   0.88888986  0.38888986  0.12478645
   0.88888986  0.72222027  0.12478645
   0.88887064  0.05556468  0.12478794
   0.22222027  0.38888986  0.12478645
   0.22220935  0.72220935  0.12478700
   0.22220935  0.05558130  0.12478700
   0.66667037  0.49999746  0.18578615
   0.66667037  0.83333217  0.18578615
   0.66666667  0.16666667  0.18579136
  -0.00000000  0.50000000  0.18578275
  -0.00000254  0.83333217  0.18578615
  -0.00000254  0.16667037  0.18578615
   0.33333217  0.49999746  0.18578615
   0.33333333  0.83333333  0.18579034
   0.33333217  0.16667037  0.18578615
   0.77776094  0.61111953  0.24834755
   0.77777705  0.94444589  0.24834858
   0.77777705  0.27777705  0.24834858
   0.11111953  0.61111953  0.24834755
   0.11111484  0.94444258  0.24835427
   0.11111953  0.27776094  0.24834755
   0.44444258  0.61111484  0.24835427
   0.44444258  0.94444258  0.24835427
   0.44444589  0.27777705  0.24834858
   0.88887643  0.72224714  0.31092465
   0.88890184  0.05554908  0.31092384
   0.88887643  0.38887643  0.31092465
   0.22220320  0.72220320  0.31093069
   0.22220320  0.05559360  0.31093069
   0.22224714  0.38887643  0.31092465
   0.55559360  0.72220320  0.31093069
   0.55554908  0.05554908  0.31092384
   0.55554908  0.38890184  0.31092384
  -0.00000761  0.83338455  0.37186429
  -0.00000761  0.16662306  0.37186429
  -0.00000000  0.50000000  0.37183569
   0.33333333  0.83333333  0.37189070
   0.33338455  0.16662306  0.37186429
   0.33338455  0.49999239  0.37186429
   0.66662306  0.83338455  0.37186429
   0.66666667  0.16666667  0.37174595
   0.66662306  0.49999239  0.37186429
   0.11058950  0.94470525  0.43159399
   0.10920141  0.28159718  0.42620184
   0.10920141  0.60920141  0.42620184
   0.44470525  0.94470525  0.43159399
   0.44140453  0.27929774  0.43061754
   0.44470525  0.61058950  0.43159399
   0.77929774  0.94140453  0.43061754
   0.77929774  0.27929774  0.43061754
   0.78159718  0.60920141  0.42620184
  -0.00000000  0.00000000  0.47344451
   0.00128180  0.12512299  0.47473246
   0.00412002  0.24793999  0.47654998
   0.00128180  0.37359521  0.47473246
  -0.00000000  0.50000000  0.47344451
   0.00128180  0.62512299  0.47473246
   0.00412002  0.74793999  0.47654998
   0.00128180  0.87359521  0.47473246
   0.12512299  0.00128180  0.47473246
   0.12855432  0.12855432  0.48035205
   0.12855432  0.24289136  0.48035205
   0.12512299  0.37359521  0.47473246
   0.12512299  0.50128180  0.47473246
   0.12855432  0.62855432  0.48035205
   0.12855432  0.74289136  0.48035205
   0.12512299  0.87359521  0.47473246
   0.24793999  0.00412002  0.47654998
   0.24289136  0.12855432  0.48035205
   0.24793999  0.24793999  0.47654998
   0.25005232  0.37497384  0.47376009
   0.24793999  0.50412002  0.47654998
   0.24289136  0.62855432  0.48035205
   0.24793999  0.74793999  0.47654998
   0.25005232  0.87497384  0.47376009
   0.37359521  0.00128180  0.47473246
   0.37359521  0.12512299  0.47473246
   0.37497384  0.25005232  0.47376009
   0.37497384  0.37497384  0.47376009
   0.37359521  0.50128180  0.47473246
   0.37359521  0.62512299  0.47473246
   0.37497384  0.75005232  0.47376009
   0.37497384  0.87497384  0.47376009
   0.50000000  0.00000000  0.47344451
   0.50128180  0.12512299  0.47473246
   0.50412002  0.24793999  0.47654998
   0.50128180  0.37359521  0.47473246
   0.50000000  0.50000000  0.47344451
   0.50128180  0.62512299  0.47473246
   0.50412002  0.74793999  0.47654998
   0.50128180  0.87359521  0.47473246
   0.62512299  0.00128180  0.47473246
   0.62855432  0.12855432  0.48035205
   0.62855432  0.24289136  0.48035205
   0.62512299  0.37359521  0.47473246
   0.62512299  0.50128180  0.47473246
   0.62855432  0.62855432  0.48035205
   0.62855432  0.74289136  0.48035205
   0.62512299  0.87359521  0.47473246
   0.74793999  0.00412002  0.47654998
   0.74289136  0.12855432  0.48035205
   0.74793999  0.24793999  0.47654998
   0.75005232  0.37497384  0.47376009
   0.74793999  0.50412002  0.47654998
   0.74289136  0.62855432  0.48035205
   0.74793999  0.74793999  0.47654998
   0.75005232  0.87497384  0.47376009
   0.87359521  0.00128180  0.47473246
   0.87359521  0.12512299  0.47473246
   0.87497384  0.25005232  0.47376009
   0.87497384  0.37497384  0.47376009
   0.87359521  0.50128180  0.47473246
   0.87359521  0.62512299  0.47473246
   0.87497384  0.75005232  0.47376009
   0.87497384  0.87497384  0.47376009
Direct configuration=     3
   0.44443859  0.44443859  0.06258466
   0.44443077  0.77778462  0.06257835
   0.44443859  0.11112282  0.06258466
   0.77778462  0.44443077  0.06257835
   0.77778462  0.77778462  0.06257835
   0.77777147  0.11111427  0.06258240
   0.11112282  0.44443859  0.06258466
   0.11111427  0.77777147  0.06258240
   0.11111427  0.11111427  0.06258240
   0.55556495  0.55556495  0.12478540
   0.55556495  0.88887010  0.12478540
   0.55558206  0.22220897  0.12478443
   0.88887010  0.55556495  0.12478540
   0.88888989  0.88888989  0.12478386
   0.88888989  0.22222021  0.12478386
   0.22220897  0.55558206  0.12478443
   0.22222021  0.88888989  0.12478386
   0.22220897  0.22220897  0.12478443
   0.66666667  0.66666667  0.18579329
   0.66667048 -0.00000262  0.18578793
   0.66667048  0.33333214  0.18578793
  -0.00000262  0.66667048  0.18578793
  -0.00000000  0.00000000  0.18578442
  -0.00000262  0.33333214  0.18578793
   0.33333214  0.66667048  0.18578793
   0.33333214 -0.00000262  0.18578793
   0.33333333  0.33333333  0.18579224
   0.77777703  0.77777703  0.24834834
   0.77776044  0.11111978  0.24834728
   0.77777703  0.44444594  0.24834834
   0.11111978  0.77776044  0.24834728
   0.11111978  0.11111978  0.24834728
   0.11111495  0.44444253  0.24835419
   0.44444594  0.77777703  0.24834834
   0.44444253  0.11111495  0.24835419
   0.44444253  0.44444253  0.24835419
   0.88887606  0.88887606  0.31092279
   0.88887606  0.22224788  0.31092279
   0.88890223  0.55554889  0.31092195
   0.22224788  0.88887606  0.31092279
   0.22220263  0.22220263  0.31092900
   0.22220263  0.55559473  0.31092900
   0.55554889  0.88890223  0.31092195
   0.55559473  0.22220263  0.31092900
   0.55554889  0.55554889  0.31092195
  -0.00000000  0.00000000  0.37183556
  -0.00000784  0.33338607  0.37186501
  -0.00000784  0.66662176  0.37186501
   0.33338607 -0.00000784  0.37186501
   0.33333333  0.33333333  0.37189220
   0.33338607  0.66662176  0.37186501
   0.66662176 -0.00000784  0.37186501
   0.66662176  0.33338607  0.37186501
   0.66666667  0.66666667  0.37174315
   0.10914463  0.10914463  0.42594843
   0.11057399  0.44471301  0.43150091
   0.10914463  0.78171075  0.42594843
   0.44471301  0.11057399  0.43150091
   0.44471301  0.44471301  0.43150091
   0.44131414  0.77934293  0.43049542
   0.78171075  0.10914463  0.42594843
   0.77934293  0.44131414  0.43049542
   0.77934293  0.77934293  0.43049542
   0.27778462  0.27778462  0.06257835
   0.27777147  0.61111427  0.06258240
   0.27778462  0.94443077  0.06257835
   0.61111427  0.27777147  0.06258240
   0.61111427  0.61111427  0.06258240
   0.61112282  0.94443859  0.06258466
   0.94443077  0.27778462  0.06257835
   0.94443859  0.61112282  0.06258466
   0.94443859  0.94443859  0.06258466
   0.38888989  0.38888989  0.12478386
   0.38888989  0.72222021  0.12478386
   0.38887010  0.05556495  0.12478540
   0.72222021  0.38888989  0.12478386
   0.72220897  0.72220897  0.12478443
   0.72220897  0.05558206  0.12478443
   0.05556495  0.38887010  0.12478540
   0.05558206  0.72220897  0.12478443
   0.05556495  0.05556495  0.12478540
   0.50000000  0.50000000  0.18578442
   0.49999738  0.83333214  0.18578793
   0.49999738  0.16667048  0.18578793
   0.83333214  0.49999738  0.18578793
   0.83333333  0.83333333  0.18579224
   0.83333214  0.16667048  0.18578793
   0.16667048  0.49999738  0.18578793
   0.16667048  0.83333214  0.18578793
   0.16666667  0.16666667  0.18579329
   0.61111978  0.61111978  0.24834728
   0.61111495  0.94444253  0.24835419
   0.61111978  0.27776044  0.24834728
   0.94444253  0.61111495  0.24835419
   0.94444253  0.94444253  0.24835419
   0.94444594  0.27777703  0.24834834
   0.27776044  0.61111978  0.24834728
   0.27777703  0.94444594  0.24834834
   0.27777703  0.27777703  0.24834834
   0.72220263  0.72220263  0.31092900
   0.72220263  0.05559473  0.31092900
   0.72224788  0.38887606  0.31092279
   0.05559473  0.72220263  0.31092900
   0.05554889  0.05554889  0.31092195
   0.05554889  0.38890223  0.31092195
   0.38887606  0.72224788  0.31092279
   0.38890223  0.05554889  0.31092195
   0.38887606  0.38887606  0.31092279
   0.83333333  0.83333333  0.37189220
   0.83338607  0.16662176  0.37186501
   0.83338607  0.49999216  0.37186501
   0.16662176  0.83338607  0.37186501
   0.16666667  0.16666667  0.37174315
   0.16662176  0.49999216  0.37186501
   0.49999216  0.83338607  0.37186501
   0.49999216  0.16662176  0.37186501
   0.50000000  0.50000000  0.37183556
   0.94471301  0.94471301  0.43150091
   0.94131414  0.27934293  0.43049542
   0.94471301  0.61057399  0.43150091
   0.27934293  0.94131414  0.43049542
   0.27934293  0.27934293  0.43049542
   0.28171075  0.60914463  0.42594843
   0.61057399  0.94471301  0.43150091
   0.60914463  0.28171075  0.42594843
   0.60914463  0.60914463  0.42594843
   0.27778462  0.44443077  0.06257835
   0.27778462  0.77778462  0.06257835
   0.27777147  0.11111427  0.06258240
   0.61112282  0.44443859  0.06258466
   0.61111427  0.77777147  0.06258240
   0.61111427  0.11111427  0.06258240
   0.94443859  0.44443859  0.06258466
   0.94443077  0.77778462  0.06257835
   0.94443859  0.11112282  0.06258466
   0.38887010  0.55556495  0.12478540
   0.38888989  0.88888989  0.12478386
   0.38888989  0.22222021  0.12478386
   0.72220897  0.55558206  0.12478443
   0.72222021  0.88888989  0.12478386
   0.72220897  0.22220897  0.12478443
   0.05556495  0.55556495  0.12478540
   0.05556495  0.88887010  0.12478540
   0.05558206  0.22220897  0.12478443
   0.49999738  0.66667048  0.18578793
   0.50000000  0.00000000  0.18578442
   0.49999738  0.33333214  0.18578793
   0.83333214  0.66667048  0.18578793
   0.83333214 -0.00000262  0.18578793
   0.83333333  0.33333333  0.18579224