 316 316   0   0
  0.2944558E+02  0.1718057E-08  0.1718057E-08  0.3640000E-08  0.2000000E-15
   1.0000000000000000E-004
  CAR 
 NiAl                                    
      4.71819260    -24.13634131  301      0.58787143      1.00000000
    -24.136  0.0000E+00  0.0000E+00
    -24.040  0.0000E+00  0.0000E+00
    -23.944  0.0000E+00  0.0000E+00
    -23.848  0.0000E+00  0.0000E+00
    -23.752  0.0000E+00  0.0000E+00
    -23.655  0.0000E+00  0.0000E+00
    -23.559  0.0000E+00  0.0000E+00
    -23.463  0.0000E+00  0.0000E+00
    -23.367  0.0000E+00  0.0000E+00
    -23.271  0.0000E+00  0.0000E+00
    -23.175  0.0000E+00  0.0000E+00
    -23.078  0.6305E-12  0.6064E-13
    -22.982  0.7801E-05  0.7503E-06
    -22.886  0.8173E-01  0.7862E-02
    -22.790  0.1648E+01  0.1664E+00
    -22.694  0.3495E+00  0.2000E+00
    -22.597  0.2410E-03  0.2000E+00
    -22.501  0.1597E-09  0.2000E+00
    -22.405  0.0000E+00  0.2000E+00
    -22.309  0.0000E+00  0.2000E+00
    -22.213  0.0000E+00  0.2000E+00
    -22.117  0.0000E+00  0.2000E+00
    -22.020  0.0000E+00  0.2000E+00
    -21.924  0.0000E+00  0.2000E+00
    -21.828  0.0000E+00  0.2000E+00
    -21.732  0.0000E+00  0.2000E+00
    -21.636  0.0000E+00  0.2000E+00
    -21.539  0.0000E+00  0.2000E+00
    -21.443  0.0000E+00  0.2000E+00
    -21.347  0.0000E+00  0.2000E+00
    -21.251  0.2329E-10  0.2000E+00
    -21.155  0.2508E-04  0.2000E+00
    -21.059  0.3275E-01  0.2032E+00
    -20.962  0.5911E+00  0.2600E+00
    -20.866  0.1022E+01  0.3583E+00
    -20.770  0.4338E+00  0.4000E+00
    -20.674  0.2313E+00  0.4222E+00
    -20.578  0.8943E+00  0.5083E+00
    -20.481  0.1343E+01  0.6374E+00
    -20.385  0.1170E+01  0.7500E+00
    -20.289  0.5073E+00  0.7988E+00
    -20.193  0.1899E+00  0.8170E+00
    -20.097  0.1407E+01  0.9523E+00
    -20.001  0.4934E+00  0.9998E+00
    -19.904  0.5273E+00  0.1050E+01
    -19.808  0.1720E+01  0.1216E+01
    -19.712  0.1175E+01  0.1329E+01
    -19.616  0.2103E+01  0.1531E+01
    -19.520  0.7116E+00  0.1600E+01
    -19.423  0.4131E-02  0.1600E+01
    -19.327  0.3875E-07  0.1600E+01
    -19.231  0.1991E-03  0.1600E+01
    -19.135  0.4289E+00  0.1641E+01
    -19.039  0.3344E+01  0.1963E+01
    -18.943  0.3858E+00  0.2000E+01
    -18.846  0.2072E-03  0.2000E+01
    -18.750  0.6134E-07  0.2000E+01
    -18.654  0.5329E-02  0.2001E+01
    -18.558  0.6287E+00  0.2061E+01
    -18.462  0.9062E+00  0.2148E+01
    -18.365  0.4747E+00  0.2194E+01
    -18.269  0.6410E-01  0.2200E+01
    -18.173  0.3440E-03  0.2200E+01
    -18.077  0.2344E-08  0.2200E+01
    -17.981  0.1443E-16  0.2200E+01
    -17.885  0.0000E+00  0.2200E+01
    -17.788  0.2601E-12  0.2200E+01
    -17.692  0.1783E-05  0.2200E+01
    -17.596  0.1702E-01  0.2202E+01
    -17.500  0.1198E+01  0.2317E+01
    -17.404  0.4591E+01  0.2758E+01
    -17.307  0.4328E+00  0.2800E+01
    -17.211  0.3495E-02  0.2800E+01
    -17.115  0.5002E+00  0.2848E+01
    -17.019  0.1121E+01  0.2956E+01
    -16.923  0.1174E+01  0.3069E+01
    -16.827  0.1289E+01  0.3193E+01
    -16.730  0.7131E-01  0.3200E+01
    -16.634  0.1317E-04  0.3200E+01
    -16.538  0.2355E-11  0.3200E+01
    -16.442  0.0000E+00  0.3200E+01
    -16.346  0.0000E+00  0.3200E+01
    -16.249  0.0000E+00  0.3200E+01
    -16.153  0.0000E+00  0.3200E+01
    -16.057  0.0000E+00  0.3200E+01
    -15.961  0.0000E+00  0.3200E+01
    -15.865  0.0000E+00  0.3200E+01
    -15.769  0.0000E+00  0.3200E+01
    -15.672  0.0000E+00  0.3200E+01
    -15.576  0.0000E+00  0.3200E+01
    -15.480  0.0000E+00  0.3200E+01
    -15.384  0.0000E+00  0.3200E+01
    -15.288  0.0000E+00  0.3200E+01
    -15.191  0.0000E+00  0.3200E+01
    -15.095  0.0000E+00  0.3200E+01
    -14.999  0.0000E+00  0.3200E+01
    -14.903  0.0000E+00  0.3200E+01
    -14.807  0.0000E+00  0.3200E+01
    -14.711  0.0000E+00  0.3200E+01
    -14.614  0.0000E+00  0.3200E+01
    -14.518  0.0000E+00  0.3200E+01
    -14.422  0.0000E+00  0.3200E+01
    -14.326  0.0000E+00  0.3200E+01
    -14.230  0.0000E+00  0.3200E+01
    -14.133  0.0000E+00  0.3200E+01
    -14.037  0.0000E+00  0.3200E+01
    -13.941  0.0000E+00  0.3200E+01
    -13.845  0.0000E+00  0.3200E+01
    -13.749  0.0000E+00  0.3200E+01
    -13.653  0.0000E+00  0.3200E+01
    -13.556  0.0000E+00  0.3200E+01
    -13.460  0.0000E+00  0.3200E+01
    -13.364  0.0000E+00  0.3200E+01
    -13.268  0.0000E+00  0.3200E+01
    -13.172  0.0000E+00  0.3200E+01
    -13.075  0.0000E+00  0.3200E+01
    -12.979  0.0000E+00  0.3200E+01
    -12.883  0.0000E+00  0.3200E+01
    -12.787  0.0000E+00  0.3200E+01
    -12.691  0.0000E+00  0.3200E+01
    -12.595  0.0000E+00  0.3200E+01
    -12.498  0.0000E+00  0.3200E+01
    -12.402  0.0000E+00  0.3200E+01
    -12.306  0.0000E+00  0.3200E+01
    -12.210  0.0000E+00  0.3200E+01
    -12.114  0.0000E+00  0.3200E+01
    -12.017  0.0000E+00  0.3200E+01
    -11.921  0.0000E+00  0.3200E+01
    -11.825  0.0000E+00  0.3200E+01
    -11.729  0.0000E+00  0.3200E+01
    -11.633  0.0000E+00  0.3200E+01
    -11.537  0.0000E+00  0.3200E+01
    -11.440  0.0000E+00  0.3200E+01
    -11.344  0.0000E+00  0.3200E+01
    -11.248  0.0000E+00  0.3200E+01
    -11.152  0.0000E+00  0.3200E+01
    -11.056  0.0000E+00  0.3200E+01
    -10.959  0.0000E+00  0.3200E+01
    -10.863  0.8224E-15  0.3200E+01
    -10.767  0.3947E-07  0.3200E+01
    -10.671  0.1514E-02  0.3200E+01
    -10.575  0.8614E-01  0.3208E+01
    -10.479  0.9193E-01  0.3217E+01
    -10.382  0.6399E+00  0.3279E+01
    -10.286  0.9024E-01  0.3287E+01
    -10.190  0.2680E-02  0.3288E+01
    -10.094  0.3914E+00  0.3325E+01
     -9.998  0.4817E+00  0.3372E+01
     -9.901  0.5653E+00  0.3426E+01
     -9.805  0.7295E+00  0.3496E+01
     -9.709  0.2977E+00  0.3525E+01
     -9.613  0.1170E-02  0.3525E+01
     -9.517  0.2165E+00  0.3546E+01
     -9.421  0.1396E+01  0.3680E+01
     -9.324  0.1083E+01  0.3784E+01
     -9.228  0.4169E+00  0.3824E+01
     -9.132  0.2521E+00  0.3849E+01
     -9.036  0.6986E+00  0.3916E+01
     -8.940  0.6731E+00  0.3981E+01
     -8.843  0.7401E+00  0.4052E+01
     -8.747  0.8818E+00  0.4137E+01
     -8.651  0.9170E+00  0.4225E+01
     -8.555  0.2127E+01  0.4429E+01
     -8.459  0.2537E+01  0.4673E+01
     -8.363  0.1170E+01  0.4786E+01
     -8.266  0.4223E-01  0.4790E+01
     -8.170  0.1479E+01  0.4932E+01
     -8.074  0.2543E+01  0.5177E+01
     -7.978  0.9322E+00  0.5266E+01
     -7.882  0.2039E+01  0.5463E+01
     -7.785  0.2690E+01  0.5721E+01
     -7.689  0.2362E+01  0.5948E+01
     -7.593  0.1677E+01  0.6110E+01
     -7.497  0.1413E+01  0.6246E+01
     -7.401  0.2399E+01  0.6476E+01
     -7.305  0.1723E+01  0.6642E+01
     -7.208  0.1110E+01  0.6749E+01
     -7.112  0.1782E+01  0.6920E+01
     -7.016  0.2022E+01  0.7115E+01
     -6.920  0.3389E+01  0.7441E+01
     -6.824  0.3097E+01  0.7739E+01
     -6.727  0.2685E+01  0.7997E+01
     -6.631  0.1591E+01  0.8150E+01
     -6.535  0.2254E+01  0.8367E+01
     -6.439  0.3292E+01  0.8683E+01
     -6.343  0.2084E+01  0.8884E+01
     -6.247  0.1538E+01  0.9032E+01
     -6.150  0.2788E+01  0.9300E+01
     -6.054  0.3240E+01  0.9612E+01
     -5.958  0.3459E+01  0.9944E+01
     -5.862  0.3277E+01  0.1026E+02
     -5.766  0.1526E+01  0.1041E+02
     -5.669  0.3025E+01  0.1070E+02
     -5.573  0.3136E+01  0.1100E+02
     -5.477  0.3619E+01  0.1135E+02
     -5.381  0.2684E+01  0.1161E+02
     -5.285  0.2417E+01  0.1184E+02
     -5.189  0.2597E+01  0.1209E+02
     -5.092  0.2630E+01  0.1234E+02
     -4.996  0.1834E+01  0.1252E+02
     -4.900  0.2981E+01  0.1280E+02
     -4.804  0.2700E+01  0.1306E+02
     -4.708  0.1540E+01  0.1321E+02
     -4.611  0.2885E+01  0.1349E+02
     -4.515  0.3916E+01  0.1387E+02
     -4.419  0.2919E+01  0.1415E+02
     -4.323  0.3172E+01  0.1445E+02
     -4.227  0.3148E+01  0.1475E+02
     -4.131  0.2733E+01  0.1502E+02
     -4.034  0.2588E+01  0.1527E+02
     -3.938  0.2642E+01  0.1552E+02
     -3.842  0.2273E+01  0.1574E+02
     -3.746  0.2035E+01  0.1593E+02
     -3.650  0.3226E+01  0.1624E+02
     -3.553  0.4454E+01  0.1667E+02
     -3.457  0.2759E+01  0.1694E+02
     -3.361  0.2836E+01  0.1721E+02
     -3.265  0.2297E+01  0.1743E+02
     -3.169  0.3650E+01  0.1778E+02
     -3.073  0.3066E+01  0.1808E+02
     -2.976  0.3495E+01  0.1841E+02
     -2.880  0.3824E+01  0.1878E+02
     -2.784  0.3287E+01  0.1910E+02
     -2.688  0.3997E+01  0.1948E+02
     -2.592  0.3479E+01  0.1982E+02
     -2.495  0.3490E+01  0.2015E+02
     -2.399  0.4215E+01  0.2056E+02
     -2.303  0.2264E+01  0.2078E+02
     -2.207  0.2114E+01  0.2098E+02
     -2.111  0.4113E+01  0.2137E+02
     -2.015  0.4125E+01  0.2177E+02
     -1.918  0.3494E+01  0.2211E+02
     -1.822  0.2948E+01  0.2239E+02
     -1.726  0.2518E+01  0.2263E+02
     -1.630  0.3968E+01  0.2301E+02
     -1.534  0.3379E+01  0.2334E+02
     -1.437  0.1817E+01  0.2351E+02
     -1.341  0.3838E+01  0.2388E+02
     -1.245  0.2572E+01  0.2413E+02
     -1.149  0.1022E+01  0.2423E+02
     -1.053  0.7900E+00  0.2431E+02
     -0.957  0.1047E+01  0.2441E+02
     -0.860  0.2244E+01  0.2462E+02
     -0.764  0.3661E+01  0.2497E+02
     -0.668  0.3032E+01  0.2527E+02
     -0.572  0.2583E+01  0.2551E+02
     -0.476  0.1771E+01  0.2568E+02
     -0.379  0.2344E+01  0.2591E+02
     -0.283  0.1887E+01  0.2609E+02
     -0.187  0.2756E+01  0.2636E+02
     -0.091  0.1663E+01  0.2652E+02
      0.005  0.3488E+01  0.2685E+02
      0.101  0.2398E+01  0.2708E+02
      0.198  0.2392E+01  0.2731E+02
      0.294  0.2820E+01  0.2758E+02
      0.390  0.2101E+01  0.2779E+02
      0.486  0.3223E+01  0.2810E+02
      0.582  0.4034E+01  0.2848E+02
      0.679  0.2397E+01  0.2871E+02
      0.775  0.1217E+01  0.2883E+02
      0.871  0.4928E+01  0.2931E+02
      0.967  0.4385E+01  0.2973E+02
      1.063  0.2760E+01  0.2999E+02
      1.159  0.3859E+01  0.3036E+02
      1.256  0.3466E+01  0.3070E+02
      1.352  0.2928E+01  0.3098E+02
      1.448  0.4203E+01  0.3138E+02
      1.544  0.3205E+01  0.3169E+02
      1.640  0.2750E+01  0.3196E+02
      1.737  0.4043E+01  0.3234E+02
      1.833  0.2831E+01  0.3262E+02
      1.929  0.2300E+01  0.3284E+02
      2.025  0.2624E+01  0.3309E+02
      2.121  0.2292E+01  0.3331E+02
      2.217  0.2423E+01  0.3354E+02
      2.314  0.3218E+01  0.3385E+02
      2.410  0.2485E+01  0.3409E+02
      2.506  0.2012E+01  0.3429E+02
      2.602  0.3118E+01  0.3459E+02
      2.698  0.4045E+01  0.3498E+02
      2.795  0.2998E+01  0.3526E+02
      2.891  0.2163E+01  0.3547E+02
      2.987  0.2787E+01  0.3574E+02
      3.083  0.2171E+01  0.3595E+02
      3.179  0.2430E+01  0.3618E+02
      3.275  0.1863E+01  0.3636E+02
      3.372  0.7687E+00  0.3644E+02
      3.468  0.1483E+00  0.3645E+02
      3.564  0.5441E-02  0.3645E+02
      3.660  0.5538E-06  0.3645E+02
      3.756  0.4802E-13  0.3645E+02
      3.853  0.0000E+00  0.3645E+02
      3.949  0.0000E+00  0.3645E+02
      4.045  0.0000E+00  0.3645E+02
      4.141  0.0000E+00  0.3645E+02
      4.237  0.0000E+00  0.3645E+02
      4.333  0.0000E+00  0.3645E+02
      4.430  0.0000E+00  0.3645E+02
      4.526  0.0000E+00  0.3645E+02
      4.622  0.0000E+00  0.3645E+02
      4.718  0.0000E+00  0.3645E+02
