ITEM: TIMESTEP
0
ITEM: NUMBER OF ATOMS
108
ITEM: BOX BOUNDS pp pp pp
0.0000000000000000e+00 1.2649858474700000e+01
0.0000000000000000e+00 1.2649858474700000e+01
0.0000000000000000e+00 1.2649858474700000e+01
ITEM: ATOMS id type xs ys zs
1 1 0 0 0
28 1 0 0.166667 0.166667
55 1 0.166667 0 0.166667
82 1 0.166667 0.166667 0
10 1 0.333333 0 0
37 1 0.333333 0.166667 0.166667
64 1 0.5 0 0.166667
91 1 0.5 0.166667 0
19 1 0.666667 0 0
46 1 0.666667 0.166667 0.166667
73 1 0.833333 0 0.166667
100 1 0.833333 0.166667 0
4 1 0 0.333333 0
31 1 0 0.5 0.166667
58 1 0.166667 0.333333 0.166667
85 1 0.166667 0.5 0
13 1 0.333333 0.333333 0
40 1 0.333333 0.5 0.166667
67 1 0.5 0.333333 0.166667
94 1 0.5 0.5 0
22 1 0.666667 0.333333 0
49 1 0.666667 0.5 0.166667
76 1 0.833333 0.333333 0.166667
103 1 0.833333 0.5 0
7 1 0 0.666667 0
34 1 0 0.833333 0.166667
61 1 0.166667 0.666667 0.166667
88 1 0.166667 0.833333 0
16 1 0.333333 0.666667 0
43 1 0.333333 0.833333 0.166667
70 1 0.5 0.666667 0.166667
97 1 0.5 0.833333 0
25 1 0.666667 0.666667 0
52 1 0.666667 0.833333 0.166667
79 1 0.833333 0.666667 0.166667
106 1 0.833333 0.833333 0
2 1 0 0 0.333333
29 1 0 0.166667 0.5
56 1 0.166667 0 0.5
83 1 0.166667 0.166667 0.333333
11 1 0.333333 0 0.333333
38 1 0.333333 0.166667 0.5
65 1 0.5 0 0.5
92 1 0.5 0.166667 0.333333
20 1 0.666667 0 0.333333
47 1 0.666667 0.166667 0.5
74 1 0.833333 0 0.5
101 1 0.833333 0.166667 0.333333
5 1 0 0.333333 0.333333
32 1 0 0.5 0.5
59 1 0.166667 0.333333 0.5
86 1 0.166667 0.5 0.333333
14 1 0.333333 0.333333 0.333333
41 1 0.333333 0.5 0.5
68 1 0.5 0.333333 0.5
95 1 0.5 0.5 0.333333
23 1 0.666667 0.333333 0.333333
50 1 0.666667 0.5 0.5
77 1 0.833333 0.333333 0.5
104 1 0.833333 0.5 0.333333
8 1 0 0.666667 0.333333
35 1 0 0.833333 0.5
62 1 0.166667 0.666667 0.5
89 1 0.166667 0.833333 0.333333
17 1 0.333333 0.666667 0.333333
44 1 0.333333 0.833333 0.5
71 1 0.5 0.666667 0.5
98 1 0.5 0.833333 0.333333
26 1 0.666667 0.666667 0.333333
53 1 0.666667 0.833333 0.5
80 1 0.833333 0.666667 0.5
107 1 0.833333 0.833333 0.333333
3 1 0 0 0.666667
30 1 0 0.166667 0.833333
57 1 0.166667 0 0.833333
84 1 0.166667 0.166667 0.666667
12 1 0.333333 0 0.666667
39 1 0.333333 0.166667 0.833333
66 1 0.5 0 0.833333
93 1 0.5 0.166667 0.666667
21 1 0.666667 0 0.666667
48 1 0.666667 0.166667 0.833333
75 1 0.833333 0 0.833333
102 1 0.833333 0.166667 0.666667
6 1 0 0.333333 0.666667
33 1 0 0.5 0.833333
60 1 0.166667 0.333333 0.833333
87 1 0.166667 0.5 0.666667
15 1 0.333333 0.333333 0.666667
42 1 0.333333 0.5 0.833333
69 1 0.5 0.333333 0.833333
96 1 0.5 0.5 0.666667
24 1 0.666667 0.333333 0.666667
51 1 0.666667 0.5 0.833333
78 1 0.833333 0.333333 0.833333
105 1 0.833333 0.5 0.666667
9 1 0 0.666667 0.666667
36 1 0 0.833333 0.833333
63 1 0.166667 0.666667 0.833333
90 1 0.166667 0.833333 0.666667
18 1 0.333333 0.666667 0.666667
45 1 0.333333 0.833333 0.833333
72 1 0.5 0.666667 0.833333
99 1 0.5 0.833333 0.666667
27 1 0.666667 0.666667 0.666667
54 1 0.666667 0.833333 0.833333
81 1 0.833333 0.666667 0.833333
108 1 0.833333 0.833333 0.666667
ITEM: TIMESTEP
10
ITEM: NUMBER OF ATOMS
108
ITEM: BOX BOUNDS pp pp pp
0.0000000000000000e+00 1.2649858474700000e+01
0.0000000000000000e+00 1.2649858474700000e+01
0.0000000000000000e+00 1.2649858474700000e+01
ITEM: ATOMS id type xs ys zs
1 1 -0.0390654 -0.0226284 0.0253982
28 1 -0.0246041 0.142408 0.179775
55 1 0.154156 -0.0213874 0.142311
82 1 0.18536 0.165246 -0.0168225
10 1 0.335583 -0.0169132 0.011752
37 1 0.331243 0.169884 0.199026
64 1 0.519084 -0.00811141 0.171658
91 1 0.529877 0.19073 -0.00873779
19 1 0.650276 -0.0231853 0.00153897
46 1 0.658339 0.160789 0.149692
73 1 0.847394 0.0108568 0.187588
100 1 0.848692 0.173904 0.0266697
4 1 0.0254363 0.323475 0.00353486
31 1 -0.0204622 0.484845 0.153016
58 1 0.186657 0.305868 0.147746
85 1 0.181115 0.505223 -0.00722265
13 1 0.341118 0.350701 0.0296784
40 1 0.31964 0.512803 0.146712
67 1 0.495321 0.344604 0.17279
94 1 0.486445 0.477827 -0.0224406
22 1 0.648588 0.358586 0.00776919
49 1 0.69055 0.500152 0.150853
76 1 0.833558 0.341123 0.176541
103 1 0.824666 0.492219 0.0151253
7 1 -0.0158174 0.63554 -0.000777987
34 1 -0.00909714 0.839319 0.170811
61 1 0.16447 0.659701 0.186667
88 1 0.188271 0.816176 -0.0190865
16 1 0.309121 0.66921 0.0289065
43 1 0.355784 0.819047 0.151981
70 1 0.500258 0.65306 0.158822
97 1 0.507466 0.81276 0.0278421
25 1 0.657776 0.688547 0.00629337
52 1 0.640678 0.821341 0.170966
79 1 0.820492 0.68772 0.145956
106 1 0.844482 0.807043 -0.024334
2 1 -0.00291492 -0.00598901 0.313128
29 1 0.0206333 0.171547 0.514965
56 1 0.200448 0.00432809 0.478668
83 1 0.19399 0.152336 0.348548
11 1 0.354508 0.0144129 0.330247
38 1 0.342913 0.163337 0.518421
65 1 0.497379 0.0160959 0.518035
92 1 0.48631 0.17507 0.32012
20 1 0.692401 0.020866 0.306823
47 1 0.67218 0.183103 0.515801
74 1 0.800097 0.0191319 0.505378
101 1 0.842981 0.172053 0.341035
5 1 0.0229732 0.293952 0.304644
32 1 -0.000746968 0.508634 0.526314
59 1 0.142036 0.324184 0.479154
86 1 0.160906 0.517228 0.352001
14 1 0.322379 0.307312 0.363336
41 1 0.30795 0.488507 0.47063
68 1 0.508277 0.347335 0.524812
95 1 0.47189 0.528999 0.321062
23 1 0.655339 0.30855 0.367118
50 1 0.671932 0.476678 0.507912
77 1 0.808257 0.352924 0.525029
104 1 0.80255 0.515402 0.336649
8 1 0.0170578 0.667712 0.362113
35 1 -0.0138588 0.803646 0.48772
62 1 0.181936 0.672518 0.491914
89 1 0.176719 0.831926 0.321839
17 1 0.317814 0.658199 0.346311
44 1 0.322901 0.847443 0.511417
71 1 0.497661 0.691764 0.492355
98 1 0.484268 0.85522 0.321163
26 1 0.662488 0.688107 0.307314
53 1 0.645028 0.842656 0.515185
80 1 0.839515 0.652302 0.504433
107 1 0.831636 0.856437 0.349554
3 1 -0.0297222 0.00684891 0.684332
30 1 0.008802 0.19896 0.85802
57 1 0.192212 -0.00708976 0.810564
84 1 0.172142 0.131599 0.636827
12 1 0.309188 0.00759179 0.6531
39 1 0.343358 0.176815 0.809436
66 1 0.497544 0.0388733 0.850935
93 1 0.512185 0.185354 0.665081
21 1 0.693576 0.00260248 0.668384
48 1 0.68201 0.167087 0.808643
75 1 0.827193 -0.0330404 0.837538
102 1 0.834376 0.141293 0.673976
6 1 -0.00371164 0.347647 0.644368
33 1 -0.00383921 0.516011 0.817289
60 1 0.143432 0.355981 0.838011
87 1 0.144455 0.519032 0.683
15 1 0.360096 0.340176 0.681342
42 1 0.322056 0.461249 0.850513
69 1 0.516912 0.323062 0.831786
96 1 0.521251 0.4742 0.669691
24 1 0.647355 0.330829 0.661981
51 1 0.659244 0.523268 0.814679
78 1 0.861258 0.331561 0.811516
105 1 0.8383 0.504992 0.659621
9 1 0.0154381 0.664469 0.648627
36 1 -0.00119053 0.846767 0.805795
63 1 0.172095 0.684137 0.817389
90 1 0.158724 0.807861 0.663756
18 1 0.321529 0.661624 0.64941
45 1 0.306616 0.840207 0.825619
72 1 0.528376 0.689418 0.84785
99 1 0.482839 0.799876 0.64654
27 1 0.682006 0.683502 0.690235
54 1 0.693299 0.814041 0.840213
81 1 0.848133 0.663765 0.830795
108 1 0.83178 0.847019 0.663994
ITEM: TIMESTEP
20
ITEM: NUMBER OF ATOMS
108
ITEM: BOX BOUNDS pp pp pp
0.0000000000000000e+00 1.2649858474700000e+01
0.0000000000000000e+00 1.2649858474700000e+01
0.0000000000000000e+00 1.2649858474700000e+01
ITEM: ATOMS id type xs ys zs
1 1 0.915456 0.973541 0.0401979
28 1 1.00045 0.121663 0.178111
55 1 0.108667 0.937963 0.120419
82 1 0.207777 0.215735 0.940249
10 1 0.343068 0.933724 0.0167791
37 1 0.327346 0.199256 0.223527
64 1 0.521709 0.985767 0.180954
91 1 0.563979 0.238197 0.989576
19 1 0.614196 0.94508 0.00439188
46 1 0.659319 0.132682 0.131887
73 1 0.838616 0.0134224 0.195332
100 1 0.872798 0.183744 0.0576611
4 1 0.0498376 0.323805 0.034219
31 1 0.979484 0.460952 0.117496
58 1 0.175825 0.275765 0.140716
85 1 0.179127 0.47915 1.01337
13 1 0.330493 0.344513 0.0543517
40 1 0.339078 0.512262 0.163351
67 1 0.493278 0.331773 0.146596
94 1 0.475589 0.466883 0.97017
22 1 0.645687 0.396229 0.0374184
49 1 0.684285 0.547651 0.156976
76 1 0.834427 0.329861 0.171427
103 1 0.798938 0.48369 0.0135616
7 1 0.94732 0.605811 0.97461
34 1 0.948745 0.835774 0.195831
61 1 0.189538 0.646747 0.215714
88 1 0.200327 0.826559 0.979071
16 1 0.308151 0.676416 0.0573776
43 1 0.358093 0.817536 0.180586
70 1 0.501184 0.659506 0.14089
97 1 0.48394 0.808337 0.013627
25 1 0.663574 0.68969 0.0124533
52 1 0.634827 0.826568 0.162651
79 1 0.809661 0.686918 0.127545
106 1 0.891843 0.780625 0.960124
2 1 0.0239599 0.985222 0.298118
29 1 0.0204524 0.185494 0.502895
56 1 0.244735 -0.00696942 0.468321
83 1 0.186966 0.162493 0.382427
11 1 0.400525 0.0402285 0.355941
38 1 0.353976 0.158367 0.523857
65 1 0.484207 0.0264246 0.537632
92 1 0.509218 0.193144 0.313342
20 1 0.679654 0.0387256 0.305852
47 1 0.665796 0.169924 0.581123
74 1 0.767017 0.0282907 0.486136
101 1 0.863356 0.149489 0.33445
5 1 0.0553414 0.251049 0.29661
32 1 0.0372717 0.532966 0.522715
59 1 0.134788 0.35292 0.434992
86 1 0.145449 0.522895 0.376663
14 1 0.344699 0.296422 0.398144
41 1 0.309004 0.485211 0.441741
68 1 0.504412 0.301453 0.520185
95 1 0.439968 0.56438 0.302276
23 1 0.658829 0.295566 0.42127
50 1 0.662014 0.458594 0.534265
77 1 0.820658 0.317053 0.560538
104 1 0.738858 0.533072 0.35052
8 1 0.0290145 0.677083 0.368537
35 1 0.979569 0.7877 0.523669
62 1 0.152041 0.684405 0.508606
89 1 0.16471 0.812975 0.31842
17 1 0.293564 0.685496 0.358749
44 1 0.320018 0.820737 0.505928
71 1 0.458513 0.721969 0.415771
98 1 0.488748 0.846815 0.306462
26 1 0.631733 0.674661 0.275883
53 1 0.629113 0.878643 0.570964
80 1 0.870463 0.62153 0.515062
107 1 0.844316 0.912325 0.35211
3 1 0.951386 0.0112128 0.695726
30 1 0.0182168 0.222143 0.882268
57 1 0.194747 1.0112 0.785652
84 1 0.181427 0.101411 0.622259
12 1 0.33595 0.969415 0.643744
39 1 0.345246 0.152222 0.75764
66 1 0.510226 0.10311 0.866138
93 1 0.508307 0.172985 0.659492
21 1 0.699661 0.00332501 0.681151
48 1 0.647216 0.167816 0.772051
75 1 0.834 0.955994 0.829418
102 1 0.829221 0.180062 0.662407
6 1 0.999775 0.384167 0.626184
33 1 0.97538 0.525206 0.798155
60 1 0.0932973 0.398683 0.84454
87 1 0.135995 0.531964 0.677632
15 1 0.407481 0.331526 0.691462
42 1 0.320686 0.376197 0.869203
69 1 0.541892 0.323528 0.831335
96 1 0.547629 0.457629 0.677451
24 1 0.688252 0.332976 0.694185
51 1 0.668906 0.53952 0.81948
78 1 0.885486 0.346105 0.76057
105 1 0.841701 0.517135 0.670966
9 1 -0.00516503 0.677555 0.674516
36 1 0.983839 0.811336 0.770528
63 1 0.143689 0.688292 0.79357
90 1 0.156356 0.831292 0.643385
18 1 0.290968 0.679881 0.636239
45 1 0.296422 0.830566 0.773911
72 1 0.577979 0.717817 0.848878
99 1 0.465645 0.771758 0.646149
27 1 0.706391 0.703948 0.688613
54 1 0.729165 0.81133 0.861446
81 1 0.85683 0.661481 0.794195
108 1 0.826209 0.838659 0.66006
ITEM: TIMESTEP
30
ITEM: NUMBER OF ATOMS
108
ITEM: BOX BOUNDS pp pp pp
0.0000000000000000e+00 1.2649858474700000e+01
0.0000000000000000e+00 1.2649858474700000e+01
0.0000000000000000e+00 1.2649858474700000e+01
ITEM: ATOMS id type xs ys zs
1 1 0.91951 0.979565 0.0301624
28 1 0.0371795 0.0986303 0.129787
55 1 0.0504691 0.878982 0.127714
82 1 0.167643 0.272044 0.937933
10 1 0.390137 0.913203 0.0670704
37 1 0.362167 0.215863 0.253104
64 1 0.500472 1.03118 0.155555
91 1 0.581357 0.235537 0.000226846
19 1 0.595556 0.941605 0.000469444
46 1 0.668134 0.0942799 0.112904
73 1 0.832559 0.0351902 0.178735
100 1 0.884277 0.162181 0.0344533
4 1 0.0139487 0.299425 0.0425624
31 1 0.965861 0.481554 0.0918204
58 1 0.158855 0.238209 0.167964
85 1 0.165804 0.414712 0.0704015
13 1 0.319458 0.298814 0.0716026
40 1 0.366038 0.499163 0.132482
67 1 0.478832 0.329326 0.171967
94 1 0.456361 0.410444 0.998812
22 1 0.628122 0.409685 0.0867147
49 1 0.659615 0.592632 0.165015
76 1 0.824418 0.347326 0.118343
103 1 0.790764 0.512001 0.00736038
7 1 0.933069 0.601802 0.944899
34 1 0.895571 0.85134 0.211249
61 1 0.211812 0.643788 0.183624
88 1 0.177253 0.794322 0.93749
16 1 0.313139 0.696353 0.0543576
43 1 0.327412 0.78381 0.236864
70 1 0.485949 0.650056 0.134641
97 1 0.487874 0.765181 -0.025069
25 1 0.652115 0.67975 -0.0182464
52 1 0.640636 0.799627 0.129471
79 1 0.824083 0.672689 0.0902828
106 1 0.93383 0.796563 0.963358
2 1 0.0510857 0.994947 0.320302
29 1 0.00440084 0.241637 0.488435
56 1 0.27365 0.971927 0.460607
83 1 0.22228 0.168982 0.42371
11 1 0.45514 0.0739313 0.364728
38 1 0.367497 0.145118 0.544698
65 1 0.528106 0.0149312 0.527951
92 1 0.564407 0.236577 0.312714
20 1 0.631519 0.0482927 0.320478
47 1 0.648587 0.165737 0.602048
74 1 0.736834 0.0366421 0.503389
101 1 0.924724 0.117586 0.346285
5 1 0.0380621 0.242455 0.302392
32 1 0.0417955 0.550412 0.474331
59 1 0.165587 0.365288 0.453783
86 1 0.147379 0.553336 0.337358
14 1 0.362906 0.295565 0.415794
41 1 0.33325 0.497003 0.424205
68 1 0.519679 0.26985 0.53127
95 1 0.442474 0.565182 0.292371
23 1 0.710362 0.254204 0.437719
50 1 0.688291 0.418049 0.547746
77 1 0.860433 0.340911 0.558078
104 1 0.668934 0.544851 0.389071
8 1 -0.004481 0.714427 0.359328
35 1 0.969846 0.815455 0.554167
62 1 0.133032 0.722732 0.52834
89 1 0.151737 0.83788 0.312547
17 1 0.271891 0.672103 0.374837
44 1 0.299382 0.793573 0.542989
71 1 0.458226 0.740256 0.44078
98 1 0.535765 0.878623 0.284324
26 1 0.585293 0.702581 0.297997
53 1 0.634951 0.872219 0.631835
80 1 0.853612 0.628362 0.487269
107 1 0.861468 0.951005 0.368558
3 1 0.938704 -0.0121299 0.650468
30 1 -0.0198495 0.202876 0.855839
57 1 0.195051 -0.0322647 0.768819
84 1 0.165061 0.0783793 0.585949
12 1 0.357918 0.964676 0.631827
39 1 0.294114 0.144732 0.740015
66 1 0.469292 0.156765 0.86888
93 1 0.490198 0.124866 0.690755
21 1 0.75986 0.00965504 0.711275
48 1 0.676482 0.188335 0.78996
75 1 0.875882 0.966691 0.851407
102 1 0.841636 0.169858 0.686574
6 1 0.0327553 0.395565 0.606995
33 1 0.966835 0.52268 0.770621
60 1 0.0862544 0.396463 0.84906
87 1 0.141057 0.54021 0.68422
15 1 0.39417 0.299563 0.672288
42 1 0.388542 0.310243 0.861664
69 1 0.548638 0.331175 0.829461
96 1 0.550344 0.446821 0.683403
24 1 0.721366 0.366301 0.745385
51 1 0.717894 0.558694 0.837267
78 1 0.925216 0.34522 0.75729
105 1 0.801398 0.522412 0.660778
9 1 0.972172 0.634052 0.635407
36 1 0.985258 0.843756 0.764331
63 1 0.115921 0.727872 0.766446
90 1 0.141799 0.903611 0.622812
18 1 0.272585 0.663939 0.657905
45 1 0.28079 0.818331 0.763617
72 1 0.556439 0.729353 0.801071
99 1 0.445918 0.784584 0.640127
27 1 0.682505 0.681685 0.667889
54 1 0.730922 0.820789 0.866066
81 1 0.848944 0.684114 0.794955
108 1 0.809545 0.840663 0.670658
ITEM: TIMESTEP
40
ITEM: NUMBER OF ATOMS
108
ITEM: BOX BOUNDS pp pp pp
0.0000000000000000e+00 1.2649858474700000e+01
0.0000000000000000e+00 1.2649858474700000e+01
0.0000000000000000e+00 1.2649858474700000e+01
ITEM: ATOMS id type xs ys zs
1 1 0.921253 0.95345 0.0656626
28 1 0.019127 0.114476 0.162015
55 1 0.0605628 0.821301 0.141782
82 1 0.144192 0.234469 0.984535
10 1 0.473001 0.844069 0.136604
37 1 0.349738 0.20348 0.246271
64 1 0.493285 0.10257 0.175377
91 1 0.592842 0.221435 1.01882
19 1 0.581378 0.938862 0.0161788
46 1 0.694249 0.0766034 0.100561
73 1 0.845055 0.0684261 0.232604
100 1 0.833098 0.134501 0.00504527
4 1 0.99664 0.277021 0.0966764
31 1 0.94078 0.494828 0.0531964
58 1 0.195711 0.20991 0.165668
85 1 0.135347 0.408313 0.123766
13 1 0.360944 0.242434 0.0512638
40 1 0.331496 0.492994 0.107705
67 1 0.449571 0.377389 0.212675
94 1 0.492193 0.36862 0.00657548
22 1 0.637569 0.401649 0.137551
49 1 0.680725 0.594038 0.186685
76 1 0.803343 0.332668 0.0142097
103 1 0.738321 0.51973 0.0033634
7 1 0.968022 0.617284 0.930252
34 1 0.844868 0.853786 0.208666
61 1 0.229089 0.653228 0.186842
88 1 0.123292 0.801042 0.876102
16 1 0.334393 0.745931 0.00706447
43 1 0.396033 0.755071 0.272599
70 1 0.475657 0.663499 0.127559
97 1 0.516764 0.76583 0.955156
25 1 0.65095 0.663565 0.946796
52 1 0.634755 0.779073 0.11002
79 1 0.817764 0.71294 0.0474232
106 1 0.949164 0.814199 0.930586
2 1 0.0582987 0.987751 0.295406
29 1 0.0436213 0.239958 0.502545
56 1 0.284849 0.993526 0.430466
83 1 0.21288 0.180974 0.397043
11 1 0.454536 0.0946759 0.373064
38 1 0.381122 0.125168 0.539767
65 1 0.565187 0.0429131 0.526571
92 1 0.555227 0.247812 0.342486
20 1 0.662819 0.0769324 0.32165
47 1 0.684642 0.185256 0.638218
74 1 0.754748 0.0191526 0.535035
101 1 0.91684 0.13895 0.387041
5 1 0.0726585 0.265965 0.301137
32 1 0.0106618 0.53911 0.4784
59 1 0.165297 0.372232 0.447278
86 1 0.160636 0.514049 0.307764
14 1 0.388147 0.293764 0.456146
41 1 0.314708 0.488214 0.423963
68 1 0.563775 0.231923 0.519668
95 1 0.440095 0.572501 0.292745
23 1 0.753764 0.179224 0.460816
50 1 0.689226 0.363067 0.551585
77 1 0.859925 0.365464 0.579998
104 1 0.588525 0.555402 0.39875
8 1 0.991128 0.748372 0.392157
35 1 0.917031 0.822899 0.529096
62 1 0.12937 0.693158 0.512362
89 1 0.179087 0.792803 0.314589
17 1 0.279794 0.667243 0.416009
44 1 0.286544 0.824902 0.542453
71 1 0.441272 0.804691 0.439882
98 1 0.506897 0.927462 0.279825
26 1 0.56511 0.736611 0.305036
53 1 0.623096 0.886898 0.681529
80 1 0.812319 0.6531 0.467038
107 1 0.860066 0.940548 0.407336
3 1 0.932942 1.01589 0.587375
30 1 0.947105 0.144622 0.843282
57 1 0.15965 0.974062 0.777592
84 1 0.14167 0.0993085 0.582855
12 1 0.325824 0.974942 0.658575
39 1 0.291598 0.142662 0.732144
66 1 0.459867 0.135085 0.881772
93 1 0.50806 0.0950599 0.701856
21 1 0.747636 0.0181498 0.7297
48 1 0.666841 0.153845 0.849403
75 1 0.89322 0.97768 0.855496
102 1 0.849481 0.18861 0.677293
6 1 0.0564824 0.399483 0.601995
33 1 0.938132 0.525776 0.76245
60 1 0.075041 0.424374 0.864577
87 1 0.115249 0.557523 0.674717
15 1 0.429368 0.267145 0.662204
42 1 0.298569 0.314046 0.867183
69 1 0.56329 0.333612 0.833257
96 1 0.540396 0.412696 0.657317
24 1 0.753431 0.36943 0.741073
51 1 0.747105 0.555501 0.801105
78 1 0.942242 0.343037 0.761522
105 1 0.819757 0.525682 0.621812
9 1 0.946869 0.660097 0.600788
36 1 1.00922 0.872678 0.738904
63 1 0.117894 0.7291 0.699506
90 1 0.109047 0.890842 0.590841
18 1 0.28843 0.641166 0.648665
45 1 0.293941 0.813571 0.747571
72 1 0.578245 0.727435 0.790402
99 1 0.448483 0.80881 0.645672
27 1 0.699709 0.676327 0.644487
54 1 0.704241 0.855303 0.859165
81 1 0.896239 0.699532 0.781538
108 1 0.819651 0.845558 0.687199
ITEM: TIMESTEP
50
ITEM: NUMBER OF ATOMS
108
ITEM: BOX BOUNDS pp pp pp
0.0000000000000000e+00 1.2649858474700000e+01
0.0000000000000000e+00 1.2649858474700000e+01
0.0000000000000000e+00 1.2649858474700000e+01
ITEM: ATOMS id type xs ys zs
1 1 0.911525 0.971962 0.088045
28 1 0.00610537 0.117193 0.210884
55 1 0.015437 0.78816 0.204114
82 1 0.0980813 0.255267 1.01031
10 1 0.488024 0.835746 0.14154
37 1 0.360256 0.230944 0.260808
64 1 0.538873 0.141687 0.193051
91 1 0.62687 0.218539 0.0363391
19 1 0.608935 0.98895 -0.00282576
46 1 0.702247 0.0319909 0.160206
73 1 0.842649 0.048838 0.253599
100 1 0.799344 0.104973 0.979889
4 1 0.97903 0.307928 0.128927
31 1 0.913158 0.405343 -0.000748907
58 1 0.18262 0.206231 0.186172
85 1 0.148038 0.383695 0.148128
13 1 0.427829 0.206695 0.0615558
40 1 0.305164 0.488168 0.117313
67 1 0.422056 0.401946 0.248007
94 1 0.477734 0.416763 0.0537245
22 1 0.621719 0.363507 0.157658
49 1 0.630476 0.583396 0.171072
76 1 0.770437 0.288827 0.897586
103 1 0.763256 0.508246 0.9891
7 1 0.995898 0.632485 0.923969
34 1 0.836639 0.851139 0.224366
61 1 0.276564 0.653998 0.184387
88 1 0.09233 0.787481 0.834598
16 1 0.345788 0.761363 0.0523305
43 1 0.384585 0.790618 0.301148
70 1 0.474869 0.623332 0.0854248
97 1 0.526432 0.812317 0.951127
25 1 0.673909 0.684684 0.949528
52 1 0.686388 0.793876 0.116904
79 1 0.840034 0.737776 0.0129678
106 1 0.942905 0.832129 0.936352
2 1 0.0285063 0.930089 0.282005
29 1 0.0790317 0.207248 0.50904
56 1 0.275891 0.982453 0.450312
83 1 0.236478 0.179649 0.407728
11 1 0.436521 0.114881 0.401478
38 1 0.372094 0.12268 0.56335
65 1 0.601641 0.00796912 0.499057
92 1 0.549986 0.290359 0.309633
20 1 0.643945 0.10263 0.341455
47 1 0.644346 0.205579 0.702497
74 1 0.765084 0.988979 0.566643
101 1 0.951427 0.127274 0.379085
5 1 0.0593931 0.284191 0.301717
32 1 -0.00489568 0.512305 0.482553
59 1 0.159955 0.375519 0.443991
86 1 0.220394 0.501785 0.295511
14 1 0.381674 0.281171 0.444514
41 1 0.35013 0.438438 0.418033
68 1 0.53262 0.221058 0.527163
95 1 0.395979 0.565984 0.266729
23 1 0.747959 0.162281 0.514096
50 1 0.718741 0.347031 0.528145
77 1 0.908283 0.299053 0.533048
104 1 0.543104 0.568605 0.377453
8 1 0.98152 0.76535 0.380115
35 1 0.890925 0.854364 0.539195
62 1 0.11237 0.665058 0.477716
89 1 0.169649 0.786342 0.352909
17 1 0.322701 0.626046 0.415372
44 1 0.235782 0.818266 0.508586
71 1 0.442131 0.901852 0.456224
98 1 0.525279 0.961643 0.289341
26 1 0.564487 0.734164 0.26228
53 1 0.61265 0.910404 0.69182
80 1 0.822418 0.692745 0.451589
107 1 0.879978 0.944332 0.391501
3 1 0.975123 0.048272 0.558797
30 1 0.945247 0.140198 0.846949
57 1 0.131471 0.99055 0.735638
84 1 0.189886 0.0903613 0.585027
12 1 0.305065 0.950013 0.622149
39 1 0.303258 0.138998 0.759456
66 1 0.46788 0.147199 0.871344
93 1 0.519393 0.0619565 0.706555
21 1 0.750526 0.0738201 0.76462
48 1 0.64143 0.122211 0.898817
75 1 0.84843 0.969811 0.885386
102 1 0.865148 0.178996 0.657542
6 1 0.0776511 0.372922 0.638334
33 1 0.94857 0.500737 0.726546
60 1 0.0699405 0.441633 0.932155
87 1 0.102955 0.567027 0.635592
15 1 0.455549 0.236303 0.709057
42 1 0.207715 0.295958 0.859785
69 1 0.583291 0.282987 0.842656
96 1 0.57826 0.363915 0.636451
24 1 0.756924 0.354006 0.730109
51 1 0.76109 0.583962 0.775593
78 1 0.941487 0.317142 0.789803
105 1 0.808657 0.508799 0.564005
9 1 0.952218 0.676587 0.601939
36 1 0.973259 0.906141 0.720597
63 1 0.107217 0.776838 0.626417
90 1 0.0928473 0.932082 0.525562
18 1 0.300773 0.676449 0.595072
45 1 0.281459 0.812349 0.747448
72 1 0.614136 0.719656 0.753549
99 1 0.432038 0.827099 0.626768
27 1 0.77254 0.733962 0.637962
54 1 0.693448 0.86053 0.889079
81 1 0.887705 0.727122 0.777179
108 1 0.783032 0.879441 0.736619
ITEM: TIMESTEP
60
ITEM: NUMBER OF ATOMS
108
ITEM: BOX BOUNDS pp pp pp
0.0000000000000000e+00 1.2649858474700000e+01
0.0000000000000000e+00 1.2649858474700000e+01
0.0000000000000000e+00 1.2649858474700000e+01
ITEM: ATOMS id type xs ys zs
1 1 0.901415 0.982117 0.109311
28 1 0.0173311 0.111405 0.164701
55 1 0.967016 0.720233 0.195774
82 1 0.0220752 0.231303 0.00636358
10 1 0.509861 0.894205 0.146769
37 1 0.37043 0.195746 0.238928
64 1 0.565281 0.14663 0.208826
91 1 0.647288 0.242015 0.0308678
19 1 0.591676 0.99367 0.0152254
46 1 0.711264 -0.0179491 0.172791
73 1 0.83987 0.0593463 0.277855
100 1 0.779725 0.113096 0.0363766
4 1 0.935876 0.280855 0.201961
31 1 0.855793 0.300056 0.94853
58 1 0.173729 0.204189 0.218168
85 1 0.148027 0.370581 0.135515
13 1 0.472191 0.26445 0.0646893
40 1 0.304568 0.501072 0.105388
67 1 0.423021 0.384257 0.263072
94 1 0.473928 0.445447 0.0733013
22 1 0.596908 0.337934 0.196363
49 1 0.59916 0.537239 0.135005
76 1 0.772178 0.206698 0.825629
103 1 0.765883 0.514624 0.950093
7 1 0.978125 0.609714 0.884283
34 1 0.836764 0.863237 0.251982
61 1 0.220335 0.678884 0.215055
88 1 0.0727978 0.762044 0.770402
16 1 0.352243 0.789926 0.0942414
43 1 0.376539 0.869698 0.322476
70 1 0.471854 0.640222 0.0197633
97 1 0.499188 0.804445 0.962868
25 1 0.628349 0.648434 0.955848
52 1 0.672533 0.813612 0.0947481
79 1 0.836523 0.708008 0.00549133
106 1 1.01695 0.866904 0.936488
2 1 0.0052557 0.966439 0.282359
29 1 0.0817746 0.234353 0.530622
56 1 0.251872 1.00432 0.372347
83 1 0.22418 0.193311 0.389302
11 1 0.454149 0.0875851 0.359186
38 1 0.39193 0.12981 0.573757
65 1 0.603398 0.998059 0.495076
92 1 0.558233 0.317773 0.398905
20 1 0.657678 0.146959 0.364632
47 1 0.660222 0.195379 0.688551
74 1 0.810749 0.960896 0.62507
101 1 0.964207 0.11058 0.402774
5 1 0.0661359 0.292057 0.35452
32 1 1.00782 0.42808 0.53543
59 1 0.204634 0.392736 0.471903
86 1 0.253418 0.493372 0.286605
14 1 0.395721 0.257169 0.448508
41 1 0.378643 0.470494 0.430572
68 1 0.560583 0.192166 0.540504
95 1 0.406577 0.622276 0.187952
23 1 0.753425 0.113711 0.540989
50 1 0.733266 0.312344 0.524908
77 1 0.907242 0.269301 0.474813
104 1 0.515015 0.535029 0.35325
8 1 0.9937 0.808883 0.394854
35 1 0.952396 0.840647 0.578584
62 1 0.11514 0.621108 0.419284
89 1 0.155556 0.816863 0.284093
17 1 0.306724 0.673014 0.390205
44 1 0.284245 0.829267 0.484708
71 1 0.403164 0.958448 0.498026
98 1 0.570421 0.953047 0.308323
26 1 0.559371 0.726206 0.23492
53 1 0.619775 0.910963 0.648992
80 1 0.823482 0.709002 0.446001
107 1 0.842041 0.951864 0.438189
3 1 0.977591 0.0653455 0.580192
30 1 0.938865 0.145475 0.859977
57 1 0.135118 0.954785 0.697738
84 1 0.191229 0.111868 0.581909
12 1 0.304826 0.970336 0.634558
39 1 0.266855 0.0971723 0.762911
66 1 0.423179 0.1225 0.900322
93 1 0.478501 0.0332849 0.702922
21 1 0.777374 0.0417525 0.765679
48 1 0.604252 0.114904 0.842502
75 1 0.841281 0.973087 0.93495
102 1 0.867208 0.225258 0.662134
6 1 0.093687 0.360188 0.659181
33 1 0.963973 0.521406 0.713284
60 1 0.073991 0.42324 0.951457
87 1 0.125731 0.571493 0.620195
15 1 0.469607 0.241916 0.730814
42 1 0.103143 0.261065 0.816325
69 1 0.609753 0.35565 0.866171
96 1 0.606027 0.378218 0.674658
24 1 0.80079 0.400326 0.686564
51 1 0.776075 0.580822 0.76995
78 1 0.970921 0.332534 0.776984
105 1 0.803362 0.558059 0.575072
9 1 0.979945 0.646007 0.560276
36 1 0.940072 0.942474 0.769392
63 1 0.12263 0.793658 0.580518
90 1 0.0929877 0.93489 0.44159
18 1 0.267659 0.668607 0.612996
45 1 0.244776 0.821377 0.720325
72 1 0.663593 0.743396 0.783397
99 1 0.445141 0.801664 0.634517
27 1 0.783991 0.740379 0.631664
54 1 0.725582 0.838369 0.938081
81 1 0.876801 0.756694 0.806121
108 1 0.774635 0.873936 0.760813
ITEM: TIMESTEP
70
ITEM: NUMBER OF ATOMS
108
ITEM: BOX BOUNDS pp pp pp
0.0000000000000000e+00 1.2649858474700000e+01
0.0000000000000000e+00 1.2649858474700000e+01
0.0000000000000000e+00 1.2649858474700000e+01
ITEM: ATOMS id type xs ys zs
1 1 0.877492 0.917469 0.128557
28 1 -0.00761104 0.0837619 0.154929
55 1 0.959662 0.746759 0.188178
82 1 -0.00123689 0.238702 0.0310016
10 1 0.513761 0.960811 0.172729
37 1 0.387475 0.196547 0.242842
64 1 0.592521 0.124526 0.141224
91 1 0.634102 0.210611 -0.00319979
19 1 0.606327 0.0242338 1.00207
46 1 0.690086 0.969452 0.193054
73 1 0.841399 0.122302 0.263741
100 1 0.797187 0.115861 0.092258
4 1 0.962534 0.25838 0.251837
31 1 0.830338 0.303364 1.00429
58 1 0.151409 0.1947 0.234869
85 1 0.0889247 0.372872 0.145877
13 1 0.467863 0.250931 0.0872304
40 1 0.257768 0.510057 0.102371
67 1 0.390815 0.406405 0.240903
94 1 0.4655 0.468268 0.0760118
22 1 0.568397 0.313044 0.252976
49 1 0.604979 0.596311 0.13011
76 1 0.751634 0.252543 0.83312
103 1 0.791713 0.462594 0.920599
7 1 0.944583 0.550962 0.891764
34 1 0.803048 0.831224 0.285657
61 1 0.163835 0.637172 0.211712
88 1 0.014036 0.733351 0.703041
16 1 0.362621 0.795065 0.1682
43 1 0.402276 0.896171 0.30965
70 1 0.407029 0.621478 0.998533
97 1 0.551094 0.84133 0.99732
25 1 0.667941 0.643365 0.996362
52 1 0.716521 0.7539 0.138373
79 1 0.841069 0.652893 1.0096
106 1 0.00256423 0.841708 0.948117
2 1 0.986875 0.945986 0.298722
29 1 0.0618183 0.236995 0.55082
56 1 0.246664 0.0519735 0.325481
83 1 0.213305 0.210476 0.424089
11 1 0.475915 0.113403 0.380898
38 1 0.335926 0.147092 0.567371
65 1 0.652759 0.0613536 0.525419
92 1 0.558823 0.397862 0.448472
20 1 0.690754 0.139371 0.374383
47 1 0.693451 0.177657 0.674364
74 1 0.827365 0.920838 0.613361
101 1 1.02094 0.125194 0.418497
5 1 0.082979 0.334346 0.355418
32 1 -0.0119594 0.416693 0.51159
59 1 0.187677 0.393718 0.488691
86 1 0.244248 0.476131 0.314104
14 1 0.404307 0.29175 0.411251
41 1 0.391584 0.47725 0.458828
68 1 0.516353 0.195551 0.545741
95 1 0.398241 0.596699 0.20548
23 1 0.825504 0.106044 0.536578
50 1 0.698178 0.27208 0.505733
77 1 0.875452 0.244715 0.406179
104 1 0.54193 0.50318 0.26083
8 1 1.00883 0.757303 0.366306
35 1 0.992672 0.823843 0.551014
62 1 0.149273 0.579643 0.407364
89 1 0.15094 0.87787 0.296801
17 1 0.31196 0.724433 0.353146
44 1 0.281966 0.891457 0.467058
71 1 0.485743 0.968236 0.513782
98 1 0.595621 0.909183 0.356404
26 1 0.511609 0.758555 0.187944
53 1 0.618978 0.892805 0.622339
80 1 0.829105 0.794934 0.466677
107 1 0.875774 0.963756 0.410054
3 1 0.974007 0.0682483 0.637025
30 1 0.886726 0.166543 0.852187
57 1 0.0998431 0.916742 0.658955
84 1 0.175434 0.0599645 0.540418
12 1 0.291946 0.968829 0.641222
39 1 0.267209 0.124814 0.741646
66 1 0.412164 0.118872 0.9093
93 1 0.465914 0.0252773 0.710358
21 1 0.789368 0.0654857 0.751542
48 1 0.609826 0.105878 0.842835
75 1 0.858286 0.97762 0.935898
102 1 0.903114 0.249557 0.643509
6 1 0.167322 0.372097 0.704463
33 1 0.981262 0.523234 0.670044
60 1 0.0063448 0.374183 0.936435
87 1 0.14864 0.543474 0.567513
15 1 0.502671 0.223282 0.743191
42 1 0.102546 0.177058 0.811756
69 1 0.643209 0.37803 0.871101
96 1 0.618125 0.373346 0.676454
24 1 0.796641 0.420486 0.667359
51 1 0.818668 0.602069 0.74808
78 1 0.901409 0.348811 0.821503
105 1 0.8102 0.576753 0.564862
9 1 0.978199 0.647109 0.529423
36 1 1.01098 1.00631 0.808809
63 1 0.143385 0.747975 0.453923
90 1 0.0935641 0.930666 0.470825
18 1 0.307835 0.663675 0.539128
45 1 0.217604 0.785992 0.696198
72 1 0.651078 0.688325 0.808331
99 1 0.414678 0.838586 0.619765
27 1 0.795224 0.752372 0.665385
54 1 0.715601 0.838573 0.967147
81 1 0.877208 0.766182 0.851035
108 1 0.732558 0.896088 0.795285
ITEM: TIMESTEP
80
ITEM: NUMBER OF ATOMS
108
ITEM: BOX BOUNDS pp pp pp
0.0000000000000000e+00 1.2649858474700000e+01
0.0000000000000000e+00 1.2649858474700000e+01
0.0000000000000000e+00 1.2649858474700000e+01
ITEM: ATOMS id type xs ys zs
1 1 0.84486 0.944754 0.111942
28 1 0.985977 0.0484059 0.147465
55 1 0.97382 0.770098 0.14486
82 1 0.987728 0.190391 0.0726007
10 1 0.492696 0.989062 0.179594
37 1 0.341996 0.174645 0.256397
64 1 0.613467 0.137609 0.188918
91 1 0.629403 0.210361 0.954721
19 1 0.683849 -0.0095308 0.0111491
46 1 0.688292 0.9612 0.200397
73 1 0.853033 0.0431214 0.289019
100 1 0.806383 0.104493 0.0619104
4 1 0.946305 0.225596 0.24092
31 1 0.803181 0.284665 0.0181435
58 1 0.159385 0.180437 0.24069
85 1 0.0876669 0.3958 0.163533
13 1 0.470442 0.258893 0.0800764
40 1 0.254263 0.473321 0.123771
67 1 0.377185 0.337246 0.221344
94 1 0.476977 0.460191 0.0855117
22 1 0.527652 0.265457 0.31143
49 1 0.529919 0.645294 0.132951
76 1 0.700227 0.278071 0.804558
103 1 0.773519 0.499623 0.930934
7 1 0.992969 0.54253 0.861925