 254 254   0   0
  0.3019211E+02  0.1718057E-08  0.1718057E-08  0.3000000E-08  0.5000000E-15
   1.0000000000000000E-004
  CAR 
 NiAl                                    
      5.08207483    -17.92877420  301      1.67587597      1.00000000
    -17.929  0.0000E+00  0.0000E+00
    -17.852  0.0000E+00  0.0000E+00
    -17.775  0.0000E+00  0.0000E+00
    -17.699  0.0000E+00  0.0000E+00
    -17.622  0.0000E+00  0.0000E+00
    -17.545  0.0000E+00  0.0000E+00
    -17.469  0.0000E+00  0.0000E+00
    -17.392  0.0000E+00  0.0000E+00
    -17.315  0.0000E+00  0.0000E+00
    -17.238  0.0000E+00  0.0000E+00
    -17.162  0.3800E-13  0.2914E-14
    -17.085  0.1344E-06  0.1031E-07
    -17.008  0.4908E-02  0.3765E-03
    -16.932  0.2154E+01  0.1656E+00
    -16.855  0.1826E+02  0.1566E+01
    -16.778  0.5613E+01  0.1997E+01
    -16.702  0.4111E-01  0.2000E+01
    -16.625  0.3945E-05  0.2000E+01
    -16.548  0.4002E-11  0.2000E+01
    -16.471  0.0000E+00  0.2000E+01
    -16.395  0.0000E+00  0.2000E+01
    -16.318  0.0000E+00  0.2000E+01
    -16.241  0.0000E+00  0.2000E+01
    -16.165  0.0000E+00  0.2000E+01
    -16.088  0.0000E+00  0.2000E+01
    -16.011  0.0000E+00  0.2000E+01
    -15.935  0.0000E+00  0.2000E+01
    -15.858  0.0000E+00  0.2000E+01
    -15.781  0.0000E+00  0.2000E+01
    -15.704  0.0000E+00  0.2000E+01
    -15.628  0.0000E+00  0.2000E+01
    -15.551  0.0000E+00  0.2000E+01
    -15.474  0.0000E+00  0.2000E+01
    -15.398  0.0000E+00  0.2000E+01
    -15.321  0.0000E+00  0.2000E+01
    -15.244  0.0000E+00  0.2000E+01
    -15.167  0.0000E+00  0.2000E+01
    -15.091  0.0000E+00  0.2000E+01
    -15.014  0.0000E+00  0.2000E+01
    -14.937  0.0000E+00  0.2000E+01
    -14.861  0.0000E+00  0.2000E+01
    -14.784  0.0000E+00  0.2000E+01
    -14.707  0.0000E+00  0.2000E+01
    -14.631  0.0000E+00  0.2000E+01
    -14.554  0.0000E+00  0.2000E+01
    -14.477  0.0000E+00  0.2000E+01
    -14.400  0.0000E+00  0.2000E+01
    -14.324  0.0000E+00  0.2000E+01
    -14.247  0.0000E+00  0.2000E+01
    -14.170  0.0000E+00  0.2000E+01
    -14.094  0.0000E+00  0.2000E+01
    -14.017  0.0000E+00  0.2000E+01
    -13.940  0.0000E+00  0.2000E+01
    -13.864  0.0000E+00  0.2000E+01
    -13.787  0.0000E+00  0.2000E+01
    -13.710  0.0000E+00  0.2000E+01
    -13.633  0.0000E+00  0.2000E+01
    -13.557  0.0000E+00  0.2000E+01
    -13.480  0.0000E+00  0.2000E+01
    -13.403  0.0000E+00  0.2000E+01
    -13.327  0.0000E+00  0.2000E+01
    -13.250  0.0000E+00  0.2000E+01
    -13.173  0.0000E+00  0.2000E+01
    -13.096  0.6467E-09  0.2000E+01
    -13.020  0.1394E-03  0.2000E+01
    -12.943  0.3328E+00  0.2026E+01
    -12.866  0.1204E+02  0.2949E+01
    -12.790  0.1324E+02  0.3965E+01
    -12.713  0.4589E+00  0.4000E+01
    -12.636  0.2489E-03  0.4000E+01
    -12.560  0.1510E-08  0.4000E+01
    -12.483  0.0000E+00  0.4000E+01
    -12.406  0.0000E+00  0.4000E+01
    -12.329  0.0000E+00  0.4000E+01
    -12.253  0.0000E+00  0.4000E+01
    -12.176  0.0000E+00  0.4000E+01
    -12.099  0.0000E+00  0.4000E+01
    -12.023  0.0000E+00  0.4000E+01
    -11.946  0.0000E+00  0.4000E+01
    -11.869  0.0000E+00  0.4000E+01
    -11.793  0.0000E+00  0.4000E+01
    -11.716  0.0000E+00  0.4000E+01
    -11.639  0.0000E+00  0.4000E+01
    -11.562  0.0000E+00  0.4000E+01
    -11.486  0.0000E+00  0.4000E+01
    -11.409  0.0000E+00  0.4000E+01
    -11.332  0.0000E+00  0.4000E+01
    -11.256  0.0000E+00  0.4000E+01
    -11.179  0.0000E+00  0.4000E+01
    -11.102  0.0000E+00  0.4000E+01
    -11.026  0.0000E+00  0.4000E+01
    -10.949  0.0000E+00  0.4000E+01
    -10.872  0.0000E+00  0.4000E+01
    -10.795  0.0000E+00  0.4000E+01
    -10.719  0.0000E+00  0.4000E+01
    -10.642  0.0000E+00  0.4000E+01
    -10.565  0.0000E+00  0.4000E+01
    -10.489  0.0000E+00  0.4000E+01
    -10.412  0.0000E+00  0.4000E+01
    -10.335  0.0000E+00  0.4000E+01
    -10.258  0.0000E+00  0.4000E+01
    -10.182  0.0000E+00  0.4000E+01
    -10.105  0.0000E+00  0.4000E+01
    -10.028  0.0000E+00  0.4000E+01
     -9.952  0.0000E+00  0.4000E+01
     -9.875  0.0000E+00  0.4000E+01
     -9.798  0.0000E+00  0.4000E+01
     -9.722  0.0000E+00  0.4000E+01
     -9.645  0.0000E+00  0.4000E+01
     -9.568  0.0000E+00  0.4000E+01
     -9.491  0.7625E-11  0.4000E+01
     -9.415  0.4166E-05  0.4000E+01
     -9.338  0.2445E-01  0.4002E+01
     -9.261  0.1977E+01  0.4154E+01
     -9.185  0.4249E+01  0.4479E+01
     -9.108  0.7617E+01  0.5064E+01
     -9.031  0.2787E+02  0.7201E+01
     -8.955  0.4088E+01  0.7515E+01
     -8.878  0.3855E+01  0.7810E+01
     -8.801  0.4932E+01  0.8189E+01
     -8.724  0.4364E+02  0.1154E+02
     -8.648  0.3219E+02  0.1401E+02
     -8.571  0.2215E+02  0.1570E+02
     -8.494  0.1658E+02  0.1698E+02
     -8.418  0.8715E+01  0.1764E+02
     -8.341  0.2746E+02  0.1975E+02
     -8.264  0.9393E+01  0.2047E+02
     -8.188  0.3296E+02  0.2300E+02
     -8.111  0.2520E+02  0.2493E+02
     -8.034  0.8380E+02  0.3136E+02
     -7.957  0.1482E+02  0.3250E+02
     -7.881  0.6627E-01  0.3250E+02
     -7.804  0.4422E+01  0.3284E+02
     -7.727  0.8584E+02  0.3942E+02
     -7.651  0.6499E+02  0.4441E+02
     -7.574  0.1902E+02  0.4587E+02
     -7.497  0.2064E+02  0.4745E+02
     -7.420  0.1286E+02  0.4844E+02
     -7.344  0.3087E+02  0.5080E+02
     -7.267  0.2579E+02  0.5278E+02
     -7.190  0.5101E+02  0.5670E+02
     -7.114  0.3344E+02  0.5926E+02
     -7.037  0.1103E+03  0.6772E+02
     -6.960  0.2219E+02  0.6943E+02
     -6.884  0.5337E+02  0.7352E+02
     -6.807  0.2483E+02  0.7542E+02
     -6.730  0.9472E+02  0.8269E+02
     -6.653  0.5728E+02  0.8708E+02
     -6.577  0.2652E+02  0.8912E+02
     -6.500  0.1137E+02  0.8999E+02
     -6.423  0.5818E+00  0.9003E+02
     -6.347  0.5139E+01  0.9043E+02
     -6.270  0.5238E+02  0.9445E+02
     -6.193  0.1239E+03  0.1039E+03
     -6.117  0.6691E+02  0.1091E+03
     -6.040  0.1012E+03  0.1168E+03
     -5.963  0.1531E+02  0.1180E+03
     -5.886  0.4419E+02  0.1214E+03
     -5.810  0.4652E+02  0.1250E+03
     -5.733  0.1223E+03  0.1344E+03
     -5.656  0.5426E+02  0.1385E+03
     -5.580  0.2812E+02  0.1407E+03
     -5.503  0.1379E+02  0.1417E+03
     -5.426  0.6616E+02  0.1468E+03
     -5.350  0.4870E+02  0.1505E+03
     -5.273  0.4910E+02  0.1543E+03
     -5.196  0.9214E+02  0.1614E+03
     -5.119  0.7159E+02  0.1669E+03
     -5.043  0.6318E+02  0.1717E+03
     -4.966  0.6601E+01  0.1722E+03
     -4.889  0.4828E+02  0.1759E+03
     -4.813  0.7986E+02  0.1820E+03
     -4.736  0.1307E+03  0.1921E+03
     -4.659  0.3693E+02  0.1949E+03
     -4.582  0.6756E+02  0.2001E+03
     -4.506  0.2835E+02  0.2023E+03
     -4.429  0.5563E+02  0.2065E+03
     -4.352  0.6750E+02  0.2117E+03
     -4.276  0.1318E+03  0.2218E+03
     -4.199  0.1006E+03  0.2295E+03
     -4.122  0.8755E+02  0.2362E+03
     -4.046  0.2582E+02  0.2382E+03
     -3.969  0.5929E+02  0.2428E+03
     -3.892  0.8504E+02  0.2493E+03
     -3.815  0.7556E+02  0.2551E+03
     -3.739  0.8270E+02  0.2614E+03
     -3.662  0.4812E+02  0.2651E+03
     -3.585  0.6641E+02  0.2702E+03
     -3.509  0.1601E+02  0.2714E+03
     -3.432  0.6605E+01  0.2720E+03
     -3.355  0.6485E+02  0.2769E+03
     -3.279  0.9520E+02  0.2842E+03
     -3.202  0.8677E+02  0.2909E+03
     -3.125  0.1160E+03  0.2998E+03
     -3.048  0.7061E+02  0.3052E+03
     -2.972  0.1378E+03  0.3158E+03
     -2.895  0.1600E+03  0.3280E+03
     -2.818  0.1797E+03  0.3418E+03
     -2.742  0.2169E+02  0.3435E+03
     -2.665  0.2186E+00  0.3435E+03
     -2.588  0.1283E+02  0.3445E+03
     -2.512  0.5668E+02  0.3488E+03
     -2.435  0.1016E+03  0.3566E+03
     -2.358  0.1609E+03  0.3690E+03
     -2.281  0.5767E+02  0.3734E+03
     -2.205  0.1110E+03  0.3819E+03
     -2.128  0.4260E+02  0.3852E+03
     -2.051  0.5453E+02  0.3894E+03
     -1.975  0.1025E+03  0.3972E+03
     -1.898  0.1464E+03  0.4085E+03
     -1.821  0.1180E+03  0.4175E+03
     -1.744  0.2206E+02  0.4192E+03
     -1.668  0.6954E+02  0.4245E+03
     -1.591  0.8408E+02  0.4310E+03
     -1.514  0.4702E+02  0.4346E+03
     -1.438  0.2000E+03  0.4499E+03
     -1.361  0.1080E+03  0.4582E+03
     -1.284  0.1195E+03  0.4674E+03
     -1.208  0.7512E+02  0.4731E+03
     -1.131  0.7287E+02  0.4787E+03
     -1.054  0.7052E+02  0.4841E+03
     -0.977  0.1346E+03  0.4945E+03
     -0.901  0.1103E+03  0.5029E+03
     -0.824  0.7694E+02  0.5088E+03
     -0.747  0.8024E+02  0.5150E+03
     -0.671  0.4371E+02  0.5183E+03
     -0.594  0.1123E+03  0.5270E+03
     -0.517  0.2313E+03  0.5447E+03
     -0.441  0.9618E+02  0.5521E+03
     -0.364  0.1195E+03  0.5612E+03
     -0.287  0.1185E+03  0.5703E+03
     -0.210  0.4026E+02  0.5734E+03
     -0.134  0.2909E+02  0.5756E+03
     -0.057  0.8577E+02  0.5822E+03
      0.020  0.1075E+03  0.5905E+03
      0.096  0.8251E+02  0.5968E+03
      0.173  0.9224E+02  0.6039E+03
      0.250  0.7388E+02  0.6095E+03
      0.326  0.8475E+02  0.6160E+03
      0.403  0.1598E+03  0.6283E+03
      0.480  0.7742E+02  0.6342E+03
      0.557  0.6876E+02  0.6395E+03
      0.633  0.3032E+02  0.6418E+03
      0.710  0.5465E+02  0.6460E+03
      0.787  0.7080E+02  0.6515E+03
      0.863  0.2391E+03  0.6698E+03
      0.940  0.2106E+03  0.6860E+03
      1.017  0.1135E+03  0.6947E+03
      1.094  0.7822E+02  0.7007E+03
      1.170  0.7388E+02  0.7063E+03
      1.247  0.6368E+02  0.7112E+03
      1.324  0.8882E+02  0.7180E+03
      1.400  0.1068E+03  0.7262E+03
      1.477  0.1559E+03  0.7382E+03
      1.554  0.1923E+03  0.7529E+03
      1.630  0.1364E+03  0.7634E+03
      1.707  0.8640E+02  0.7700E+03
      1.784  0.3633E+02  0.7728E+03
      1.861  0.1611E+03  0.7852E+03
      1.937  0.1567E+03  0.7972E+03
      2.014  0.7109E+02  0.8026E+03
      2.091  0.7010E+02  0.8080E+03
      2.167  0.7310E+02  0.8136E+03
      2.244  0.4695E+02  0.8172E+03
      2.321  0.1301E+03  0.8272E+03
      2.397  0.8802E+02  0.8339E+03
      2.474  0.1104E+03  0.8424E+03
      2.551  0.1436E+03  0.8534E+03
      2.628  0.5553E+02  0.8577E+03
      2.704  0.7724E+02  0.8636E+03
      2.781  0.1532E+03  0.8754E+03
      2.858  0.3313E+03  0.9008E+03
      2.934  0.1867E+03  0.9151E+03
      3.011  0.5311E+02  0.9192E+03
      3.088  0.5698E+02  0.9235E+03
      3.165  0.1035E+03  0.9315E+03
      3.241  0.1226E+03  0.9409E+03
      3.318  0.1657E+03  0.9536E+03
      3.395  0.1182E+03  0.9627E+03
      3.471  0.6995E+02  0.9680E+03
      3.548  0.9040E+02  0.9750E+03
      3.625  0.1073E+03  0.9832E+03
      3.701  0.7125E+02  0.9887E+03
      3.778  0.8300E+02  0.9950E+03
      3.855  0.1714E+03  0.1008E+04
      3.932  0.1447E+03  0.1019E+04
      4.008  0.5120E+02  0.1023E+04
      4.085  0.9770E+01  0.1024E+04
      4.162  0.8400E+00  0.1024E+04
      4.238  0.1623E-02  0.1024E+04
      4.315  0.4013E-07  0.1024E+04
      4.392  0.1086E-13  0.1024E+04
      4.468  0.0000E+00  0.1024E+04
      4.545  0.0000E+00  0.1024E+04
      4.622  0.0000E+00  0.1024E+04
      4.699  0.0000E+00  0.1024E+04
      4.775  0.0000E+00  0.1024E+04
      4.852  0.0000E+00  0.1024E+04
      4.929  0.0000E+00  0.1024E+04
      5.005  0.0000E+00  0.1024E+04
      5.082  0.0000E+00  0.1024E+04
