 251 251   0   0
  0.1214592E+02  0.1450000E-08  0.1450000E-08  0.1450000E-08  0.2000000E-15
   1.0000000000000000E-004
  CAR 
 NiAl                                    
     12.18339253    -15.23111693  301      6.82077043      1.00000000
    -15.231  0.0000E+00  0.0000E+00
    -15.140  0.0000E+00  0.0000E+00
    -15.048  0.0000E+00  0.0000E+00
    -14.957  0.0000E+00  0.0000E+00
    -14.866  0.0000E+00  0.0000E+00
    -14.774  0.0000E+00  0.0000E+00
    -14.683  0.0000E+00  0.0000E+00
    -14.591  0.0000E+00  0.0000E+00
    -14.500  0.0000E+00  0.0000E+00
    -14.409  0.0000E+00  0.0000E+00
    -14.317  0.0000E+00  0.0000E+00
    -14.226  0.2557E-11  0.2336E-12
    -14.135  0.6349E-05  0.5802E-06
    -14.043  0.2724E-01  0.2489E-02
    -13.952  0.4246E+00  0.4129E-01
    -13.860  0.9519E-01  0.4999E-01
    -13.769  0.1170E-03  0.5000E-01
    -13.678  0.2776E-09  0.5000E-01
    -13.586  0.0000E+00  0.5000E-01
    -13.495  0.0000E+00  0.5000E-01
    -13.403  0.0000E+00  0.5000E-01
    -13.312  0.0000E+00  0.5000E-01
    -13.221  0.0000E+00  0.5000E-01
    -13.129  0.0000E+00  0.5000E-01
    -13.038  0.0000E+00  0.5000E-01
    -12.947  0.0000E+00  0.5000E-01
    -12.855  0.0000E+00  0.5000E-01
    -12.764  0.0000E+00  0.5000E-01
    -12.672  0.0000E+00  0.5000E-01
    -12.581  0.0000E+00  0.5000E-01
    -12.490  0.0000E+00  0.5000E-01
    -12.398  0.0000E+00  0.5000E-01
    -12.307  0.0000E+00  0.5000E-01
    -12.216  0.0000E+00  0.5000E-01
    -12.124  0.0000E+00  0.5000E-01
    -12.033  0.0000E+00  0.5000E-01
    -11.941  0.0000E+00  0.5000E-01
    -11.850  0.0000E+00  0.5000E-01
    -11.759  0.0000E+00  0.5000E-01
    -11.667  0.0000E+00  0.5000E-01
    -11.576  0.0000E+00  0.5000E-01
    -11.484  0.0000E+00  0.5000E-01
    -11.393  0.0000E+00  0.5000E-01
    -11.302  0.0000E+00  0.5000E-01
    -11.210  0.0000E+00  0.5000E-01
    -11.119  0.0000E+00  0.5000E-01
    -11.028  0.0000E+00  0.5000E-01
    -10.936  0.0000E+00  0.5000E-01
    -10.845  0.0000E+00  0.5000E-01
    -10.753  0.0000E+00  0.5000E-01
    -10.662  0.0000E+00  0.5000E-01
    -10.571  0.0000E+00  0.5000E-01
    -10.479  0.0000E+00  0.5000E-01
    -10.388  0.0000E+00  0.5000E-01
    -10.297  0.0000E+00  0.5000E-01
    -10.205  0.0000E+00  0.5000E-01
    -10.114  0.0000E+00  0.5000E-01
    -10.022  0.0000E+00  0.5000E-01
     -9.931  0.0000E+00  0.5000E-01
     -9.840  0.0000E+00  0.5000E-01
     -9.748  0.0000E+00  0.5000E-01
     -9.657  0.0000E+00  0.5000E-01
     -9.565  0.0000E+00  0.5000E-01
     -9.474  0.0000E+00  0.5000E-01
     -9.383  0.0000E+00  0.5000E-01
     -9.291  0.0000E+00  0.5000E-01
     -9.200  0.0000E+00  0.5000E-01
     -9.109  0.0000E+00  0.5000E-01
     -9.017  0.0000E+00  0.5000E-01
     -8.926  0.0000E+00  0.5000E-01
     -8.834  0.0000E+00  0.5000E-01
     -8.743  0.0000E+00  0.5000E-01
     -8.652  0.0000E+00  0.5000E-01
     -8.560  0.0000E+00  0.5000E-01
     -8.469  0.0000E+00  0.5000E-01
     -8.377  0.0000E+00  0.5000E-01
     -8.286  0.0000E+00  0.5000E-01
     -8.195  0.0000E+00  0.5000E-01
     -8.103  0.0000E+00  0.5000E-01
     -8.012  0.0000E+00  0.5000E-01
     -7.921  0.0000E+00  0.5000E-01
     -7.829  0.0000E+00  0.5000E-01
     -7.738  0.0000E+00  0.5000E-01
     -7.646  0.0000E+00  0.5000E-01
     -7.555  0.0000E+00  0.5000E-01
     -7.464  0.0000E+00  0.5000E-01
     -7.372  0.0000E+00  0.5000E-01
     -7.281  0.0000E+00  0.5000E-01
     -7.190  0.0000E+00  0.5000E-01
     -7.098  0.0000E+00  0.5000E-01
     -7.007  0.0000E+00  0.5000E-01
     -6.915  0.0000E+00  0.5000E-01
     -6.824  0.0000E+00  0.5000E-01
     -6.733  0.0000E+00  0.5000E-01
     -6.641  0.0000E+00  0.5000E-01
     -6.550  0.0000E+00  0.5000E-01
     -6.458  0.0000E+00  0.5000E-01
     -6.367  0.0000E+00  0.5000E-01
     -6.276  0.0000E+00  0.5000E-01
     -6.184  0.0000E+00  0.5000E-01
     -6.093  0.0000E+00  0.5000E-01
     -6.002  0.0000E+00  0.5000E-01
     -5.910  0.0000E+00  0.5000E-01
     -5.819  0.0000E+00  0.5000E-01
     -5.727  0.0000E+00  0.5000E-01
     -5.636  0.0000E+00  0.5000E-01
     -5.545  0.0000E+00  0.5000E-01
     -5.453  0.0000E+00  0.5000E-01
     -5.362  0.0000E+00  0.5000E-01
     -5.271  0.0000E+00  0.5000E-01
     -5.179  0.0000E+00  0.5000E-01
     -5.088  0.0000E+00  0.5000E-01
     -4.996  0.0000E+00  0.5000E-01
     -4.905  0.0000E+00  0.5000E-01
     -4.814  0.0000E+00  0.5000E-01
     -4.722  0.0000E+00  0.5000E-01
     -4.631  0.0000E+00  0.5000E-01
     -4.539  0.0000E+00  0.5000E-01
     -4.448  0.1056E-12  0.5000E-01
     -4.357  0.3895E-06  0.5000E-01
     -4.265  0.2434E-02  0.5022E-01
     -4.174  0.5110E-01  0.5489E-01
     -4.083  0.4465E-01  0.5897E-01
     -3.991  0.2853E+00  0.8504E-01
     -3.900  0.1878E+00  0.1022E+00
     -3.808  0.5345E+00  0.1510E+00
     -3.717  0.2745E+00  0.1761E+00
     -3.626  0.3708E+00  0.2100E+00
     -3.534  0.1260E+00  0.2215E+00
     -3.443  0.3095E+00  0.2498E+00
     -3.351  0.4651E+00  0.2923E+00
     -3.260  0.1024E+01  0.3859E+00
     -3.169  0.6628E+00  0.4465E+00
     -3.077  0.9720E+00  0.5353E+00
     -2.986  0.1785E+00  0.5516E+00
     -2.895  0.1031E+00  0.5610E+00
     -2.803  0.3232E+00  0.5906E+00
     -2.712  0.5469E+00  0.6405E+00
     -2.620  0.1031E+01  0.7348E+00
     -2.529  0.9299E+00  0.8198E+00
     -2.438  0.9611E+00  0.9076E+00
     -2.346  0.6628E+00  0.9682E+00
     -2.255  0.1288E+01  0.1086E+01
     -2.164  0.5237E+00  0.1134E+01
     -2.072  0.5220E+00  0.1181E+01
     -1.981  0.3639E+00  0.1215E+01
     -1.889  0.1042E+01  0.1310E+01
     -1.798  0.1217E+01  0.1421E+01
     -1.707  0.2093E+01  0.1612E+01
     -1.615  0.1627E+00  0.1627E+01
     -1.524  0.2292E+00  0.1648E+01
     -1.432  0.2858E+00  0.1674E+01
     -1.341  0.6100E+00  0.1730E+01
     -1.250  0.2063E+01  0.1919E+01
     -1.158  0.9836E+00  0.2009E+01
     -1.067  0.1724E+01  0.2166E+01
     -0.976  0.1076E+01  0.2264E+01
     -0.884  0.1163E+01  0.2371E+01
     -0.793  0.9246E+00  0.2455E+01
     -0.701  0.9796E+00  0.2545E+01
     -0.610  0.2251E+01  0.2750E+01
     -0.519  0.1209E+01  0.2861E+01
     -0.427  0.7882E+00  0.2933E+01
     -0.336  0.5897E+00  0.2987E+01
     -0.245  0.3597E+00  0.3020E+01
     -0.153  0.1417E+01  0.3149E+01
     -0.062  0.1140E+01  0.3253E+01
      0.030  0.1249E+01  0.3367E+01
      0.121  0.2938E+01  0.3636E+01
      0.212  0.1717E+01  0.3793E+01
      0.304  0.1177E+01  0.3900E+01
      0.395  0.9362E+00  0.3986E+01
      0.487  0.3018E+01  0.4262E+01
      0.578  0.2123E+01  0.4456E+01
      0.669  0.8881E+00  0.4537E+01
      0.761  0.6364E+00  0.4595E+01
      0.852  0.1832E+01  0.4762E+01
      0.943  0.2438E+01  0.4985E+01
      1.035  0.2620E+01  0.5225E+01
      1.126  0.1827E+01  0.5392E+01
      1.218  0.1079E+01  0.5490E+01
      1.309  0.2361E+01  0.5706E+01
      1.400  0.1539E+01  0.5847E+01
      1.492  0.1772E+01  0.6009E+01
      1.583  0.8725E+00  0.6088E+01
      1.674  0.1994E+01  0.6271E+01
      1.766  0.4603E+01  0.6691E+01
      1.857  0.3038E+01  0.6969E+01
      1.949  0.8053E+00  0.7042E+01
      2.040  0.1371E+01  0.7168E+01
      2.131  0.2732E+01  0.7417E+01
      2.223  0.3716E+01  0.7757E+01
      2.314  0.1270E+01  0.7873E+01
      2.406  0.9142E+00  0.7956E+01
      2.497  0.2162E+01  0.8154E+01
      2.588  0.2051E+01  0.8342E+01
      2.680  0.3658E+01  0.8676E+01
      2.771  0.1860E+01  0.8846E+01
      2.862  0.4043E+01  0.9215E+01
      2.954  0.7616E+01  0.9911E+01
      3.045  0.5353E+01  0.1040E+02
      3.137  0.5635E+01  0.1092E+02
      3.228  0.6234E+01  0.1148E+02
      3.319  0.4081E+01  0.1186E+02
      3.411  0.4540E+01  0.1227E+02
      3.502  0.5384E+01  0.1276E+02
      3.594  0.4969E+01  0.1322E+02
      3.685  0.8802E+01  0.1402E+02
      3.776  0.1200E+02  0.1512E+02
      3.868  0.8249E+01  0.1587E+02
      3.959  0.1149E+02  0.1692E+02
      4.050  0.7709E+01  0.1763E+02
      4.142  0.8037E+01  0.1836E+02
      4.233  0.5872E+01  0.1890E+02
      4.325  0.6261E+01  0.1947E+02
      4.416  0.7941E+01  0.2020E+02
      4.507  0.1319E+02  0.2140E+02
      4.599  0.1364E+02  0.2265E+02
      4.690  0.1098E+02  0.2365E+02
      4.781  0.1678E+02  0.2519E+02
      4.873  0.2692E+02  0.2765E+02
      4.964  0.2621E+02  0.3004E+02
      5.056  0.1903E+02  0.3178E+02
      5.147  0.1404E+02  0.3306E+02
      5.238  0.1378E+02  0.3432E+02
      5.330  0.1228E+02  0.3544E+02
      5.421  0.6345E+01  0.3602E+02
      5.513  0.4235E+01  0.3641E+02
      5.604  0.2792E+01  0.3667E+02
      5.695  0.1618E+01  0.3681E+02
      5.787  0.7968E+00  0.3689E+02
      5.878  0.3194E+01  0.3718E+02
      5.969  0.1673E+01  0.3733E+02
      6.061  0.2532E+01  0.3756E+02
      6.152  0.5039E+01  0.3802E+02
      6.244  0.6767E+01  0.3864E+02
      6.335  0.4217E+01  0.3903E+02
      6.426  0.5885E+01  0.3956E+02
      6.518  0.4707E+01  0.4000E+02
      6.609  0.3689E+01  0.4033E+02
      6.700  0.2803E+01  0.4059E+02
      6.792  0.1415E+01  0.4072E+02
      6.883  0.2378E+01  0.4093E+02
      6.975  0.2036E+01  0.4112E+02
      7.066  0.1941E+01  0.4130E+02
      7.157  0.2034E+01  0.4148E+02
      7.249  0.2205E+01  0.4169E+02
      7.340  0.2077E+01  0.4188E+02
      7.432  0.3535E+01  0.4220E+02
      7.523  0.2076E+01  0.4239E+02
      7.614  0.1328E+01  0.4251E+02
      7.706  0.1233E+01  0.4262E+02
      7.797  0.7446E+00  0.4269E+02
      7.888  0.1136E+01  0.4279E+02
      7.980  0.1282E+01  0.4291E+02
      8.071  0.6323E+00  0.4297E+02
      8.163  0.5888E+00  0.4302E+02
      8.254  0.3677E+00  0.4306E+02
      8.345  0.6174E+00  0.4311E+02
      8.437  0.4443E+00  0.4315E+02
      8.528  0.6538E+00  0.4321E+02
      8.620  0.1335E+01  0.4334E+02
      8.711  0.2292E+01  0.4354E+02
      8.802  0.4229E+01  0.4393E+02
      8.894  0.3378E+01  0.4424E+02
      8.985  0.2854E+01  0.4450E+02
      9.076  0.1348E+01  0.4462E+02
      9.168  0.3187E+01  0.4492E+02
      9.259  0.2462E+01  0.4514E+02
      9.351  0.1775E+01  0.4530E+02
      9.442  0.1338E+01  0.4542E+02
      9.533  0.2518E+01  0.4565E+02
      9.625  0.4864E+01  0.4610E+02
      9.716  0.2525E+01  0.4633E+02
      9.807  0.1771E+01  0.4649E+02
      9.899  0.4544E+01  0.4691E+02
      9.990  0.2579E+01  0.4714E+02
     10.082  0.9934E+00  0.4723E+02
     10.173  0.1013E+01  0.4733E+02
     10.264  0.3128E+01  0.4761E+02
     10.356  0.3297E+01  0.4791E+02
     10.447  0.1315E+01  0.4803E+02
     10.539  0.2070E+01  0.4822E+02
     10.630  0.2447E+01  0.4845E+02
     10.721  0.2355E+01  0.4866E+02
     10.813  0.1292E+01  0.4878E+02
     10.904  0.6280E+00  0.4884E+02
     10.995  0.6688E+00  0.4890E+02
     11.087  0.2212E-01  0.4890E+02
     11.178  0.3243E-05  0.4890E+02
     11.270  0.1000E-11  0.4890E+02
     11.361  0.0000E+00  0.4890E+02
     11.452  0.0000E+00  0.4890E+02
     11.544  0.0000E+00  0.4890E+02
     11.635  0.0000E+00  0.4890E+02
     11.726  0.0000E+00  0.4890E+02
     11.818  0.0000E+00  0.4890E+02
     11.909  0.0000E+00  0.4890E+02
     12.001  0.0000E+00  0.4890E+02
     12.092  0.0000E+00  0.4890E+02
     12.183  0.0000E+00  0.4890E+02
