<?xml version="1.0" encoding="ISO-8859-1"?>
<modeling>
 <generator>
  <i name="program" type="string">vasp </i>
  <i name="version" type="string">6.2.1  </i>
  <i name="subversion" type="string">16May21 (build Jun 16 2021 03:23:30) complex                          parallel </i>
  <i name="platform" type="string">LinuxPGI </i>
  <i name="date" type="string">2022 04 23 </i>
  <i name="time" type="string">22:41:49 </i>
 </generator>
 <incar>
  <i type="string" name="SYSTEM">NiAl</i>
  <i type="int" name="ISTART">     0</i>
  <i type="int" name="NELMIN">     6</i>
  <i type="int" name="IBRION">     2</i>
  <i name="EDIFF">      0.00000010</i>
  <i type="int" name="NSW">    40</i>
  <i type="int" name="ISIF">     1</i>
  <i name="ENCUT">    360.00000000</i>
  <i name="POTIM">      0.20000000</i>
  <i type="string" name="LREAL">Auto</i>
  <i type="logical" name="LPLANE"> T  </i>
  <i type="int" name="ISMEAR">     0</i>
  <i name="SIGMA">      0.05000000</i>
  <i type="logical" name="LWAVE"> F  </i>
  <i type="logical" name="LCHARG"> F  </i>
  <i type="int" name="IVDW">    12</i>
 </incar>
 <primitive_cell>
  <structure name="primitive_cell" >
   <crystal>
    <varray name="basis" >
     <v>      14.50000000       0.00000000       0.00000000 </v>
     <v>       0.00000000      14.50000000       0.00000000 </v>
     <v>       0.00000000       0.00000000      14.50000000 </v>
    </varray>
    <i name="volume">   3048.62500000 </i>
    <varray name="rec_basis" >
     <v>       0.06896552       0.00000000       0.00000000 </v>
     <v>       0.00000000       0.06896552       0.00000000 </v>
     <v>       0.00000000       0.00000000       0.06896552 </v>
    </varray>
   </crystal>
   <varray name="positions" >
    <v>       0.00000000       0.00000000       0.00000000 </v>
    <v>       0.00000000       0.00000000       0.20000000 </v>
    <v>       0.00000000       0.00000000       0.40000000 </v>
    <v>       0.00000000       0.00000000       0.60000000 </v>
    <v>       0.00000000       0.00000000       0.80000000 </v>
    <v>       0.00000000       0.20000000       0.00000000 </v>
    <v>       0.00000000       0.20000000       0.20000000 </v>
    <v>       0.00000000       0.20000000       0.40000000 </v>
    <v>       0.00000000       0.20000000       0.60000000 </v>
    <v>       0.00000000       0.20000000       0.80000000 </v>
    <v>       0.00000000       0.40000000       0.00000000 </v>
    <v>       0.00000000       0.40000000       0.20000000 </v>
    <v>       0.00000000       0.40000000       0.40000000 </v>
    <v>       0.00000000       0.40000000       0.60000000 </v>
    <v>       0.00000000       0.40000000       0.80000000 </v>
    <v>       0.00000000       0.60000000       0.00000000 </v>
    <v>       0.00000000       0.60000000       0.20000000 </v>
    <v>       0.00000000       0.60000000       0.40000000 </v>
    <v>       0.00000000       0.60000000       0.60000000 </v>
    <v>       0.00000000       0.60000000       0.80000000 </v>
    <v>       0.00000000       0.80000000       0.00000000 </v>
    <v>       0.00000000       0.80000000       0.20000000 </v>
    <v>       0.00000000       0.80000000       0.40000000 </v>
    <v>       0.00000000       0.80000000       0.60000000 </v>
    <v>       0.00000000       0.80000000       0.80000000 </v>
    <v>       0.20000000       0.00000000       0.00000000 </v>
    <v>       0.20000000       0.00000000       0.20000000 </v>
    <v>       0.20000000       0.00000000       0.40000000 </v>
    <v>       0.20000000       0.00000000       0.60000000 </v>
    <v>       0.20000000       0.00000000       0.80000000 </v>
    <v>       0.20000000       0.20000000       0.00000000 </v>
    <v>       0.20000000       0.20000000       0.20000000 </v>
    <v>       0.20000000       0.20000000       0.40000000 </v>
    <v>       0.20000000       0.20000000       0.60000000 </v>
    <v>       0.20000000       0.20000000       0.80000000 </v>
    <v>       0.20000000       0.40000000       0.00000000 </v>
    <v>       0.20000000       0.40000000       0.20000000 </v>
    <v>       0.20000000       0.40000000       0.40000000 </v>
    <v>       0.20000000       0.40000000       0.60000000 </v>
    <v>       0.20000000       0.40000000       0.80000000 </v>
    <v>       0.20000000       0.60000000       0.00000000 </v>
    <v>       0.20000000       0.60000000       0.20000000 </v>
    <v>       0.20000000       0.60000000       0.40000000 </v>
    <v>       0.20000000       0.60000000       0.60000000 </v>
    <v>       0.20000000       0.60000000       0.80000000 </v>
    <v>       0.20000000       0.80000000       0.00000000 </v>
    <v>       0.20000000       0.80000000       0.20000000 </v>
    <v>       0.20000000       0.80000000       0.40000000 </v>
    <v>       0.20000000       0.80000000       0.60000000 </v>
    <v>       0.20000000       0.80000000       0.80000000 </v>
    <v>       0.40000000       0.00000000       0.00000000 </v>
    <v>       0.40000000       0.00000000       0.20000000 </v>
    <v>       0.40000000       0.00000000       0.40000000 </v>
    <v>       0.40000000       0.00000000       0.60000000 </v>
    <v>       0.40000000       0.00000000       0.80000000 </v>
    <v>       0.40000000       0.20000000       0.00000000 </v>
    <v>       0.40000000       0.20000000       0.20000000 </v>
    <v>       0.40000000       0.20000000       0.40000000 </v>
    <v>       0.40000000       0.20000000       0.60000000 </v>
    <v>       0.40000000       0.20000000       0.80000000 </v>
    <v>       0.40000000       0.40000000       0.00000000 </v>
    <v>       0.40000000       0.40000000       0.20000000 </v>
    <v>       0.40000000       0.40000000       0.40000000 </v>
    <v>       0.40000000       0.40000000       0.60000000 </v>
    <v>       0.40000000       0.40000000       0.80000000 </v>
    <v>       0.40000000       0.60000000       0.00000000 </v>
    <v>       0.40000000       0.60000000       0.20000000 </v>
    <v>       0.40000000       0.60000000       0.40000000 </v>
    <v>       0.40000000       0.60000000       0.60000000 </v>
    <v>       0.40000000       0.60000000       0.80000000 </v>
    <v>       0.40000000       0.80000000       0.00000000 </v>
    <v>       0.40000000       0.80000000       0.20000000 </v>
    <v>       0.40000000       0.80000000       0.40000000 </v>
    <v>       0.40000000       0.80000000       0.60000000 </v>
    <v>       0.40000000       0.80000000       0.80000000 </v>
    <v>       0.60000000       0.00000000       0.00000000 </v>
    <v>       0.60000000       0.00000000       0.20000000 </v>
    <v>       0.60000000       0.00000000       0.40000000 </v>
    <v>       0.60000000       0.00000000       0.60000000 </v>
    <v>       0.60000000       0.00000000       0.80000000 </v>
    <v>       0.60000000       0.20000000       0.00000000 </v>
    <v>       0.60000000       0.20000000       0.20000000 </v>
    <v>       0.60000000       0.20000000       0.40000000 </v>
    <v>       0.60000000       0.20000000       0.60000000 </v>
    <v>       0.60000000       0.20000000       0.80000000 </v>
    <v>       0.60000000       0.40000000       0.00000000 </v>
    <v>       0.60000000       0.40000000       0.20000000 </v>
    <v>       0.60000000       0.40000000       0.40000000 </v>
    <v>       0.60000000       0.40000000       0.60000000 </v>
    <v>       0.60000000       0.40000000       0.80000000 </v>
    <v>       0.60000000       0.60000000       0.00000000 </v>
    <v>       0.60000000       0.60000000       0.20000000 </v>
    <v>       0.60000000       0.60000000       0.40000000 </v>
    <v>       0.60000000       0.60000000       0.60000000 </v>
    <v>       0.60000000       0.60000000       0.80000000 </v>
    <v>       0.60000000       0.80000000       0.00000000 </v>
    <v>       0.60000000       0.80000000       0.20000000 </v>
    <v>       0.60000000       0.80000000       0.40000000 </v>
    <v>       0.60000000       0.80000000       0.60000000 </v>
    <v>       0.60000000       0.80000000       0.80000000 </v>
    <v>       0.80000000       0.00000000       0.00000000 </v>
    <v>       0.80000000       0.00000000       0.20000000 </v>
    <v>       0.80000000       0.00000000       0.40000000 </v>
    <v>       0.80000000       0.00000000       0.60000000 </v>
    <v>       0.80000000       0.00000000       0.80000000 </v>
    <v>       0.80000000       0.20000000       0.00000000 </v>
    <v>       0.80000000       0.20000000       0.20000000 </v>
    <v>       0.80000000       0.20000000       0.40000000 </v>
    <v>       0.80000000       0.20000000       0.60000000 </v>
    <v>       0.80000000       0.20000000       0.80000000 </v>
    <v>       0.80000000       0.40000000       0.00000000 </v>
    <v>       0.80000000       0.40000000       0.20000000 </v>
    <v>       0.80000000       0.40000000       0.40000000 </v>
    <v>       0.80000000       0.40000000       0.60000000 </v>
    <v>       0.80000000       0.40000000       0.80000000 </v>
    <v>       0.80000000       0.60000000       0.00000000 </v>
    <v>       0.80000000       0.60000000       0.20000000 </v>
    <v>       0.80000000       0.60000000       0.40000000 </v>
    <v>       0.80000000       0.60000000       0.60000000 </v>
    <v>       0.80000000       0.60000000       0.80000000 </v>
    <v>       0.80000000       0.80000000       0.00000000 </v>
    <v>       0.80000000       0.80000000       0.20000000 </v>
    <v>       0.80000000       0.80000000       0.40000000 </v>
    <v>       0.80000000       0.80000000       0.60000000 </v>
    <v>       0.80000000       0.80000000       0.80000000 </v>
    <v>       0.10000000       0.10000000       0.10000000 </v>
    <v>       0.10000000       0.10000000       0.30000000 </v>
    <v>       0.10000000       0.10000000       0.50000000 </v>
    <v>       0.10000000       0.10000000       0.70000000 </v>
    <v>       0.10000000       0.10000000       0.90000000 </v>
    <v>       0.10000000       0.30000000       0.10000000 </v>
    <v>       0.10000000       0.30000000       0.30000000 </v>
    <v>       0.10000000       0.30000000       0.50000000 </v>
    <v>       0.10000000       0.30000000       0.70000000 </v>
    <v>       0.10000000       0.30000000       0.90000000 </v>
    <v>       0.10000000       0.50000000       0.10000000 </v>
    <v>       0.10000000       0.50000000       0.30000000 </v>
    <v>       0.10000000       0.50000000       0.50000000 </v>
    <v>       0.10000000       0.50000000       0.70000000 </v>
    <v>       0.10000000       0.50000000       0.90000000 </v>
    <v>       0.10000000       0.70000000       0.10000000 </v>
    <v>       0.10000000       0.70000000       0.30000000 </v>
    <v>       0.10000000       0.70000000       0.50000000 </v>
    <v>       0.10000000       0.70000000       0.70000000 </v>
    <v>       0.10000000       0.70000000       0.90000000 </v>
    <v>       0.10000000       0.90000000       0.10000000 </v>
    <v>       0.10000000       0.90000000       0.30000000 </v>
    <v>       0.10000000       0.90000000       0.50000000 </v>
    <v>       0.10000000       0.90000000       0.70000000 </v>
    <v>       0.10000000       0.90000000       0.90000000 </v>
    <v>       0.30000000       0.10000000       0.10000000 </v>
    <v>       0.30000000       0.10000000       0.30000000 </v>
    <v>       0.30000000       0.10000000       0.50000000 </v>
    <v>       0.30000000       0.10000000       0.70000000 </v>
    <v>       0.30000000       0.10000000       0.90000000 </v>
    <v>       0.30000000       0.30000000       0.10000000 </v>
    <v>       0.30000000       0.30000000       0.30000000 </v>
    <v>       0.30000000       0.30000000       0.50000000 </v>
    <v>       0.30000000       0.30000000       0.70000000 </v>
    <v>       0.30000000       0.30000000       0.90000000 </v>
    <v>       0.30000000       0.50000000       0.10000000 </v>
    <v>       0.30000000       0.50000000       0.30000000 </v>
    <v>       0.30000000       0.50000000       0.50000000 </v>
    <v>       0.30000000       0.50000000       0.70000000 </v>
    <v>       0.30000000       0.50000000       0.90000000 </v>
    <v>       0.30000000       0.70000000       0.10000000 </v>
    <v>       0.30000000       0.70000000       0.30000000 </v>
    <v>       0.30000000       0.70000000       0.50000000 </v>
    <v>       0.30000000       0.70000000       0.70000000 </v>
    <v>       0.30000000       0.70000000       0.90000000 </v>
    <v>       0.30000000       0.90000000       0.10000000 </v>
    <v>       0.30000000       0.90000000       0.30000000 </v>
    <v>       0.30000000       0.90000000       0.50000000 </v>
    <v>       0.30000000       0.90000000       0.70000000 </v>
    <v>       0.30000000       0.90000000       0.90000000 </v>
    <v>       0.50000000       0.10000000       0.10000000 </v>
    <v>       0.50000000       0.10000000       0.30000000 </v>
    <v>       0.50000000       0.10000000       0.50000000 </v>
    <v>       0.50000000       0.10000000       0.70000000 </v>
    <v>       0.50000000       0.10000000       0.90000000 </v>
    <v>       0.50000000       0.30000000       0.10000000 </v>
    <v>       0.50000000       0.30000000       0.30000000 </v>
    <v>       0.50000000       0.30000000       0.50000000 </v>
    <v>       0.50000000       0.30000000       0.70000000 </v>
    <v>       0.50000000       0.30000000       0.90000000 </v>
    <v>       0.50000000       0.50000000       0.10000000 </v>
    <v>       0.50000000       0.50000000       0.30000000 </v>
    <v>       0.50000000       0.50000000       0.50000000 </v>
    <v>       0.50000000       0.50000000       0.70000000 </v>
    <v>       0.50000000       0.50000000       0.90000000 </v>
    <v>       0.50000000       0.70000000       0.10000000 </v>
    <v>       0.50000000       0.70000000       0.30000000 </v>
    <v>       0.50000000       0.70000000       0.50000000 </v>
    <v>       0.50000000       0.70000000       0.70000000 </v>
    <v>       0.50000000       0.70000000       0.90000000 </v>
    <v>       0.50000000       0.90000000       0.10000000 </v>
    <v>       0.50000000       0.90000000       0.30000000 </v>
    <v>       0.50000000       0.90000000       0.50000000 </v>
    <v>       0.50000000       0.90000000       0.70000000 </v>
    <v>       0.50000000       0.90000000       0.90000000 </v>
    <v>       0.70000000       0.10000000       0.10000000 </v>
    <v>       0.70000000       0.10000000       0.30000000 </v>
    <v>       0.70000000       0.10000000       0.50000000 </v>
    <v>       0.70000000       0.10000000       0.70000000 </v>
    <v>       0.70000000       0.10000000       0.90000000 </v>
    <v>       0.70000000       0.30000000       0.10000000 </v>
    <v>       0.70000000       0.30000000       0.30000000 </v>
    <v>       0.70000000       0.30000000       0.50000000 </v>
    <v>       0.70000000       0.30000000       0.70000000 </v>
    <v>       0.70000000       0.30000000       0.90000000 </v>
    <v>       0.70000000       0.50000000       0.10000000 </v>
    <v>       0.70000000       0.50000000       0.30000000 </v>
    <v>       0.70000000       0.50000000       0.50000000 </v>
    <v>       0.70000000       0.50000000       0.70000000 </v>
    <v>       0.70000000       0.50000000       0.90000000 </v>
    <v>       0.70000000       0.70000000       0.10000000 </v>
    <v>       0.70000000       0.70000000       0.30000000 </v>
    <v>       0.70000000       0.70000000       0.50000000 </v>
    <v>       0.70000000       0.70000000       0.70000000 </v>
    <v>       0.70000000       0.70000000       0.90000000 </v>
    <v>       0.70000000       0.90000000       0.10000000 </v>
    <v>       0.70000000       0.90000000       0.30000000 </v>
    <v>       0.70000000       0.90000000       0.50000000 </v>
    <v>       0.70000000       0.90000000       0.70000000 </v>
    <v>       0.70000000       0.90000000       0.90000000 </v>
    <v>       0.90000000       0.10000000       0.10000000 </v>
    <v>       0.90000000       0.10000000       0.30000000 </v>
    <v>       0.90000000       0.10000000       0.50000000 </v>
    <v>       0.90000000       0.10000000       0.70000000 </v>
    <v>       0.90000000       0.10000000       0.90000000 </v>
    <v>       0.90000000       0.30000000       0.10000000 </v>
    <v>       0.90000000       0.30000000       0.30000000 </v>
    <v>       0.90000000       0.30000000       0.50000000 </v>
    <v>       0.90000000       0.30000000       0.70000000 </v>
    <v>       0.90000000       0.30000000       0.90000000 </v>
    <v>       0.90000000       0.50000000       0.10000000 </v>
    <v>       0.90000000       0.50000000       0.30000000 </v>
    <v>       0.90000000       0.50000000       0.50000000 </v>
    <v>       0.90000000       0.50000000       0.70000000 </v>
    <v>       0.90000000       0.50000000       0.90000000 </v>
    <v>       0.90000000       0.70000000       0.10000000 </v>
    <v>       0.90000000       0.70000000       0.30000000 </v>
    <v>       0.90000000       0.70000000       0.50000000 </v>
    <v>       0.90000000       0.70000000       0.70000000 </v>
    <v>       0.90000000       0.70000000       0.90000000 </v>
    <v>       0.90000000       0.90000000       0.10000000 </v>
    <v>       0.90000000       0.90000000       0.30000000 </v>
    <v>       0.90000000       0.90000000       0.50000000 </v>
    <v>       0.90000000       0.90000000       0.70000000 </v>
    <v>       0.90000000       0.90000000       0.90000000 </v>
    <v>       0.10000000       0.10000000       0.00000000 </v>
   </varray>
  </structure>
  <varray name="primitive_index" >
   <v type="int" >        1 </v>
   <v type="int" >        2 </v>
   <v type="int" >        3 </v>
   <v type="int" >        4 </v>
   <v type="int" >        5 </v>
   <v type="int" >        6 </v>
   <v type="int" >        7 </v>
   <v type="int" >        8 </v>
   <v type="int" >        9 </v>
   <v type="int" >       10 </v>
   <v type="int" >       11 </v>
   <v type="int" >       12 </v>
   <v type="int" >       13 </v>
   <v type="int" >       14 </v>
   <v type="int" >       15 </v>
   <v type="int" >       16 </v>
   <v type="int" >       17 </v>
   <v type="int" >       18 </v>
   <v type="int" >       19 </v>
   <v type="int" >       20 </v>
   <v type="int" >       21 </v>
   <v type="int" >       22 </v>
   <v type="int" >       23 </v>
   <v type="int" >       24 </v>
   <v type="int" >       25 </v>
   <v type="int" >       26 </v>
   <v type="int" >       27 </v>
   <v type="int" >       28 </v>
   <v type="int" >       29 </v>
   <v type="int" >       30 </v>
   <v type="int" >       31 </v>
   <v type="int" >       32 </v>
   <v type="int" >       33 </v>
   <v type="int" >       34 </v>
   <v type="int" >       35 </v>
   <v type="int" >       36 </v>
   <v type="int" >       37 </v>
   <v type="int" >       38 </v>
   <v type="int" >       39 </v>
   <v type="int" >       40 </v>
   <v type="int" >       41 </v>
   <v type="int" >       42 </v>
   <v type="int" >       43 </v>
   <v type="int" >       44 </v>
   <v type="int" >       45 </v>
   <v type="int" >       46 </v>
   <v type="int" >       47 </v>
   <v type="int" >       48 </v>
   <v type="int" >       49 </v>
   <v type="int" >       50 </v>
   <v type="int" >       51 </v>
   <v type="int" >       52 </v>
   <v type="int" >       53 </v>
   <v type="int" >       54 </v>
   <v type="int" >       55 </v>
   <v type="int" >       56 </v>
   <v type="int" >       57 </v>
   <v type="int" >       58 </v>
   <v type="int" >       59 </v>
   <v type="int" >       60 </v>
   <v type="int" >       61 </v>
   <v type="int" >       62 </v>
   <v type="int" >       63 </v>
   <v type="int" >       64 </v>
   <v type="int" >       65 </v>
   <v type="int" >       66 </v>
   <v type="int" >       67 </v>
   <v type="int" >       68 </v>
   <v type="int" >       69 </v>
   <v type="int" >       70 </v>
   <v type="int" >       71 </v>
   <v type="int" >       72 </v>
   <v type="int" >       73 </v>
   <v type="int" >       74 </v>
   <v type="int" >       75 </v>
   <v type="int" >       76 </v>
   <v type="int" >       77 </v>
   <v type="int" >       78 </v>
   <v type="int" >       79 </v>
   <v type="int" >       80 </v>
   <v type="int" >       81 </v>
   <v type="int" >       82 </v>
   <v type="int" >       83 </v>
   <v type="int" >       84 </v>
   <v type="int" >       85 </v>
   <v type="int" >       86 </v>
   <v type="int" >       87 </v>
   <v type="int" >       88 </v>
   <v type="int" >       89 </v>
   <v type="int" >       90 </v>
   <v type="int" >       91 </v>
   <v type="int" >       92 </v>
   <v type="int" >       93 </v>
   <v type="int" >       94 </v>
   <v type="int" >       95 </v>
   <v type="int" >       96 </v>
   <v type="int" >       97 </v>
   <v type="int" >       98 </v>
   <v type="int" >       99 </v>
   <v type="int" >      100 </v>
   <v type="int" >      101 </v>
   <v type="int" >      102 </v>
   <v type="int" >      103 </v>
   <v type="int" >      104 </v>
   <v type="int" >      105 </v>
   <v type="int" >      106 </v>
   <v type="int" >      107 </v>
   <v type="int" >      108 </v>
   <v type="int" >      109 </v>
   <v type="int" >      110 </v>
   <v type="int" >      111 </v>
   <v type="int" >      112 </v>
   <v type="int" >      113 </v>
   <v type="int" >      114 </v>
   <v type="int" >      115 </v>
   <v type="int" >      116 </v>
   <v type="int" >      117 </v>
   <v type="int" >      118 </v>
   <v type="int" >      119 </v>
   <v type="int" >      120 </v>
   <v type="int" >      121 </v>
   <v type="int" >      122 </v>
   <v type="int" >      123 </v>
   <v type="int" >      124 </v>
   <v type="int" >      125 </v>
   <v type="int" >      126 </v>
   <v type="int" >      127 </v>
   <v type="int" >      128 </v>
   <v type="int" >      129 </v>
   <v type="int" >      130 </v>
   <v type="int" >      131 </v>
   <v type="int" >      132 </v>
   <v type="int" >      133 </v>
   <v type="int" >      134 </v>
   <v type="int" >      135 </v>
   <v type="int" >      136 </v>
   <v type="int" >      137 </v>
   <v type="int" >      138 </v>
   <v type="int" >      139 </v>
   <v type="int" >      140 </v>
   <v type="int" >      141 </v>
   <v type="int" >      142 </v>
   <v type="int" >      143 </v>
   <v type="int" >      144 </v>
   <v type="int" >      145 </v>
   <v type="int" >      146 </v>
   <v type="int" >      147 </v>
   <v type="int" >      148 </v>
   <v type="int" >      149 </v>
   <v type="int" >      150 </v>
   <v type="int" >      151 </v>
   <v type="int" >      152 </v>
   <v type="int" >      153 </v>
   <v type="int" >      154 </v>
   <v type="int" >      155 </v>
   <v type="int" >      156 </v>
   <v type="int" >      157 </v>
   <v type="int" >      158 </v>
   <v type="int" >      159 </v>
   <v type="int" >      160 </v>
   <v type="int" >      161 </v>
   <v type="int" >      162 </v>
   <v type="int" >      163 </v>
   <v type="int" >      164 </v>
   <v type="int" >      165 </v>
   <v type="int" >      166 </v>
   <v type="int" >      167 </v>
   <v type="int" >      168 </v>
   <v type="int" >      169 </v>
   <v type="int" >      170 </v>
   <v type="int" >      171 </v>
   <v type="int" >      172 </v>
   <v type="int" >      173 </v>
   <v type="int" >      174 </v>
   <v type="int" >      175 </v>
   <v type="int" >      176 </v>
   <v type="int" >      177 </v>
   <v type="int" >      178 </v>
   <v type="int" >      179 </v>
   <v type="int" >      180 </v>
   <v type="int" >      181 </v>
   <v type="int" >      182 </v>
   <v type="int" >      183 </v>
   <v type="int" >      184 </v>
   <v type="int" >      185 </v>
   <v type="int" >      186 </v>
   <v type="int" >      187 </v>
   <v type="int" >      188 </v>
   <v type="int" >      189 </v>
   <v type="int" >      190 </v>
   <v type="int" >      191 </v>
   <v type="int" >      192 </v>
   <v type="int" >      193 </v>
   <v type="int" >      194 </v>
   <v type="int" >      195 </v>
   <v type="int" >      196 </v>
   <v type="int" >      197 </v>
   <v type="int" >      198 </v>
   <v type="int" >      199 </v>
   <v type="int" >      200 </v>
   <v type="int" >      201 </v>
   <v type="int" >      202 </v>
   <v type="int" >      203 </v>
   <v type="int" >      204 </v>
   <v type="int" >      205 </v>
   <v type="int" >      206 </v>
   <v type="int" >      207 </v>
   <v type="int" >      208 </v>
   <v type="int" >      209 </v>
   <v type="int" >      210 </v>
   <v type="int" >      211 </v>
   <v type="int" >      212 </v>
   <v type="int" >      213 </v>
   <v type="int" >      214 </v>
   <v type="int" >      215 </v>
   <v type="int" >      216 </v>
   <v type="int" >      217 </v>
   <v type="int" >      218 </v>
   <v type="int" >      219 </v>
   <v type="int" >      220 </v>
   <v type="int" >      221 </v>
   <v type="int" >      222 </v>
   <v type="int" >      223 </v>
   <v type="int" >      224 </v>
   <v type="int" >      225 </v>
   <v type="int" >      226 </v>
   <v type="int" >      227 </v>
   <v type="int" >      228 </v>
   <v type="int" >      229 </v>
   <v type="int" >      230 </v>
   <v type="int" >      231 </v>
   <v type="int" >      232 </v>
   <v type="int" >      233 </v>
   <v type="int" >      234 </v>
   <v type="int" >      235 </v>
   <v type="int" >      236 </v>
   <v type="int" >      237 </v>
   <v type="int" >      238 </v>
   <v type="int" >      239 </v>
   <v type="int" >      240 </v>
   <v type="int" >      241 </v>
   <v type="int" >      242 </v>
   <v type="int" >      243 </v>
   <v type="int" >      244 </v>
   <v type="int" >      245 </v>
   <v type="int" >      246 </v>
   <v type="int" >      247 </v>
   <v type="int" >      248 </v>
   <v type="int" >      249 </v>
   <v type="int" >      250 </v>
   <v type="int" >      251 </v>
  </varray>
 </primitive_cell>
 <kpoints>
  <generation param="Gamma">
   <v type="int" name="divisions">       2        2        2 </v>
   <v name="usershift">      0.00000000       0.00000000       0.00000000 </v>
   <v name="genvec1">      0.50000000       0.00000000       0.00000000 </v>
   <v name="genvec2">      0.00000000       0.50000000       0.00000000 </v>
   <v name="genvec3">      0.00000000       0.00000000       0.50000000 </v>
   <v name="shift">      0.00000000       0.00000000       0.00000000 </v>
  </generation>
  <varray name="kpointlist" >
   <v>       0.00000000       0.00000000       0.00000000 </v>
   <v>       0.50000000       0.00000000       0.00000000 </v>
   <v>       0.00000000       0.00000000       0.50000000 </v>
   <v>       0.50000000       0.50000000       0.00000000 </v>
   <v>       0.00000000       0.50000000       0.50000000 </v>
   <v>       0.50000000       0.50000000       0.50000000 </v>
  </varray>
  <varray name="weights" >
   <v>       0.12500000 </v>
   <v>       0.25000000 </v>
   <v>       0.12500000 </v>
   <v>       0.12500000 </v>
   <v>       0.25000000 </v>
   <v>       0.12500000 </v>
  </varray>
 </kpoints>
 <parameters>
  <separator name="general" >
   <i type="string" name="SYSTEM">NiAl</i>
   <i type="logical" name="LCOMPAT"> F  </i>
  </separator>
  <separator name="electronic" >
   <i type="string" name="PREC">normal</i>
   <i name="ENMAX">    360.00000000</i>
   <i name="ENAUG">   1139.60900000</i>
   <i name="EDIFF">      0.00000010</i>
   <i type="int" name="IALGO">    38</i>
   <i type="int" name="IWAVPR">    11</i>
   <i type="int" name="NBANDS">   978</i>
   <i type="int" name="NBANDSLOW">    -1</i>
   <i type="int" name="NBANDSHIGH">    -1</i>
   <i name="NELECT">   1631.00000000</i>
   <i type="int" name="TURBO">     0</i>
   <i type="int" name="IRESTART">     0</i>
   <i type="int" name="NREBOOT">     0</i>
   <i type="int" name="NMIN">     0</i>
   <i name="EREF">      0.00000000</i>
   <separator name="electronic smearing" >
    <i type="int" name="ISMEAR">     0</i>
    <i name="SIGMA">      0.05000000</i>
    <i name="KSPACING">      0.50000000</i>
    <i type="logical" name="KGAMMA"> T  </i>
    <i type="logical" name="KBLOWUP"> T  </i>
   </separator>
   <separator name="electronic projectors" >
    <i type="logical" name="LREAL"> T  </i>
    <v name="ROPT">     -0.00050000     -0.00050000     -0.00050000</v>
    <i type="int" name="LMAXPAW">  -100</i>
    <i type="int" name="LMAXMIX">     2</i>
    <i type="logical" name="NLSPLINE"> F  </i>
   </separator>
   <separator name="electronic startup" >
    <i type="int" name="ISTART">     0</i>
    <i type="int" name="ICHARG">     2</i>
    <i type="int" name="INIWAV">     1</i>
   </separator>
   <separator name="electronic spin" >
    <i type="int" name="ISPIN">     1</i>
    <i type="logical" name="LNONCOLLINEAR"> F  </i>
    <v name="MAGMOM">      1.00000000      1.00000000      1.00000000      1.00000000      1.00000000      1.00000000      1.00000000      1.00000000      1.00000000      1.00000000      1.00000000      1.00000000      1.00000000      1.00000000      1.00000000      1.00000000      1.00000000      1.00000000      1.00000000      1.00000000
      1.00000000      1.00000000      1.00000000      1.00000000      1.00000000      1.00000000      1.00000000      1.00000000      1.00000000      1.00000000      1.00000000      1.00000000      1.00000000      1.00000000      1.00000000      1.00000000      1.00000000      1.00000000      1.00000000      1.00000000
      1.00000000      1.00000000      1.00000000      1.00000000      1.00000000      1.00000000      1.00000000      1.00000000      1.00000000      1.00000000      1.00000000      1.00000000      1.00000000      1.00000000      1.00000000      1.00000000      1.00000000      1.00000000      1.00000000      1.00000000
      1.00000000      1.00000000      1.00000000      1.00000000      1.00000000      1.00000000      1.00000000      1.00000000      1.00000000      1.00000000      1.00000000      1.00000000      1.00000000      1.00000000      1.00000000      1.00000000      1.00000000      1.00000000      1.00000000      1.00000000
      1.00000000      1.00000000      1.00000000      1.00000000      1.00000000      1.00000000      1.00000000      1.00000000      1.00000000      1.00000000      1.00000000      1.00000000      1.00000000      1.00000000      1.00000000      1.00000000      1.00000000      1.00000000      1.00000000      1.00000000
      1.00000000      1.00000000      1.00000000      1.00000000      1.00000000      1.00000000      1.00000000      1.00000000      1.00000000      1.00000000      1.00000000      1.00000000      1.00000000      1.00000000      1.00000000      1.00000000      1.00000000      1.00000000      1.00000000      1.00000000
      1.00000000      1.00000000      1.00000000      1.00000000      1.00000000      1.00000000      1.00000000      1.00000000      1.00000000      1.00000000      1.00000000      1.00000000      1.00000000      1.00000000      1.00000000      1.00000000      1.00000000      1.00000000      1.00000000      1.00000000
      1.00000000      1.00000000      1.00000000      1.00000000      1.00000000      1.00000000      1.00000000      1.00000000      1.00000000      1.00000000      1.00000000      1.00000000      1.00000000      1.00000000      1.00000000      1.00000000      1.00000000      1.00000000      1.00000000      1.00000000
      1.00000000      1.00000000      1.00000000      1.00000000      1.00000000      1.00000000      1.00000000      1.00000000      1.00000000      1.00000000      1.00000000      1.00000000      1.00000000      1.00000000      1.00000000      1.00000000      1.00000000      1.00000000      1.00000000      1.00000000
      1.00000000      1.00000000      1.00000000      1.00000000      1.00000000      1.00000000      1.00000000      1.00000000      1.00000000      1.00000000      1.00000000      1.00000000      1.00000000      1.00000000      1.00000000      1.00000000      1.00000000      1.00000000      1.00000000      1.00000000
      1.00000000      1.00000000      1.00000000      1.00000000      1.00000000      1.00000000      1.00000000      1.00000000      1.00000000      1.00000000      1.00000000      1.00000000      1.00000000      1.00000000      1.00000000      1.00000000      1.00000000      1.00000000      1.00000000      1.00000000
      1.00000000      1.00000000      1.00000000      1.00000000      1.00000000      1.00000000      1.00000000      1.00000000      1.00000000      1.00000000      1.00000000      1.00000000      1.00000000      1.00000000      1.00000000      1.00000000      1.00000000      1.00000000      1.00000000      1.00000000
      1.00000000      1.00000000      1.00000000      1.00000000      1.00000000      1.00000000      1.00000000      1.00000000      1.00000000      1.00000000      1.00000000</v>
    <i name="NUPDOWN">     -1.00000000</i>
    <i type="logical" name="LSORBIT"> F  </i>
    <v name="SAXIS">      0.00000000      0.00000000      1.00000000</v>
    <i type="logical" name="LSPIRAL"> F  </i>
    <v name="QSPIRAL">      0.00000000      0.00000000      0.00000000</v>
    <i type="logical" name="LZEROZ"> F  </i>
   </separator>
   <separator name="electronic exchange-correlation" >
    <i type="logical" name="LASPH"> F  </i>
    <i type="logical" name="LMETAGGA"> F  </i>
   </separator>
   <separator name="electronic convergence" >
    <i type="int" name="NELM">    60</i>
    <i type="int" name="NELMDL">    -5</i>
    <i type="int" name="NELMIN">     6</i>
    <i name="ENINI">    360.00000000</i>
    <separator name="electronic convergence detail" >
     <i type="logical" name="LDIAG"> T  </i>
     <i type="logical" name="LSUBROT"> F  </i>
     <i name="WEIMIN">      0.00100000</i>
     <i name="EBREAK">      0.00000000</i>
     <i name="DEPER">      0.30000000</i>
     <i type="int" name="NRMM">     4</i>
     <i name="TIME">      0.40000000</i>
    </separator>
   </separator>
   <separator name="electronic mixer" >
    <i name="AMIX">      0.40000000</i>
    <i name="BMIX">      1.00000000</i>
    <i name="AMIN">      0.10000000</i>
    <i name="AMIX_MAG">      1.60000000</i>
    <i name="BMIX_MAG">      1.00000000</i>
    <separator name="electronic mixer details" >
     <i type="int" name="IMIX">     4</i>
     <i type="logical" name="MIXFIRST"> F  </i>
     <i type="int" name="MAXMIX">   -45</i>
     <i name="WC">    100.00000000</i>
     <i type="int" name="INIMIX">     1</i>
     <i type="int" name="MIXPRE">     1</i>
     <i type="int" name="MREMOVE">     5</i>
    </separator>
   </separator>
   <separator name="electronic dipolcorrection" >
    <i type="logical" name="LDIPOL"> F  </i>
    <i type="logical" name="LMONO"> F  </i>
    <i type="int" name="IDIPOL">     0</i>
    <i name="EPSILON">      1.00000000</i>
    <v name="DIPOL">   -100.00000000   -100.00000000   -100.00000000</v>
    <i name="EFIELD">      0.00000000</i>
   </separator>
  </separator>
  <separator name="grids" >
   <i type="int" name="NGX">    70</i>
   <i type="int" name="NGY">    70</i>
   <i type="int" name="NGZ">    70</i>
   <i type="int" name="NGXF">   140</i>
   <i type="int" name="NGYF">   140</i>
   <i type="int" name="NGZF">   140</i>
   <i type="logical" name="ADDGRID"> F  </i>
  </separator>
  <separator name="ionic" >
   <i type="int" name="NSW">    40</i>
   <i type="int" name="IBRION">     2</i>
   <i type="int" name="MDALGO">     0</i>
   <i type="int" name="ISIF">     1</i>
   <i name="PSTRESS">      0.00000000</i>
   <i name="EDIFFG">      0.00000100</i>
   <i type="int" name="NFREE">     1</i>
   <i name="POTIM">      0.20000000</i>
   <i name="SMASS">     -3.00000000</i>
   <i name="SCALEE">      1.00000000</i>
  </separator>
  <separator name="ionic md" >
   <i name="TEBEG">      0.00010000</i>
   <i name="TEEND">      0.00010000</i>
   <i type="int" name="NBLOCK">     1</i>
   <i type="int" name="KBLOCK">    40</i>
   <i type="int" name="NPACO">   256</i>
   <i name="APACO">     16.00000000</i>
  </separator>
  <separator name="symmetry" >
   <i type="int" name="ISYM">     2</i>
   <i name="SYMPREC">      0.00001000</i>
  </separator>
  <separator name="dos" >
   <i type="int" name="LORBIT">     0</i>
   <v name="RWIGS">     -1.00000000     -1.00000000     -1.00000000</v>
   <i type="int" name="NEDOS">   301</i>
   <i name="EMIN">     10.00000000</i>
   <i name="EMAX">    -10.00000000</i>
   <i name="EFERMI">      0.00000000</i>
  </separator>
  <separator name="writing" >
   <i type="int" name="NWRITE">     2</i>
   <i type="logical" name="LWAVE"> F  </i>
   <i type="logical" name="LDOWNSAMPLE"> F  </i>
   <i type="logical" name="LCHARG"> F  </i>
   <i type="logical" name="LPARD"> F  </i>
   <i type="logical" name="LVTOT"> F  </i>
   <i type="logical" name="LVHAR"> F  </i>
   <i type="logical" name="LELF"> F  </i>
   <i type="logical" name="LOPTICS"> F  </i>
   <v name="STM">      0.00000000      0.00000000      0.00000000      0.00000000      0.00000000      0.00000000      0.00000000</v>
  </separator>
  <separator name="performance" >
   <i type="int" name="NPAR">     1</i>
   <i type="int" name="NSIM">     4</i>
   <i type="int" name="NBLK">    -1</i>
   <i type="logical" name="LPLANE"> T  </i>
   <i type="logical" name="LSCALAPACK"> T  </i>
   <i type="logical" name="LSCAAWARE"> F  </i>
   <i type="logical" name="LSCALU"> F  </i>
   <i type="logical" name="LASYNC"> F  </i>
   <i type="logical" name="LORBITALREAL"> F  </i>
  </separator>
  <separator name="miscellaneous" >
   <i type="int" name="IDIOT">     3</i>
   <i type="int" name="PHON_NSTRUCT">    -1</i>
   <i type="logical" name="LMUSIC"> F  </i>
   <v name="POMASS">     58.69000000     26.98200000     16.00000000</v>
   <v name="DARWINR">      0.00000000      0.00000000      0.00000000</v>
   <v name="DARWINV">      1.00000000      1.00000000      1.00000000</v>
   <i type="logical" name="LCORR"> T  </i>
  </separator>
  <i type="logical" name="GGA_COMPAT"> T  </i>
  <i type="logical" name="LBERRY"> F  </i>
  <i type="int" name="ICORELEVEL">     0</i>
  <i type="logical" name="LDAU"> F  </i>
  <i type="int" name="I_CONSTRAINED_M">     0</i>
  <separator name="electronic exchange-correlation" >
   <i type="string" name="GGA">--</i>
   <i type="int" name="VOSKOWN">     0</i>
   <i type="logical" name="LHFCALC"> F  </i>
   <i type="string" name="PRECFOCK"></i>
   <i type="logical" name="LSYMGRAD"> F  </i>
   <i type="logical" name="LHFONE"> F  </i>
   <i type="logical" name="LRHFCALC"> F  </i>
   <i type="logical" name="LTHOMAS"> F  </i>
   <i type="logical" name="LMODELHF"> F  </i>
   <i type="logical" name="LFOCKACE"> F  </i>
   <i name="ENCUT4O">     -1.00000000</i>
   <i type="int" name="EXXOEP">     0</i>
   <i type="int" name="FOURORBIT">     0</i>
   <i name="AEXX">      0.00000000</i>
   <i name="HFALPHA">      0.00000000</i>
   <i name="MCALPHA">      0.00000000</i>
   <i name="ALDAX">      1.00000000</i>
   <i name="AGGAX">      1.00000000</i>
   <i name="ALDAC">      1.00000000</i>
   <i name="AGGAC">      1.00000000</i>
   <i type="int" name="NKREDX">     1</i>
   <i type="int" name="NKREDY">     1</i>
   <i type="int" name="NKREDZ">     1</i>
   <i type="logical" name="SHIFTRED"> F  </i>
   <i type="logical" name="ODDONLY"> F  </i>
   <i type="logical" name="EVENONLY"> F  </i>
   <i type="int" name="LMAXFOCK">     0</i>
   <i type="int" name="NMAXFOCKAE">     0</i>
   <i type="logical" name="LFOCKAEDFT"> F  </i>
   <i name="HFSCREEN">      0.00000000</i>
   <i name="HFSCREENC">      0.00000000</i>
   <i type="int" name="NBANDSGWLOW">     0</i>
  </separator>
  <separator name="vdW DFT" >
   <i type="logical" name="LUSE_VDW"> F  </i>
   <i name="Zab_VDW">     -0.84910000</i>
   <i name="PARAM1">      0.12340000</i>
   <i name="PARAM2">      1.00000000</i>
   <i name="PARAM3">      0.00000000</i>
  </separator>
  <separator name="model GW" >
   <i type="int" name="MODEL_GW">     0</i>
   <i name="MODEL_EPS0">      7.28754980</i>
   <i name="MODEL_ALPHA">      1.00000000</i>
  </separator>
  <separator name="linear response parameters" >
   <i type="logical" name="LEPSILON"> F  </i>
   <i type="logical" name="LRPA"> F  </i>
   <i type="logical" name="LNABLA"> F  </i>
   <i type="logical" name="LVEL"> F  </i>
   <i type="int" name="KINTER">     0</i>
   <i name="CSHIFT">      0.10000000</i>
   <i name="OMEGAMAX">     -1.00000000</i>
   <i name="DEG_THRESHOLD">      0.00200000</i>
   <i name="RTIME">     -0.10000000</i>
   <i name="WPLASMAI">      0.00000000</i>
   <v name="DFIELD">      0.00000000      0.00000000      0.00000000</v>
   <v name="WPLASMA">      0.00000000      0.00000000      0.00000000      0.00000000      0.00000000      0.00000000      0.00000000      0.00000000      0.00000000</v>
  </separator>
  <separator name="orbital magnetization" >
   <i type="logical" name="NUCIND"> F  </i>
   <v name="MAGPOS">      0.00000000      0.00000000      0.00000000</v>
   <i type="logical" name="LNICSALL"> T  </i>
   <i type="logical" name="ORBITALMAG"> F  </i>
   <i type="logical" name="LMAGBLOCH"> F  </i>
   <i type="logical" name="LCHIMAG"> F  </i>
   <i type="logical" name="LGAUGE"> T  </i>
   <i type="int" name="MAGATOM">     0</i>
   <v name="MAGDIPOL">      0.00000000      0.00000000      0.00000000</v>
   <v name="AVECCONST">      0.00000000      0.00000000      0.00000000</v>
  </separator>
  <separator name="response functions" >
   <i type="logical" name="LFINITE_TEMPERATURE"> F  </i>
   <i type="logical" name="LADDER"> F  </i>
   <i type="logical" name="LRPAFORCE"> F  </i>
   <i type="logical" name="LFXC"> F  </i>
   <i type="logical" name="LHARTREE"> T  </i>
   <i type="int" name="IBSE">     0</i>
   <v type="int" name="KPOINT">    -1     0     0     0</v>
   <i type="logical" name="LTCTC"> F  </i>
   <i type="logical" name="LTCTE"> F  </i>
   <i type="logical" name="LTETE"> F  </i>
   <i type="logical" name="LTRIPLET"> F  </i>
   <i type="logical" name="LFXCEPS"> F  </i>
   <i type="logical" name="LFXHEG"> F  </i>
   <i type="int" name="NATURALO">     2</i>
   <i type="logical" name="LHOLEGF"> F  </i>
   <i type="logical" name="L2ORDER"> F  </i>
   <i type="logical" name="LDMP1"> F  </i>
   <i type="logical" name="LMP2LT"> F  </i>
   <i type="logical" name="LSMP2LT"> F  </i>
   <i type="logical" name="LGWLF"> F  </i>
   <i name="ENCUTGW">     -2.00000000</i>
   <i name="ENCUTGWSOFT">     -2.00000000</i>
   <i name="ENCUTLF">     -1.00000000</i>
   <i type="logical" name="LESF_SPLINES"> F  </i>
   <i type="int" name="LMAXMP2">    -1</i>
   <i name="SCISSOR">      0.00000000</i>
   <i type="int" name="NOMEGA">     0</i>
   <i type="int" name="NOMEGAR">     0</i>
   <i type="int" name="NBANDSGW">    -1</i>
   <i type="int" name="NBANDSO">    -1</i>
   <i type="int" name="NBANDSV">    -1</i>
   <i type="int" name="NELM">     1</i>
   <i type="int" name="NELMHF">     1</i>
   <i type="int" name="DIM">     3</i>
   <i type="int" name="IESPILON">     4</i>
   <i type="int" name="ANTIRES">     0</i>
   <i name="OMEGAMAX">    -30.00000000</i>
   <i name="OMEGAMIN">    -30.00000000</i>
   <i name="OMEGATL">   -200.00000000</i>
   <i type="int" name="OMEGAGRID">     0</i>
   <i name="CSHIFT">     -0.10000000</i>
   <i type="logical" name="LSELFENERGY"> F  </i>
   <i type="logical" name="LSPECTRAL"> F  </i>
   <i type="logical" name="LSPECTRALGW"> F  </i>
   <i type="logical" name="LSINGLES"> F  </i>
   <i type="logical" name="LFERMIGW"> F  </i>
   <i type="logical" name="ODDONLYGW"> F  </i>
   <i type="logical" name="EVENONLYGW"> F  </i>
   <i type="int" name="NKREDLFX">     1</i>
   <i type="int" name="NKREDLFY">     1</i>
   <i type="int" name="NKREDLFZ">     1</i>
   <i type="int" name="MAXMEM">  2800</i>
   <i type="int" name="TELESCOPE">     0</i>
   <i type="int" name="NTAUPAR">    -1</i>
   <i type="int" name="NOMEGAPAR">    -1</i>
   <i name="DAMP_NEWTON">      0.80000001</i>
   <i name="LAMBDA">      1.00000000</i>
  </separator>
  <separator name="External order field" >
   <i name="OFIELD_KAPPA">      0.00000000</i>
   <v name="OFIELD_K">      0.00000000      0.00000000      0.00000000</v>
   <i name="OFIELD_Q6_NEAR">      0.00000000</i>
   <i name="OFIELD_Q6_FAR">      0.00000000</i>
   <i name="OFIELD_A">      0.00000000</i>
  </separator>
  <separator name="solvation model" >
   <i type="logical" name="LSOL"> F  </i>
  </separator>
 </parameters>
 <atominfo>
  <atoms>     251 </atoms>
  <types>       3 </types>
  <array name="atoms" >
   <dimension dim="1">ion</dimension>
   <field type="string">element</field>
   <field type="int">atomtype</field>
   <set>
    <rc><c>Ni</c><c>   1</c></rc>
    <rc><c>Ni</c><c>   1</c></rc>
    <rc><c>Ni</c><c>   1</c></rc>
    <rc><c>Ni</c><c>   1</c></rc>
    <rc><c>Ni</c><c>   1</c></rc>
    <rc><c>Ni</c><c>   1</c></rc>
    <rc><c>Ni</c><c>   1</c></rc>
    <rc><c>Ni</c><c>   1</c></rc>
    <rc><c>Ni</c><c>   1</c></rc>
    <rc><c>Ni</c><c>   1</c></rc>
    <rc><c>Ni</c><c>   1</c></rc>
    <rc><c>Ni</c><c>   1</c></rc>
    <rc><c>Ni</c><c>   1</c></rc>
    <rc><c>Ni</c><c>   1</c></rc>
    <rc><c>Ni</c><c>   1</c></rc>
    <rc><c>Ni</c><c>   1</c></rc>
    <rc><c>Ni</c><c>   1</c></rc>
    <rc><c>Ni</c><c>   1</c></rc>
    <rc><c>Ni</c><c>   1</c></rc>
    <rc><c>Ni</c><c>   1</c></rc>
    <rc><c>Ni</c><c>   1</c></rc>
    <rc><c>Ni</c><c>   1</c></rc>
    <rc><c>Ni</c><c>   1</c></rc>
    <rc><c>Ni</c><c>   1</c></rc>
    <rc><c>Ni</c><c>   1</c></rc>
    <rc><c>Ni</c><c>   1</c></rc>
    <rc><c>Ni</c><c>   1</c></rc>
    <rc><c>Ni</c><c>   1</c></rc>
    <rc><c>Ni</c><c>   1</c></rc>
    <rc><c>Ni</c><c>   1</c></rc>
    <rc><c>Ni</c><c>   1</c></rc>
    <rc><c>Ni</c><c>   1</c></rc>
    <rc><c>Ni</c><c>   1</c></rc>
    <rc><c>Ni</c><c>   1</c></rc>
    <rc><c>Ni</c><c>   1</c></rc>
    <rc><c>Ni</c><c>   1</c></rc>
    <rc><c>Ni</c><c>   1</c></rc>
    <rc><c>Ni</c><c>   1</c></rc>
    <rc><c>Ni</c><c>   1</c></rc>
    <rc><c>Ni</c><c>   1</c></rc>
    <rc><c>Ni</c><c>   1</c></rc>
    <rc><c>Ni</c><c>   1</c></rc>
    <rc><c>Ni</c><c>   1</c></rc>
    <rc><c>Ni</c><c>   1</c></rc>
    <rc><c>Ni</c><c>   1</c></rc>
    <rc><c>Ni</c><c>   1</c></rc>
    <rc><c>Ni</c><c>   1</c></rc>
    <rc><c>Ni</c><c>   1</c></rc>
    <rc><c>Ni</c><c>   1</c></rc>
    <rc><c>Ni</c><c>   1</c></rc>
    <rc><c>Ni</c><c>   1</c></rc>
    <rc><c>Ni</c><c>   1</c></rc>
    <rc><c>Ni</c><c>   1</c></rc>
    <rc><c>Ni</c><c>   1</c></rc>
    <rc><c>Ni</c><c>   1</c></rc>
    <rc><c>Ni</c><c>   1</c></rc>
    <rc><c>Ni</c><c>   1</c></rc>
    <rc><c>Ni</c><c>   1</c></rc>
    <rc><c>Ni</c><c>   1</c></rc>
    <rc><c>Ni</c><c>   1</c></rc>
    <rc><c>Ni</c><c>   1</c></rc>
    <rc><c>Ni</c><c>   1</c></rc>
    <rc><c>Ni</c><c>   1</c></rc>
    <rc><c>Ni</c><c>   1</c></rc>
    <rc><c>Ni</c><c>   1</c></rc>
    <rc><c>Ni</c><c>   1</c></rc>
    <rc><c>Ni</c><c>   1</c></rc>
    <rc><c>Ni</c><c>   1</c></rc>
    <rc><c>Ni</c><c>   1</c></rc>
    <rc><c>Ni</c><c>   1</c></rc>
    <rc><c>Ni</c><c>   1</c></rc>
    <rc><c>Ni</c><c>   1</c></rc>
    <rc><c>Ni</c><c>   1</c></rc>
    <rc><c>Ni</c><c>   1</c></rc>
    <rc><c>Ni</c><c>   1</c></rc>
    <rc><c>Ni</c><c>   1</c></rc>
    <rc><c>Ni</c><c>   1</c></rc>
    <rc><c>Ni</c><c>   1</c></rc>
    <rc><c>Ni</c><c>   1</c></rc>
    <rc><c>Ni</c><c>   1</c></rc>
    <rc><c>Ni</c><c>   1</c></rc>
    <rc><c>Ni</c><c>   1</c></rc>
    <rc><c>Ni</c><c>   1</c></rc>
    <rc><c>Ni</c><c>   1</c></rc>
    <rc><c>Ni</c><c>   1</c></rc>
    <rc><c>Ni</c><c>   1</c></rc>
    <rc><c>Ni</c><c>   1</c></rc>
    <rc><c>Ni</c><c>   1</c></rc>
    <rc><c>Ni</c><c>   1</c></rc>
    <rc><c>Ni</c><c>   1</c></rc>
    <rc><c>Ni</c><c>   1</c></rc>
    <rc><c>Ni</c><c>   1</c></rc>
    <rc><c>Ni</c><c>   1</c></rc>
    <rc><c>Ni</c><c>   1</c></rc>
    <rc><c>Ni</c><c>   1</c></rc>
    <rc><c>Ni</c><c>   1</c></rc>
    <rc><c>Ni</c><c>   1</c></rc>
    <rc><c>Ni</c><c>   1</c></rc>
    <rc><c>Ni</c><c>   1</c></rc>
    <rc><c>Ni</c><c>   1</c></rc>
    <rc><c>Ni</c><c>   1</c></rc>
    <rc><c>Ni</c><c>   1</c></rc>
    <rc><c>Ni</c><c>   1</c></rc>
    <rc><c>Ni</c><c>   1</c></rc>
    <rc><c>Ni</c><c>   1</c></rc>
    <rc><c>Ni</c><c>   1</c></rc>
    <rc><c>Ni</c><c>   1</c></rc>
    <rc><c>Ni</c><c>   1</c></rc>
    <rc><c>Ni</c><c>   1</c></rc>
    <rc><c>Ni</c><c>   1</c></rc>
    <rc><c>Ni</c><c>   1</c></rc>
    <rc><c>Ni</c><c>   1</c></rc>
    <rc><c>Ni</c><c>   1</c></rc>
    <rc><c>Ni</c><c>   1</c></rc>
    <rc><c>Ni</c><c>   1</c></rc>
    <rc><c>Ni</c><c>   1</c></rc>
    <rc><c>Ni</c><c>   1</c></rc>
    <rc><c>Ni</c><c>   1</c></rc>
    <rc><c>Ni</c><c>   1</c></rc>
    <rc><c>Ni</c><c>   1</c></rc>
    <rc><c>Ni</c><c>   1</c></rc>
    <rc><c>Ni</c><c>   1</c></rc>
    <rc><c>Ni</c><c>   1</c></rc>
    <rc><c>Ni</c><c>   1</c></rc>
    <rc><c>Ni</c><c>   1</c></rc>
    <rc><c>Al</c><c>   2</c></rc>
    <rc><c>Al</c><c>   2</c></rc>
    <rc><c>Al</c><c>   2</c></rc>
    <rc><c>Al</c><c>   2</c></rc>
    <rc><c>Al</c><c>   2</c></rc>
    <rc><c>Al</c><c>   2</c></rc>
    <rc><c>Al</c><c>   2</c></rc>
    <rc><c>Al</c><c>   2</c></rc>
    <rc><c>Al</c><c>   2</c></rc>
    <rc><c>Al</c><c>   2</c></rc>
    <rc><c>Al</c><c>   2</c></rc>
    <rc><c>Al</c><c>   2</c></rc>
    <rc><c>Al</c><c>   2</c></rc>
    <rc><c>Al</c><c>   2</c></rc>
    <rc><c>Al</c><c>   2</c></rc>
    <rc><c>Al</c><c>   2</c></rc>
    <rc><c>Al</c><c>   2</c></rc>
    <rc><c>Al</c><c>   2</c></rc>
    <rc><c>Al</c><c>   2</c></rc>
    <rc><c>Al</c><c>   2</c></rc>
    <rc><c>Al</c><c>   2</c></rc>
    <rc><c>Al</c><c>   2</c></rc>
    <rc><c>Al</c><c>   2</c></rc>
    <rc><c>Al</c><c>   2</c></rc>
    <rc><c>Al</c><c>   2</c></rc>
    <rc><c>Al</c><c>   2</c></rc>
    <rc><c>Al</c><c>   2</c></rc>
    <rc><c>Al</c><c>   2</c></rc>
    <rc><c>Al</c><c>   2</c></rc>
    <rc><c>Al</c><c>   2</c></rc>
    <rc><c>Al</c><c>   2</c></rc>
    <rc><c>Al</c><c>   2</c></rc>
    <rc><c>Al</c><c>   2</c></rc>
    <rc><c>Al</c><c>   2</c></rc>
    <rc><c>Al</c><c>   2</c></rc>
    <rc><c>Al</c><c>   2</c></rc>
    <rc><c>Al</c><c>   2</c></rc>
    <rc><c>Al</c><c>   2</c></rc>
    <rc><c>Al</c><c>   2</c></rc>
    <rc><c>Al</c><c>   2</c></rc>
    <rc><c>Al</c><c>   2</c></rc>
    <rc><c>Al</c><c>   2</c></rc>
    <rc><c>Al</c><c>   2</c></rc>
    <rc><c>Al</c><c>   2</c></rc>
    <rc><c>Al</c><c>   2</c></rc>
    <rc><c>Al</c><c>   2</c></rc>
    <rc><c>Al</c><c>   2</c></rc>
    <rc><c>Al</c><c>   2</c></rc>
    <rc><c>Al</c><c>   2</c></rc>
    <rc><c>Al</c><c>   2</c></rc>
    <rc><c>Al</c><c>   2</c></rc>
    <rc><c>Al</c><c>   2</c></rc>
    <rc><c>Al</c><c>   2</c></rc>
    <rc><c>Al</c><c>   2</c></rc>
    <rc><c>Al</c><c>   2</c></rc>
    <rc><c>Al</c><c>   2</c></rc>
    <rc><c>Al</c><c>   2</c></rc>
    <rc><c>Al</c><c>   2</c></rc>
    <rc><c>Al</c><c>   2</c></rc>
    <rc><c>Al</c><c>   2</c></rc>
    <rc><c>Al</c><c>   2</c></rc>
    <rc><c>Al</c><c>   2</c></rc>
    <rc><c>Al</c><c>   2</c></rc>
    <rc><c>Al</c><c>   2</c></rc>
    <rc><c>Al</c><c>   2</c></rc>
    <rc><c>Al</c><c>   2</c></rc>
    <rc><c>Al</c><c>   2</c></rc>
    <rc><c>Al</c><c>   2</c></rc>
    <rc><c>Al</c><c>   2</c></rc>
    <rc><c>Al</c><c>   2</c></rc>
    <rc><c>Al</c><c>   2</c></rc>
    <rc><c>Al</c><c>   2</c></rc>
    <rc><c>Al</c><c>   2</c></rc>
    <rc><c>Al</c><c>   2</c></rc>
    <rc><c>Al</c><c>   2</c></rc>
    <rc><c>Al</c><c>   2</c></rc>
    <rc><c>Al</c><c>   2</c></rc>
    <rc><c>Al</c><c>   2</c></rc>
    <rc><c>Al</c><c>   2</c></rc>
    <rc><c>Al</c><c>   2</c></rc>
    <rc><c>Al</c><c>   2</c></rc>
    <rc><c>Al</c><c>   2</c></rc>
    <rc><c>Al</c><c>   2</c></rc>
    <rc><c>Al</c><c>   2</c></rc>
    <rc><c>Al</c><c>   2</c></rc>
    <rc><c>Al</c><c>   2</c></rc>
    <rc><c>Al</c><c>   2</c></rc>
    <rc><c>Al</c><c>   2</c></rc>
    <rc><c>Al</c><c>   2</c></rc>
    <rc><c>Al</c><c>   2</c></rc>
    <rc><c>Al</c><c>   2</c></rc>
    <rc><c>Al</c><c>   2</c></rc>
    <rc><c>Al</c><c>   2</c></rc>
    <rc><c>Al</c><c>   2</c></rc>
    <rc><c>Al</c><c>   2</c></rc>
    <rc><c>Al</c><c>   2</c></rc>
    <rc><c>Al</c><c>   2</c></rc>
    <rc><c>Al</c><c>   2</c></rc>
    <rc><c>Al</c><c>   2</c></rc>
    <rc><c>Al</c><c>   2</c></rc>
    <rc><c>Al</c><c>   2</c></rc>
    <rc><c>Al</c><c>   2</c></rc>
    <rc><c>Al</c><c>   2</c></rc>
    <rc><c>Al</c><c>   2</c></rc>
    <rc><c>Al</c><c>   2</c></rc>
    <rc><c>Al</c><c>   2</c></rc>
    <rc><c>Al</c><c>   2</c></rc>
    <rc><c>Al</c><c>   2</c></rc>
    <rc><c>Al</c><c>   2</c></rc>
    <rc><c>Al</c><c>   2</c></rc>
    <rc><c>Al</c><c>   2</c></rc>
    <rc><c>Al</c><c>   2</c></rc>
    <rc><c>Al</c><c>   2</c></rc>
    <rc><c>Al</c><c>   2</c></rc>
    <rc><c>Al</c><c>   2</c></rc>
    <rc><c>Al</c><c>   2</c></rc>
    <rc><c>Al</c><c>   2</c></rc>
    <rc><c>Al</c><c>   2</c></rc>
    <rc><c>Al</c><c>   2</c></rc>
    <rc><c>Al</c><c>   2</c></rc>
    <rc><c>Al</c><c>   2</c></rc>
    <rc><c>Al</c><c>   2</c></rc>
    <rc><c>Al</c><c>   2</c></rc>
    <rc><c>Al</c><c>   2</c></rc>
    <rc><c>Al</c><c>   2</c></rc>
    <rc><c>O </c><c>   3</c></rc>
   </set>
  </array>
  <array name="atomtypes" >
   <dimension dim="1">type</dimension>
   <field type="int">atomspertype</field>
   <field type="string">element</field>
   <field>mass</field>
   <field>valence</field>
   <field type="string">pseudopotential</field>
   <set>
    <rc><c> 125</c><c>Ni</c><c>     58.69000000</c><c>     10.00000000</c><c>  PAW Ni_GW 31Mar2010                   </c></rc>
    <rc><c> 125</c><c>Al</c><c>     26.98200000</c><c>      3.00000000</c><c>  PAW Al_GW 19Mar2012                   </c></rc>
    <rc><c>   1</c><c>O </c><c>     16.00000000</c><c>      6.00000000</c><c>  PAW O_GW 19Mar2012                    </c></rc>
   </set>
  </array>
 </atominfo>
 <structure name="initialpos" >
  <crystal>
   <varray name="basis" >
    <v>      14.50000000       0.00000000       0.00000000 </v>
    <v>       0.00000000      14.50000000       0.00000000 </v>
    <v>       0.00000000       0.00000000      14.50000000 </v>
   </varray>
   <i name="volume">   3048.62500000 </i>
   <varray name="rec_basis" >
    <v>       0.06896552       0.00000000       0.00000000 </v>
    <v>       0.00000000       0.06896552       0.00000000 </v>
    <v>       0.00000000       0.00000000       0.06896552 </v>
   </varray>
  </crystal>
  <varray name="positions" >
   <v>       0.00000000       0.00000000       0.00000000 </v>
   <v>       0.00000000       0.00000000       0.20000000 </v>
   <v>       0.00000000       0.00000000       0.40000000 </v>
   <v>       0.00000000       0.00000000       0.60000000 </v>
   <v>       0.00000000       0.00000000       0.80000000 </v>
   <v>       0.00000000       0.20000000       0.00000000 </v>
   <v>       0.00000000       0.20000000       0.20000000 </v>
   <v>       0.00000000       0.20000000       0.40000000 </v>
   <v>       0.00000000       0.20000000       0.60000000 </v>
   <v>       0.00000000       0.20000000       0.80000000 </v>
   <v>       0.00000000       0.40000000       0.00000000 </v>
   <v>       0.00000000       0.40000000       0.20000000 </v>
   <v>       0.00000000       0.40000000       0.40000000 </v>
   <v>       0.00000000       0.40000000       0.60000000 </v>
   <v>       0.00000000       0.40000000       0.80000000 </v>
   <v>       0.00000000       0.60000000       0.00000000 </v>
   <v>       0.00000000       0.60000000       0.20000000 </v>
   <v>       0.00000000       0.60000000       0.40000000 </v>
   <v>       0.00000000       0.60000000       0.60000000 </v>
   <v>       0.00000000       0.60000000       0.80000000 </v>
   <v>       0.00000000       0.80000000       0.00000000 </v>
   <v>       0.00000000       0.80000000       0.20000000 </v>
   <v>       0.00000000       0.80000000       0.40000000 </v>
   <v>       0.00000000       0.80000000       0.60000000 </v>
   <v>       0.00000000       0.80000000       0.80000000 </v>
   <v>       0.20000000       0.00000000       0.00000000 </v>
   <v>       0.20000000       0.00000000       0.20000000 </v>
   <v>       0.20000000       0.00000000       0.40000000 </v>
   <v>       0.20000000       0.00000000       0.60000000 </v>
   <v>       0.20000000       0.00000000       0.80000000 </v>
   <v>       0.20000000       0.20000000       0.00000000 </v>
   <v>       0.20000000       0.20000000       0.20000000 </v>
   <v>       0.20000000       0.20000000       0.40000000 </v>
   <v>       0.20000000       0.20000000       0.60000000 </v>
   <v>       0.20000000       0.20000000       0.80000000 </v>
   <v>       0.20000000       0.40000000       0.00000000 </v>
   <v>       0.20000000       0.40000000       0.20000000 </v>
   <v>       0.20000000       0.40000000       0.40000000 </v>
   <v>       0.20000000       0.40000000       0.60000000 </v>
   <v>       0.20000000       0.40000000       0.80000000 </v>
   <v>       0.20000000       0.60000000       0.00000000 </v>
   <v>       0.20000000       0.60000000       0.20000000 </v>
   <v>       0.20000000       0.60000000       0.40000000 </v>
   <v>       0.20000000       0.60000000       0.60000000 </v>
   <v>       0.20000000       0.60000000       0.80000000 </v>
   <v>       0.20000000       0.80000000       0.00000000 </v>
   <v>       0.20000000       0.80000000       0.20000000 </v>
   <v>       0.20000000       0.80000000       0.40000000 </v>
   <v>       0.20000000       0.80000000       0.60000000 </v>
   <v>       0.20000000       0.80000000       0.80000000 </v>
   <v>       0.40000000       0.00000000       0.00000000 </v>
   <v>       0.40000000       0.00000000       0.20000000 </v>
   <v>       0.40000000       0.00000000       0.40000000 </v>
   <v>       0.40000000       0.00000000       0.60000000 </v>
   <v>       0.40000000       0.00000000       0.80000000 </v>
   <v>       0.40000000       0.20000000       0.00000000 </v>
   <v>       0.40000000       0.20000000       0.20000000 </v>
   <v>       0.40000000       0.20000000       0.40000000 </v>
   <v>       0.40000000       0.20000000       0.60000000 </v>
   <v>       0.40000000       0.20000000       0.80000000 </v>
   <v>       0.40000000       0.40000000       0.00000000 </v>
   <v>       0.40000000       0.40000000       0.20000000 </v>
   <v>       0.40000000       0.40000000       0.40000000 </v>
   <v>       0.40000000       0.40000000       0.60000000 </v>
   <v>       0.40000000       0.40000000       0.80000000 </v>
   <v>       0.40000000       0.60000000       0.00000000 </v>
   <v>       0.40000000       0.60000000       0.20000000 </v>
   <v>       0.40000000       0.60000000       0.40000000 </v>
   <v>       0.40000000       0.60000000       0.60000000 </v>
   <v>       0.40000000       0.60000000       0.80000000 </v>
   <v>       0.40000000       0.80000000       0.00000000 </v>
   <v>       0.40000000       0.80000000       0.20000000 </v>
   <v>       0.40000000       0.80000000       0.40000000 </v>
   <v>       0.40000000       0.80000000       0.60000000 </v>
   <v>       0.40000000       0.80000000       0.80000000 </v>
   <v>       0.60000000       0.00000000       0.00000000 </v>
   <v>       0.60000000       0.00000000       0.20000000 </v>
   <v>       0.60000000       0.00000000       0.40000000 </v>
   <v>       0.60000000       0.00000000       0.60000000 </v>
   <v>       0.60000000       0.00000000       0.80000000 </v>
   <v>       0.60000000       0.20000000       0.00000000 </v>
   <v>       0.60000000       0.20000000       0.20000000 </v>
   <v>       0.60000000       0.20000000       0.40000000 </v>
   <v>       0.60000000       0.20000000       0.60000000 </v>
   <v>       0.60000000       0.20000000       0.80000000 </v>
   <v>       0.60000000       0.40000000       0.00000000 </v>
   <v>       0.60000000       0.40000000       0.20000000 </v>
   <v>       0.60000000       0.40000000       0.40000000 </v>
   <v>       0.60000000       0.40000000       0.60000000 </v>
   <v>       0.60000000       0.40000000       0.80000000 </v>
   <v>       0.60000000       0.60000000       0.00000000 </v>
   <v>       0.60000000       0.60000000       0.20000000 </v>
   <v>       0.60000000       0.60000000       0.40000000 </v>
   <v>       0.60000000       0.60000000       0.60000000 </v>
   <v>       0.60000000       0.60000000       0.80000000 </v>
   <v>       0.60000000       0.80000000       0.00000000 </v>
   <v>       0.60000000       0.80000000       0.20000000 </v>
   <v>       0.60000000       0.80000000       0.40000000 </v>
   <v>       0.60000000       0.80000000       0.60000000 </v>
   <v>       0.60000000       0.80000000       0.80000000 </v>
   <v>       0.80000000       0.00000000       0.00000000 </v>
   <v>       0.80000000       0.00000000       0.20000000 </v>
   <v>       0.80000000       0.00000000       0.40000000 </v>
   <v>       0.80000000       0.00000000       0.60000000 </v>
   <v>       0.80000000       0.00000000       0.80000000 </v>
   <v>       0.80000000       0.20000000       0.00000000 </v>
   <v>       0.80000000       0.20000000       0.20000000 </v>
   <v>       0.80000000       0.20000000       0.40000000 </v>
   <v>       0.80000000       0.20000000       0.60000000 </v>
   <v>       0.80000000       0.20000000       0.80000000 </v>
   <v>       0.80000000       0.40000000       0.00000000 </v>
   <v>       0.80000000       0.40000000       0.20000000 </v>
   <v>       0.80000000       0.40000000       0.40000000 </v>
   <v>       0.80000000       0.40000000       0.60000000 </v>
   <v>       0.80000000       0.40000000       0.80000000 </v>
   <v>       0.80000000       0.60000000       0.00000000 </v>
   <v>       0.80000000       0.60000000       0.20000000 </v>
   <v>       0.80000000       0.60000000       0.40000000 </v>
   <v>       0.80000000       0.60000000       0.60000000 </v>
   <v>       0.80000000       0.60000000       0.80000000 </v>
   <v>       0.80000000       0.80000000       0.00000000 </v>
   <v>       0.80000000       0.80000000       0.20000000 </v>
   <v>       0.80000000       0.80000000       0.40000000 </v>
   <v>       0.80000000       0.80000000       0.60000000 </v>
   <v>       0.80000000       0.80000000       0.80000000 </v>
   <v>       0.10000000       0.10000000       0.10000000 </v>
   <v>       0.10000000       0.10000000       0.30000000 </v>
   <v>       0.10000000       0.10000000       0.50000000 </v>
   <v>       0.10000000       0.10000000       0.70000000 </v>
   <v>       0.10000000       0.10000000       0.90000000 </v>
   <v>       0.10000000       0.30000000       0.10000000 </v>
   <v>       0.10000000       0.30000000       0.30000000 </v>
   <v>       0.10000000       0.30000000       0.50000000 </v>
   <v>       0.10000000       0.30000000       0.70000000 </v>
   <v>       0.10000000       0.30000000       0.90000000 </v>
   <v>       0.10000000       0.50000000       0.10000000 </v>
   <v>       0.10000000       0.50000000       0.30000000 </v>
   <v>       0.10000000       0.50000000       0.50000000 </v>
   <v>       0.10000000       0.50000000       0.70000000 </v>
   <v>       0.10000000       0.50000000       0.90000000 </v>
   <v>       0.10000000       0.70000000       0.10000000 </v>
   <v>       0.10000000       0.70000000       0.30000000 </v>
   <v>       0.10000000       0.70000000       0.50000000 </v>
   <v>       0.10000000       0.70000000       0.70000000 </v>
   <v>       0.10000000       0.70000000       0.90000000 </v>
   <v>       0.10000000       0.90000000       0.10000000 </v>
   <v>       0.10000000       0.90000000       0.30000000 </v>
   <v>       0.10000000       0.90000000       0.50000000 </v>
   <v>       0.10000000       0.90000000       0.70000000 </v>
   <v>       0.10000000       0.90000000       0.90000000 </v>
   <v>       0.30000000       0.10000000       0.10000000 </v>
   <v>       0.30000000       0.10000000       0.30000000 </v>
   <v>       0.30000000       0.10000000       0.50000000 </v>
   <v>       0.30000000       0.10000000       0.70000000 </v>
   <v>       0.30000000       0.10000000       0.90000000 </v>
   <v>       0.30000000       0.30000000       0.10000000 </v>
   <v>       0.30000000       0.30000000       0.30000000 </v>
   <v>       0.30000000       0.30000000       0.50000000 </v>
   <v>       0.30000000       0.30000000       0.70000000 </v>
   <v>       0.30000000       0.30000000       0.90000000 </v>
   <v>       0.30000000       0.50000000       0.10000000 </v>
   <v>       0.30000000       0.50000000       0.30000000 </v>
   <v>       0.30000000       0.50000000       0.50000000 </v>
   <v>       0.30000000       0.50000000       0.70000000 </v>
   <v>       0.30000000       0.50000000       0.90000000 </v>
   <v>       0.30000000       0.70000000       0.10000000 </v>
   <v>       0.30000000       0.70000000       0.30000000 </v>
   <v>       0.30000000       0.70000000       0.50000000 </v>
   <v>       0.30000000       0.70000000       0.70000000 </v>
   <v>       0.30000000       0.70000000       0.90000000 </v>
   <v>       0.30000000       0.90000000       0.10000000 </v>
   <v>       0.30000000       0.90000000       0.30000000 </v>
   <v>       0.30000000       0.90000000       0.50000000 </v>
   <v>       0.30000000       0.90000000       0.70000000 </v>
   <v>       0.30000000       0.90000000       0.90000000 </v>
   <v>       0.50000000       0.10000000       0.10000000 </v>
   <v>       0.50000000       0.10000000       0.30000000 </v>
   <v>       0.50000000       0.10000000       0.50000000 </v>
   <v>       0.50000000       0.10000000       0.70000000 </v>
   <v>       0.50000000       0.10000000       0.90000000 </v>
   <v>       0.50000000       0.30000000       0.10000000 </v>
   <v>       0.50000000       0.30000000       0.30000000 </v>
   <v>       0.50000000       0.30000000       0.50000000 </v>
   <v>       0.50000000       0.30000000       0.70000000 </v>
   <v>       0.50000000       0.30000000       0.90000000 </v>
   <v>       0.50000000       0.50000000       0.10000000 </v>
   <v>       0.50000000       0.50000000       0.30000000 </v>
   <v>       0.50000000       0.50000000       0.50000000 </v>
   <v>       0.50000000       0.50000000       0.70000000 </v>
   <v>       0.50000000       0.50000000       0.90000000 </v>
   <v>       0.50000000       0.70000000       0.10000000 </v>
   <v>       0.50000000       0.70000000       0.30000000 </v>
   <v>       0.50000000       0.70000000       0.50000000 </v>
   <v>       0.50000000       0.70000000       0.70000000 </v>
   <v>       0.50000000       0.70000000       0.90000000 </v>
   <v>       0.50000000       0.90000000       0.10000000 </v>
   <v>       0.50000000       0.90000000       0.30000000 </v>
   <v>       0.50000000       0.90000000       0.50000000 </v>
   <v>       0.50000000       0.90000000       0.70000000 </v>
   <v>       0.50000000       0.90000000       0.90000000 </v>
   <v>       0.70000000       0.10000000       0.10000000 </v>
   <v>       0.70000000       0.10000000       0.30000000 </v>
   <v>       0.70000000       0.10000000       0.50000000 </v>
   <v>       0.70000000       0.10000000       0.70000000 </v>
   <v>       0.70000000       0.10000000       0.90000000 </v>
   <v>       0.70000000       0.30000000       0.10000000 </v>
   <v>       0.70000000       0.30000000       0.30000000 </v>
   <v>       0.70000000       0.30000000       0.50000000 </v>
   <v>       0.70000000       0.30000000       0.70000000 </v>
   <v>       0.70000000       0.30000000       0.90000000 </v>
   <v>       0.70000000       0.50000000       0.10000000 </v>
   <v>       0.70000000       0.50000000       0.30000000 </v>
   <v>       0.70000000       0.50000000       0.50000000 </v>
   <v>       0.70000000       0.50000000       0.70000000 </v>
   <v>       0.70000000       0.50000000       0.90000000 </v>
   <v>       0.70000000       0.70000000       0.10000000 </v>
   <v>       0.70000000       0.70000000       0.30000000 </v>
   <v>       0.70000000       0.70000000       0.50000000 </v>
   <v>       0.70000000       0.70000000       0.70000000 </v>
   <v>       0.70000000       0.70000000       0.90000000 </v>
   <v>       0.70000000       0.90000000       0.10000000 </v>
   <v>       0.70000000       0.90000000       0.30000000 </v>
   <v>       0.70000000       0.90000000       0.50000000 </v>
   <v>       0.70000000       0.90000000       0.70000000 </v>
   <v>       0.70000000       0.90000000       0.90000000 </v>
   <v>       0.90000000       0.10000000       0.10000000 </v>
   <v>       0.90000000       0.10000000       0.30000000 </v>
   <v>       0.90000000       0.10000000       0.50000000 </v>
   <v>       0.90000000       0.10000000       0.70000000 </v>
   <v>       0.90000000       0.10000000       0.90000000 </v>
   <v>       0.90000000       0.30000000       0.10000000 </v>
   <v>       0.90000000       0.30000000       0.30000000 </v>
   <v>       0.90000000       0.30000000       0.50000000 </v>
   <v>       0.90000000       0.30000000       0.70000000 </v>
   <v>       0.90000000       0.30000000       0.90000000 </v>
   <v>       0.90000000       0.50000000       0.10000000 </v>
   <v>       0.90000000       0.50000000       0.30000000 </v>
   <v>       0.90000000       0.50000000       0.50000000 </v>
   <v>       0.90000000       0.50000000       0.70000000 </v>
   <v>       0.90000000       0.50000000       0.90000000 </v>
   <v>       0.90000000       0.70000000       0.10000000 </v>
   <v>       0.90000000       0.70000000       0.30000000 </v>
   <v>       0.90000000       0.70000000       0.50000000 </v>
   <v>       0.90000000       0.70000000       0.70000000 </v>
   <v>       0.90000000       0.70000000       0.90000000 </v>
   <v>       0.90000000       0.90000000       0.10000000 </v>
   <v>       0.90000000       0.90000000       0.30000000 </v>
   <v>       0.90000000       0.90000000       0.50000000 </v>
   <v>       0.90000000       0.90000000       0.70000000 </v>
   <v>       0.90000000       0.90000000       0.90000000 </v>
   <v>       0.10000000       0.10000000       0.00000000 </v>
  </varray>
 </structure>
 <calculation>
  <scstep>
   <time name="dav">   17.97   17.98</time>
   <time name="total">   18.48   18.51</time>
   <energy>
    <i name="alphaZ">   8570.86455061 </i>
    <i name="ewald">-111142.76662352 </i>
    <i name="hartreedc"> -41238.04979367 </i>
    <i name="XCdc">  -1728.80731941 </i>
    <i name="pawpsdc"> 127645.62404219 </i>
    <i name="pawaedc">-133353.48305817 </i>
    <i name="eentropy">     -0.10701385 </i>
    <i name="bandstr">  21203.77907713 </i>
    <i name="atom"> 141826.55193982 </i>
    <i name="e_fr_energy">  11783.60580112 </i>
    <i name="e_wo_entrp">  11783.71281498 </i>
    <i name="e_0_energy">  11783.65930805 </i>
   </energy>
  </scstep>
  <scstep>
   <time name="dav">   17.72   17.73</time>
   <time name="total">   17.73   17.73</time>
   <energy>
    <i name="e_fr_energy">   -330.52317204 </i>
    <i name="e_wo_entrp">   -330.42282732 </i>
    <i name="e_0_energy">   -330.47299968 </i>
   </energy>
  </scstep>
  <scstep>
   <time name="dav">   25.60   25.60</time>
   <time name="total">   25.61   25.61</time>
   <energy>
    <i name="e_fr_energy">  -1380.81341446 </i>
    <i name="e_wo_entrp">  -1380.62040387 </i>
    <i name="e_0_energy">  -1380.71690917 </i>
   </energy>
  </scstep>
  <scstep>
   <time name="dav">   23.58   23.58</time>
   <time name="total">   23.59   23.59</time>
   <energy>
    <i name="e_fr_energy">  -1484.47871499 </i>
    <i name="e_wo_entrp">  -1484.27321929 </i>
    <i name="e_0_energy">  -1484.37596714 </i>
   </energy>
  </scstep>
  <scstep>
   <time name="dav">   27.75   27.75</time>
   <time name="total">   28.75   28.77</time>
   <energy>
    <i name="e_fr_energy">  -1493.35332496 </i>
    <i name="e_wo_entrp">  -1493.14791034 </i>
    <i name="e_0_energy">  -1493.25061765 </i>
   </energy>
  </scstep>
  <scstep>
   <time name="dav">   22.76   22.76</time>
   <time name="total">   24.25   24.26</time>
   <energy>
    <i name="e_fr_energy">  -1733.50709826 </i>
    <i name="e_wo_entrp">  -1733.47024170 </i>
    <i name="e_0_energy">  -1733.48866998 </i>
   </energy>
  </scstep>
  <scstep>
   <time name="dav">   20.94   20.95</time>
   <time name="total">   22.44   22.44</time>
   <energy>
    <i name="e_fr_energy">  -1338.20461218 </i>
    <i name="e_wo_entrp">  -1337.98004108 </i>
    <i name="e_0_energy">  -1338.09232663 </i>
   </energy>
  </scstep>
  <scstep>
   <time name="dav">   27.40   27.40</time>
   <time name="total">   28.90   28.90</time>
   <energy>
    <i name="e_fr_energy">  -1326.73424250 </i>
    <i name="e_wo_entrp">  -1326.63303747 </i>
    <i name="e_0_energy">  -1326.68363999 </i>
   </energy>
  </scstep>
  <scstep>
   <time name="dav">   25.12   25.12</time>
   <time name="total">   26.62   26.62</time>
   <energy>
    <i name="e_fr_energy">  -1326.84804224 </i>
    <i name="e_wo_entrp">  -1326.74257513 </i>
    <i name="e_0_energy">  -1326.79530868 </i>
   </energy>
  </scstep>
  <scstep>
   <time name="dav">   24.18   24.19</time>
   <time name="total">   25.69   25.69</time>
   <energy>
    <i name="e_fr_energy">  -1321.50523291 </i>
    <i name="e_wo_entrp">  -1321.40252090 </i>
    <i name="e_0_energy">  -1321.45387690 </i>
   </energy>
  </scstep>
  <scstep>
   <time name="dav">   24.97   24.98</time>
   <time name="total">   26.49   26.49</time>
   <energy>
    <i name="e_fr_energy">  -1320.95624464 </i>
    <i name="e_wo_entrp">  -1320.85253921 </i>
    <i name="e_0_energy">  -1320.90439193 </i>
   </energy>
  </scstep>
  <scstep>
   <time name="dav">   24.16   24.16</time>
   <time name="total">   25.65   25.66</time>
   <energy>
    <i name="e_fr_energy">  -1321.01384986 </i>
    <i name="e_wo_entrp">  -1320.90518019 </i>
    <i name="e_0_energy">  -1320.95951502 </i>
   </energy>
  </scstep>
  <scstep>
   <time name="dav">   21.12   21.13</time>
   <time name="total">   22.64   22.64</time>
   <energy>
    <i name="e_fr_energy">  -1321.03081272 </i>
    <i name="e_wo_entrp">  -1320.92603700 </i>
    <i name="e_0_energy">  -1320.97842486 </i>
   </energy>
  </scstep>
  <scstep>
   <time name="dav">   21.03   21.03</time>
   <time name="total">   22.56   22.56</time>
   <energy>
    <i name="e_fr_energy">  -1320.95869406 </i>
    <i name="e_wo_entrp">  -1320.85556196 </i>
    <i name="e_0_energy">  -1320.90712801 </i>
   </energy>
  </scstep>
  <scstep>
   <time name="dav">   24.48   24.48</time>
   <time name="total">   26.01   26.02</time>
   <energy>
    <i name="e_fr_energy">  -1320.95063755 </i>
    <i name="e_wo_entrp">  -1320.84757937 </i>
    <i name="e_0_energy">  -1320.89910846 </i>
   </energy>
  </scstep>
  <scstep>
   <time name="dav">   21.08   21.08</time>
   <time name="total">   22.61   22.62</time>
   <energy>
    <i name="e_fr_energy">  -1320.94302205 </i>
    <i name="e_wo_entrp">  -1320.84040291 </i>
    <i name="e_0_energy">  -1320.89171248 </i>
   </energy>
  </scstep>
  <scstep>
   <time name="dav">   26.39   26.39</time>
   <time name="total">   27.93   27.93</time>
   <energy>
    <i name="e_fr_energy">  -1320.94435993 </i>
    <i name="e_wo_entrp">  -1320.84156255 </i>
    <i name="e_0_energy">  -1320.89296124 </i>
   </energy>
  </scstep>
  <scstep>
   <time name="dav">   21.43   21.43</time>
   <time name="total">   22.97   22.98</time>
   <energy>
    <i name="e_fr_energy">  -1320.94336547 </i>
    <i name="e_wo_entrp">  -1320.84040845 </i>
    <i name="e_0_energy">  -1320.89188696 </i>
   </energy>
  </scstep>
  <scstep>
   <time name="dav">   27.82   27.82</time>
   <time name="total">   29.37   29.37</time>
   <energy>
    <i name="e_fr_energy">  -1320.94379999 </i>
    <i name="e_wo_entrp">  -1320.84069085 </i>
    <i name="e_0_energy">  -1320.89224542 </i>
   </energy>
  </scstep>
  <scstep>
   <time name="dav">   22.20   22.20</time>
   <time name="total">   23.75   23.76</time>
   <energy>
    <i name="e_fr_energy">  -1320.94366625 </i>
    <i name="e_wo_entrp">  -1320.84055057 </i>
    <i name="e_0_energy">  -1320.89210841 </i>
   </energy>
  </scstep>
  <scstep>
   <time name="dav">   27.32   27.33</time>
   <time name="total">   28.89   28.89</time>
   <energy>
    <i name="e_fr_energy">  -1320.94326601 </i>
    <i name="e_wo_entrp">  -1320.84023842 </i>
    <i name="e_0_energy">  -1320.89175221 </i>
   </energy>
  </scstep>
  <scstep>
   <time name="dav">   24.55   24.55</time>
   <time name="total">   26.13   26.14</time>
   <energy>
    <i name="e_fr_energy">  -1320.94316663 </i>
    <i name="e_wo_entrp">  -1320.84020673 </i>
    <i name="e_0_energy">  -1320.89168668 </i>
   </energy>
  </scstep>
  <scstep>
   <time name="dav">   25.95   25.95</time>
   <time name="total">   27.53   27.53</time>
   <energy>
    <i name="e_fr_energy">  -1320.94304952 </i>
    <i name="e_wo_entrp">  -1320.84016654 </i>
    <i name="e_0_energy">  -1320.89160803 </i>
   </energy>
  </scstep>
  <scstep>
   <time name="dav">   25.25   25.26</time>
   <time name="total">   26.85   26.85</time>
   <energy>
    <i name="e_fr_energy">  -1320.94302996 </i>
    <i name="e_wo_entrp">  -1320.84017692 </i>
    <i name="e_0_energy">  -1320.89160344 </i>
   </energy>
  </scstep>
  <scstep>
   <time name="dav">   24.23   24.23</time>
   <time name="total">   25.81   25.81</time>
   <energy>
    <i name="e_fr_energy">  -1320.94301556 </i>
    <i name="e_wo_entrp">  -1320.84018203 </i>
    <i name="e_0_energy">  -1320.89159879 </i>
   </energy>
  </scstep>
  <scstep>
   <time name="dav">   27.56   27.56</time>
   <time name="total">   29.16   29.16</time>
   <energy>
    <i name="e_fr_energy">  -1320.94301005 </i>
    <i name="e_wo_entrp">  -1320.84018268 </i>
    <i name="e_0_energy">  -1320.89159637 </i>
   </energy>
  </scstep>
  <scstep>
   <time name="dav">   23.14   23.14</time>
   <time name="total">   24.76   24.76</time>
   <energy>
    <i name="e_fr_energy">  -1320.94300836 </i>
    <i name="e_wo_entrp">  -1320.84019033 </i>
    <i name="e_0_energy">  -1320.89159935 </i>
   </energy>
  </scstep>
  <scstep>
   <time name="dav">   21.07   21.08</time>
   <time name="total">   22.69   22.70</time>
   <energy>
    <i name="e_fr_energy">  -1320.94300825 </i>
    <i name="e_wo_entrp">  -1320.84019260 </i>
    <i name="e_0_energy">  -1320.89160042 </i>
   </energy>
  </scstep>
  <scstep>
   <time name="dav">   14.66   14.66</time>
   <time name="total">   15.17   15.17</time>
   <energy>
    <i name="alphaZ">   8570.86455061 </i>
    <i name="ewald">-111142.76662352 </i>
    <i name="hartreedc"> -38967.43947849 </i>
    <i name="XCdc">  -1803.41922141 </i>
    <i name="pawpsdc"> 148920.31171649 </i>
    <i name="pawaedc">-154724.20419798 </i>
    <i name="eentropy">     -0.10281719 </i>
    <i name="bandstr">   5999.26112345 </i>
    <i name="atom"> 141826.55193982 </i>
    <i name="e_fr_energy">  -1320.94300823 </i>
    <i name="e_wo_entrp">  -1320.84019104 </i>
    <i name="e_0_energy">  -1320.89159963 </i>
   </energy>
  </scstep>
  <structure>
   <crystal>
    <varray name="basis" >
     <v>      14.50000000       0.00000000       0.00000000 </v>
     <v>       0.00000000      14.50000000       0.00000000 </v>
     <v>       0.00000000       0.00000000      14.50000000 </v>
    </varray>
    <i name="volume">   3048.62500000 </i>
    <varray name="rec_basis" >
     <v>       0.06896552       0.00000000       0.00000000 </v>
     <v>       0.00000000       0.06896552       0.00000000 </v>
     <v>       0.00000000       0.00000000       0.06896552 </v>
[...]
       <r>     5.7867    31.8713  1475.4738 </r>
       <r>     5.8781   127.7745  1487.1500 </r>
       <r>     5.9694    66.9381  1493.2670 </r>
       <r>     6.0608   101.2774  1502.5219 </r>
       <r>     6.1522   201.5511  1520.9399 </r>
       <r>     6.2436   270.6664  1545.6739 </r>
       <r>     6.3350   168.6668  1561.0869 </r>
       <r>     6.4263   235.4182  1582.5999 </r>
       <r>     6.5177   188.2797  1599.8052 </r>
       <r>     6.6091   147.5500  1613.2886 </r>
       <r>     6.7005   112.1170  1623.5340 </r>
       <r>     6.7919    56.6046  1628.7066 </r>
       <r>     6.8833    95.1078  1637.3977 </r>
       <r>     6.9746    81.4288  1644.8388 </r>
       <r>     7.0660    77.6448  1651.9342 </r>
       <r>     7.1574    81.3789  1659.3707 </r>
       <r>     7.2488    88.1926  1667.4299 </r>
       <r>     7.3402    83.0968  1675.0234 </r>
       <r>     7.4315   141.4017  1687.9449 </r>
       <r>     7.5229    83.0202  1695.5315 </r>
       <r>     7.6143    53.1379  1700.3873 </r>
       <r>     7.7057    49.3270  1704.8949 </r>
       <r>     7.7971    29.7833  1707.6165 </r>
       <r>     7.8885    45.4399  1711.7689 </r>
       <r>     7.9798    51.2671  1716.4538 </r>
       <r>     8.0712    25.2918  1718.7650 </r>
       <r>     8.1626    23.5521  1720.9172 </r>
       <r>     8.2540    14.7085  1722.2613 </r>
       <r>     8.3454    24.6948  1724.5180 </r>
       <r>     8.4367    17.7725  1726.1420 </r>
       <r>     8.5281    26.1518  1728.5318 </r>
       <r>     8.6195    53.4079  1733.4123 </r>
       <r>     8.7109    91.6916  1741.7913 </r>
       <r>     8.8023   169.1463  1757.2482 </r>
       <r>     8.8937   135.1345  1769.5970 </r>
       <r>     8.9850   114.1438  1780.0276 </r>
       <r>     9.0764    53.9157  1784.9545 </r>
       <r>     9.1678   127.4784  1796.6037 </r>
       <r>     9.2592    98.4964  1805.6045 </r>
       <r>     9.3506    71.0082  1812.0934 </r>
       <r>     9.4419    53.5197  1816.9841 </r>
       <r>     9.5333   100.7195  1826.1880 </r>
       <r>     9.6247   194.5525  1843.9665 </r>
       <r>     9.7161   101.0196  1853.1979 </r>
       <r>     9.8075    70.8500  1859.6723 </r>
       <r>     9.8989   181.7702  1876.2827 </r>
       <r>     9.9902   103.1618  1885.7098 </r>
       <r>    10.0816    39.7364  1889.3410 </r>
       <r>    10.1730    40.5179  1893.0436 </r>
       <r>    10.2644   125.1033  1904.4758 </r>
       <r>    10.3558   131.8980  1916.5288 </r>
       <r>    10.4471    52.6125  1921.3366 </r>
       <r>    10.5385    82.8084  1928.9038 </r>
       <r>    10.6299    97.8824  1937.8485 </r>
       <r>    10.7213    94.1866  1946.4554 </r>
       <r>    10.8127    51.6883  1951.1788 </r>
       <r>    10.9040    25.1203  1953.4743 </r>
       <r>    10.9954    26.7538  1955.9191 </r>
       <r>    11.0868     0.8850  1956.0000 </r>
       <r>    11.1782     0.0001  1956.0000 </r>
       <r>    11.2696     0.0000  1956.0000 </r>
       <r>    11.3610     0.0000  1956.0000 </r>
       <r>    11.4523     0.0000  1956.0000 </r>
       <r>    11.5437     0.0000  1956.0000 </r>
       <r>    11.6351     0.0000  1956.0000 </r>
       <r>    11.7265     0.0000  1956.0000 </r>
       <r>    11.8179     0.0000  1956.0000 </r>
       <r>    11.9092     0.0000  1956.0000 </r>
       <r>    12.0006     0.0000  1956.0000 </r>
       <r>    12.0920     0.0000  1956.0000 </r>
       <r>    12.1834     0.0000  1956.0000 </r>
      </set>
     </set>
    </array>
   </total>
  </dos>
 </calculation>
 <structure name="finalpos" >
  <crystal>
   <varray name="basis" >
    <v>      14.50000000       0.00000000       0.00000000 </v>
    <v>       0.00000000      14.50000000       0.00000000 </v>
    <v>       0.00000000       0.00000000      14.50000000 </v>
   </varray>
   <i name="volume">   3048.62500000 </i>
   <varray name="rec_basis" >
    <v>       0.06896552       0.00000000       0.00000000 </v>
    <v>       0.00000000       0.06896552       0.00000000 </v>
    <v>       0.00000000       0.00000000       0.06896552 </v>
   </varray>
  </crystal>
  <varray name="positions" >
   <v>      -0.00938165      -0.00938165       0.00000000 </v>
   <v>      -0.00186622      -0.00186622       0.20096759 </v>
   <v>      -0.00044662      -0.00044662       0.39996997 </v>
   <v>      -0.00044662      -0.00044662       0.60003003 </v>
   <v>      -0.00186622      -0.00186622       0.79903241 </v>
   <v>      -0.00938165       0.20938165       0.00000000 </v>
   <v>      -0.00186622       0.20186622       0.20096759 </v>
   <v>      -0.00044662       0.20044662       0.39996997 </v>
   <v>      -0.00044662       0.20044662       0.60003003 </v>
   <v>      -0.00186622       0.20186622       0.79903241 </v>
   <v>      -0.00010565       0.40027197       0.00000000 </v>
   <v>      -0.00034407       0.40083225       0.20084159 </v>
   <v>      -0.00006442       0.40023892       0.40028098 </v>
   <v>      -0.00006442       0.40023892       0.59971902 </v>
   <v>      -0.00034407       0.40083225       0.79915841 </v>
   <v>      -0.00001609       0.60000000       0.00000000 </v>
   <v>      -0.00017114       0.60000000       0.20012244 </v>
   <v>       0.00003139       0.60000000       0.40012146 </v>
   <v>       0.00003139       0.60000000       0.59987854 </v>
   <v>      -0.00017114       0.60000000       0.79987756 </v>
   <v>      -0.00010565       0.79972803       0.00000000 </v>
   <v>      -0.00034407       0.79916775       0.20084159 </v>
   <v>      -0.00006442       0.79976108       0.40028098 </v>
   <v>      -0.00006442       0.79976108       0.59971902 </v>
   <v>      -0.00034407       0.79916775       0.79915841 </v>
   <v>       0.20938165      -0.00938165       0.00000000 </v>
   <v>       0.20186622      -0.00186622       0.20096759 </v>
   <v>       0.20044662      -0.00044662       0.39996997 </v>
   <v>       0.20044662      -0.00044662       0.60003003 </v>
   <v>       0.20186622      -0.00186622       0.79903241 </v>
   <v>       0.20938165       0.20938165       0.00000000 </v>
   <v>       0.20186622       0.20186622       0.20096759 </v>
   <v>       0.20044662       0.20044662       0.39996997 </v>
   <v>       0.20044662       0.20044662       0.60003003 </v>
   <v>       0.20186622       0.20186622       0.79903241 </v>
   <v>       0.20010565       0.40027197       0.00000000 </v>
   <v>       0.20034407       0.40083225       0.20084159 </v>
   <v>       0.20006442       0.40023892       0.40028098 </v>
   <v>       0.20006442       0.40023892       0.59971902 </v>
   <v>       0.20034407       0.40083225       0.79915841 </v>
   <v>       0.20001609       0.60000000       0.00000000 </v>
   <v>       0.20017114       0.60000000       0.20012244 </v>
   <v>       0.19996861       0.60000000       0.40012146 </v>
   <v>       0.19996861       0.60000000       0.59987854 </v>
   <v>       0.20017114       0.60000000       0.79987756 </v>
   <v>       0.20010565       0.79972803       0.00000000 </v>
   <v>       0.20034407       0.79916775       0.20084159 </v>
   <v>       0.20006442       0.79976108       0.40028098 </v>
   <v>       0.20006442       0.79976108       0.59971902 </v>
   <v>       0.20034407       0.79916775       0.79915841 </v>
   <v>       0.40027197      -0.00010565       0.00000000 </v>
   <v>       0.40083225      -0.00034407       0.20084159 </v>
   <v>       0.40023892      -0.00006442       0.40028098 </v>
   <v>       0.40023892      -0.00006442       0.59971902 </v>
   <v>       0.40083225      -0.00034407       0.79915841 </v>
   <v>       0.40027197       0.20010565       0.00000000 </v>
   <v>       0.40083225       0.20034407       0.20084159 </v>
   <v>       0.40023892       0.20006442       0.40028098 </v>
   <v>       0.40023892       0.20006442       0.59971902 </v>
   <v>       0.40083225       0.20034407       0.79915841 </v>
   <v>       0.40110525       0.40110525       0.00000000 </v>
   <v>       0.40079684       0.40079684       0.20041575 </v>
   <v>       0.40027476       0.40027476       0.40013160 </v>
   <v>       0.40027476       0.40027476       0.59986840 </v>
   <v>       0.40079684       0.40079684       0.79958425 </v>
   <v>       0.40007731       0.60000000       0.00000000 </v>
   <v>       0.40017360       0.60000000       0.20011139 </v>
   <v>       0.40004835       0.60000000       0.40021517 </v>
   <v>       0.40004835       0.60000000       0.59978483 </v>
   <v>       0.40017360       0.60000000       0.79988861 </v>
   <v>       0.40110525       0.79889475       0.00000000 </v>
   <v>       0.40079684       0.79920316       0.20041575 </v>
   <v>       0.40027476       0.79972524       0.40013160 </v>
   <v>       0.40027476       0.79972524       0.59986840 </v>
   <v>       0.40079684       0.79920316       0.79958425 </v>
   <v>       0.60000000      -0.00001609       0.00000000 </v>
   <v>       0.60000000      -0.00017114       0.20012244 </v>
   <v>       0.60000000       0.00003139       0.40012146 </v>
   <v>       0.60000000       0.00003139       0.59987854 </v>
   <v>       0.60000000      -0.00017114       0.79987756 </v>
   <v>       0.60000000       0.20001609       0.00000000 </v>
   <v>       0.60000000       0.20017114       0.20012244 </v>
   <v>       0.60000000       0.19996861       0.40012146 </v>
   <v>       0.60000000       0.19996861       0.59987854 </v>
   <v>       0.60000000       0.20017114       0.79987756 </v>
   <v>       0.60000000       0.40007731       0.00000000 </v>
   <v>       0.60000000       0.40017360       0.20011139 </v>
   <v>       0.60000000       0.40004835       0.40021517 </v>
   <v>       0.60000000       0.40004835       0.59978483 </v>
   <v>       0.60000000       0.40017360       0.79988861 </v>
   <v>       0.60000000       0.60000000       0.00000000 </v>
   <v>       0.60000000       0.60000000       0.20015605 </v>
   <v>       0.60000000       0.60000000       0.40007194 </v>
   <v>       0.60000000       0.60000000       0.59992806 </v>
   <v>       0.60000000       0.60000000       0.79984395 </v>
   <v>       0.60000000       0.79992269       0.00000000 </v>
   <v>       0.60000000       0.79982640       0.20011139 </v>
   <v>       0.60000000       0.79995165       0.40021517 </v>
   <v>       0.60000000       0.79995165       0.59978483 </v>
   <v>       0.60000000       0.79982640       0.79988861 </v>
   <v>       0.79972803      -0.00010565       0.00000000 </v>
   <v>       0.79916775      -0.00034407       0.20084159 </v>
   <v>       0.79976108      -0.00006442       0.40028098 </v>
   <v>       0.79976108      -0.00006442       0.59971902 </v>
   <v>       0.79916775      -0.00034407       0.79915841 </v>
   <v>       0.79972803       0.20010565       0.00000000 </v>
   <v>       0.79916775       0.20034407       0.20084159 </v>
   <v>       0.79976108       0.20006442       0.40028098 </v>
   <v>       0.79976108       0.20006442       0.59971902 </v>
   <v>       0.79916775       0.20034407       0.79915841 </v>
   <v>       0.79889475       0.40110525       0.00000000 </v>
   <v>       0.79920316       0.40079684       0.20041575 </v>
   <v>       0.79972524       0.40027476       0.40013160 </v>
   <v>       0.79972524       0.40027476       0.59986840 </v>
   <v>       0.79920316       0.40079684       0.79958425 </v>
   <v>       0.79992269       0.60000000       0.00000000 </v>
   <v>       0.79982640       0.60000000       0.20011139 </v>
   <v>       0.79995165       0.60000000       0.40021517 </v>
   <v>       0.79995165       0.60000000       0.59978483 </v>
   <v>       0.79982640       0.60000000       0.79988861 </v>
   <v>       0.79889475       0.79889475       0.00000000 </v>
   <v>       0.79920316       0.79920316       0.20041575 </v>
   <v>       0.79972524       0.79972524       0.40013160 </v>
   <v>       0.79972524       0.79972524       0.59986840 </v>
   <v>       0.79920316       0.79920316       0.79958425 </v>
   <v>       0.10000000       0.10000000       0.12029473 </v>
   <v>       0.10000000       0.10000000       0.30436050 </v>
   <v>       0.10000000       0.10000000       0.50000000 </v>
   <v>       0.10000000       0.10000000       0.69563950 </v>
   <v>       0.10000000       0.10000000       0.87970527 </v>
   <v>       0.10000000       0.30182188       0.10104940 </v>
   <v>       0.10000000       0.30050483       0.30044141 </v>
   <v>       0.10000000       0.30008060       0.50000000 </v>
   <v>       0.10000000       0.30050483       0.69955859 </v>
   <v>       0.10000000       0.30182188       0.89895060 </v>
   <v>       0.10000000       0.50022415       0.10008437 </v>
   <v>       0.10000000       0.50030156       0.30014235 </v>
   <v>       0.10000000       0.50010579       0.50000000 </v>
   <v>       0.10000000       0.50030156       0.69985765 </v>
   <v>       0.10000000       0.50022415       0.89991563 </v>
   <v>       0.10000000       0.69977585       0.10008437 </v>
   <v>       0.10000000       0.69969844       0.30014235 </v>
   <v>       0.10000000       0.69989421       0.50000000 </v>
   <v>       0.10000000       0.69969844       0.69985765 </v>
   <v>       0.10000000       0.69977585       0.89991563 </v>
   <v>       0.10000000       0.89817812       0.10104940 </v>
   <v>       0.10000000       0.89949517       0.30044141 </v>
   <v>       0.10000000       0.89991940       0.50000000 </v>
   <v>       0.10000000       0.89949517       0.69955859 </v>
   <v>       0.10000000       0.89817812       0.89895060 </v>
   <v>       0.30182188       0.10000000       0.10104940 </v>
   <v>       0.30050483       0.10000000       0.30044141 </v>
   <v>       0.30008060       0.10000000       0.50000000 </v>
   <v>       0.30050483       0.10000000       0.69955859 </v>
   <v>       0.30182188       0.10000000       0.89895060 </v>
   <v>       0.30205833       0.30205833       0.10105548 </v>
   <v>       0.30088537       0.30088537       0.30074763 </v>
   <v>       0.30031004       0.30031004       0.50000000 </v>
   <v>       0.30088537       0.30088537       0.69925237 </v>
   <v>       0.30205833       0.30205833       0.89894452 </v>
   <v>       0.30012433       0.50026672       0.10001890 </v>
   <v>       0.30025369       0.50032668       0.30033364 </v>
   <v>       0.30011641       0.50015755       0.50000000 </v>
   <v>       0.30025369       0.50032668       0.69966636 </v>
   <v>       0.30012433       0.50026672       0.89998110 </v>
   <v>       0.30012433       0.69973328       0.10001890 </v>
   <v>       0.30025369       0.69967332       0.30033364 </v>
   <v>       0.30011641       0.69984245       0.50000000 </v>
   <v>       0.30025369       0.69967332       0.69966636 </v>
   <v>       0.30012433       0.69973328       0.89998110 </v>
   <v>       0.30205833       0.89794167       0.10105548 </v>
   <v>       0.30088537       0.89911463       0.30074763 </v>
   <v>       0.30031004       0.89968996       0.50000000 </v>
   <v>       0.30088537       0.89911463       0.69925237 </v>
   <v>       0.30205833       0.89794167       0.89894452 </v>
   <v>       0.50022415       0.10000000       0.10008437 </v>
   <v>       0.50030156       0.10000000       0.30014235 </v>
   <v>       0.50010579       0.10000000       0.50000000 </v>
   <v>       0.50030156       0.10000000       0.69985765 </v>
   <v>       0.50022415       0.10000000       0.89991563 </v>
   <v>       0.50026672       0.30012433       0.10001890 </v>
   <v>       0.50032668       0.30025369       0.30033364 </v>
   <v>       0.50015755       0.30011641       0.50000000 </v>
   <v>       0.50032668       0.30025369       0.69966636 </v>
   <v>       0.50026672       0.30012433       0.89998110 </v>
   <v>       0.50032195       0.50032195       0.10005872 </v>
   <v>       0.50024772       0.50024772       0.30031430 </v>
   <v>       0.50011765       0.50011765       0.50000000 </v>
   <v>       0.50024772       0.50024772       0.69968570 </v>
   <v>       0.50032195       0.50032195       0.89994128 </v>
   <v>       0.50032195       0.69967805       0.10005872 </v>
   <v>       0.50024772       0.69975228       0.30031430 </v>
   <v>       0.50011765       0.69988235       0.50000000 </v>
   <v>       0.50024772       0.69975228       0.69968570 </v>
   <v>       0.50032195       0.69967805       0.89994128 </v>
   <v>       0.50026672       0.89987567       0.10001890 </v>
   <v>       0.50032668       0.89974631       0.30033364 </v>
   <v>       0.50015755       0.89988359       0.50000000 </v>
   <v>       0.50032668       0.89974631       0.69966636 </v>
   <v>       0.50026672       0.89987567       0.89998110 </v>
   <v>       0.69977585       0.10000000       0.10008437 </v>
   <v>       0.69969844       0.10000000       0.30014235 </v>
   <v>       0.69989421       0.10000000       0.50000000 </v>
   <v>       0.69969844       0.10000000       0.69985765 </v>
   <v>       0.69977585       0.10000000       0.89991563 </v>
   <v>       0.69973328       0.30012433       0.10001890 </v>
   <v>       0.69967332       0.30025369       0.30033364 </v>
   <v>       0.69984245       0.30011641       0.50000000 </v>
   <v>       0.69967332       0.30025369       0.69966636 </v>
   <v>       0.69973328       0.30012433       0.89998110 </v>
   <v>       0.69967805       0.50032195       0.10005872 </v>
   <v>       0.69975228       0.50024772       0.30031430 </v>
   <v>       0.69988235       0.50011765       0.50000000 </v>
   <v>       0.69975228       0.50024772       0.69968570 </v>
   <v>       0.69967805       0.50032195       0.89994128 </v>
   <v>       0.69967805       0.69967805       0.10005872 </v>
   <v>       0.69975228       0.69975228       0.30031430 </v>
   <v>       0.69988235       0.69988235       0.50000000 </v>
   <v>       0.69975228       0.69975228       0.69968570 </v>
   <v>       0.69967805       0.69967805       0.89994128 </v>
   <v>       0.69973328       0.89987567       0.10001890 </v>
   <v>       0.69967332       0.89974631       0.30033364 </v>
   <v>       0.69984245       0.89988359       0.50000000 </v>
   <v>       0.69967332       0.89974631       0.69966636 </v>
   <v>       0.69973328       0.89987567       0.89998110 </v>
   <v>       0.89817812       0.10000000       0.10104940 </v>
   <v>       0.89949517       0.10000000       0.30044141 </v>
   <v>       0.89991940       0.10000000       0.50000000 </v>
   <v>       0.89949517       0.10000000       0.69955859 </v>
   <v>       0.89817812       0.10000000       0.89895060 </v>
   <v>       0.89794167       0.30205833       0.10105548 </v>
   <v>       0.89911463       0.30088537       0.30074763 </v>
   <v>       0.89968996       0.30031004       0.50000000 </v>
   <v>       0.89911463       0.30088537       0.69925237 </v>
   <v>       0.89794167       0.30205833       0.89894452 </v>
   <v>       0.89987567       0.50026672       0.10001890 </v>
   <v>       0.89974631       0.50032668       0.30033364 </v>
   <v>       0.89988359       0.50015755       0.50000000 </v>
   <v>       0.89974631       0.50032668       0.69966636 </v>
   <v>       0.89987567       0.50026672       0.89998110 </v>
   <v>       0.89987567       0.69973328       0.10001890 </v>
   <v>       0.89974631       0.69967332       0.30033364 </v>
   <v>       0.89988359       0.69984245       0.50000000 </v>
   <v>       0.89974631       0.69967332       0.69966636 </v>
   <v>       0.89987567       0.69973328       0.89998110 </v>
   <v>       0.89794167       0.89794167       0.10105548 </v>
   <v>       0.89911463       0.89911463       0.30074763 </v>
   <v>       0.89968996       0.89968996       0.50000000 </v>
   <v>       0.89911463       0.89911463       0.69925237 </v>
   <v>       0.89794167       0.89794167       0.89894452 </v>
   <v>       0.10000000       0.10000000       0.00000000 </v>
  </varray>
 </structure>
</modeling>
