    4    4    1    1
  0.7621563E+03  0.1450000E-08  0.1450000E-08  0.1450000E-08  0.5000000E-15
   1.0000000000000000E-004
  CAR 
 NiAl                                    
     24      1     16
 
  0.1262379E-14  0.1262379E-14  0.1262379E-14  0.1000000E+01
    1      -32.902699   1.000000
    2      -32.666704   1.000000
    3      -19.801630   1.000000
    4      -19.800245   1.000000
    5      -13.627525   1.000000
    6      -13.145364   1.000000
    7      -13.106932   1.000000
    8      -12.836534   1.000000
    9      -12.835898   1.000000
   10      -12.054909   1.000000
   11       -5.875318   0.999900
   12       -5.743901   0.500794
   13       -5.743768   0.499288
   14       -5.597706   0.000018
   15       -0.259403   0.000000
   16        0.410605   0.000000
