<?xml version="1.0" encoding="ISO-8859-1"?>
<modeling>
 <generator>
  <i name="program" type="string">vasp </i>
  <i name="version" type="string">6.2.1  </i>
  <i name="subversion" type="string">16May21 (build Jun 16 2021 03:23:30) complex                          parallel </i>
  <i name="platform" type="string">LinuxPGI </i>
  <i name="date" type="string">2022 04 23 </i>
  <i name="time" type="string">22:27:00 </i>
 </generator>
 <incar>
  <i type="string" name="SYSTEM">NiAl</i>
  <i type="int" name="ISTART">     0</i>
  <i type="int" name="NELMIN">     6</i>
  <i name="EDIFF">      0.00000010</i>
  <i name="ENCUT">    360.00000000</i>
  <i type="string" name="LREAL">Auto</i>
  <i type="logical" name="LPLANE"> T  </i>
  <i type="int" name="ISMEAR">     0</i>
  <i name="SIGMA">      0.05000000</i>
  <i type="logical" name="LWAVE"> F  </i>
  <i type="logical" name="LCHARG"> F  </i>
  <i type="int" name="IVDW">    12</i>
 </incar>
 <primitive_cell>
  <structure name="primitive_cell" >
   <crystal>
    <varray name="basis" >
     <v>      14.50000000       0.00000000       0.00000000 </v>
     <v>       0.00000000      14.50000000       0.00000000 </v>
     <v>       0.00000000       0.00000000      14.50000000 </v>
    </varray>
    <i name="volume">   3048.62500000 </i>
    <varray name="rec_basis" >
     <v>       0.06896552       0.00000000       0.00000000 </v>
     <v>       0.00000000       0.06896552       0.00000000 </v>
     <v>       0.00000000       0.00000000       0.06896552 </v>
    </varray>
   </crystal>
   <varray name="positions" >
    <v>       0.00000000       0.00000000       0.00000000 </v>
    <v>       0.08275862       0.00000000       0.00000000 </v>
    <v>       0.03448276       0.95862069       0.17241379 </v>
    <v>       0.03448276       0.04137931       0.17241379 </v>
   </varray>
  </structure>
  <varray name="primitive_index" >
   <v type="int" >        1 </v>
   <v type="int" >        2 </v>
   <v type="int" >        3 </v>
   <v type="int" >        4 </v>
  </varray>
 </primitive_cell>
 <kpoints>
  <generation param="Gamma">
   <v type="int" name="divisions">       1        1        1 </v>
   <v name="usershift">      0.00000000       0.00000000       0.00000000 </v>
   <v name="genvec1">      1.00000000       0.00000000       0.00000000 </v>
   <v name="genvec2">      0.00000000       1.00000000       0.00000000 </v>
   <v name="genvec3">      0.00000000       0.00000000       1.00000000 </v>
   <v name="shift">      0.00000000       0.00000000       0.00000000 </v>
  </generation>
  <varray name="kpointlist" >
   <v>       0.00000000       0.00000000       0.00000000 </v>
  </varray>
  <varray name="weights" >
   <v>       1.00000000 </v>
  </varray>
 </kpoints>
 <parameters>
  <separator name="general" >
   <i type="string" name="SYSTEM">NiAl</i>
   <i type="logical" name="LCOMPAT"> F  </i>
  </separator>
  <separator name="electronic" >
   <i type="string" name="PREC">normal</i>
   <i name="ENMAX">    360.00000000</i>
   <i name="ENAUG">   1139.60900000</i>
   <i name="EDIFF">      0.00000010</i>
   <i type="int" name="IALGO">    38</i>
   <i type="int" name="IWAVPR">    10</i>
   <i type="int" name="NBANDS">    16</i>
   <i type="int" name="NBANDSLOW">    -1</i>
   <i type="int" name="NBANDSHIGH">    -1</i>
   <i name="NELECT">     24.00000000</i>
   <i type="int" name="TURBO">     0</i>
   <i type="int" name="IRESTART">     0</i>
   <i type="int" name="NREBOOT">     0</i>
   <i type="int" name="NMIN">     0</i>
   <i name="EREF">      0.00000000</i>
   <separator name="electronic smearing" >
    <i type="int" name="ISMEAR">     0</i>
    <i name="SIGMA">      0.05000000</i>
    <i name="KSPACING">      0.50000000</i>
    <i type="logical" name="KGAMMA"> T  </i>
    <i type="logical" name="KBLOWUP"> T  </i>
   </separator>
   <separator name="electronic projectors" >
    <i type="logical" name="LREAL"> T  </i>
    <v name="ROPT">     -0.00050000</v>
    <i type="int" name="LMAXPAW">  -100</i>
    <i type="int" name="LMAXMIX">     2</i>
    <i type="logical" name="NLSPLINE"> F  </i>
   </separator>
   <separator name="electronic startup" >
    <i type="int" name="ISTART">     0</i>
    <i type="int" name="ICHARG">     2</i>
    <i type="int" name="INIWAV">     1</i>
   </separator>
   <separator name="electronic spin" >
    <i type="int" name="ISPIN">     1</i>
    <i type="logical" name="LNONCOLLINEAR"> F  </i>
    <v name="MAGMOM">      1.00000000      1.00000000      1.00000000      1.00000000</v>
    <i name="NUPDOWN">     -1.00000000</i>
    <i type="logical" name="LSORBIT"> F  </i>
    <v name="SAXIS">      0.00000000      0.00000000      1.00000000</v>
    <i type="logical" name="LSPIRAL"> F  </i>
    <v name="QSPIRAL">      0.00000000      0.00000000      0.00000000</v>
    <i type="logical" name="LZEROZ"> F  </i>
   </separator>
   <separator name="electronic exchange-correlation" >
    <i type="logical" name="LASPH"> F  </i>
    <i type="logical" name="LMETAGGA"> F  </i>
   </separator>
   <separator name="electronic convergence" >
    <i type="int" name="NELM">    60</i>
    <i type="int" name="NELMDL">    -5</i>
    <i type="int" name="NELMIN">     6</i>
    <i name="ENINI">    360.00000000</i>
    <separator name="electronic convergence detail" >
     <i type="logical" name="LDIAG"> T  </i>
     <i type="logical" name="LSUBROT"> F  </i>
     <i name="WEIMIN">      0.00000000</i>
     <i name="EBREAK">      0.00000000</i>
     <i name="DEPER">      0.30000000</i>
     <i type="int" name="NRMM">     4</i>
     <i name="TIME">      0.40000000</i>
    </separator>
   </separator>
   <separator name="electronic mixer" >
    <i name="AMIX">      0.40000000</i>
    <i name="BMIX">      1.00000000</i>
    <i name="AMIN">      0.10000000</i>
    <i name="AMIX_MAG">      1.60000000</i>
    <i name="BMIX_MAG">      1.00000000</i>
    <separator name="electronic mixer details" >
     <i type="int" name="IMIX">     4</i>
     <i type="logical" name="MIXFIRST"> F  </i>
     <i type="int" name="MAXMIX">   -45</i>
     <i name="WC">    100.00000000</i>
     <i type="int" name="INIMIX">     1</i>
     <i type="int" name="MIXPRE">     1</i>
     <i type="int" name="MREMOVE">     5</i>
    </separator>
   </separator>
   <separator name="electronic dipolcorrection" >
    <i type="logical" name="LDIPOL"> F  </i>
    <i type="logical" name="LMONO"> F  </i>
    <i type="int" name="IDIPOL">     0</i>
    <i name="EPSILON">      1.00000000</i>
    <v name="DIPOL">   -100.00000000   -100.00000000   -100.00000000</v>
    <i name="EFIELD">      0.00000000</i>
   </separator>
  </separator>
  <separator name="grids" >
   <i type="int" name="NGX">    70</i>
   <i type="int" name="NGY">    70</i>
   <i type="int" name="NGZ">    70</i>
   <i type="int" name="NGXF">   140</i>
   <i type="int" name="NGYF">   140</i>
   <i type="int" name="NGZF">   140</i>
   <i type="logical" name="ADDGRID"> F  </i>
  </separator>
  <separator name="ionic" >
   <i type="int" name="NSW">     0</i>
   <i type="int" name="IBRION">    -1</i>
   <i type="int" name="MDALGO">     0</i>
   <i type="int" name="ISIF">     2</i>
   <i name="PSTRESS">      0.00000000</i>
   <i name="EDIFFG">      0.00000100</i>
   <i type="int" name="NFREE">     0</i>
   <i name="POTIM">      0.50000000</i>
   <i name="SMASS">     -3.00000000</i>
   <i name="SCALEE">      1.00000000</i>
  </separator>
  <separator name="ionic md" >
   <i name="TEBEG">      0.00010000</i>
   <i name="TEEND">      0.00010000</i>
   <i type="int" name="NBLOCK">     1</i>
   <i type="int" name="KBLOCK">     1</i>
   <i type="int" name="NPACO">   256</i>
   <i name="APACO">     16.00000000</i>
  </separator>
  <separator name="symmetry" >
   <i type="int" name="ISYM">     2</i>
   <i name="SYMPREC">      0.00001000</i>
  </separator>
  <separator name="dos" >
   <i type="int" name="LORBIT">     0</i>
   <v name="RWIGS">     -1.00000000</v>
   <i type="int" name="NEDOS">   301</i>
   <i name="EMIN">     10.00000000</i>
   <i name="EMAX">    -10.00000000</i>
   <i name="EFERMI">      0.00000000</i>
  </separator>
  <separator name="writing" >
   <i type="int" name="NWRITE">     2</i>
   <i type="logical" name="LWAVE"> F  </i>
   <i type="logical" name="LDOWNSAMPLE"> F  </i>
   <i type="logical" name="LCHARG"> F  </i>
   <i type="logical" name="LPARD"> F  </i>
   <i type="logical" name="LVTOT"> F  </i>
   <i type="logical" name="LVHAR"> F  </i>
   <i type="logical" name="LELF"> F  </i>
   <i type="logical" name="LOPTICS"> F  </i>
   <v name="STM">      0.00000000      0.00000000      0.00000000      0.00000000      0.00000000      0.00000000      0.00000000</v>
  </separator>
  <separator name="performance" >
   <i type="int" name="NPAR">     1</i>
   <i type="int" name="NSIM">     4</i>
   <i type="int" name="NBLK">    -1</i>
   <i type="logical" name="LPLANE"> T  </i>
   <i type="logical" name="LSCALAPACK"> T  </i>
   <i type="logical" name="LSCAAWARE"> F  </i>
   <i type="logical" name="LSCALU"> F  </i>
   <i type="logical" name="LASYNC"> F  </i>
   <i type="logical" name="LORBITALREAL"> F  </i>
  </separator>
  <separator name="miscellaneous" >
   <i type="int" name="IDIOT">     3</i>
   <i type="int" name="PHON_NSTRUCT">    -1</i>
   <i type="logical" name="LMUSIC"> F  </i>
   <v name="POMASS">     16.00000000</v>
   <v name="DARWINR">      0.00000000</v>
   <v name="DARWINV">      1.00000000</v>
   <i type="logical" name="LCORR"> T  </i>
  </separator>
  <i type="logical" name="GGA_COMPAT"> T  </i>
  <i type="logical" name="LBERRY"> F  </i>
  <i type="int" name="ICORELEVEL">     0</i>
  <i type="logical" name="LDAU"> F  </i>
  <i type="int" name="I_CONSTRAINED_M">     0</i>
  <separator name="electronic exchange-correlation" >
   <i type="string" name="GGA">--</i>
   <i type="int" name="VOSKOWN">     0</i>
   <i type="logical" name="LHFCALC"> F  </i>
   <i type="string" name="PRECFOCK"></i>
   <i type="logical" name="LSYMGRAD"> F  </i>
   <i type="logical" name="LHFONE"> F  </i>
   <i type="logical" name="LRHFCALC"> F  </i>
   <i type="logical" name="LTHOMAS"> F  </i>
   <i type="logical" name="LMODELHF"> F  </i>
   <i type="logical" name="LFOCKACE"> F  </i>
   <i name="ENCUT4O">     -1.00000000</i>
   <i type="int" name="EXXOEP">     0</i>
   <i type="int" name="FOURORBIT">     0</i>
   <i name="AEXX">      0.00000000</i>
   <i name="HFALPHA">      0.00000000</i>
   <i name="MCALPHA">      0.00000000</i>
   <i name="ALDAX">      1.00000000</i>
   <i name="AGGAX">      1.00000000</i>
   <i name="ALDAC">      1.00000000</i>
   <i name="AGGAC">      1.00000000</i>
   <i type="int" name="NKREDX">     1</i>
   <i type="int" name="NKREDY">     1</i>
   <i type="int" name="NKREDZ">     1</i>
   <i type="logical" name="SHIFTRED"> F  </i>
   <i type="logical" name="ODDONLY"> F  </i>
   <i type="logical" name="EVENONLY"> F  </i>
   <i type="int" name="LMAXFOCK">     0</i>
   <i type="int" name="NMAXFOCKAE">     0</i>
   <i type="logical" name="LFOCKAEDFT"> F  </i>
   <i name="HFSCREEN">      0.00000000</i>
   <i name="HFSCREENC">      0.00000000</i>
   <i type="int" name="NBANDSGWLOW">     0</i>
  </separator>
  <separator name="vdW DFT" >
   <i type="logical" name="LUSE_VDW"> F  </i>
   <i name="Zab_VDW">     -0.84910000</i>
   <i name="PARAM1">      0.12340000</i>
   <i name="PARAM2">      1.00000000</i>
   <i name="PARAM3">      0.00000000</i>
  </separator>
  <separator name="model GW" >
   <i type="int" name="MODEL_GW">     0</i>
   <i name="MODEL_EPS0">    457.29375000</i>
   <i name="MODEL_ALPHA">      1.00000000</i>
  </separator>
  <separator name="linear response parameters" >
   <i type="logical" name="LEPSILON"> F  </i>
   <i type="logical" name="LRPA"> F  </i>
   <i type="logical" name="LNABLA"> F  </i>
   <i type="logical" name="LVEL"> F  </i>
   <i type="int" name="KINTER">     0</i>
   <i name="CSHIFT">      0.10000000</i>
   <i name="OMEGAMAX">     -1.00000000</i>
   <i name="DEG_THRESHOLD">      0.00200000</i>
   <i name="RTIME">     -0.10000000</i>
   <i name="WPLASMAI">      0.00000000</i>
   <v name="DFIELD">      0.00000000      0.00000000      0.00000000</v>
   <v name="WPLASMA">      0.00000000      0.00000000      0.00000000      0.00000000      0.00000000      0.00000000      0.00000000      0.00000000      0.00000000</v>
  </separator>
  <separator name="orbital magnetization" >
   <i type="logical" name="NUCIND"> F  </i>
   <v name="MAGPOS">      0.00000000      0.00000000      0.00000000</v>
   <i type="logical" name="LNICSALL"> T  </i>
   <i type="logical" name="ORBITALMAG"> F  </i>
   <i type="logical" name="LMAGBLOCH"> F  </i>
   <i type="logical" name="LCHIMAG"> F  </i>
   <i type="logical" name="LGAUGE"> T  </i>
   <i type="int" name="MAGATOM">     0</i>
   <v name="MAGDIPOL">      0.00000000      0.00000000      0.00000000</v>
   <v name="AVECCONST">      0.00000000      0.00000000      0.00000000</v>
  </separator>
  <separator name="response functions" >
   <i type="logical" name="LFINITE_TEMPERATURE"> F  </i>
   <i type="logical" name="LADDER"> F  </i>
   <i type="logical" name="LRPAFORCE"> F  </i>
   <i type="logical" name="LFXC"> F  </i>
   <i type="logical" name="LHARTREE"> T  </i>
   <i type="int" name="IBSE">     0</i>
   <v type="int" name="KPOINT">    -1     0     0     0</v>
   <i type="logical" name="LTCTC"> F  </i>
   <i type="logical" name="LTCTE"> F  </i>
   <i type="logical" name="LTETE"> F  </i>
   <i type="logical" name="LTRIPLET"> F  </i>
   <i type="logical" name="LFXCEPS"> F  </i>
   <i type="logical" name="LFXHEG"> F  </i>
   <i type="int" name="NATURALO">     2</i>
   <i type="logical" name="LHOLEGF"> F  </i>
   <i type="logical" name="L2ORDER"> F  </i>
   <i type="logical" name="LDMP1"> F  </i>
   <i type="logical" name="LMP2LT"> F  </i>
   <i type="logical" name="LSMP2LT"> F  </i>
   <i type="logical" name="LGWLF"> F  </i>
   <i name="ENCUTGW">     -2.00000000</i>
   <i name="ENCUTGWSOFT">     -2.00000000</i>
   <i name="ENCUTLF">     -1.00000000</i>
   <i type="logical" name="LESF_SPLINES"> F  </i>
   <i type="int" name="LMAXMP2">    -1</i>
   <i name="SCISSOR">      0.00000000</i>
   <i type="int" name="NOMEGA">     0</i>
   <i type="int" name="NOMEGAR">     0</i>
   <i type="int" name="NBANDSGW">    -1</i>
   <i type="int" name="NBANDSO">    -1</i>
   <i type="int" name="NBANDSV">    -1</i>
   <i type="int" name="NELM">     1</i>
   <i type="int" name="NELMHF">     1</i>
   <i type="int" name="DIM">     3</i>
   <i type="int" name="IESPILON">     4</i>
   <i type="int" name="ANTIRES">     0</i>
   <i name="OMEGAMAX">    -30.00000000</i>
   <i name="OMEGAMIN">    -30.00000000</i>
   <i name="OMEGATL">   -200.00000000</i>
   <i type="int" name="OMEGAGRID">     0</i>
   <i name="CSHIFT">     -0.10000000</i>
   <i type="logical" name="LSELFENERGY"> F  </i>
   <i type="logical" name="LSPECTRAL"> F  </i>
   <i type="logical" name="LSPECTRALGW"> F  </i>
   <i type="logical" name="LSINGLES"> F  </i>
   <i type="logical" name="LFERMIGW"> F  </i>
   <i type="logical" name="ODDONLYGW"> F  </i>
   <i type="logical" name="EVENONLYGW"> F  </i>
   <i type="int" name="NKREDLFX">     1</i>
   <i type="int" name="NKREDLFY">     1</i>
   <i type="int" name="NKREDLFZ">     1</i>
   <i type="int" name="MAXMEM">  2800</i>
   <i type="int" name="TELESCOPE">     0</i>
   <i type="int" name="NTAUPAR">    -1</i>
   <i type="int" name="NOMEGAPAR">    -1</i>
   <i name="DAMP_NEWTON">      0.80000001</i>
   <i name="LAMBDA">      1.00000000</i>
  </separator>
  <separator name="External order field" >
   <i name="OFIELD_KAPPA">      0.00000000</i>
   <v name="OFIELD_K">      0.00000000      0.00000000      0.00000000</v>
   <i name="OFIELD_Q6_NEAR">      0.00000000</i>
   <i name="OFIELD_Q6_FAR">      0.00000000</i>
   <i name="OFIELD_A">      0.00000000</i>
  </separator>
  <separator name="solvation model" >
   <i type="logical" name="LSOL"> F  </i>
  </separator>
 </parameters>
 <atominfo>
  <atoms>       4 </atoms>
  <types>       1 </types>
  <array name="atoms" >
   <dimension dim="1">ion</dimension>
   <field type="string">element</field>
   <field type="int">atomtype</field>
   <set>
    <rc><c>O </c><c>   1</c></rc>
    <rc><c>O </c><c>   1</c></rc>
    <rc><c>O </c><c>   1</c></rc>
    <rc><c>O </c><c>   1</c></rc>
   </set>
  </array>
  <array name="atomtypes" >
   <dimension dim="1">type</dimension>
   <field type="int">atomspertype</field>
   <field type="string">element</field>
   <field>mass</field>
   <field>valence</field>
   <field type="string">pseudopotential</field>
   <set>
    <rc><c>   4</c><c>O </c><c>     16.00000000</c><c>      6.00000000</c><c>  PAW O_GW 19Mar2012                    </c></rc>
   </set>
  </array>
 </atominfo>
 <structure name="initialpos" >
  <crystal>
   <varray name="basis" >
    <v>      14.50000000       0.00000000       0.00000000 </v>
    <v>       0.00000000      14.50000000       0.00000000 </v>
    <v>       0.00000000       0.00000000      14.50000000 </v>
   </varray>
   <i name="volume">   3048.62500000 </i>
   <varray name="rec_basis" >
    <v>       0.06896552       0.00000000       0.00000000 </v>
    <v>       0.00000000       0.06896552       0.00000000 </v>
    <v>       0.00000000       0.00000000       0.06896552 </v>
   </varray>
  </crystal>
  <varray name="positions" >
   <v>       0.00000000       0.00000000       0.00000000 </v>
   <v>       0.08275862       0.00000000       0.00000000 </v>
   <v>       0.03448276       0.95862069       0.17241379 </v>
   <v>       0.03448276       0.04137931       0.17241379 </v>
  </varray>
 </structure>
 <calculation>
  <scstep>
   <time name="dav">    0.07    0.07</time>
   <time name="total">    0.12    0.13</time>
   <energy>
    <i name="alphaZ">      0.35861207 </i>
    <i name="ewald">    848.67156093 </i>
    <i name="hartreedc">  -2301.83005979 </i>
    <i name="XCdc">    102.66252505 </i>
    <i name="pawpsdc">   1396.60603497 </i>
    <i name="pawaedc">  -1393.39258355 </i>
    <i name="eentropy">     -0.00000000 </i>
    <i name="bandstr">   -171.82983885 </i>
    <i name="atom">   1727.95004229 </i>
    <i name="e_fr_energy">    209.19629311 </i>
    <i name="e_wo_entrp">    209.19629311 </i>
    <i name="e_0_energy">    209.19629311 </i>
   </energy>
  </scstep>
  <scstep>
   <time name="dav">    0.05    0.05</time>
   <time name="total">    0.05    0.05</time>
   <energy>
    <i name="e_fr_energy">     76.57303486 </i>
    <i name="e_wo_entrp">     76.59860569 </i>
    <i name="e_0_energy">     76.58582028 </i>
   </energy>
  </scstep>
  <scstep>
   <time name="dav">    0.04    0.04</time>
   <time name="total">    0.04    0.04</time>
   <energy>
    <i name="e_fr_energy">      6.79667648 </i>
    <i name="e_wo_entrp">      6.82756908 </i>
    <i name="e_0_energy">      6.81212278 </i>
   </energy>
  </scstep>
  <scstep>
   <time name="dav">    0.04    0.04</time>
   <time name="total">    0.04    0.04</time>
   <energy>
    <i name="e_fr_energy">    -16.67228625 </i>
    <i name="e_wo_entrp">    -16.67228625 </i>
    <i name="e_0_energy">    -16.67228625 </i>
   </energy>
  </scstep>
  <scstep>
   <time name="dav">    0.04    0.04</time>
   <time name="total">    0.15    0.15</time>
   <energy>
    <i name="e_fr_energy">    -17.24356139 </i>
    <i name="e_wo_entrp">    -17.19778546 </i>
    <i name="e_0_energy">    -17.22067343 </i>
   </energy>
  </scstep>
  <scstep>
   <time name="dav">    0.04    0.04</time>
   <time name="total">    0.19    0.19</time>
   <energy>
    <i name="e_fr_energy">    -18.38468688 </i>
    <i name="e_wo_entrp">    -18.38468688 </i>
    <i name="e_0_energy">    -18.38468688 </i>
   </energy>
  </scstep>
  <scstep>
   <time name="dav">    0.05    0.05</time>
   <time name="total">    0.21    0.21</time>
   <energy>
    <i name="e_fr_energy">    -52.63380736 </i>
    <i name="e_wo_entrp">    -52.63380736 </i>
    <i name="e_0_energy">    -52.63380736 </i>
   </energy>
  </scstep>
  <scstep>
   <time name="dav">    0.04    0.04</time>
   <time name="total">    0.20    0.20</time>
   <energy>
    <i name="e_fr_energy">    -40.88009209 </i>
    <i name="e_wo_entrp">    -40.88009209 </i>
    <i name="e_0_energy">    -40.88009209 </i>
   </energy>
  </scstep>
  <scstep>
   <time name="dav">    0.05    0.05</time>
   <time name="total">    0.21    0.21</time>
   <energy>
    <i name="e_fr_energy">    -24.77017140 </i>
    <i name="e_wo_entrp">    -24.77017140 </i>
    <i name="e_0_energy">    -24.77017140 </i>
   </energy>
  </scstep>
  <scstep>
   <time name="dav">    0.04    0.04</time>
   <time name="total">    0.20    0.20</time>
   <energy>
    <i name="e_fr_energy">    -20.88078854 </i>
    <i name="e_wo_entrp">    -20.88078854 </i>
    <i name="e_0_energy">    -20.88078854 </i>
   </energy>
  </scstep>
  <scstep>
   <time name="dav">    0.04    0.04</time>
   <time name="total">    0.21    0.21</time>
   <energy>
    <i name="e_fr_energy">    -17.94439902 </i>
    <i name="e_wo_entrp">    -17.94439902 </i>
    <i name="e_0_energy">    -17.94439902 </i>
   </energy>
  </scstep>
  <scstep>
   <time name="dav">    0.04    0.04</time>
   <time name="total">    0.22    0.22</time>
   <energy>
    <i name="e_fr_energy">    -17.37907090 </i>
    <i name="e_wo_entrp">    -17.37907090 </i>
    <i name="e_0_energy">    -17.37907090 </i>
   </energy>
  </scstep>
  <scstep>
   <time name="dav">    0.03    0.03</time>
   <time name="total">    0.21    0.21</time>
   <energy>
    <i name="e_fr_energy">    -16.63275889 </i>
    <i name="e_wo_entrp">    -16.57658524 </i>
    <i name="e_0_energy">    -16.60467206 </i>
   </energy>
  </scstep>
  <scstep>
   <time name="dav">    0.04    0.04</time>
   <time name="total">    0.22    0.22</time>
   <energy>
    <i name="e_fr_energy">    -16.80283828 </i>
    <i name="e_wo_entrp">    -16.76201682 </i>
    <i name="e_0_energy">    -16.78242755 </i>
   </energy>
  </scstep>
  <scstep>
   <time name="dav">    0.03    0.03</time>
   <time name="total">    0.21    0.21</time>
   <energy>
    <i name="e_fr_energy">    -16.71590151 </i>
    <i name="e_wo_entrp">    -16.66015365 </i>
    <i name="e_0_energy">    -16.68802758 </i>
   </energy>
  </scstep>
  <scstep>
   <time name="dav">    0.04    0.04</time>
   <time name="total">    0.23    0.23</time>
   <energy>
    <i name="e_fr_energy">    -16.89502678 </i>
    <i name="e_wo_entrp">    -16.87699575 </i>
    <i name="e_0_energy">    -16.88601127 </i>
   </energy>
  </scstep>
  <scstep>
   <time name="dav">    0.04    0.04</time>
   <time name="total">    0.23    0.23</time>
   <energy>
    <i name="e_fr_energy">    -16.79066964 </i>
    <i name="e_wo_entrp">    -16.78803422 </i>
    <i name="e_0_energy">    -16.78935193 </i>
   </energy>
  </scstep>
  <scstep>
   <time name="dav">    0.04    0.04</time>
   <time name="total">    0.23    0.23</time>
   <energy>
    <i name="e_fr_energy">    -16.59946636 </i>
    <i name="e_wo_entrp">    -16.57809719 </i>
    <i name="e_0_energy">    -16.58878177 </i>
   </energy>
  </scstep>
  <scstep>
   <time name="dav">    0.03    0.03</time>
   <time name="total">    0.22    0.22</time>
   <energy>
    <i name="e_fr_energy">    -16.71464106 </i>
    <i name="e_wo_entrp">    -16.66143221 </i>
    <i name="e_0_energy">    -16.68803663 </i>
   </energy>
  </scstep>
  <scstep>
   <time name="dav">    0.04    0.04</time>
   <time name="total">    0.24    0.24</time>
   <energy>
    <i name="e_fr_energy">    -16.78374088 </i>
    <i name="e_wo_entrp">    -16.74225820 </i>
    <i name="e_0_energy">    -16.76299954 </i>
   </energy>
  </scstep>
  <scstep>
   <time name="dav">    0.03    0.03</time>
   <time name="total">    0.23    0.23</time>
   <energy>
    <i name="e_fr_energy">    -16.69655508 </i>
    <i name="e_wo_entrp">    -16.64057313 </i>
    <i name="e_0_energy">    -16.66856411 </i>
   </energy>
  </scstep>
  <scstep>
   <time name="dav">    0.03    0.03</time>
   <time name="total">    0.24    0.24</time>
   <energy>
    <i name="e_fr_energy">    -16.82932160 </i>
    <i name="e_wo_entrp">    -16.79585619 </i>
    <i name="e_0_energy">    -16.81258890 </i>
   </energy>
  </scstep>
  <scstep>
   <time name="dav">    0.04    0.04</time>
   <time name="total">    0.25    0.25</time>
   <energy>
    <i name="e_fr_energy">    -16.75415758 </i>
    <i name="e_wo_entrp">    -16.73396527 </i>
    <i name="e_0_energy">    -16.74406142 </i>
   </energy>
  </scstep>
  <scstep>
   <time name="dav">    0.03    0.03</time>
   <time name="total">    0.24    0.24</time>
   <energy>
    <i name="e_fr_energy">    -16.64284849 </i>
    <i name="e_wo_entrp">    -16.62024139 </i>
    <i name="e_0_energy">    -16.63154494 </i>
   </energy>
  </scstep>
  <scstep>
   <time name="dav">    0.04    0.04</time>
   <time name="total">    0.26    0.26</time>
   <energy>
    <i name="e_fr_energy">    -16.58535130 </i>
    <i name="e_wo_entrp">    -16.53921036 </i>
    <i name="e_0_energy">    -16.56228083 </i>
   </energy>
  </scstep>
  <scstep>
   <time name="dav">    0.03    0.03</time>
   <time name="total">    0.25    0.25</time>
   <energy>
    <i name="e_fr_energy">    -16.71353812 </i>
    <i name="e_wo_entrp">    -16.67676838 </i>
    <i name="e_0_energy">    -16.69515325 </i>
   </energy>
  </scstep>
  <scstep>
   <time name="dav">    0.04    0.04</time>
   <time name="total">    0.27    0.27</time>
   <energy>
    <i name="e_fr_energy">    -16.67919263 </i>
    <i name="e_wo_entrp">    -16.63832327 </i>
    <i name="e_0_energy">    -16.65875795 </i>
   </energy>
  </scstep>
  <scstep>
   <time name="dav">    0.04    0.04</time>
   <time name="total">    0.27    0.27</time>
   <energy>
    <i name="e_fr_energy">    -16.69320631 </i>
    <i name="e_wo_entrp">    -16.64974301 </i>
    <i name="e_0_energy">    -16.67147466 </i>
   </energy>
  </scstep>
  <scstep>
   <time name="dav">    0.04    0.04</time>
   <time name="total">    0.28    0.28</time>
   <energy>
    <i name="e_fr_energy">    -16.70055588 </i>
    <i name="e_wo_entrp">    -16.65011325 </i>
    <i name="e_0_energy">    -16.67533457 </i>
   </energy>
  </scstep>
  <scstep>
   <time name="dav">    0.03    0.03</time>
   <time name="total">    0.27    0.27</time>
   <energy>
    <i name="e_fr_energy">    -16.74349276 </i>
    <i name="e_wo_entrp">    -16.69198684 </i>
    <i name="e_0_energy">    -16.71773980 </i>
   </energy>
  </scstep>
  <scstep>
   <time name="dav">    0.04    0.04</time>
   <time name="total">    0.29    0.29</time>
   <energy>
    <i name="e_fr_energy">    -16.75254581 </i>
    <i name="e_wo_entrp">    -16.69717746 </i>
    <i name="e_0_energy">    -16.72486164 </i>
   </energy>
  </scstep>
  <scstep>
   <time name="dav">    0.03    0.03</time>
   <time name="total">    0.29    0.29</time>
   <energy>
    <i name="e_fr_energy">    -16.79292089 </i>
    <i name="e_wo_entrp">    -16.73724341 </i>
    <i name="e_0_energy">    -16.76508215 </i>
   </energy>
  </scstep>
  <scstep>
   <time name="dav">    0.04    0.04</time>
   <time name="total">    0.31    0.31</time>
   <energy>
    <i name="e_fr_energy">    -16.80314685 </i>
    <i name="e_wo_entrp">    -16.74673668 </i>
    <i name="e_0_energy">    -16.77494177 </i>
   </energy>
  </scstep>
  <scstep>
   <time name="dav">    0.03    0.03</time>
   <time name="total">    0.30    0.30</time>
   <energy>
    <i name="e_fr_energy">    -16.82555183 </i>
    <i name="e_wo_entrp">    -16.76933410 </i>
    <i name="e_0_energy">    -16.79744296 </i>
   </energy>
  </scstep>
  <scstep>
   <time name="dav">    0.03    0.03</time>
   <time name="total">    0.30    0.30</time>
   <energy>
    <i name="e_fr_energy">    -16.82210927 </i>
    <i name="e_wo_entrp">    -16.76572098 </i>
    <i name="e_0_energy">    -16.79391512 </i>
   </energy>
  </scstep>
  <scstep>
   <time name="dav">    0.04    0.04</time>
   <time name="total">    0.32    0.32</time>
   <energy>
    <i name="e_fr_energy">    -16.82391084 </i>
    <i name="e_wo_entrp">    -16.76754107 </i>
    <i name="e_0_energy">    -16.79572595 </i>
   </energy>
  </scstep>
  <scstep>
   <time name="dav">    0.05    0.05</time>
   <time name="total">    0.34    0.34</time>
   <energy>
    <i name="e_fr_energy">    -16.82381494 </i>
    <i name="e_wo_entrp">    -16.76737943 </i>
    <i name="e_0_energy">    -16.79559719 </i>
   </energy>
  </scstep>
  <scstep>
   <time name="dav">    0.04    0.04</time>
   <time name="total">    0.33    0.33</time>
   <energy>
    <i name="e_fr_energy">    -16.82563597 </i>
    <i name="e_wo_entrp">    -16.76923390 </i>
    <i name="e_0_energy">    -16.79743493 </i>
   </energy>
  </scstep>
  <scstep>
   <time name="dav">    0.04    0.04</time>
   <time name="total">    0.34    0.34</time>
   <energy>
    <i name="e_fr_energy">    -16.82502304 </i>
    <i name="e_wo_entrp">    -16.76857620 </i>
    <i name="e_0_energy">    -16.79679962 </i>
   </energy>
  </scstep>
  <scstep>
   <time name="dav">    0.04    0.04</time>
   <time name="total">    0.35    0.35</time>
   <energy>
    <i name="e_fr_energy">    -16.82551682 </i>
    <i name="e_wo_entrp">    -16.76906674 </i>
    <i name="e_0_energy">    -16.79729178 </i>
   </energy>
  </scstep>
  <scstep>
   <time name="dav">    0.04    0.04</time>
   <time name="total">    0.36    0.36</time>
   <energy>
    <i name="e_fr_energy">    -16.82565750 </i>
    <i name="e_wo_entrp">    -16.76921058 </i>
    <i name="e_0_energy">    -16.79743404 </i>
   </energy>
  </scstep>
  <scstep>
   <time name="dav">    0.04    0.04</time>
   <time name="total">    0.39    0.39</time>
   <energy>
    <i name="e_fr_energy">    -16.82563401 </i>
    <i name="e_wo_entrp">    -16.76918182 </i>
    <i name="e_0_energy">    -16.79740791 </i>
   </energy>
  </scstep>
  <scstep>
   <time name="dav">    0.04    0.04</time>
   <time name="total">    0.38    0.38</time>
   <energy>
    <i name="e_fr_energy">    -16.82572748 </i>
    <i name="e_wo_entrp">    -16.76927533 </i>
    <i name="e_0_energy">    -16.79750140 </i>
   </energy>
  </scstep>
  <scstep>
   <time name="dav">    0.04    0.04</time>
   <time name="total">    0.38    0.38</time>
   <energy>
    <i name="e_fr_energy">    -16.82573577 </i>
    <i name="e_wo_entrp">    -16.76928335 </i>
    <i name="e_0_energy">    -16.79750956 </i>
   </energy>
  </scstep>
  <scstep>
   <time name="dav">    0.04    0.04</time>
   <time name="total">    0.40    0.40</time>
   <energy>
    <i name="e_fr_energy">    -16.82573804 </i>
    <i name="e_wo_entrp">    -16.76928579 </i>
    <i name="e_0_energy">    -16.79751191 </i>
   </energy>
  </scstep>
  <scstep>
   <time name="dav">    0.04    0.04</time>
   <time name="total">    0.42    0.42</time>
   <energy>
    <i name="e_fr_energy">    -16.82573896 </i>
    <i name="e_wo_entrp">    -16.76928665 </i>
    <i name="e_0_energy">    -16.79751280 </i>
   </energy>
  </scstep>
  <scstep>
   <time name="dav">    0.04    0.04</time>
   <time name="total">    0.41    0.41</time>
   <energy>
    <i name="e_fr_energy">    -16.82573952 </i>
    <i name="e_wo_entrp">    -16.76928733 </i>
    <i name="e_0_energy">    -16.79751343 </i>
   </energy>
  </scstep>
  <scstep>
   <time name="dav">    0.03    0.03</time>
   <time name="total">    0.42    0.42</time>
   <energy>
    <i name="e_fr_energy">    -16.82573939 </i>
    <i name="e_wo_entrp">    -16.76928709 </i>
    <i name="e_0_energy">    -16.79751324 </i>
   </energy>
  </scstep>
  <scstep>
   <time name="dav">    0.04    0.04</time>
   <time name="total">    0.44    0.44</time>
   <energy>
    <i name="e_fr_energy">    -16.82573976 </i>
    <i name="e_wo_entrp">    -16.76928743 </i>
    <i name="e_0_energy">    -16.79751359 </i>
   </energy>
  </scstep>
  <scstep>
   <time name="dav">    0.04    0.04</time>
   <time name="total">    0.08    0.08</time>
   <energy>
    <i name="alphaZ">      0.35861207 </i>
    <i name="ewald">    848.67156093 </i>
    <i name="hartreedc">  -2311.38693519 </i>
    <i name="XCdc">    103.71921641 </i>
    <i name="pawpsdc">   4547.28111405 </i>
    <i name="pawaedc">  -4544.56774560 </i>
    <i name="eentropy">     -0.05645236 </i>
    <i name="bandstr">   -388.79515246 </i>
    <i name="atom">   1727.95004229 </i>
    <i name="e_fr_energy">    -16.82573985 </i>
    <i name="e_wo_entrp">    -16.76928750 </i>
    <i name="e_0_energy">    -16.79751367 </i>
   </energy>
  </scstep>
  <structure>
   <crystal>
    <varray name="basis" >
     <v>      14.50000000       0.00000000       0.00000000 </v>
     <v>       0.00000000      14.50000000       0.00000000 </v>
     <v>       0.00000000       0.00000000      14.50000000 </v>
    </varray>
    <i name="volume">   3048.62500000 </i>
    <varray name="rec_basis" >
     <v>       0.06896552       0.00000000       0.00000000 </v>
     <v>       0.00000000       0.06896552       0.00000000 </v>
     <v>       0.00000000       0.00000000       0.06896552 </v>
    </varray>
   </crystal>
   <varray name="positions" >
    <v>       0.00000000       0.00000000       0.00000000 </v>
    <v>       0.08275862       0.00000000       0.00000000 </v>
    <v>       0.03448276       0.95862069       0.17241379 </v>
    <v>       0.03448276       0.04137931       0.17241379 </v>
   </varray>
  </structure>
  <varray name="forces" >
   <v>      -4.29904710       0.00000000       0.01947082 </v>
   <v>       4.45367590       0.00000000      -0.23476604 </v>
   <v>      -0.07731440      -4.37775266       0.10764761 </v>
   <v>      -0.07731440       4.37775266       0.10764761 </v>
  </varray>
  <varray name="stress" >
   <v>      -5.22216736       0.00000000      -0.08773508 </v>
   <v>       0.00000000      -5.15654395       0.00000000 </v>
   <v>      -0.08773510       0.00000000      -7.31232668 </v>
  </varray>
  <energy>
   <i name="e_fr_energy">    -16.86447748 </i>
   <i name="e_wo_entrp">    -16.80802513 </i>
   <i name="e_0_energy">    -16.83625130 </i>
  </energy>
  <time name="totalsc">   13.68   13.73</time>
  <eigenvalues>
   <array>
    <dimension dim="1">band</dimension>
    <dimension dim="2">kpoint</dimension>
    <dimension dim="3">spin</dimension>
    <field>eigene</field>
    <field>occ</field>
    <set>
     <set comment="spin 1">
      <set comment="kpoint 1">
       <r>  -32.9027    1.0000 </r>
       <r>  -32.6667    1.0000 </r>
       <r>  -19.8016    1.0000 </r>
       <r>  -19.8002    1.0000 </r>
       <r>  -13.6275    1.0000 </r>
       <r>  -13.1454    1.0000 </r>
       <r>  -13.1069    1.0000 </r>
       <r>  -12.8365    1.0000 </r>
       <r>  -12.8359    1.0000 </r>
       <r>  -12.0549    1.0000 </r>
       <r>   -5.8753    0.9999 </r>
       <r>   -5.7439    0.5008 </r>
       <r>   -5.7438    0.4993 </r>
       <r>   -5.5977    0.0000 </r>
       <r>   -0.2594    0.0000 </r>
       <r>    0.4106    0.0000 </r>
      </set>
     </set>
    </set>
   </array>
  </eigenvalues>
  <separator name="orbital magnetization" >
   <v name="MAGDIPOLOUT">      0.00000000      0.00000000      0.00000000</v>
  </separator>
  <dos>
   <i name="efermi">     -5.74383078 </i>
   <total>
    <array>
     <dimension dim="1">gridpoints</dimension>
     <dimension dim="2">spin</dimension>
     <field>energy</field>
     <field>total</field>
     <field>integrated</field>
     <set>
      <set comment="spin 1">
       <r>   -34.5684     0.0000     0.0000 </r>
       <r>   -34.4462     0.0000     0.0000 </r>
       <r>   -34.3241     0.0000     0.0000 </r>
       <r>   -34.2019     0.0000     0.0000 </r>
       <r>   -34.0798     0.0000     0.0000 </r>
       <r>   -33.9576     0.0000     0.0000 </r>
       <r>   -33.8355     0.0000     0.0000 </r>
       <r>   -33.7133     0.0000     0.0000 </r>
       <r>   -33.5912     0.0000     0.0000 </r>
       <r>   -33.4690     0.0000     0.0000 </r>
       <r>   -33.3469     0.0000     0.0000 </r>
       <r>   -33.2247     0.0000     0.0000 </r>
       <r>   -33.1026     0.0000     0.0000 </r>
       <r>   -32.9804     0.2285     0.0279 </r>
       <r>   -32.8583    14.4340     1.7910 </r>
       <r>   -32.7361     2.1167     2.0496 </r>
       <r>   -32.6140    14.8550     3.8641 </r>
       <r>   -32.4918     1.1127     4.0000 </r>
       <r>   -32.3697     0.0000     4.0000 </r>
       <r>   -32.2475     0.0000     4.0000 </r>
       <r>   -32.1254     0.0000     4.0000 </r>
       <r>   -32.0032     0.0000     4.0000 </r>
       <r>   -31.8811     0.0000     4.0000 </r>
       <r>   -31.7589     0.0000     4.0000 </r>
       <r>   -31.6368     0.0000     4.0000 </r>
       <r>   -31.5146     0.0000     4.0000 </r>
       <r>   -31.3925     0.0000     4.0000 </r>
       <r>   -31.2703     0.0000     4.0000 </r>
       <r>   -31.1482     0.0000     4.0000 </r>
       <r>   -31.0260     0.0000     4.0000 </r>
       <r>   -30.9039     0.0000     4.0000 </r>
       <r>   -30.7818     0.0000     4.0000 </r>
       <r>   -30.6596     0.0000     4.0000 </r>
       <r>   -30.5375     0.0000     4.0000 </r>
       <r>   -30.4153     0.0000     4.0000 </r>
       <r>   -30.2932     0.0000     4.0000 </r>
       <r>   -30.1710     0.0000     4.0000 </r>
       <r>   -30.0489     0.0000     4.0000 </r>
       <r>   -29.9267     0.0000     4.0000 </r>
       <r>   -29.8046     0.0000     4.0000 </r>
       <r>   -29.6824     0.0000     4.0000 </r>
       <r>   -29.5603     0.0000     4.0000 </r>
       <r>   -29.4381     0.0000     4.0000 </r>
       <r>   -29.3160     0.0000     4.0000 </r>
       <r>   -29.1938     0.0000     4.0000 </r>
       <r>   -29.0717     0.0000     4.0000 </r>
       <r>   -28.9495     0.0000     4.0000 </r>
       <r>   -28.8274     0.0000     4.0000 </r>
       <r>   -28.7052     0.0000     4.0000 </r>
       <r>   -28.5831     0.0000     4.0000 </r>
       <r>   -28.4609     0.0000     4.0000 </r>
       <r>   -28.3388     0.0000     4.0000 </r>
       <r>   -28.2166     0.0000     4.0000 </r>
       <r>   -28.0945     0.0000     4.0000 </r>
       <r>   -27.9723     0.0000     4.0000 </r>
       <r>   -27.8502     0.0000     4.0000 </r>
       <r>   -27.7280     0.0000     4.0000 </r>
       <r>   -27.6059     0.0000     4.0000 </r>
       <r>   -27.4837     0.0000     4.0000 </r>
       <r>   -27.3616     0.0000     4.0000 </r>
       <r>   -27.2394     0.0000     4.0000 </r>
       <r>   -27.1173     0.0000     4.0000 </r>
       <r>   -26.9951     0.0000     4.0000 </r>
       <r>   -26.8730     0.0000     4.0000 </r>
       <r>   -26.7508     0.0000     4.0000 </r>
       <r>   -26.6287     0.0000     4.0000 </r>
       <r>   -26.5065     0.0000     4.0000 </r>
       <r>   -26.3844     0.0000     4.0000 </r>
       <r>   -26.2622     0.0000     4.0000 </r>
       <r>   -26.1401     0.0000     4.0000 </r>
       <r>   -26.0179     0.0000     4.0000 </r>
       <r>   -25.8958     0.0000     4.0000 </r>
       <r>   -25.7737     0.0000     4.0000 </r>
       <r>   -25.6515     0.0000     4.0000 </r>
       <r>   -25.5294     0.0000     4.0000 </r>
       <r>   -25.4072     0.0000     4.0000 </r>
       <r>   -25.2851     0.0000     4.0000 </r>
       <r>   -25.1629     0.0000     4.0000 </r>
       <r>   -25.0408     0.0000     4.0000 </r>
       <r>   -24.9186     0.0000     4.0000 </r>
       <r>   -24.7965     0.0000     4.0000 </r>
       <r>   -24.6743     0.0000     4.0000 </r>
       <r>   -24.5522     0.0000     4.0000 </r>
       <r>   -24.4300     0.0000     4.0000 </r>
       <r>   -24.3079     0.0000     4.0000 </r>
       <r>   -24.1857     0.0000     4.0000 </r>
       <r>   -24.0636     0.0000     4.0000 </r>
       <r>   -23.9414     0.0000     4.0000 </r>
       <r>   -23.8193     0.0000     4.0000 </r>
       <r>   -23.6971     0.0000     4.0000 </r>
       <r>   -23.5750     0.0000     4.0000 </r>
       <r>   -23.4528     0.0000     4.0000 </r>
       <r>   -23.3307     0.0000     4.0000 </r>
       <r>   -23.2085     0.0000     4.0000 </r>
       <r>   -23.0864     0.0000     4.0000 </r>
       <r>   -22.9642     0.0000     4.0000 </r>
       <r>   -22.8421     0.0000     4.0000 </r>
       <r>   -22.7199     0.0000     4.0000 </r>
       <r>   -22.5978     0.0000     4.0000 </r>
       <r>   -22.4756     0.0000     4.0000 </r>
       <r>   -22.3535     0.0000     4.0000 </r>
       <r>   -22.2313     0.0000     4.0000 </r>
       <r>   -22.1092     0.0000     4.0000 </r>
       <r>   -21.9870     0.0000     4.0000 </r>
       <r>   -21.8649     0.0000     4.0000 </r>
       <r>   -21.7427     0.0000     4.0000 </r>
       <r>   -21.6206     0.0000     4.0000 </r>
       <r>   -21.4984     0.0000     4.0000 </r>
       <r>   -21.3763     0.0000     4.0000 </r>
       <r>   -21.2541     0.0000     4.0000 </r>
       <r>   -21.1320     0.0000     4.0000 </r>
       <r>   -21.0098     0.0000     4.0000 </r>
       <r>   -20.8877     0.0000     4.0000 </r>
       <r>   -20.7656     0.0000     4.0000 </r>
       <r>   -20.6434     0.0000     4.0000 </r>
       <r>   -20.5213     0.0000     4.0000 </r>
       <r>   -20.3991     0.0000     4.0000 </r>
       <r>   -20.2770     0.0000     4.0000 </r>
       <r>   -20.1548     0.0000     4.0000 </r>
       <r>   -20.0327     0.0000     4.0000 </r>
       <r>   -19.9105     0.0318     4.0039 </r>
       <r>   -19.7884    20.8914     6.5557 </r>
       <r>   -19.6662    11.8214     7.9997 </r>
       <r>   -19.5441     0.0023     8.0000 </r>
       <r>   -19.4219     0.0000     8.0000 </r>
       <r>   -19.2998     0.0000     8.0000 </r>
       <r>   -19.1776     0.0000     8.0000 </r>
       <r>   -19.0555     0.0000     8.0000 </r>
       <r>   -18.9333     0.0000     8.0000 </r>
       <r>   -18.8112     0.0000     8.0000 </r>
       <r>   -18.6890     0.0000     8.0000 </r>
       <r>   -18.5669     0.0000     8.0000 </r>
       <r>   -18.4447     0.0000     8.0000 </r>
       <r>   -18.3226     0.0000     8.0000 </r>
       <r>   -18.2004     0.0000     8.0000 </r>
       <r>   -18.0783     0.0000     8.0000 </r>
       <r>   -17.9561     0.0000     8.0000 </r>
       <r>   -17.8340     0.0000     8.0000 </r>
       <r>   -17.7118     0.0000     8.0000 </r>
       <r>   -17.5897     0.0000     8.0000 </r>
       <r>   -17.4675     0.0000     8.0000 </r>
       <r>   -17.3454     0.0000     8.0000 </r>
       <r>   -17.2232     0.0000     8.0000 </r>
       <r>   -17.1011     0.0000     8.0000 </r>
       <r>   -16.9789     0.0000     8.0000 </r>
       <r>   -16.8568     0.0000     8.0000 </r>
       <r>   -16.7346     0.0000     8.0000 </r>
       <r>   -16.6125     0.0000     8.0000 </r>
       <r>   -16.4903     0.0000     8.0000 </r>
       <r>   -16.3682     0.0000     8.0000 </r>
       <r>   -16.2460     0.0000     8.0000 </r>
       <r>   -16.1239     0.0000     8.0000 </r>
       <r>   -16.0017     0.0000     8.0000 </r>
       <r>   -15.8796     0.0000     8.0000 </r>
       <r>   -15.7575     0.0000     8.0000 </r>
       <r>   -15.6353     0.0000     8.0000 </r>
       <r>   -15.5132     0.0000     8.0000 </r>
       <r>   -15.3910     0.0000     8.0000 </r>
       <r>   -15.2689     0.0000     8.0000 </r>
       <r>   -15.1467     0.0000     8.0000 </r>
       <r>   -15.0246     0.0000     8.0000 </r>
       <r>   -14.9024     0.0000     8.0000 </r>
       <r>   -14.7803     0.0000     8.0000 </r>
       <r>   -14.6581     0.0000     8.0000 </r>
       <r>   -14.5360     0.0000     8.0000 </r>
       <r>   -14.4138     0.0000     8.0000 </r>
       <r>   -14.2917     0.0000     8.0000 </r>
       <r>   -14.1695     0.0000     8.0000 </r>
       <r>   -14.0474     0.0000     8.0000 </r>
       <r>   -13.9252     0.0000     8.0000 </r>
       <r>   -13.8031     0.0000     8.0000 </r>
       <r>   -13.6809     1.0722     8.1310 </r>
       <r>   -13.5588    14.8770     9.9482 </r>
       <r>   -13.4366     0.4243    10.0000 </r>
       <r>   -13.3145     0.0000    10.0000 </r>
       <r>   -13.1923     1.6356    10.1998 </r>
       <r>   -13.0702    28.3932    13.6680 </r>
       <r>   -12.9480     2.7437    14.0031 </r>
       <r>   -12.8259    20.1128    16.4599 </r>
       <r>   -12.7037    12.6057    17.9996 </r>
       <r>   -12.5816     0.0029    18.0000 </r>
       <r>   -12.4594     0.0000    18.0000 </r>
       <r>   -12.3373     0.0000    18.0000 </r>
       <r>   -12.2151     0.0000    18.0000 </r>
       <r>   -12.0930     2.3042    18.2815 </r>
       <r>   -11.9708    13.9267    19.9826 </r>
       <r>   -11.8487     0.1426    20.0000 </r>
       <r>   -11.7265     0.0000    20.0000 </r>
       <r>   -11.6044     0.0000    20.0000 </r>
       <r>   -11.4822     0.0000    20.0000 </r>
       <r>   -11.3601     0.0000    20.0000 </r>
       <r>   -11.2379     0.0000    20.0000 </r>
       <r>   -11.1158     0.0000    20.0000 </r>
       <r>   -10.9936     0.0000    20.0000 </r>
       <r>   -10.8715     0.0000    20.0000 </r>
       <r>   -10.7494     0.0000    20.0000 </r>
       <r>   -10.6272     0.0000    20.0000 </r>
       <r>   -10.5051     0.0000    20.0000 </r>
       <r>   -10.3829     0.0000    20.0000 </r>
       <r>   -10.2608     0.0000    20.0000 </r>
       <r>   -10.1386     0.0000    20.0000 </r>
       <r>   -10.0165     0.0000    20.0000 </r>
       <r>    -9.8943     0.0000    20.0000 </r>
       <r>    -9.7722     0.0000    20.0000 </r>
       <r>    -9.6500     0.0000    20.0000 </r>
       <r>    -9.5279     0.0000    20.0000 </r>
       <r>    -9.4057     0.0000    20.0000 </r>
       <r>    -9.2836     0.0000    20.0000 </r>
       <r>    -9.1614     0.0000    20.0000 </r>
       <r>    -9.0393     0.0000    20.0000 </r>
       <r>    -8.9171     0.0000    20.0000 </r>
       <r>    -8.7950     0.0000    20.0000 </r>
       <r>    -8.6728     0.0000    20.0000 </r>
       <r>    -8.5507     0.0000    20.0000 </r>
       <r>    -8.4285     0.0000    20.0000 </r>
       <r>    -8.3064     0.0000    20.0000 </r>
       <r>    -8.1842     0.0000    20.0000 </r>
       <r>    -8.0621     0.0000    20.0000 </r>
       <r>    -7.9399     0.0000    20.0000 </r>
       <r>    -7.8178     0.0000    20.0000 </r>
       <r>    -7.6956     0.0000    20.0000 </r>
       <r>    -7.5735     0.0000    20.0000 </r>
       <r>    -7.4513     0.0000    20.0000 </r>
       <r>    -7.3292     0.0000    20.0000 </r>
       <r>    -7.2070     0.0000    20.0000 </r>
       <r>    -7.0849     0.0000    20.0000 </r>
       <r>    -6.9627     0.0000    20.0000 </r>
       <r>    -6.8406     0.0000    20.0000 </r>
       <r>    -6.7184     0.0000    20.0000 </r>
       <r>    -6.5963     0.0000    20.0000 </r>
       <r>    -6.4741     0.0000    20.0000 </r>
       <r>    -6.3520     0.0000    20.0000 </r>
       <r>    -6.2298     0.0000    20.0000 </r>
       <r>    -6.1077     0.0000    20.0000 </r>
       <r>    -5.9855     0.0149    20.0018 </r>
       <r>    -5.8634    10.3444    21.2654 </r>
       <r>    -5.7413    23.3402    24.1164 </r>
       <r>    -5.6191    19.8762    26.5442 </r>
       <r>    -5.4970    11.8824    27.9956 </r>
       <r>    -5.3748     0.0358    28.0000 </r>
       <r>    -5.2527     0.0000    28.0000 </r>
       <r>    -5.1305     0.0000    28.0000 </r>
       <r>    -5.0084     0.0000    28.0000 </r>
       <r>    -4.8862     0.0000    28.0000 </r>
       <r>    -4.7641     0.0000    28.0000 </r>
       <r>    -4.6419     0.0000    28.0000 </r>
       <r>    -4.5198     0.0000    28.0000 </r>
       <r>    -4.3976     0.0000    28.0000 </r>
       <r>    -4.2755     0.0000    28.0000 </r>
       <r>    -4.1533     0.0000    28.0000 </r>
       <r>    -4.0312     0.0000    28.0000 </r>
       <r>    -3.9090     0.0000    28.0000 </r>
       <r>    -3.7869     0.0000    28.0000 </r>
       <r>    -3.6647     0.0000    28.0000 </r>
       <r>    -3.5426     0.0000    28.0000 </r>
       <r>    -3.4204     0.0000    28.0000 </r>
       <r>    -3.2983     0.0000    28.0000 </r>
       <r>    -3.1761     0.0000    28.0000 </r>
       <r>    -3.0540     0.0000    28.0000 </r>
       <r>    -2.9318     0.0000    28.0000 </r>
       <r>    -2.8097     0.0000    28.0000 </r>
       <r>    -2.6875     0.0000    28.0000 </r>
       <r>    -2.5654     0.0000    28.0000 </r>
       <r>    -2.4432     0.0000    28.0000 </r>
       <r>    -2.3211     0.0000    28.0000 </r>
       <r>    -2.1989     0.0000    28.0000 </r>
       <r>    -2.0768     0.0000    28.0000 </r>
       <r>    -1.9546     0.0000    28.0000 </r>
       <r>    -1.8325     0.0000    28.0000 </r>
       <r>    -1.7103     0.0000    28.0000 </r>
       <r>    -1.5882     0.0000    28.0000 </r>
       <r>    -1.4660     0.0000    28.0000 </r>
       <r>    -1.3439     0.0000    28.0000 </r>
       <r>    -1.2217     0.0000    28.0000 </r>
       <r>    -1.0996     0.0000    28.0000 </r>
       <r>    -0.9774     0.0000    28.0000 </r>
       <r>    -0.8553     0.0000    28.0000 </r>
       <r>    -0.7332     0.0000    28.0000 </r>
       <r>    -0.6110     0.0000    28.0000 </r>
       <r>    -0.4889     0.0000    28.0000 </r>
       <r>    -0.3667     0.0197    28.0024 </r>
       <r>    -0.2446    10.8315    29.3255 </r>
       <r>    -0.1224     5.5214    29.9999 </r>
       <r>    -0.0003     0.0009    30.0000 </r>
       <r>     0.1219     0.0000    30.0000 </r>
       <r>     0.2440     0.0000    30.0000 </r>
       <r>     0.3662     1.7110    30.2090 </r>
       <r>     0.4883    14.4340    31.9721 </r>
       <r>     0.6105     0.2285    32.0000 </r>
       <r>     0.7326     0.0000    32.0000 </r>
       <r>     0.8548     0.0000    32.0000 </r>
       <r>     0.9769     0.0000    32.0000 </r>
       <r>     1.0991     0.0000    32.0000 </r>
       <r>     1.2212     0.0000    32.0000 </r>
       <r>     1.3434     0.0000    32.0000 </r>
       <r>     1.4655     0.0000    32.0000 </r>
       <r>     1.5877     0.0000    32.0000 </r>
       <r>     1.7098     0.0000    32.0000 </r>
       <r>     1.8320     0.0000    32.0000 </r>
       <r>     1.9541     0.0000    32.0000 </r>
       <r>     2.0763     0.0000    32.0000 </r>
      </set>
     </set>
    </array>
   </total>
  </dos>
 </calculation>
 <structure name="finalpos" >
  <crystal>
   <varray name="basis" >
    <v>      14.50000000       0.00000000       0.00000000 </v>
    <v>       0.00000000      14.50000000       0.00000000 </v>
    <v>       0.00000000       0.00000000      14.50000000 </v>
   </varray>
   <i name="volume">   3048.62500000 </i>
   <varray name="rec_basis" >
    <v>       0.06896552       0.00000000       0.00000000 </v>
    <v>       0.00000000       0.06896552       0.00000000 </v>
    <v>       0.00000000       0.00000000       0.06896552 </v>
   </varray>
  </crystal>
  <varray name="positions" >
   <v>       0.00000000       0.00000000       0.00000000 </v>
   <v>       0.08275862       0.00000000       0.00000000 </v>
   <v>       0.03448276       0.95862069       0.17241379 </v>
   <v>       0.03448276       0.04137931       0.17241379 </v>
  </varray>
 </structure>
</modeling>
