 254 254   0   0
  0.2268316E+02  0.1514622E-08  0.1514622E-08  0.2900000E-08  0.5000000E-15
   1.0000000000000000E-004
  CAR 
 NiAl                                    
      6.56165710    -34.21627389  301     -0.48989753      1.00000000
    -34.216  0.0000E+00  0.0000E+00
    -34.080  0.0000E+00  0.0000E+00
    -33.944  0.0000E+00  0.0000E+00
    -33.808  0.0000E+00  0.0000E+00
    -33.673  0.0000E+00  0.0000E+00
    -33.537  0.0000E+00  0.0000E+00
    -33.401  0.0000E+00  0.0000E+00
    -33.265  0.0000E+00  0.0000E+00
    -33.129  0.0000E+00  0.0000E+00
    -32.993  0.0000E+00  0.0000E+00
    -32.857  0.0000E+00  0.0000E+00
    -32.721  0.0000E+00  0.0000E+00
    -32.585  0.2022E-08  0.2749E-09
    -32.449  0.9995E-01  0.1359E-01
    -32.313  0.1337E+02  0.1831E+01
    -32.177  0.1241E+01  0.2000E+01
    -32.041  0.1313E-05  0.2000E+01
    -31.906  0.0000E+00  0.2000E+01
    -31.770  0.0000E+00  0.2000E+01
    -31.634  0.0000E+00  0.2000E+01
    -31.498  0.0000E+00  0.2000E+01
    -31.362  0.0000E+00  0.2000E+01
    -31.226  0.0000E+00  0.2000E+01
    -31.090  0.0000E+00  0.2000E+01
    -30.954  0.0000E+00  0.2000E+01
    -30.818  0.0000E+00  0.2000E+01
    -30.682  0.0000E+00  0.2000E+01
    -30.546  0.0000E+00  0.2000E+01
    -30.410  0.0000E+00  0.2000E+01
    -30.274  0.0000E+00  0.2000E+01
    -30.138  0.0000E+00  0.2000E+01
    -30.003  0.0000E+00  0.2000E+01
    -29.867  0.0000E+00  0.2000E+01
    -29.731  0.0000E+00  0.2000E+01
    -29.595  0.0000E+00  0.2000E+01
    -29.459  0.0000E+00  0.2000E+01
    -29.323  0.0000E+00  0.2000E+01
    -29.187  0.0000E+00  0.2000E+01
    -29.051  0.0000E+00  0.2000E+01
    -28.915  0.0000E+00  0.2000E+01
    -28.779  0.0000E+00  0.2000E+01
    -28.643  0.0000E+00  0.2000E+01
    -28.507  0.0000E+00  0.2000E+01
    -28.371  0.0000E+00  0.2000E+01
    -28.236  0.0000E+00  0.2000E+01
    -28.100  0.0000E+00  0.2000E+01
    -27.964  0.0000E+00  0.2000E+01
    -27.828  0.0000E+00  0.2000E+01
    -27.692  0.0000E+00  0.2000E+01
    -27.556  0.0000E+00  0.2000E+01
    -27.420  0.0000E+00  0.2000E+01
    -27.284  0.0000E+00  0.2000E+01
    -27.148  0.0000E+00  0.2000E+01
    -27.012  0.0000E+00  0.2000E+01
    -26.876  0.0000E+00  0.2000E+01
    -26.740  0.0000E+00  0.2000E+01
    -26.604  0.0000E+00  0.2000E+01
    -26.468  0.0000E+00  0.2000E+01
    -26.333  0.0000E+00  0.2000E+01
    -26.197  0.0000E+00  0.2000E+01
    -26.061  0.0000E+00  0.2000E+01
    -25.925  0.0000E+00  0.2000E+01
    -25.789  0.0000E+00  0.2000E+01
    -25.653  0.0000E+00  0.2000E+01
    -25.517  0.0000E+00  0.2000E+01
    -25.381  0.0000E+00  0.2000E+01
    -25.245  0.0000E+00  0.2000E+01
    -25.109  0.0000E+00  0.2000E+01
    -24.973  0.0000E+00  0.2000E+01
    -24.837  0.0000E+00  0.2000E+01
    -24.701  0.0000E+00  0.2000E+01
    -24.565  0.0000E+00  0.2000E+01
    -24.430  0.0000E+00  0.2000E+01
    -24.294  0.0000E+00  0.2000E+01
    -24.158  0.0000E+00  0.2000E+01
    -24.022  0.0000E+00  0.2000E+01
    -23.886  0.0000E+00  0.2000E+01
    -23.750  0.0000E+00  0.2000E+01
    -23.614  0.0000E+00  0.2000E+01
    -23.478  0.0000E+00  0.2000E+01
    -23.342  0.0000E+00  0.2000E+01
    -23.206  0.0000E+00  0.2000E+01
    -23.070  0.0000E+00  0.2000E+01
    -22.934  0.0000E+00  0.2000E+01
    -22.798  0.0000E+00  0.2000E+01
    -22.663  0.0000E+00  0.2000E+01
    -22.527  0.0000E+00  0.2000E+01
    -22.391  0.0000E+00  0.2000E+01
    -22.255  0.0000E+00  0.2000E+01
    -22.119  0.0000E+00  0.2000E+01
    -21.983  0.0000E+00  0.2000E+01
    -21.847  0.0000E+00  0.2000E+01
    -21.711  0.0000E+00  0.2000E+01
    -21.575  0.0000E+00  0.2000E+01
    -21.439  0.0000E+00  0.2000E+01
    -21.303  0.0000E+00  0.2000E+01
    -21.167  0.0000E+00  0.2000E+01
    -21.031  0.0000E+00  0.2000E+01
    -20.895  0.0000E+00  0.2000E+01
    -20.760  0.0000E+00  0.2000E+01
    -20.624  0.0000E+00  0.2000E+01
    -20.488  0.0000E+00  0.2000E+01
    -20.352  0.0000E+00  0.2000E+01
    -20.216  0.0000E+00  0.2000E+01
    -20.080  0.0000E+00  0.2000E+01
    -19.944  0.0000E+00  0.2000E+01
    -19.808  0.0000E+00  0.2000E+01
    -19.672  0.0000E+00  0.2000E+01
    -19.536  0.0000E+00  0.2000E+01
    -19.400  0.0000E+00  0.2000E+01
    -19.264  0.0000E+00  0.2000E+01
    -19.128  0.0000E+00  0.2000E+01
    -18.993  0.0000E+00  0.2000E+01
    -18.857  0.0000E+00  0.2000E+01
    -18.721  0.0000E+00  0.2000E+01
    -18.585  0.0000E+00  0.2000E+01
    -18.449  0.0000E+00  0.2000E+01
    -18.313  0.0000E+00  0.2000E+01
    -18.177  0.0000E+00  0.2000E+01
    -18.041  0.0000E+00  0.2000E+01
    -17.905  0.0000E+00  0.2000E+01
    -17.769  0.0000E+00  0.2000E+01
    -17.633  0.0000E+00  0.2000E+01
    -17.497  0.0000E+00  0.2000E+01
    -17.361  0.0000E+00  0.2000E+01
    -17.225  0.0000E+00  0.2000E+01
    -17.090  0.0000E+00  0.2000E+01
    -16.954  0.0000E+00  0.2000E+01
    -16.818  0.0000E+00  0.2000E+01
    -16.682  0.0000E+00  0.2000E+01
    -16.546  0.3576E-08  0.2000E+01
    -16.410  0.1277E+00  0.2017E+01
    -16.274  0.1354E+02  0.3857E+01
    -16.138  0.1050E+01  0.4000E+01
    -16.002  0.8062E-06  0.4000E+01
    -15.866  0.0000E+00  0.4000E+01
    -15.730  0.0000E+00  0.4000E+01
    -15.594  0.0000E+00  0.4000E+01
    -15.458  0.0000E+00  0.4000E+01
    -15.322  0.0000E+00  0.4000E+01
    -15.187  0.0000E+00  0.4000E+01
    -15.051  0.0000E+00  0.4000E+01
    -14.915  0.0000E+00  0.4000E+01
    -14.779  0.0000E+00  0.4000E+01
    -14.643  0.0000E+00  0.4000E+01
    -14.507  0.0000E+00  0.4000E+01
    -14.371  0.0000E+00  0.4000E+01
    -14.235  0.0000E+00  0.4000E+01
    -14.099  0.0000E+00  0.4000E+01
    -13.963  0.0000E+00  0.4000E+01
    -13.827  0.0000E+00  0.4000E+01
    -13.691  0.0000E+00  0.4000E+01
    -13.555  0.0000E+00  0.4000E+01
    -13.420  0.0000E+00  0.4000E+01
    -13.284  0.0000E+00  0.4000E+01
    -13.148  0.0000E+00  0.4000E+01
    -13.012  0.0000E+00  0.4000E+01
    -12.876  0.0000E+00  0.4000E+01
    -12.740  0.0000E+00  0.4000E+01
    -12.604  0.0000E+00  0.4000E+01
    -12.468  0.4084E-15  0.4000E+01
    -12.332  0.4361E-04  0.4000E+01
    -12.196  0.3631E+01  0.4494E+01
    -12.060  0.1107E+02  0.5998E+01
    -11.924  0.1163E-01  0.6000E+01
    -11.788  0.1833E-10  0.6000E+01
    -11.652  0.6094E-05  0.6000E+01
    -11.517  0.2040E+01  0.6277E+01
    -11.381  0.1263E+02  0.7994E+01
    -11.245  0.4307E-01  0.8000E+01
    -11.109  0.3066E-09  0.8000E+01
    -10.973  0.0000E+00  0.8000E+01
    -10.837  0.0000E+00  0.8000E+01
    -10.701  0.0000E+00  0.8000E+01
    -10.565  0.9690E-11  0.8000E+01
    -10.429  0.8484E-02  0.8001E+01
    -10.293  0.1063E+02  0.9446E+01
    -10.157  0.4073E+01  0.1000E+02
    -10.021  0.6781E-04  0.1000E+02
     -9.885  0.0000E+00  0.1000E+02
     -9.750  0.0000E+00  0.1000E+02
     -9.614  0.0000E+00  0.1000E+02
     -9.478  0.0000E+00  0.1000E+02
     -9.342  0.2042E-15  0.1000E+02
     -9.206  0.1374E-04  0.1000E+02
     -9.070  0.9660E+00  0.1013E+02
     -8.934  0.2719E+01  0.1050E+02
     -8.798  0.1529E+02  0.1258E+02
     -8.662  0.6777E+01  0.1350E+02
     -8.526  0.1346E+01  0.1368E+02
     -8.390  0.7064E+01  0.1464E+02
     -8.254  0.3556E+02  0.1948E+02
     -8.118  0.2006E+02  0.2220E+02
     -7.982  0.5861E+01  0.2300E+02
     -7.847  0.1101E+02  0.2450E+02
     -7.711  0.1221E+02  0.2616E+02
     -7.575  0.2395E+02  0.2941E+02
     -7.439  0.5913E+02  0.3745E+02
     -7.303  0.7735E+01  0.3850E+02
     -7.167  0.4568E+00  0.3856E+02
     -7.031  0.4862E+02  0.4517E+02
     -6.895  0.4088E+02  0.5073E+02
     -6.759  0.2011E+02  0.5346E+02
     -6.623  0.1742E+02  0.5583E+02
     -6.487  0.2557E+02  0.5930E+02
     -6.351  0.4257E+02  0.6509E+02
     -6.215  0.6998E+02  0.7460E+02
     -6.080  0.1839E+02  0.7710E+02
     -5.944  0.5832E+02  0.8503E+02
     -5.808  0.7855E+02  0.9571E+02
     -5.672  0.2506E+01  0.9605E+02
     -5.536  0.1465E+02  0.9804E+02
     -5.400  0.6357E+02  0.1067E+03
     -5.264  0.1240E+03  0.1235E+03
     -5.128  0.5588E+02  0.1311E+03
     -4.992  0.1070E+03  0.1457E+03
     -4.856  0.8354E+02  0.1570E+03
     -4.720  0.7722E+02  0.1675E+03
     -4.584  0.2426E+03  0.2005E+03
     -4.448  0.1981E+03  0.2274E+03
     -4.312  0.2478E+03  0.2611E+03
     -4.177  0.2672E+03  0.2974E+03
     -4.041  0.2567E+03  0.3323E+03
     -3.905  0.3264E+03  0.3767E+03
     -3.769  0.4525E+03  0.4382E+03
     -3.633  0.4734E+03  0.5025E+03
     -3.497  0.4507E+03  0.5638E+03
     -3.361  0.3945E+03  0.6174E+03
     -3.225  0.3370E+03  0.6632E+03
     -3.089  0.4539E+03  0.7249E+03
     -2.953  0.4668E+03  0.7884E+03
     -2.817  0.4339E+03  0.8473E+03
     -2.681  0.5675E+03  0.9245E+03
     -2.545  0.5302E+03  0.9965E+03
     -2.409  0.5810E+03  0.1076E+04
     -2.274  0.7129E+03  0.1172E+04
     -2.138  0.8878E+03  0.1293E+04
     -2.002  0.8008E+03  0.1402E+04
     -1.866  0.9064E+03  0.1525E+04
     -1.730  0.5857E+03  0.1605E+04
     -1.594  0.5890E+03  0.1685E+04
     -1.458  0.5256E+03  0.1756E+04
     -1.322  0.7444E+03  0.1857E+04
     -1.186  0.7197E+03  0.1955E+04
     -1.050  0.5605E+03  0.2031E+04
     -0.914  0.7658E+03  0.2136E+04
     -0.778  0.8115E+03  0.2246E+04
     -0.642  0.7462E+03  0.2347E+04
     -0.507  0.1208E+04  0.2511E+04
     -0.371  0.8845E+03  0.2632E+04
     -0.235  0.2538E+03  0.2666E+04
     -0.099  0.1255E+03  0.2683E+04
      0.037  0.1672E+03  0.2706E+04
      0.173  0.9812E+02  0.2719E+04
      0.309  0.5805E+02  0.2727E+04
      0.445  0.3725E+02  0.2732E+04
      0.581  0.1118E+03  0.2747E+04
      0.717  0.9382E+02  0.2760E+04
      0.853  0.8254E+02  0.2771E+04
      0.989  0.1261E+03  0.2789E+04
      1.125  0.9545E+02  0.2802E+04
      1.261  0.2327E+02  0.2805E+04
      1.396  0.1148E+03  0.2820E+04
      1.532  0.3751E+02  0.2825E+04
      1.668  0.7963E+02  0.2836E+04
      1.804  0.9319E+02  0.2849E+04
      1.940  0.8213E+02  0.2860E+04
      2.076  0.8411E+02  0.2872E+04
      2.212  0.5756E+02  0.2879E+04
      2.348  0.1044E+03  0.2894E+04
      2.484  0.7609E+02  0.2904E+04
      2.620  0.5275E+02  0.2911E+04
      2.756  0.4146E+02  0.2917E+04
      2.892  0.2119E+02  0.2920E+04
      3.028  0.6486E+02  0.2928E+04
      3.163  0.2000E+03  0.2956E+04
      3.299  0.6360E+02  0.2964E+04
      3.435  0.2917E+02  0.2968E+04
      3.571  0.9254E+02  0.2981E+04
      3.707  0.3194E+02  0.2985E+04
      3.843  0.6424E+02  0.2994E+04
      3.979  0.1518E+02  0.2996E+04
      4.115  0.2071E+02  0.2999E+04
      4.251  0.5524E+02  0.3006E+04
      4.387  0.4288E+02  0.3012E+04
      4.523  0.8367E+02  0.3023E+04
      4.659  0.5882E+02  0.3031E+04
      4.795  0.4833E+02  0.3038E+04
      4.931  0.8966E-01  0.3038E+04
      5.066  0.1513E-08  0.3038E+04
      5.202  0.0000E+00  0.3038E+04
      5.338  0.0000E+00  0.3038E+04
      5.474  0.0000E+00  0.3038E+04
      5.610  0.0000E+00  0.3038E+04
      5.746  0.0000E+00  0.3038E+04
      5.882  0.0000E+00  0.3038E+04
      6.018  0.0000E+00  0.3038E+04
      6.154  0.0000E+00  0.3038E+04
      6.290  0.0000E+00  0.3038E+04
      6.426  0.0000E+00  0.3038E+04
      6.562  0.0000E+00  0.3038E+04
