ITEM: TIMESTEP
0
ITEM: NUMBER OF ATOMS
4
ITEM: BOX BOUNDS pp pp pp
0.0000000000000000e+00 1.4500000000000000e+01
0.0000000000000000e+00 1.4500000000000000e+01
0.0000000000000000e+00 1.4500000000000000e+01
ITEM: ATOMS id type xs ys zs
1 1 0 0 0
2 1 0.0832414 0 0
3 1 0 0 0.155172
4 1 0.0832414 0 0.155172
ITEM: TIMESTEP
10
ITEM: NUMBER OF ATOMS
4
ITEM: BOX BOUNDS pp pp pp
0.0000000000000000e+00 1.4500000000000000e+01
0.0000000000000000e+00 1.4500000000000000e+01
0.0000000000000000e+00 1.4500000000000000e+01
ITEM: ATOMS id type xs ys zs
1 1 -0.0030023 -0.00129947 0.00108475
2 1 0.0851184 0.000443548 -0.00130325
3 1 -0.00265886 0.00106831 0.155601
4 1 0.0870255 -0.000212389 0.154962
ITEM: TIMESTEP
20
ITEM: NUMBER OF ATOMS
4
ITEM: BOX BOUNDS pp pp pp
0.0000000000000000e+00 1.4500000000000000e+01
0.0000000000000000e+00 1.4500000000000000e+01
0.0000000000000000e+00 1.4500000000000000e+01
ITEM: ATOMS id type xs ys zs
1 1 -0.0069982 -0.0026004 0.0026647
2 1 0.0879916 0.000896432 -0.00250673
3 1 -0.00564103 0.00212506 0.155546
4 1 0.0911304 -0.000421095 0.154641
ITEM: TIMESTEP
30
ITEM: NUMBER OF ATOMS
4
ITEM: BOX BOUNDS pp pp pp
0.0000000000000000e+00 1.4500000000000000e+01
0.0000000000000000e+00 1.4500000000000000e+01
0.0000000000000000e+00 1.4500000000000000e+01
ITEM: ATOMS id type xs ys zs
1 1 -0.00888576 -0.00377593 0.00535987
2 1 0.08877 0.00126554 -0.00354113
3 1 -0.00584107 0.00306256 0.154223
4 1 0.0924396 -0.000552174 0.154303
ITEM: TIMESTEP
40
ITEM: NUMBER OF ATOMS
4
ITEM: BOX BOUNDS pp pp pp
0.0000000000000000e+00 1.4500000000000000e+01
0.0000000000000000e+00 1.4500000000000000e+01
0.0000000000000000e+00 1.4500000000000000e+01
ITEM: ATOMS id type xs ys zs
1 1 -0.00733215 -0.00456951 0.0121333
2 1 0.0861776 0.00146661 -0.00414513
3 1 -0.00265138 0.00366345 0.148463
4 1 0.0902887 -0.000560557 0.153894
ITEM: TIMESTEP
50
ITEM: NUMBER OF ATOMS
4
ITEM: BOX BOUNDS pp pp pp
0.0000000000000000e+00 1.4500000000000000e+01
0.0000000000000000e+00 1.4500000000000000e+01
0.0000000000000000e+00 1.4500000000000000e+01
ITEM: ATOMS id type xs ys zs
1 1 -0.00484105 -0.0058488 0.00869618
2 1 0.0817951 0.0015186 -0.00508712
3 1 0.00222838 0.004785 0.152045
4 1 0.0873004 -0.000454801 0.154691
ITEM: TIMESTEP
60
ITEM: NUMBER OF ATOMS
4
ITEM: BOX BOUNDS pp pp pp
0.0000000000000000e+00 1.4500000000000000e+01
0.0000000000000000e+00 1.4500000000000000e+01
0.0000000000000000e+00 1.4500000000000000e+01
ITEM: ATOMS id type xs ys zs
1 1 -0.0036432 -0.00719914 0.00506539
2 1 0.078576 0.00168327 -0.00618915
3 1 0.00480861 0.00600676 0.155658
4 1 0.0867413 -0.000490883 0.15581
ITEM: TIMESTEP
70
ITEM: NUMBER OF ATOMS
4
ITEM: BOX BOUNDS pp pp pp
0.0000000000000000e+00 1.4500000000000000e+01
0.0000000000000000e+00 1.4500000000000000e+01
0.0000000000000000e+00 1.4500000000000000e+01
ITEM: ATOMS id type xs ys zs
1 1 -0.00538387 -0.0086845 0.00422317
2 1 0.0784231 0.00218331 -0.00769132
3 1 0.00357945 0.00731994 0.156887
4 1 0.089864 -0.000818753 0.156926
ITEM: TIMESTEP
80
ITEM: NUMBER OF ATOMS
4
ITEM: BOX BOUNDS pp pp pp
0.0000000000000000e+00 1.4500000000000000e+01
0.0000000000000000e+00 1.4500000000000000e+01
0.0000000000000000e+00 1.4500000000000000e+01
ITEM: ATOMS id type xs ys zs
1 1 -0.00930013 -0.0103692 0.00448086
2 1 0.0804918 0.00296352 -0.00950559
3 1 0.000639854 0.00870156 0.15733
4 1 0.0946512 -0.00129592 0.15804
ITEM: TIMESTEP
90
ITEM: NUMBER OF ATOMS
4
ITEM: BOX BOUNDS pp pp pp
0.0000000000000000e+00 1.4500000000000000e+01
0.0000000000000000e+00 1.4500000000000000e+01
0.0000000000000000e+00 1.4500000000000000e+01
ITEM: ATOMS id type xs ys zs
1 1 -0.0125653 -0.0118893 0.00515249
2 1 0.0819434 0.00364361 -0.0112154
3 1 -0.00053254 0.00982197 0.157273
4 1 0.0976372 -0.00157627 0.159134
ITEM: TIMESTEP
100
ITEM: NUMBER OF ATOMS
4
ITEM: BOX BOUNDS pp pp pp
0.0000000000000000e+00 1.4500000000000000e+01
0.0000000000000000e+00 1.4500000000000000e+01
0.0000000000000000e+00 1.4500000000000000e+01
ITEM: ATOMS id type xs ys zs
1 1 -0.0129101 -0.0128508 0.00590864
2 1 0.0805219 0.00384892 -0.0124223
3 1 0.00190031 0.0104343 0.156701
4 1 0.0969706 -0.00143237 0.160157
ITEM: TIMESTEP
110
ITEM: NUMBER OF ATOMS
4
ITEM: BOX BOUNDS pp pp pp
0.0000000000000000e+00 1.4500000000000000e+01
0.0000000000000000e+00 1.4500000000000000e+01
0.0000000000000000e+00 1.4500000000000000e+01
ITEM: ATOMS id type xs ys zs
1 1 -0.010507 -0.0131936 0.00711234
2 1 0.0764497 0.00358439 -0.0131128
3 1 0.00661018 0.0106056 0.155246
4 1 0.0939298 -0.00099642 0.161099
ITEM: TIMESTEP
120
ITEM: NUMBER OF ATOMS
4
ITEM: BOX BOUNDS pp pp pp
0.0000000000000000e+00 1.4500000000000000e+01
0.0000000000000000e+00 1.4500000000000000e+01
0.0000000000000000e+00 1.4500000000000000e+01
ITEM: ATOMS id type xs ys zs
1 1 -0.00761999 -0.0131418 0.010614
2 1 0.0721881 0.00329497 -0.0137491
3 1 0.0100929 0.0105472 0.151416
4 1 0.0918217 -0.000700401 0.162064
ITEM: TIMESTEP
130
ITEM: NUMBER OF ATOMS
4
ITEM: BOX BOUNDS pp pp pp
0.0000000000000000e+00 1.4500000000000000e+01
0.0000000000000000e+00 1.4500000000000000e+01
0.0000000000000000e+00 1.4500000000000000e+01
ITEM: ATOMS id type xs ys zs
1 1 -0.00646169 -0.0134991 0.0168631
2 1 0.0704186 0.00359904 -0.0146183
3 1 0.00925751 0.011042 0.145877
4 1 0.0932683 -0.00114192 0.162223
ITEM: TIMESTEP
140
ITEM: NUMBER OF ATOMS
4
ITEM: BOX BOUNDS pp pp pp
0.0000000000000000e+00 1.4500000000000000e+01
0.0000000000000000e+00 1.4500000000000000e+01
0.0000000000000000e+00 1.4500000000000000e+01
ITEM: ATOMS id type xs ys zs
1 1 -0.00910073 -0.0168479 0.0113814
2 1 0.0714861 0.0044569 -0.0171748
3 1 0.00682293 0.014466 0.15387
4 1 0.0972745 -0.00207502 0.162268
ITEM: TIMESTEP
150
ITEM: NUMBER OF ATOMS
4
ITEM: BOX BOUNDS pp pp pp
0.0000000000000000e+00 1.4500000000000000e+01
0.0000000000000000e+00 1.4500000000000000e+01
0.0000000000000000e+00 1.4500000000000000e+01
ITEM: ATOMS id type xs ys zs
1 1 -0.0123177 -0.0197403 0.0106002
2 1 0.0737213 0.00571354 -0.0195113
3 1 0.00449657 0.0170315 0.157595
4 1 0.100583 -0.00300478 0.161661
ITEM: TIMESTEP
160
ITEM: NUMBER OF ATOMS
4
ITEM: BOX BOUNDS pp pp pp
0.0000000000000000e+00 1.4500000000000000e+01
0.0000000000000000e+00 1.4500000000000000e+01
0.0000000000000000e+00 1.4500000000000000e+01
ITEM: ATOMS id type xs ys zs
1 1 -0.013683 -0.0217728 0.0106851
2 1 0.0742699 0.00646441 -0.021238
3 1 0.00535175 0.0185439 0.159991
4 1 0.100544 -0.00323555 0.160907
ITEM: TIMESTEP
170
ITEM: NUMBER OF ATOMS
4
ITEM: BOX BOUNDS pp pp pp
0.0000000000000000e+00 1.4500000000000000e+01
0.0000000000000000e+00 1.4500000000000000e+01
0.0000000000000000e+00 1.4500000000000000e+01
ITEM: ATOMS id type xs ys zs
1 1 -0.0121389 -0.0228188 0.00995907
2 1 0.071938 0.00629075 -0.0219186
3 1 0.00926626 0.0192938 0.162191
4 1 0.0974174 -0.00276576 0.160113
ITEM: TIMESTEP
180
ITEM: NUMBER OF ATOMS
4
ITEM: BOX BOUNDS pp pp pp
0.0000000000000000e+00 1.4500000000000000e+01
0.0000000000000000e+00 1.4500000000000000e+01
0.0000000000000000e+00 1.4500000000000000e+01
ITEM: ATOMS id type xs ys zs
1 1 -0.00898725 -0.0233162 0.00863832
2 1 0.0679995 0.00557068 -0.0219964
3 1 0.0133902 0.0200024 0.1644
4 1 0.0940803 -0.0022569 0.159303
ITEM: TIMESTEP
190
ITEM: NUMBER OF ATOMS
4
ITEM: BOX BOUNDS pp pp pp
0.0000000000000000e+00 1.4500000000000000e+01
0.0000000000000000e+00 1.4500000000000000e+01
0.0000000000000000e+00 1.4500000000000000e+01
ITEM: ATOMS id type xs ys zs
1 1 -0.00686679 -0.0242146 0.00773698
2 1 0.0650922 0.00525154 -0.0224935
3 1 0.0146979 0.0214982 0.166802
4 1 0.0935594 -0.00253514 0.1583
ITEM: TIMESTEP
200
ITEM: NUMBER OF ATOMS
4
ITEM: BOX BOUNDS pp pp pp
0.0000000000000000e+00 1.4500000000000000e+01
0.0000000000000000e+00 1.4500000000000000e+01
0.0000000000000000e+00 1.4500000000000000e+01
ITEM: ATOMS id type xs ys zs
1 1 -0.00744195 -0.0262202 0.00797032
2 1 0.0648805 0.00603965 -0.0241254
3 1 0.0127916 0.0239667 0.16954
4 1 0.0962526 -0.00378621 0.15696
ITEM: TIMESTEP
210
ITEM: NUMBER OF ATOMS
4
ITEM: BOX BOUNDS pp pp pp
0.0000000000000000e+00 1.4500000000000000e+01
0.0000000000000000e+00 1.4500000000000000e+01
0.0000000000000000e+00 1.4500000000000000e+01
ITEM: ATOMS id type xs ys zs
1 1 -0.00989781 -0.0290525 0.00903043
2 1 0.0665495 0.00765453 -0.026584
3 1 0.0102278 0.0266391 0.172354
4 1 0.0996033 -0.00524117 0.155544
ITEM: TIMESTEP
220
ITEM: NUMBER OF ATOMS
4
ITEM: BOX BOUNDS pp pp pp
0.0000000000000000e+00 1.4500000000000000e+01
0.0000000000000000e+00 1.4500000000000000e+01
0.0000000000000000e+00 1.4500000000000000e+01
ITEM: ATOMS id type xs ys zs
1 1 -0.0117869 -0.0315992 0.00981774
2 1 0.0676517 0.00898375 -0.0287698
3 1 0.0100786 0.0284418 0.174701
4 1 0.100539 -0.00582629 0.154596
ITEM: TIMESTEP
230
ITEM: NUMBER OF ATOMS
4
ITEM: BOX BOUNDS pp pp pp
0.0000000000000000e+00 1.4500000000000000e+01
0.0000000000000000e+00 1.4500000000000000e+01
0.0000000000000000e+00 1.4500000000000000e+01
ITEM: ATOMS id type xs ys zs
1 1 -0.0112543 -0.0329043 0.00942586
2 1 0.0663323 0.00907137 -0.0297765
3 1 0.0132812 0.0289765 0.176306
4 1 0.0981235 -0.00514357 0.154389
ITEM: TIMESTEP
240
ITEM: NUMBER OF ATOMS
4
ITEM: BOX BOUNDS pp pp pp
0.0000000000000000e+00 1.4500000000000000e+01
0.0000000000000000e+00 1.4500000000000000e+01
0.0000000000000000e+00 1.4500000000000000e+01
ITEM: ATOMS id type xs ys zs
1 1 -0.00856426 -0.0330489 0.00794822
2 1 0.0628554 0.00799849 -0.0296973
3 1 0.0179292 0.028942 0.177556
4 1 0.0942624 -0.00389156 0.154538
ITEM: TIMESTEP
250
ITEM: NUMBER OF ATOMS
4
ITEM: BOX BOUNDS pp pp pp
0.0000000000000000e+00 1.4500000000000000e+01
0.0000000000000000e+00 1.4500000000000000e+01
0.0000000000000000e+00 1.4500000000000000e+01
ITEM: ATOMS id type xs ys zs
1 1 -0.00581063 -0.0331723 0.00644696
2 1 0.0593149 0.00690434 -0.0295946
3 1 0.0209371 0.0296278 0.179324
4 1 0.0920413 -0.0033599 0.154169
ITEM: TIMESTEP
260
ITEM: NUMBER OF ATOMS
4
ITEM: BOX BOUNDS pp pp pp
0.0000000000000000e+00 1.4500000000000000e+01
0.0000000000000000e+00 1.4500000000000000e+01
0.0000000000000000e+00 1.4500000000000000e+01
ITEM: ATOMS id type xs ys zs
1 1 -0.00507327 -0.0345472 0.00606854
2 1 0.0577907 0.00706179 -0.0306147
3 1 0.0208111 0.0317681 0.182201
4 1 0.0929542 -0.00428274 0.15269
ITEM: TIMESTEP
270
ITEM: NUMBER OF ATOMS
4
ITEM: BOX BOUNDS pp pp pp
0.0000000000000000e+00 1.4500000000000000e+01
0.0000000000000000e+00 1.4500000000000000e+01
0.0000000000000000e+00 1.4500000000000000e+01
ITEM: ATOMS id type xs ys zs
1 1 -0.00654591 -0.0373771 0.00697472
2 1 0.0584765 0.00867425 -0.0329194
3 1 0.0189763 0.0347469 0.185754
4 1 0.0955758 -0.00604403 0.150536
ITEM: TIMESTEP
280
ITEM: NUMBER OF ATOMS
4
ITEM: BOX BOUNDS pp pp pp
0.0000000000000000e+00 1.4500000000000000e+01
0.0000000000000000e+00 1.4500000000000000e+01
0.0000000000000000e+00 1.4500000000000000e+01
ITEM: ATOMS id type xs ys zs
1 1 -0.00845045 -0.040496 0.00813487
2 1 0.0595942 0.0105756 -0.0354781
3 1 0.018298 0.0370962 0.188753
4 1 0.097041 -0.00717583 0.148935
ITEM: TIMESTEP
290
ITEM: NUMBER OF ATOMS
4
ITEM: BOX BOUNDS pp pp pp
0.0000000000000000e+00 1.4500000000000000e+01
0.0000000000000000e+00 1.4500000000000000e+01
0.0000000000000000e+00 1.4500000000000000e+01
ITEM: ATOMS id type xs ys zs
1 1 -0.00874011 -0.0423926 0.00825342
2 1 0.059097 0.0112548 -0.0369951
3 1 0.0205091 0.0378182 0.190288
4 1 0.0956167 -0.00668032 0.148799
ITEM: TIMESTEP
300
ITEM: NUMBER OF ATOMS
4
ITEM: BOX BOUNDS pp pp pp
0.0000000000000000e+00 1.4500000000000000e+01
0.0000000000000000e+00 1.4500000000000000e+01
0.0000000000000000e+00 1.4500000000000000e+01
ITEM: ATOMS id type xs ys zs
1 1 -0.00684224 -0.0425619 0.0069145
2 1 0.0564123 0.0102065 -0.0370547
3 1 0.0248529 0.0372862 0.190659
4 1 0.0920598 -0.00493087 0.149826
ITEM: TIMESTEP
310
ITEM: NUMBER OF ATOMS
4
ITEM: BOX BOUNDS pp pp pp
0.0000000000000000e+00 1.4500000000000000e+01
0.0000000000000000e+00 1.4500000000000000e+01
0.0000000000000000e+00 1.4500000000000000e+01
ITEM: ATOMS id type xs ys zs
1 1 -0.0040523 -0.0420017 0.00496508
2 1 0.0528356 0.0084289 -0.0365038
3 1 0.0288272 0.0370046 0.191282
4 1 0.0888723 -0.00343179 0.150601
ITEM: TIMESTEP
320
ITEM: NUMBER OF ATOMS
4
ITEM: BOX BOUNDS pp pp pp
0.0000000000000000e+00 1.4500000000000000e+01
0.0000000000000000e+00 1.4500000000000000e+01
0.0000000000000000e+00 1.4500000000000000e+01
ITEM: ATOMS id type xs ys zs
1 1 -0.00236755 -0.042439 0.00383275
2 1 0.050364 0.00764872 -0.03677
3 1 0.0304225 0.038335 0.193533
4 1 0.0880638 -0.00354469 0.149749
ITEM: TIMESTEP
330
ITEM: NUMBER OF ATOMS
4
ITEM: BOX BOUNDS pp pp pp
0.0000000000000000e+00 1.4500000000000000e+01
0.0000000000000000e+00 1.4500000000000000e+01
0.0000000000000000e+00 1.4500000000000000e+01
ITEM: ATOMS id type xs ys zs
1 1 -0.00270074 -0.0447934 0.00425441
2 1 0.0499103 0.0087856 -0.0385902
3 1 0.0299135 0.041181 0.197362
4 1 0.0893597 -0.00517317 0.147319
ITEM: TIMESTEP
340
ITEM: NUMBER OF ATOMS
4
ITEM: BOX BOUNDS pp pp pp
0.0000000000000000e+00 1.4500000000000000e+01
0.0000000000000000e+00 1.4500000000000000e+01
0.0000000000000000e+00 1.4500000000000000e+01
ITEM: ATOMS id type xs ys zs
1 1 0.995883 0.951768 0.00554612
2 1 0.0505401 0.0110069 0.95872
3 1 0.0294067 0.0440048 0.201157
4 1 0.0906533 0.993221 0.144922
ITEM: TIMESTEP
350
ITEM: NUMBER OF ATOMS
4
ITEM: BOX BOUNDS pp pp pp
0.0000000000000000e+00 1.4500000000000000e+01
0.0000000000000000e+00 1.4500000000000000e+01
0.0000000000000000e+00 1.4500000000000000e+01
ITEM: ATOMS id type xs ys zs
1 1 0.99518 0.94912 0.00621473
2 1 0.0504556 0.0124368 0.956652
3 1 0.0308201 0.0452268 0.203174
4 1 0.0900268 0.993216 0.144303
ITEM: TIMESTEP
360
ITEM: NUMBER OF ATOMS
4
ITEM: BOX BOUNDS pp pp pp
0.0000000000000000e+00 1.4500000000000000e+01
0.0000000000000000e+00 1.4500000000000000e+01
0.0000000000000000e+00 1.4500000000000000e+01
ITEM: ATOMS id type xs ys zs
1 1 0.996249 0.948506 0.00529255
2 1 0.0485996 0.0118339 0.956176
3 1 0.0343294 0.0446138 0.203117
4 1 0.0873043 0.995046 0.145759
ITEM: TIMESTEP
370
ITEM: NUMBER OF ATOMS
4
ITEM: BOX BOUNDS pp pp pp
0.0000000000000000e+00 1.4500000000000000e+01
0.0000000000000000e+00 1.4500000000000000e+01
0.0000000000000000e+00 1.4500000000000000e+01
ITEM: ATOMS id type xs ys zs
1 1 0.9986 0.949428 0.00317688
2 1 0.0454627 0.00969423 0.956893
3 1 0.0383801 0.0435154 0.202506
4 1 0.0840405 0.997362 0.147768
ITEM: TIMESTEP
380
ITEM: NUMBER OF ATOMS
4
ITEM: BOX BOUNDS pp pp pp
0.0000000000000000e+00 1.4500000000000000e+01
0.0000000000000000e+00 1.4500000000000000e+01
0.0000000000000000e+00 1.4500000000000000e+01
ITEM: ATOMS id type xs ys zs
1 1 1.0007 0.950003 0.00132496
2 1 0.0425773 0.0079017 0.957347
3 1 0.0411309 0.043753 0.203488
4 1 0.0820765 0.998342 0.148185
ITEM: TIMESTEP
390
ITEM: NUMBER OF ATOMS
4
ITEM: BOX BOUNDS pp pp pp
0.0000000000000000e+00 1.4500000000000000e+01
0.0000000000000000e+00 1.4500000000000000e+01
0.0000000000000000e+00 1.4500000000000000e+01
ITEM: ATOMS id type xs ys zs
1 1 1.00135 0.948566 0.000999944
2 1 0.0411384 0.0081212 0.956273
3 1 0.0421025 0.0459577 0.206864
4 1 0.0818918 0.997355 0.146208
ITEM: TIMESTEP
400
ITEM: NUMBER OF ATOMS
4
ITEM: BOX BOUNDS pp pp pp
0.0000000000000000e+00 1.4500000000000000e+01
0.0000000000000000e+00 1.4500000000000000e+01
0.0000000000000000e+00 1.4500000000000000e+01
ITEM: ATOMS id type xs ys zs
1 1 1.00074 0.945252 0.0020867
2 1 0.0409652 0.0102182 0.953788
3 1 0.0424253 0.0489246 0.211181
4 1 0.0823558 0.995606 0.143289
ITEM: TIMESTEP
410
ITEM: NUMBER OF ATOMS
4
ITEM: BOX BOUNDS pp pp pp
0.0000000000000000e+00 1.4500000000000000e+01
0.0000000000000000e+00 1.4500000000000000e+01
0.0000000000000000e+00 1.4500000000000000e+01
ITEM: ATOMS id type xs ys zs
1 1 1.00011 0.941939 0.0031747
2 1 0.0408078 0.0123133 0.951301
3 1 0.0435985 0.0507331 0.214018
4 1 0.0819694 0.995015 0.141851
ITEM: TIMESTEP
420
ITEM: NUMBER OF ATOMS
4
ITEM: BOX BOUNDS pp pp pp
0.0000000000000000e+00 1.4500000000000000e+01
0.0000000000000000e+00 1.4500000000000000e+01
0.0000000000000000e+00 1.4500000000000000e+01
ITEM: ATOMS id type xs ys zs
1 1 1.00058 0.940554 0.00284283
2 1 0.039543 0.0124805 0.950235
3 1 0.0462105 0.0504518 0.214147
4 1 0.0801443 0.996513 0.14312
ITEM: TIMESTEP
430
ITEM: NUMBER OF ATOMS
4
ITEM: BOX BOUNDS pp pp pp
0.0000000000000000e+00 1.4500000000000000e+01
0.0000000000000000e+00 1.4500000000000000e+01
0.0000000000000000e+00 1.4500000000000000e+01
ITEM: ATOMS id type xs ys zs
1 1 1.00227 0.941382 0.000892426
2 1 0.0370756 0.0104358 0.950787
3 1 0.0496201 0.0489287 0.212647
4 1 0.0775215 0.999254 0.146019
ITEM: TIMESTEP
440
ITEM: NUMBER OF ATOMS
4
ITEM: BOX BOUNDS pp pp pp
0.0000000000000000e+00 1.4500000000000000e+01
0.0000000000000000e+00 1.4500000000000000e+01
0.0000000000000000e+00 1.4500000000000000e+01
ITEM: ATOMS id type xs ys zs
1 1 1.00425 0.942776 -0.00147222
2 1 0.0343072 0.00782343 0.951753
3 1 0.0526658 0.0480968 0.212083
4 1 0.0752627 1.0013 0.147981
ITEM: TIMESTEP
450
ITEM: NUMBER OF ATOMS
4
ITEM: BOX BOUNDS pp pp pp
0.0000000000000000e+00 1.4500000000000000e+01
0.0000000000000000e+00 1.4500000000000000e+01
0.0000000000000000e+00 1.4500000000000000e+01
ITEM: ATOMS id type xs ys zs
1 1 1.00548 0.942526 -0.00265583
2 1 0.0322854 0.00685639 0.951538
3 1 0.0547493 0.0492716 0.214271
4 1 0.073966 1.00135 0.147192
ITEM: TIMESTEP
460
ITEM: NUMBER OF ATOMS
4
ITEM: BOX BOUNDS pp pp pp
0.0000000000000000e+00 1.4500000000000000e+01
0.0000000000000000e+00 1.4500000000000000e+01
0.0000000000000000e+00 1.4500000000000000e+01
ITEM: ATOMS id type xs ys zs
1 1 1.0057 0.939853 -0.00211425
2 1 0.0312762 0.00831148 0.949598
3 1 0.0562283 0.0519035 0.218491
4 1 0.0732738 0.999932 0.14437
ITEM: TIMESTEP
470
ITEM: NUMBER OF ATOMS
4
ITEM: BOX BOUNDS pp pp pp
0.0000000000000000e+00 1.4500000000000000e+01
0.0000000000000000e+00 1.4500000000000000e+01
0.0000000000000000e+00 1.4500000000000000e+01
ITEM: ATOMS id type xs ys zs
1 1 1.00555 0.936206 -0.000882278
2 1 0.0306469 0.0107419 0.946967
3 1 0.057824 0.0541124 0.222099
4 1 0.072465 0.99894 0.142161
ITEM: TIMESTEP
480
ITEM: NUMBER OF ATOMS
4
ITEM: BOX BOUNDS pp pp pp
0.0000000000000000e+00 1.4500000000000000e+01
0.0000000000000000e+00 1.4500000000000000e+01
0.0000000000000000e+00 1.4500000000000000e+01
ITEM: ATOMS id type xs ys zs
1 1 1.00584 0.933934 -0.000611288
2 1 0.0295655 0.0117963 0.945298
3 1 0.0599208 0.0544053 0.222929
4 1 0.071155 0.999865 0.142729
ITEM: TIMESTEP
490
ITEM: NUMBER OF ATOMS
4
ITEM: BOX BOUNDS pp pp pp
0.0000000000000000e+00 1.4500000000000000e+01
0.0000000000000000e+00 1.4500000000000000e+01
0.0000000000000000e+00 1.4500000000000000e+01
ITEM: ATOMS id type xs ys zs
1 1 1.00691 0.93421 -0.00211045
2 1 0.0277082 0.0103026 0.945398
3 1 0.0623912 0.0529333 0.221167
4 1 0.0694715 1.00255 0.14589
ITEM: TIMESTEP
500
ITEM: NUMBER OF ATOMS
4
ITEM: BOX BOUNDS pp pp pp
0.0000000000000000e+00 1.4500000000000000e+01
0.0000000000000000e+00 1.4500000000000000e+01
0.0000000000000000e+00 1.4500000000000000e+01
ITEM: ATOMS id type xs ys zs
1 1 1.00841 0.936014 -0.00466508
2 1 0.0254228 0.00728112 0.946555
3 1 0.0649012 0.0513492 0.219247
4 1 0.0677484 1.00536 0.149209
ITEM: TIMESTEP
510
ITEM: NUMBER OF ATOMS
4
ITEM: BOX BOUNDS pp pp pp
0.0000000000000000e+00 1.4500000000000000e+01
0.0000000000000000e+00 1.4500000000000000e+01
0.0000000000000000e+00 1.4500000000000000e+01
ITEM: ATOMS id type xs ys zs
1 1 1.00972 0.936955 -0.00663165
2 1 0.023328 0.00512229 0.947123
3 1 0.0673293 0.0513754 0.219784
4 1 0.0661071 1.00655 0.150069
ITEM: TIMESTEP
520
ITEM: NUMBER OF ATOMS
4
ITEM: BOX BOUNDS pp pp pp
0.0000000000000000e+00 1.4500000000000000e+01
0.0000000000000000e+00 1.4500000000000000e+01
0.0000000000000000e+00 1.4500000000000000e+01
ITEM: ATOMS id type xs ys zs
1 1 1.01053 0.935365 -0.00688176
2 1 0.0217342 0.00549454 0.945974
3 1 0.0697953 0.0532254 0.223154
4 1 0.0644279 1.00591 0.148098
ITEM: TIMESTEP
530
ITEM: NUMBER OF ATOMS
4
ITEM: BOX BOUNDS pp pp pp
0.0000000000000000e+00 1.4500000000000000e+01
0.0000000000000000e+00 1.4500000000000000e+01
0.0000000000000000e+00 1.4500000000000000e+01
ITEM: ATOMS id type xs ys zs
1 1 1.01102 0.93188 -0.00585555
2 1 0.0204555 0.00776262 0.943549
3 1 0.0722766 0.0554405 0.227094
4 1 0.0627334 1.00492 0.145557
ITEM: TIMESTEP
540
ITEM: NUMBER OF ATOMS
4
ITEM: BOX BOUNDS pp pp pp
0.0000000000000000e+00 1.4500000000000000e+01
0.0000000000000000e+00 1.4500000000000000e+01
0.0000000000000000e+00 1.4500000000000000e+01
ITEM: ATOMS id type xs ys zs
1 1 1.01155 0.928863 -0.00513987
2 1 0.0191322 0.00956174 0.941435
3 1 0.0744842 0.0562854 0.228817
4 1 0.0613127 1.00529 0.145233
ITEM: TIMESTEP
550
ITEM: NUMBER OF ATOMS
4
ITEM: BOX BOUNDS pp pp pp
0.0000000000000000e+00 1.4500000000000000e+01
0.0000000000000000e+00 1.4500000000000000e+01
0.0000000000000000e+00 1.4500000000000000e+01
ITEM: ATOMS id type xs ys zs
1 1 1.01231 0.928271 -0.00602841
2 1 0.0175862 0.00893655 0.940925
3 1 0.0762074 0.055242 0.227446
4 1 0.0603763 1.00755 0.148002
ITEM: TIMESTEP
560
ITEM: NUMBER OF ATOMS
4
ITEM: BOX BOUNDS pp pp pp
0.0000000000000000e+00 1.4500000000000000e+01
0.0000000000000000e+00 1.4500000000000000e+01
0.0000000000000000e+00 1.4500000000000000e+01
ITEM: ATOMS id type xs ys zs
1 1 1.01323 0.92997 -0.00842472
2 1 0.0158842 0.00602 0.941923
3 1 0.0776844 0.0533924 0.22474
4 1 0.0596861 1.01062 0.152106
ITEM: TIMESTEP
570
ITEM: NUMBER OF ATOMS
4
ITEM: BOX BOUNDS pp pp pp
0.0000000000000000e+00 1.4500000000000000e+01
0.0000000000000000e+00 1.4500000000000000e+01
0.0000000000000000e+00 1.4500000000000000e+01
ITEM: ATOMS id type xs ys zs
1 1 1.01416 0.931834 -0.0109311
2 1 0.0141623 0.00293825 0.943031
3 1 0.0795774 0.0524683 0.223615
4 1 0.0585801 1.01276 0.15463
ITEM: TIMESTEP
580
ITEM: NUMBER OF ATOMS
4
ITEM: BOX BOUNDS pp pp pp
0.0000000000000000e+00 1.4500000000000000e+01
0.0000000000000000e+00 1.4500000000000000e+01
0.0000000000000000e+00 1.4500000000000000e+01
ITEM: ATOMS id type xs ys zs
1 1 1.01511 0.931559 -0.0120535
2 1 0.0124298 0.00199651 0.942755
3 1 0.0823967 0.0532946 0.225531
4 1 0.0565476 1.01315 0.154112
ITEM: TIMESTEP
590
ITEM: NUMBER OF ATOMS
4
ITEM: BOX BOUNDS pp pp pp
0.0000000000000000e+00 1.4500000000000000e+01
0.0000000000000000e+00 1.4500000000000000e+01
0.0000000000000000e+00 1.4500000000000000e+01
ITEM: ATOMS id type xs ys zs
1 1 1.01614 0.928768 -0.0115615
2 1 0.010608 0.00356948 0.940864
3 1 0.0857968 0.0550659 0.229119
4 1 0.0539343 1.0126 0.151923
ITEM: TIMESTEP
600
ITEM: NUMBER OF ATOMS
4
ITEM: BOX BOUNDS pp pp pp
0.0000000000000000e+00 1.4500000000000000e+01
0.0000000000000000e+00 1.4500000000000000e+01
0.0000000000000000e+00 1.4500000000000000e+01
ITEM: ATOMS id type xs ys zs
1 1 1.01721 0.925384 -0.0106895
2 1 0.008757 0.00573637 0.938594
3 1 0.088687 0.0561904 0.231522
4 1 0.051831 1.01269 0.150919
ITEM: TIMESTEP
610
ITEM: NUMBER OF ATOMS
4
ITEM: BOX BOUNDS pp pp pp
0.0000000000000000e+00 1.4500000000000000e+01
0.0000000000000000e+00 1.4500000000000000e+01
0.0000000000000000e+00 1.4500000000000000e+01
ITEM: ATOMS id type xs ys zs
1 1 0.0180694 0.92384 0.989022
2 1 0.00710852 0.00606238 0.937484
3 1 0.0902189 0.0557175 0.230963
4 1 0.0510859 0.0143799 0.152876
ITEM: TIMESTEP
620
ITEM: NUMBER OF ATOMS
4
ITEM: BOX BOUNDS pp pp pp
0.0000000000000000e+00 1.4500000000000000e+01
0.0000000000000000e+00 1.4500000000000000e+01
0.0000000000000000e+00 1.4500000000000000e+01
ITEM: ATOMS id type xs ys zs
1 1 0.0185773 0.924963 0.987062
2 1 0.00581379 0.00372247 0.938045
3 1 0.0906606 0.0540745 0.2282
4 1 0.0514311 0.0172404 0.157037
ITEM: TIMESTEP
630
ITEM: NUMBER OF ATOMS
4
ITEM: BOX BOUNDS pp pp pp
0.0000000000000000e+00 1.4500000000000000e+01
0.0000000000000000e+00 1.4500000000000000e+01
0.0000000000000000e+00 1.4500000000000000e+01
ITEM: ATOMS id type xs ys zs
1 1 0.0189031 0.92728 0.984357
2 1 0.00470115 0.000187327 0.939352
3 1 0.0913573 0.0526395 0.225852
4 1 0.0515212 0.0198928 0.160784
ITEM: TIMESTEP
640
ITEM: NUMBER OF ATOMS
4
ITEM: BOX BOUNDS pp pp pp
0.0000000000000000e+00 1.4500000000000000e+01
0.0000000000000000e+00 1.4500000000000000e+01
0.0000000000000000e+00 1.4500000000000000e+01
ITEM: ATOMS id type xs ys zs
1 1 0.0195022 0.928267 0.98247
2 1 0.00331526 -0.00201733 0.93984
3 1 0.0936531 0.0525044 0.226092
4 1 0.0500122 0.0212455 0.161942
ITEM: TIMESTEP
650
ITEM: NUMBER OF ATOMS
4
ITEM: BOX BOUNDS pp pp pp
0.0000000000000000e+00 1.4500000000000000e+01
0.0000000000000000e+00 1.4500000000000000e+01
0.0000000000000000e+00 1.4500000000000000e+01
ITEM: ATOMS id type xs ys zs
1 1 0.0207208 0.926591 0.982213
2 1 0.00130983 -0.00155789 0.938699
3 1 0.0975135 0.0535077 0.22866
4 1 0.0469387 0.0214597 0.160773
ITEM: TIMESTEP
660
ITEM: NUMBER OF ATOMS
4
ITEM: BOX BOUNDS pp pp pp
0.0000000000000000e+00 1.4500000000000000e+01
0.0000000000000000e+00 1.4500000000000000e+01
0.0000000000000000e+00 1.4500000000000000e+01
ITEM: ATOMS id type xs ys zs
1 1 0.0223473 0.923353 0.982902
2 1 -0.00110358 0.000461768 0.936611
3 1 0.101327 0.0545052 0.231202
4 1 0.0439119 0.0216796 0.15963
ITEM: TIMESTEP
670
ITEM: NUMBER OF ATOMS
4
ITEM: BOX BOUNDS pp pp pp
0.0000000000000000e+00 1.4500000000000000e+01
0.0000000000000000e+00 1.4500000000000000e+01
0.0000000000000000e+00 1.4500000000000000e+01
ITEM: ATOMS id type xs ys zs
1 1 0.0236806 0.921039 0.98304
2 1 -0.00322367 0.00155833 0.935075
3 1 0.103319 0.0544714 0.231489
4 1 0.042707 0.0229309 0.160741
ITEM: TIMESTEP
680
ITEM: NUMBER OF ATOMS
4
ITEM: BOX BOUNDS pp pp pp
0.0000000000000000e+00 1.4500000000000000e+01
0.0000000000000000e+00 1.4500000000000000e+01
0.0000000000000000e+00 1.4500000000000000e+01
ITEM: ATOMS id type xs ys zs
1 1 0.0241552 0.921286 0.981652
2 1 -0.00448516 9.38723e-05 0.935064
3 1 0.103179 0.0533223 0.229278
4 1 0.0436337 0.0252975 0.164351
ITEM: TIMESTEP
690
ITEM: NUMBER OF ATOMS
4
ITEM: BOX BOUNDS pp pp pp
0.0000000000000000e+00 1.4500000000000000e+01
0.0000000000000000e+00 1.4500000000000000e+01
0.0000000000000000e+00 1.4500000000000000e+01
ITEM: ATOMS id type xs ys zs
1 1 0.0239162 0.923519 0.979089
2 1 -0.00503303 -0.00335647 0.936229
3 1 0.102478 0.0518901 0.226426
4 1 0.0451217 0.0279471 0.168601
ITEM: TIMESTEP
700
ITEM: NUMBER OF ATOMS
4
ITEM: BOX BOUNDS pp pp pp
0.0000000000000000e+00 1.4500000000000000e+01
0.0000000000000000e+00 1.4500000000000000e+01
0.0000000000000000e+00 1.4500000000000000e+01
ITEM: ATOMS id type xs ys zs
1 1 0.0238122 0.925449 0.976701
2 1 -0.00571584 -0.00650417 0.937218
3 1 0.103457 0.0511418 0.225241
4 1 0.0449294 0.0299129 0.171185
ITEM: TIMESTEP
710
ITEM: NUMBER OF ATOMS
4
ITEM: BOX BOUNDS pp pp pp
0.0000000000000000e+00 1.4500000000000000e+01
0.0000000000000000e+00 1.4500000000000000e+01
0.0000000000000000e+00 1.4500000000000000e+01
ITEM: ATOMS id type xs ys zs
1 1 0.0247186 0.92507 0.975652
2 1 -0.00740911 -0.00734227 0.936869
3 1 0.106966 0.0513156 0.226399
4 1 0.0422073 0.0309566 0.171425
ITEM: TIMESTEP
720
ITEM: NUMBER OF ATOMS
4
ITEM: BOX BOUNDS pp pp pp
0.0000000000000000e+00 1.4500000000000000e+01
0.0000000000000000e+00 1.4500000000000000e+01
0.0000000000000000e+00 1.4500000000000000e+01
ITEM: ATOMS id type xs ys zs
1 1 0.0266604 0.922493 0.975865
2 1 -0.0101377 -0.00598243 0.935257
3 1 0.111466 0.0518196 0.228428
4 1 0.038494 0.0316701 0.170795
ITEM: TIMESTEP
730
ITEM: NUMBER OF ATOMS
4
ITEM: BOX BOUNDS pp pp pp
0.0000000000000000e+00 1.4500000000000000e+01
0.0000000000000000e+00 1.4500000000000000e+01
0.0000000000000000e+00 1.4500000000000000e+01
ITEM: ATOMS id type xs ys zs
1 1 0.0286444 0.919803 0.976144
2 1 -0.0129085 -0.00451054 0.933579
3 1 0.114362 0.0518932 0.229209
4 1 0.0363846 0.032814 0.171412
ITEM: TIMESTEP
740
ITEM: NUMBER OF ATOMS
4
ITEM: BOX BOUNDS pp pp pp
0.0000000000000000e+00 1.4500000000000000e+01
0.0000000000000000e+00 1.4500000000000000e+01
0.0000000000000000e+00 1.4500000000000000e+01
ITEM: ATOMS id type xs ys zs
1 1 0.0295154 0.919127 0.975293
2 1 -0.0145664 -0.00505195 0.933032
3 1 0.114333 0.0512513 0.227822
4 1 0.0372004 0.0346734 0.174197
ITEM: TIMESTEP
750
ITEM: NUMBER OF ATOMS
4
ITEM: BOX BOUNDS pp pp pp
0.0000000000000000e+00 1.4500000000000000e+01
0.0000000000000000e+00 1.4500000000000000e+01
0.0000000000000000e+00 1.4500000000000000e+01
ITEM: ATOMS id type xs ys zs
1 1 0.0290151 0.920817 0.973122
2 1 -0.0148529 -0.00795889 0.933804
3 1 0.112547 0.0502202 0.225196
4 1 0.0397735 0.036922 0.178222
ITEM: TIMESTEP
760
ITEM: NUMBER OF ATOMS
4
ITEM: BOX BOUNDS pp pp pp
0.0000000000000000e+00 1.4500000000000000e+01
0.0000000000000000e+00 1.4500000000000000e+01
0.0000000000000000e+00 1.4500000000000000e+01
ITEM: ATOMS id type xs ys zs
1 1 0.0281042 0.923196 0.970569
2 1 -0.0147288 -0.0115554 0.93496
3 1 0.111799 0.0493622 0.223215
4 1 0.0413081 0.0389974 0.181602
ITEM: TIMESTEP
770
ITEM: NUMBER OF ATOMS
4
ITEM: BOX BOUNDS pp pp pp
0.0000000000000000e+00 1.4500000000000000e+01
0.0000000000000000e+00 1.4500000000000000e+01
0.0000000000000000e+00 1.4500000000000000e+01
ITEM: ATOMS id type xs ys zs
1 1 0.0282329 0.924013 0.968865
2 1 -0.0156445 -0.0135896 0.935264
3 1 0.114081 0.0489453 0.223015
4 1 0.0398129 0.0406318 0.1832
ITEM: TIMESTEP
780
ITEM: NUMBER OF ATOMS
4
ITEM: BOX BOUNDS pp pp pp
0.0000000000000000e+00 1.4500000000000000e+01
0.0000000000000000e+00 1.4500000000000000e+01
0.0000000000000000e+00 1.4500000000000000e+01
ITEM: ATOMS id type xs ys zs
1 1 0.0300238 0.922462 0.968437
2 1 -0.0182221 -0.0132565 0.934294
3 1 0.1186 0.0487919 0.224034
4 1 0.036081 0.0420027 0.183579
ITEM: TIMESTEP
790
ITEM: NUMBER OF ATOMS
4
ITEM: BOX BOUNDS pp pp pp
0.0000000000000000e+00 1.4500000000000000e+01
0.0000000000000000e+00 1.4500000000000000e+01
0.0000000000000000e+00 1.4500000000000000e+01
ITEM: ATOMS id type xs ys zs
1 1 0.0325611 0.919895 0.968552
2 1 -0.0215463 -0.011907 0.932781
3 1 0.122422 0.048595 0.224734
4 1 0.0330462 0.0434171 0.184279
ITEM: TIMESTEP
800
ITEM: NUMBER OF ATOMS
4
ITEM: BOX BOUNDS pp pp pp
0.0000000000000000e+00 1.4500000000000000e+01
0.0000000000000000e+00 1.4500000000000000e+01
0.0000000000000000e+00 1.4500000000000000e+01
ITEM: ATOMS id type xs ys zs
1 1 0.034153 0.918503 0.968052
2 1 -0.023925 -0.0117329 0.931882
3 1 0.123131 0.0482222 0.224031
4 1 0.0331243 0.0450074 0.18638
ITEM: TIMESTEP
810