         262
 Energy:  -1419.8269258000000      en  -1322.3436658000001      edisp  -97.483260000000001     
 X   0.00000000       0.00000000       0.00000000    
 X   0.00000000      -15.1462221       0.00000000    
 X   0.00000000      -7.57311106      -13.1170130    
 X   29.0000000       0.00000000       0.00000000    
 X   0.00000000      -22.7193336      -13.1170130    
 X   29.0000000      -15.1462221       0.00000000    
 X   29.0000000      -7.57311106      -13.1170130    
 X   29.0000000      -22.7193336      -13.1170130    
 Ni   15.1728001      -11.3977203      -8.03792000    
 Ni   15.0319004      -12.6774702      -5.79766989    
 Ni   15.0378399      -13.8943796      -3.62962008    
 Ni   15.0374098      -15.1472301      -1.45802999    
 Ni   15.0424099      -16.4127407      -3.64110994    
 Ni   15.0374098      -17.6705894      -5.82861996    
 Ni   15.0360003      -16.4175701      -8.01848030    
 Ni   15.0386200      -15.1496296      -10.2040901    
 Ni   15.0360003      -13.8908100      -12.3949604    
 Ni   15.0398397      -16.4097691      -12.3874998    
 Ni   15.0398397      -18.9314194      -12.3874998    
 Ni   15.0386200      -20.1915493      -10.2040901    
 Ni   15.0360003      -18.9236107      -8.01848030    
 Ni   13.0489502      -17.6705894      -8.74946022    
 Ni   13.0520802      -16.4079208      -10.9305696    
 Ni   11.0452995      -17.6705894      -11.6595697    
 Ni   11.0445404      -18.9349194      -9.47377968    
 Ni   9.03693008      -20.1953297      -10.2019100    
 Ni   9.03806973      -18.9327793      -12.3882904    
 Ni   9.03757954      -21.4567299      -12.3882504    
 Ni   11.0445404      -20.1956997      -11.6575203    
 Ni   13.0520802      -18.9332600      -10.9305696    
 Ni   15.0398397      -17.6705894      -10.2036896    
 Ni   15.0378399      -15.1635199      -5.82781982    
 Ni   13.0529203      -13.8884497      -6.55834007    
 Ni   13.0528698      -15.1493702      -4.37052011    
 Ni   11.0451002      -16.4079704      -5.10184002    
 Ni   11.0435305      -15.1449404      -7.28763008    
 Ni   9.03757954      -16.4085808      -8.01632977    
 Ni   9.03693008      -15.1458502      -10.2019100    
 Ni   7.03727007      -16.4085503      -10.9309196    
 Ni   7.03693008      -17.6705894      -8.74524021    
 Ni   5.03143978      -18.9338093      -9.47255993    
 Ni   5.03037024      -17.6705894      -11.6595697    
 Ni   3.03154993      -18.9330997      -12.3884697    
 Ni   3.03198004      -20.1956291      -10.2017403    
 Ni   3.03183007      -21.4576893      -12.3888502    
 Ni   5.03143978      -20.1961994      -11.6590996    
 Ni   7.03727007      -18.9326401      -10.9309196    
 Ni   9.03806973      -17.6705894      -10.2021198    
 Ni   11.0445404      -16.4062595      -9.47377968    
 Ni   13.0498400      -15.1426001      -8.74473000    
 Ni   11.0455303      -13.8815699      -9.47196960    
 Ni   13.0498400      -13.8822699      -10.9276800    
 Ni   13.0529203      -11.3617296      -10.9347496    
 Ni   15.0319004      -10.0974798      -10.2663403    
 Ni   15.0378399      -8.82835007      -12.4042501    
 Ni   15.0378399      -11.3666096      -12.4042501    
 Ni   15.0398197      -12.6305599      -10.2173204    
 Ni   13.0801601      -12.6093597      -8.73746014    
 Ni   15.0398197      -13.9015598      -8.01589966    
 Ni   9.03806973      -16.4084091      -12.3882904    
 Ni   9.03757954      -13.8844500      -12.3882504    
 Ni   11.0435305      -12.6215601      -11.6582603    
 Ni   11.0569897      -11.3594704      -9.47185040    
 Ni   11.0569897      -8.83549023      -9.47185040    
 Ni   11.0435305      -7.57340002      -11.6582603    
 Ni   13.0498400      -6.31268978      -10.9276800    
 Ni   13.0801601      -7.58559990      -8.73746014    
 Ni   15.1728001      -8.79724026      -8.03792000    
 Ni   15.0398197      -6.29340982      -8.01589966    
 Ni   15.0319004      -7.51749992      -5.79766989    
 Ni   15.0398197      -8.82649040      -3.62846994    
 Ni   15.0386200      -10.0974798      -1.45351005    
 Ni   13.0498400      -11.3578100      -2.18928003    
 Ni   13.0489502      -20.1908207      -13.1146202    
 Ni   11.0434704      -13.8827801     -0.727999985    
 Ni   11.0435305      -12.6208696      -2.91580009    
 Ni   9.03798962      -13.8839302      -3.64384007    
 Ni   9.04360962      -12.6202803      -5.83068991    
 Ni   7.03937006      -13.8829498      -6.55821991    
 Ni   7.04276991      -12.6191998      -8.74314976    
 Ni   5.03308010      -13.8819799      -9.47220993    
 Ni   5.03131008      -12.6205797      -11.6588602    
 Ni   7.03937006      -11.3588696      -10.9300404    
 Ni   9.04360962      -10.0974798      -10.2003098    
 Ni   9.03798008      -8.83543968      -12.3880901    
 Ni   9.03798962      -11.3595304      -12.3880901    
 Ni   11.0460501      -10.0974798      -11.6591101    
 Ni   13.0529203      -8.83323002      -10.9347496    
 Ni   15.0398197      -7.56440020      -10.2173204    
 Ni   9.03757954      -18.9326000      -8.01632977    
 Ni   9.03831005      -17.6705894      -5.83030987    
 Ni   9.03829002      -16.4081497      -3.64375997    
 Ni   9.03831005      -15.1457701      -1.45718002    
 Ni   7.03741980      -13.8832302      -2.18600011    
 Ni   7.03843021      -11.3593903      -2.18741012    
 Ni   7.04276991      -10.0974798      -4.37539005    
 Ni   5.03331995      -11.3595896      -5.10185003    
 Ni   5.03462982      -10.0974798      -7.28723001    
 Ni   3.03389001      -11.3596296      -8.01593018    
 Ni   3.03152990      -12.6215496      -5.82995987    
 Ni   3.03034997      -13.8842402      -3.64339995    
 Ni   5.03131008      -12.6218796      -2.91634011    
 Ni   5.03143978      -11.3598804     -0.730030000    
 Ni   5.03120995      -13.8849897     -0.729269981    
 Ni   7.03693008      -20.1944809      -13.1167297    
 Ni   9.03757954      -12.6216097      -1.45710003    
 Ni   9.03693008      -10.0974798      -1.45787001    
 Ni   11.0445404      -8.83670044     -0.730390012    
 Ni   13.0489502      -15.1503696      -13.1146202    
 Ni   13.0495701      -6.31282997      -2.18214989    
 Ni   13.0528698      -5.04558992      -4.37052011    
 Ni   13.0495701      -18.9302502      -6.56217003    
 Ni   11.0435305      -5.05002022      -7.28763008    
 Ni   11.0460501      -6.31131983      -5.10129023    
 Ni   9.04360962      -7.57467985      -5.83068991    
 Ni   9.04037952      -6.31325006      -8.01496029    
 Ni   7.04276991      -7.57575989      -8.74314976    
 Ni   7.03843021      -6.31186008      -10.9299898    
 Ni   5.03131008      -7.57437992      -11.6588602    
 Ni   5.03331995      -8.83594036      -9.47294044    
 Ni   3.03152990      -10.0974798      -10.2017698    
 Ni   3.03034997      -8.83520985      -12.3885698    
 Ni   3.03034997      -11.3597498      -12.3885698    
 Ni   3.03183007      -13.8834896      -12.3888502    
 Ni   3.03198004      -15.1455603      -10.2017403    
 Ni   3.03183007      -16.4086208      -8.01519966    
 Ni   5.03131008      -15.1449804      -7.28647995    
 Ni   7.03741980      -16.4081497      -6.55928993    
 Ni   5.03096008      -16.4081097      -5.10061979    
 Ni   7.03777981      -15.1456203      -4.37268019    
 Ni   5.03070021      -13.8837500      -5.10123014    
 Ni   7.03937006      -12.6215601      -4.37342978    
 Ni   9.04037952      -11.3593702      -3.64612007    
 Ni   11.0455303      -10.0974798      -2.91774011    
 Ni   9.04037952      -8.83559990      -3.64612007    
 Ni   11.0569897      -8.83654022      -5.10200024    
 Ni   13.0801601      -10.0974798      -4.38676023    
 Ni   13.0765400      -8.83333969      -6.55738020    
 Ni   11.0744896      -10.0974798      -7.28723001    
 Ni   9.05142975      -11.3567696      -8.01428032    
 Ni   9.05142975      -8.83819962      -8.01428032    
 Ni   7.04393005      -8.83623028      -6.55905008    
 Ni   7.03937006      -6.31201982      -6.55821991    
 Ni   7.03741980      -18.9330406      -6.55928993    
 Ni   7.03777981      -5.04933977      -4.37268019    
 Ni   5.03070021      -6.31121016      -5.10123014    
 Ni   5.03131008      -7.57309008      -2.91634011    
 Ni   5.03143978      -8.83508015     -0.730030000    
 Ni   7.03693008      -15.1467104      -13.1167297    
 Ni   7.03741980      -6.31172991      -2.18600011    
 Ni   9.03798962      -6.31102991      -3.64384007    
 Ni   9.03829002      -3.78681993      -3.64375997    
 Ni   11.0454597      -2.52436996      -2.91489005    
 Ni   13.0522499      -16.4083099      -2.18611002    
 Ni   13.0528698      -2.52436996      -3.64000001E-03
 Ni   11.0451002      -3.78701997     -0.727949977    
 Ni   9.03831005      -5.04919004      -1.45718002    
 Ni   11.0434704      -6.31219006     -0.727999985    
 Ni   11.0435305      -7.57410002      -2.91580009    
 Ni   13.0498400      -8.83714962      -2.18928003    
 Ni   15.0360003      -7.57072020      -1.44824004    
 Ni   15.0374098      -5.04772997      -1.45802999    
 Ni   15.0424099      -3.78221989      -3.64110994    
 Ni   15.0378399      -6.30058002      -3.62962008    
 Ni   15.0378399      -5.03143978      -5.82781982    
 Ni   13.0529203      -6.30651999      -6.55834007    
 Ni   13.0529203      -7.57075977      -4.36859989    
 Ni   7.04393005      -11.3587303      -6.55905008    
 Ni   9.05142975      -10.0974798      -5.83312988    
 Ni   11.0445404      -11.3582602     -0.730390012    
 Ni   13.0520802      -10.0974798      -5.60000015E-04
 Ni   13.0495701      -16.4109402      -6.56217003    
 Ni   11.0434704      -17.6705894      -7.28869009    
 Ni   3.03214002      -12.6218004      -10.2020798    
 Ni   5.03331995      -11.3590202      -9.47294044    
 Ni   7.04393005      -10.0974798      -8.74359989    
 Ni   7.03937006      -8.83609009      -10.9300404    
 Ni   9.04037952      -7.57512999      -10.2006102    
 Ni   11.0455303      -6.31338978      -9.47196960    
 Ni   13.0498400      -5.05236006      -8.74473000    
 Ni   3.03214002      -13.8839703      -8.01593018    
 Ni   5.03331995      -12.6211300      -7.28690004    
 Ni   5.03070021      -10.0974798      -11.6592398    
 Ni   3.03034997      -15.1464996      -5.82972002    
 Ni   3.03131008      -17.6705894      -5.82940006    
 Ni   3.03183007      -18.9325600      -8.01519966    
 Ni   5.03120995      -17.6705894      -7.28612995    
 Ni   5.03143978      -16.4073792      -9.47255993    
 Ni   7.03843021      -15.1450100      -8.74429035    
 Ni   9.04037952      -13.8817196      -8.01496029    
 Ni   11.0569897      -12.6204205      -7.28782988    
 Ni   13.0765400      -11.3616199      -6.55738020    
 Ni   11.0569897      -11.3584299      -5.10200024    
 Ni   11.0460501      -13.8836403      -5.10129023    
 Ni   13.0529203      -12.6241999      -4.36859989    
 Ni   15.0398197      -11.3684797      -3.62846994    
 Ni   15.0360003      -12.6242399      -1.44824004    
 Ni   13.0495701      -13.8821297      -2.18214989    
 Ni   11.0451002      -15.1453304      -2.91488004    
 Ni   3.03074002      -16.4087391      -3.64341998    
 Ni   3.03131008      -15.1465597      -1.45764005    
 Ni   5.03096008      -15.1464596      -2.91536999    
 Ni   7.03843021      -13.8830996      -10.9299898    
 Ni   9.04037952      -12.6198301      -10.2006102    
 Ni   3.03154993      -17.6705894      -10.2017498    
 Ni   3.03154993      -16.4080906      -12.3884697    
 Ni   5.03143978      -15.1449804      -11.6590996    
 Ni   3.03183007      -12.6226101      -1.45764005    
 Ni   3.03198004      -10.0974798      -1.45820999    
 Ni   3.03214002      -8.83530998      -3.64368010    
 Ni   3.03152990      -7.57341003      -5.82995987    
 Ni   3.03214002      -6.31098986      -8.01593018    
 Ni   5.03131008      -5.04998016      -7.28647995    
 Ni   5.03308010      -6.31299019      -9.47220993    
 Ni   7.03843021      -5.04995012      -8.74429035    
 Ni   3.03214002      -11.3596497      -3.64368010    
 Ni   5.03308010      -10.0974798      -2.91726995    
 Ni   7.03843021      -8.83557034      -2.18741012    
 Ni   9.03757954      -7.57334995      -1.45710003    
 Ni   5.03331995      -8.83537006      -5.10185003    
 Ni   7.03937006      -7.57341003      -4.37342978    
 Ni   3.03389001      -10.0974798      -5.82982016    
 Ni   3.03389001      -8.83533001      -8.01593018    
 Ni   5.03331995      -7.57383013      -7.28690004    
 Ni   3.03214002      -7.57316017      -10.2020798    
 Ni   7.03727007      -17.6705894      -13.1168499    
 Ni   9.03798962      -15.1459799      -5.82976007    
 Ni   9.03798962      -5.04898977      -5.82976007    
 Ni   11.0450897      -3.78698993      -5.10184002    
 Ni   13.0522404      -17.6705894      -4.37244987    
 Ni   13.0522404      -3.78663993      -2.18611002    
 Ni   15.0424004      -2.52435994      -1.46245003    
 Ni   11.0445404      -15.1454802      -11.6575203    
 Ni   11.0569897      -7.57454014      -7.28782988    
 Ni   11.0451002      -5.04964018      -2.91488004    
 Ni   13.0765400      -10.0974798      -8.74693012    
 Ni   13.0495701      -5.05318022      -3.60000005E-04
 Ni   15.1728001      -10.0974798      -5.78584003    
 Ni   3.03034997      -5.04846001      -5.82972002    
 Ni   3.03074002      -3.78622007      -3.64341998    
 Ni   5.03199005      -2.52436996      -2.91489005    
 Ni   7.03779984      -16.4077892      -2.18582010    
 Ni   7.03777981      -10.0974798      -13.1163197    
 Ni   5.03096008      -3.78603005     -0.728690028    
 Ni   3.03131008      -5.04839993      -1.45764005    
 Ni   5.03120995      -6.30996990     -0.729269981    
 Ni   7.03741980      -12.6224003      -13.1163902    
 Ni   7.03779984      -3.78716993      -2.18582010    
 Ni   9.03829002      -2.52436996      -1.45714998    
 Ni   11.0451002      -1.26172996     -0.727949977    
 Ni   13.0495701      -15.1417904      -3.60000005E-04
 Ni   3.03034997      -6.31072998      -3.64339995    
 Ni   5.03096008      -5.04851007      -2.91536999    
 Ni   5.03096008      -3.78684998      -5.10061979    
 Ni   7.03779984      -17.6705894      -4.37304020    
 Ni   3.03183007      -7.57235003      -1.45764005    
 Ni   3.03074002      -2.52436996      -1.45782995    
 Ni   5.03096008      -1.26270998     -0.728690028    
 Ni   7.03741980      -22.7187805      -13.1163902    
 Ni   15.0360003      -21.4503708      -12.3949604    
 O    16.0534897      -10.0974798      -7.28723001    
 O    16.5975208      -9.15258980      -7.43288994    
         262
 Energy:  -1423.3618239000000      en  -1325.8076739000001      edisp  -97.554150000000007     
 X   0.00000000       0.00000000       0.00000000    
 X   0.00000000      -15.1462221       0.00000000    
 X   0.00000000      -7.57311106      -13.1170130    
 X   29.0000000       0.00000000       0.00000000    
 X   0.00000000      -22.7193336      -13.1170130    
 X   29.0000000      -15.1462221       0.00000000    
 X   29.0000000      -7.57311106      -13.1170130    
 X   29.0000000      -22.7193336      -13.1170130    
 Ni   15.1409998      -11.4410000      -8.06748009    
 Ni   15.0287600      -12.6775599      -5.79694986    
 Ni   15.0368795      -13.8949804      -3.62933993    
 Ni   15.0355396      -15.1474800      -1.45846999    
 Ni   15.0414896      -16.4126091      -3.64100003    
 Ni   15.0357800      -17.6702709      -5.82830000    
 Ni   15.0344696      -16.4168701      -8.01863956    
 Ni   15.0372295      -15.1495304      -10.2035303    
 Ni   15.0346098      -13.8901501      -12.3943901    
 Ni   15.0378599      -16.4097691      -12.3872995    
 Ni   15.0376797      -18.9314308      -12.3874197    
 Ni   15.0368996      -20.1915798      -10.2040596    
 Ni   15.0344601      -18.9237900      -8.01846981    
 Ni   13.0457602      -17.6704903      -8.74965000    
 Ni   13.0489597      -16.4077797      -10.9305201    
 Ni   11.0453196      -17.6707802      -11.6595697    
 Ni   11.0445004      -18.9350605      -9.47373962    
 Ni   9.03699970      -20.1952496      -10.2020102    
 Ni   9.03853035      -18.9329109      -12.3883495    
 Ni   9.03787994      -21.4568596      -12.3882103    
 Ni   11.0444603      -20.1959896      -11.6576004    
 Ni   13.0485697      -18.9333096      -10.9304705    
 Ni   15.0381298      -17.6705093      -10.2035398    
 Ni   15.0366402      -15.1639605      -5.82748985    
 Ni   13.0497704      -13.8885403      -6.55823994    
 Ni   13.0500402      -15.1494102      -4.37034988    
 Ni   11.0451097      -16.4079208      -5.10165977    
 Ni   11.0437202      -15.1449804      -7.28751993    
 Ni   9.03789997      -16.4082603      -8.01642990    
 Ni   9.03699970      -15.1458302      -10.2017498    
 Ni   7.03660011      -16.4086094      -10.9310503    
 Ni   7.03641987      -17.6706791      -8.74510956    
 Ni   5.03325987      -18.9335594      -9.47247982    
 Ni   5.03280020      -17.6704407      -11.6594601    
 Ni   3.03478003      -18.9328499      -12.3882599    
 Ni   3.03526998      -20.1955509      -10.2016897    
 Ni   3.03477001      -21.4578896      -12.3887501    
 Ni   5.03331995      -20.1961193      -11.6591702    
 Ni   7.03702021      -18.9325008      -10.9309502    
 Ni   9.03847980      -17.6706791      -10.2020903    
 Ni   11.0445604      -16.4062595      -9.47367001    
 Ni   13.0468302      -15.1427002      -8.74495029    
 Ni   11.0460196      -13.8811302      -9.47173023    
 Ni   13.0468197      -13.8822403      -10.9275799    
 Ni   13.0494604      -11.3618002      -10.9350100    
 Ni   15.0277300      -10.0987196      -10.2677202    
 Ni   15.0364799      -8.82863998      -12.4045200    
 Ni   15.0371304      -11.3668098      -12.4045000    
 Ni   15.0385704      -12.6306801      -10.2179499    
 Ni   13.0799704      -12.6076002      -8.73624992    
 Ni   15.0382700      -13.9023800      -8.01578045    
 Ni   9.03829002      -16.4083500      -12.3883896    
 Ni   9.03773975      -13.8842602      -12.3882303    
 Ni   11.0438004      -12.6213703      -11.6582298    
 Ni   11.0558701      -11.3600903      -9.47243023    
 Ni   11.0569296      -8.83508968      -9.47152996    
 Ni   11.0436602      -7.57336998      -11.6584902    
 Ni   13.0465002      -6.31271982      -10.9278803    
 Ni   13.0779104      -7.58679008      -8.73733997    
 Ni   15.0026102      -8.69657993      -8.12806034    
 Ni   15.0365200      -6.29192019      -8.01636028    
 Ni   15.0269098      -7.51612997      -5.79448986    
 Ni   15.0383902      -8.82596016      -3.62825990    
 Ni   15.0367098      -10.0979004      -1.45394003    
 Ni   13.0466604      -11.3579597      -2.18921995    
 Ni   13.0455303      -20.1907692      -13.1147604    
 Ni   11.0433998      -13.8827200     -0.727980018    
 Ni   11.0436401      -12.6210604      -2.91569996    
 Ni   9.03841019      -13.8841295      -3.64379001    
 Ni   9.04378986      -12.6202602      -5.83060980    
 Ni   7.03875017      -13.8829699      -6.55826998    
 Ni   7.04194021      -12.6191902      -8.74316025    
 Ni   5.03459978      -13.8820105      -9.47216034    
 Ni   5.03307009      -12.6202698      -11.6587601    
 Ni   7.03892994      -11.3588600      -10.9300098    
 Ni   9.04395962      -10.0974197      -10.2003498    
 Ni   9.03827000      -8.83551025      -12.3881903    
 Ni   9.03837013      -11.3594704      -12.3880596    
 Ni   11.0460100      -10.0975504      -11.6591997    
 Ni   13.0496502      -8.83331013      -10.9351597    
 Ni   15.0372801      -7.56333017      -10.2195396    
 Ni   9.03773022      -18.9329700      -8.01622963    
 Ni   9.03841019      -17.6707592      -5.83009005    
 Ni   9.03861046      -16.4081993      -3.64365005    
 Ni   9.03853989      -15.1458397      -1.45721996    
 Ni   7.03705978      -13.8835001      -2.18597007    
 Ni   7.03819990      -11.3594599      -2.18750000    
 Ni   7.04214001      -10.0973797      -4.37545013    
 Ni   5.03528976      -11.3594799      -5.10213995    
 Ni   5.03669977      -10.0974703      -7.28725004    
 Ni   3.03672004      -11.3597202      -8.01599979    
 Ni   3.03455997      -12.6215696      -5.83015013    
 Ni   3.03321004      -13.8845301      -3.64349008    
 Ni   5.03331995      -12.6221504      -2.91635990    
 Ni   5.03350019      -11.3599100     -0.729889989    
 Ni   5.03318024      -13.8852196     -0.729430020    
 Ni   7.03672981      -20.1945992      -13.1167402    
 Ni   9.03796005      -12.6214600      -1.45729995    
 Ni   9.03697968      -10.0977898      -1.45790994    
 Ni   11.0444803      -8.83668041     -0.730530024    
 Ni   13.0457401      -15.1501703      -13.1144695    
 Ni   13.0462999      -6.31264019      -2.18203998    
 Ni   13.0496902      -5.04547977      -4.37057018    
 Ni   13.0462799      -18.9301701      -6.56200981    
 Ni   11.0435495      -5.05005980      -7.28753996    
 Ni   11.0458097      -6.31137991      -5.10118008    
 Ni   9.04384041      -7.57453012      -5.83073997    
 Ni   9.04096985      -6.31353998      -8.01490021    
 Ni   7.04229021      -7.57573986      -8.74302006    
 Ni   7.03813982      -6.31200981      -10.9299898    
 Ni   5.03327990      -7.57464981      -11.6590300    
 Ni   5.03520012      -8.83621979      -9.47286034    
 Ni   3.03457999      -10.0976801      -10.2017803    
 Ni   3.03291988      -8.83547974      -12.3885803    
 Ni   3.03326011      -11.3596296      -12.3884296    
 Ni   3.03462005      -13.8834200      -12.3885098    
 Ni   3.03494000      -15.1454802      -10.2014704    
 Ni   3.03474998      -16.4081707      -8.01535034    
 Ni   5.03312016      -15.1450701      -7.28652000    
 Ni   7.03678989      -16.4082909      -6.55907011    
 Ni   5.03282022      -16.4081802      -5.10048008    
 Ni   7.03737020      -15.1458101      -4.37251997    
 Ni   5.03251982      -13.8840904      -5.10128021    
 Ni   7.03893995      -12.6216002      -4.37344980    
 Ni   9.04113007      -11.3593798      -3.64595008    
 Ni   11.0454998      -10.0974998      -2.91780996    
 Ni   9.04094982      -8.83539009      -3.64619994    
 Ni   11.0560398      -8.83627033      -5.10134983    
 Ni   13.0791397      -10.0973101      -4.38806009    
 Ni   13.0752201      -8.83403015      -6.55711985    
 Ni   11.0742502      -10.0972700      -7.28739977    
 Ni   9.05167961      -11.3566999      -8.01451969    
 Ni   9.05179024      -8.83798027      -8.01432037    
 Ni   7.04346991      -8.83615971      -6.55901003    
 Ni   7.03902006      -6.31200981      -6.55809021    
 Ni   7.03707981      -3.78693008      -6.55905008    
 Ni   7.03738022      -5.04918003      -4.37271976    
 Ni   5.03283978      -6.31119013      -5.10126019    
 Ni   5.03333998      -7.57293987      -2.91657996    
 Ni   5.03345013      -8.83510017     -0.729700029    
 Ni   7.03663015      -15.1466103      -13.1168299    
 Ni   7.03707981      -6.31162024      -2.18607998    
 Ni   9.03833008      -6.31102991      -3.64403009    
 Ni   9.03855991      -3.78680992      -3.64344001    
 Ni   11.0454302      -2.52426004      -2.91478992    
 Ni   13.0493603      -16.4082108      -2.18601990    
 Ni   13.0498199      -2.52434993      -3.77000007E-03
 Ni   11.0450201      -3.78690004     -0.727989972    
 Ni   9.03857040      -5.04887009      -1.45738006    
 Ni   11.0433598      -6.31220007     -0.727999985    
 Ni   11.0435400      -7.57404995      -2.91595006    
 Ni   13.0464001      -8.83716965      -2.18935990    
 Ni   15.0344496      -7.57073021      -1.44883001    
 Ni   15.0360498      -5.04699993      -1.45817995    
 Ni   15.0409403      -3.78195000      -3.64065003    
 Ni   15.0365601      -6.30039978      -3.62945008    
 Ni   15.0360603      -5.03100014      -5.82775021    
 Ni   13.0493298      -6.30631018      -6.55816984    
 Ni   13.0498104      -7.57071018      -4.36886978    
 Ni   7.04336023      -11.3586597      -6.55914021    
 Ni   9.05158997      -10.0972099      -5.83304977    
 Ni   11.0443497      -11.3585196     -0.730409980    
 Ni   13.0487700      -10.0975199      -4.79999988E-04
 Ni   13.0465498      -16.4109707      -6.56207991    
 Ni   11.0435495      -17.6706505      -7.28873014    
 Ni   3.03490996      -12.6217299      -10.2019997    
 Ni   5.03504992      -11.3591204      -9.47301960    
 Ni   7.04346991      -10.0975199      -8.74349022    
 Ni   7.03895998      -8.83619022      -10.9300203    
 Ni   9.04100037      -7.57518005      -10.2003698    
 Ni   11.0450401      -6.31349993      -9.47194958    
 Ni   13.0466404      -5.05235004      -8.74456024    
 Ni   3.03484988      -13.8841295      -8.01613045    
 Ni   5.03521013      -12.6211500      -7.28708982    
 Ni   5.03259993      -10.0976696      -11.6593599    
 Ni   3.03323007      -15.1465302      -5.82965994    
 Ni   3.03429008      -17.6704597      -5.82930994    
 Ni   3.03487992      -18.9325504      -8.01519012    
 Ni   5.03301001      -17.6704407      -7.28604984    
 Ni   5.03322983      -16.4073200      -9.47245979    
 Ni   7.03785992      -15.1448002      -8.74415970    
 Ni   9.04106998      -13.8817501      -8.01509953    
 Ni   11.0570498      -12.6205196      -7.28805017    
 Ni   13.0744600      -11.3613997      -6.55703020    
 Ni   11.0569000      -11.3582497      -5.10169983    
 Ni   11.0459299      -13.8837795      -5.10118008    
 Ni   13.0497799      -12.6243496      -4.36855984    
 Ni   15.0385103      -11.3693104      -3.62748003    
 Ni   15.0343704      -12.6241798      -1.44858003    
 Ni   13.0464602      -13.8824596      -2.18204999    
 Ni   11.0450802      -15.1453600      -2.91477990    
 Ni   3.03380990      -16.4087601      -3.64339995    
 Ni   3.03394008      -15.1468201      -1.45776999    
 Ni   5.03288984      -15.1468000      -2.91538000    
 Ni   7.03803015      -13.8829098      -10.9300098    
 Ni   9.04069042      -12.6198597      -10.2007704    
 Ni   3.03453994      -17.6704502      -10.2018700    
 Ni   3.03432012      -16.4081001      -12.3882303    
 Ni   5.03336000      -15.1450796      -11.6589298    
 Ni   3.03502989      -12.6224403      -1.45790994    
 Ni   3.03525996      -10.0975704      -1.45831001    
 Ni   3.03522992      -8.83526993      -3.64387989    
 Ni   3.03465009      -7.57351017      -5.82988977    
 Ni   3.03508997      -6.31124020      -8.01597023    
 Ni   5.03346014      -5.04987001      -7.28629017    
 Ni   5.03490019      -6.31291008      -9.47214985    
 Ni   7.03806019      -5.05006981      -8.74398041    
 Ni   3.03516006      -11.3596201      -3.64362001    
 Ni   5.03488016      -10.0973501      -2.91732001    
 Ni   7.03820992      -8.83537960      -2.18756008    
 Ni   9.03761005      -7.57328987      -1.45729995    
 Ni   5.03528023      -8.83522034      -5.10207987    
 Ni   7.03909016      -7.57330990      -4.37358999    
 Ni   3.03689003      -10.0975199      -5.82990980    
 Ni   3.03708005      -8.83533001      -8.01605034    
 Ni   5.03541994      -7.57398987      -7.28664017    
 Ni   3.03494000      -7.57337999      -10.2018299    
 Ni   7.03673983      -17.6705093      -13.1169205    
 Ni   9.03837967      -15.1459303      -5.82948017    
 Ni   9.03814983      -5.04917002      -5.82961988    
 Ni   11.0451298      -3.78708005      -5.10178995    
 Ni   13.0493498      -17.6704292      -4.37235022    
 Ni   13.0492496      -3.78655005      -2.18593001    
 Ni   15.0411396      -2.52446008      -1.46271002    
 Ni   11.0446997      -15.1452198      -11.6574497    
 Ni   11.0567303      -7.57454014      -7.28811979    
 Ni   11.0448904      -5.04955006      -2.91495991    
 Ni   13.0745897      -10.0969000      -8.74685955    
 Ni   13.0464401      -5.05305004      -3.10000003E-04
 Ni   15.1290302      -10.1100101      -5.73109007    
 Ni   3.03342009      -5.04853010      -5.82958984    
 Ni   3.03398991      -3.78608990      -3.64314008    
 Ni   5.03388023      -2.52423000      -2.91488004    
 Ni   7.03728008      -16.4078503      -2.18583989    
 Ni   7.03722000      -10.0974503      -13.1166000    
 Ni   5.03295994      -3.78585005     -0.728699982    
 Ni   3.03449011      -5.04800987      -1.45772004    
 Ni   5.03319979      -6.30976009     -0.729210019    
 Ni   7.03698015      -12.6223602      -13.1165104    
 Ni   7.03741980      -3.78722000      -2.18586993    
 Ni   9.03866959      -2.52459002      -1.45740998    
 Ni   11.0452003      -1.26162004     -0.727989972    
 Ni   13.0462704      -15.1419697      -7.50000007E-04
 Ni   3.03358006      -6.31075001      -3.64352989    
 Ni   5.03307009      -5.04831982      -2.91544008    
 Ni   5.03299999      -3.78671002      -5.10053015    
 Ni   7.03727007      -17.6707001      -4.37295008    
 Ni   3.03502989      -7.57242012      -1.45771003    
 Ni   3.03374004      -2.52452993      -1.45793998    
 Ni   5.03288984      -1.26288998     -0.728869975    
 Ni   7.03715992      -22.7189007      -13.1166401    
 Ni   15.0343199      -21.4505997      -12.3948803    
 O    15.9238796      -10.5073700      -7.19222021    
 O    16.9665394      -8.79059029      -7.46501017    
         262
 Energy:  -1424.0298156000001      en  -1326.5220956000001      edisp  -97.507720000000006     
 X   0.00000000       0.00000000       0.00000000    
 X   0.00000000      -15.1462221       0.00000000    
 X   0.00000000      -7.57311106      -13.1170130    
 X   29.0000000       0.00000000       0.00000000    
 X   0.00000000      -22.7193336      -13.1170130    
 X   29.0000000      -15.1462221       0.00000000    
 X   29.0000000      -7.57311106      -13.1170130    
 X   29.0000000      -22.7193336      -13.1170130    
 Ni   15.1576405      -11.4183598      -8.05202007    
 Ni   15.0304003      -12.6775103      -5.79732990    
 Ni   15.0373802      -13.8946695      -3.62948990    
 Ni   15.0365200      -15.1473503      -1.45824003    
 Ni   15.0419703      -16.4126797      -3.64106011    
 Ni   15.0366297      -17.6704407      -5.82847023    
 Ni   15.0352697      -16.4172401      -8.01856041    