NiAl                                    
            1
     0.000000  -15.146222    0.000000
     0.000000   -7.573111  -13.117013
    29.000000    0.000000    0.000000
   Ni   O 
   252     2
Direct configuration=     1
   0.44611949  0.61278586  0.52320000
   0.61600733  0.44199621  0.51834138
   0.77899413  0.27671087  0.51854621
   0.94448875  0.11115564  0.51853138
   0.94482600  0.27758683  0.51870379
   0.94448866  0.44435574  0.51853138
   0.77828647  0.61130382  0.51848276
   0.61126115  0.77792788  0.51857310
   0.44463746  0.94495295  0.51848272
   0.61123128  0.94438423  0.51861517
   0.77771841  0.94438423  0.51861517
   0.94414420  0.77792781  0.51857310
   0.94374291  0.61130382  0.51848276
   0.83315088  0.66703144  0.44996379
   0.66664503  0.83331244  0.45007172
   0.72222210  0.88888912  0.38087241
   0.88901587  0.72225133  0.38084621
   0.94447693  0.77776161  0.31161828
   0.77777813  0.94444438  0.31165759
   0.94441857  0.94444133  0.31164069
   0.88901579  0.88873276  0.38084621
   0.83337582  0.83331237  0.45007172
   0.77771794  0.77789731  0.51861517
   0.77899471  0.44429476  0.51854621
   0.66696440  0.49998731  0.45010069
   0.83361047  0.33319476  0.45009897
   0.88883033  0.38894831  0.38086552
   0.72212232  0.55558610  0.38081138
   0.77777487  0.61113991  0.31164069
   0.61109468  0.77776169  0.31161828
   0.66667335  0.83333913  0.24266452
   0.83331173  0.66670972  0.24265279
   0.88898916  0.72215832  0.17349797
   0.72222210  0.88888912  0.17346107
   0.77779242  0.94445818  0.10453624
   0.94450322  0.77774865  0.10455107
   0.94445915  0.94448707  0.10454590
   0.88898860  0.88885329  0.17349797
   0.83332151  0.83333913  0.24266452
   0.77777775  0.77777770  0.31165759
   0.72206599  0.72225133  0.38084621
   0.66642546  0.66667084  0.44999445
   0.55544721  0.72211335  0.38088031
   0.50000397  0.83309212  0.44999445
   0.33332069  0.83363111  0.45010062
   0.27532967  0.78267370  0.51834131
   0.11004403  0.94566127  0.51854610
   0.27762774  0.94566127  0.51854614
   0.44443995  0.77893657  0.51861445
   0.49945027  0.66611668  0.45103997
   0.61226995  0.61110720  0.51861448
   0.61111138  0.94444445  0.31165759
   0.44447332  0.94444140  0.31164066
   0.38891953  0.88878925  0.38081134
   0.38893497  0.72210427  0.38127548
   0.22229407  0.72210427  0.38127545
   0.05562453  0.88878925  0.38081131
   0.00023705  0.83309220  0.44999441
   0.16776634  0.66611660  0.45103993
   0.27442779  0.61278594  0.52319993
   0.10995662  0.61110720  0.51861441
   0.27533025  0.44199629  0.51834131
   0.44444030  0.27662327  0.51861445
   0.61126102  0.11081113  0.51857307
   0.66642554  0.16690393  0.44999448
   0.83315103  0.99981787  0.44996383
   0.88883357  0.05550052  0.38080934
   0.72212283  0.22229154  0.38081138
   0.77776228  0.27779496  0.31165483
   0.61097293  0.44451356  0.31184859
   0.66660597  0.49997817  0.24273686
   0.49988321  0.66655039  0.24285407
   0.55546530  0.72213157  0.17355441
   0.38883213  0.88883492  0.17349334
   0.33331154  0.83327204  0.24273679
   0.27784676  0.77763978  0.31184848
   0.11112830  0.94442921  0.31165466
   0.27777642  0.94442928  0.31165469
   0.22223952  0.88885413  0.38089814
   0.16638123  0.83363127  0.45010052
   0.10995639  0.77893672  0.51861431
   0.94441841  0.61113991  0.31164072
   0.94442430  0.44448459  0.31166586
   0.94442201  0.27778886  0.31166517
   0.94442482  0.11109084  0.31166586
   0.83328658  0.16665380  0.24266966
   0.66660124  0.16676129  0.24270445
   0.49988367  0.33356596  0.24285410
   0.55552059  0.38894900  0.17356272
   0.38888896  0.55555553  0.17360786
   0.44444307  0.61110934  0.10461686
   0.61108465  0.44445783  0.10453548
   0.77779956  0.27776134  0.10449483
   0.72216907  0.22233256  0.17349345
   0.72218661  0.05565513  0.17349793
   0.88893115  0.05559719  0.17349000
   0.83331232  0.99997858  0.24265276
   0.77777512  0.11108467  0.31164069
   0.61109497  0.11114337  0.31161824
   0.55558477  0.05568265  0.38084617
   0.50036504  0.99981779  0.44996376
   0.33361232  0.16636029  0.44998514
   0.16652801  0.33319476  0.45009890
   0.99969368  0.50027930  0.44998510
   0.05562482  0.55558610  0.38081131
   0.22223957  0.38890638  0.38089821
   0.27784689  0.44451356  0.31184855
   0.11130246  0.61103546  0.31173717
   0.16689984  0.66655039  0.24285407
   0.00009437  0.83326823  0.24270441
   0.05566643  0.88883499  0.17349338
   0.22228234  0.72218729  0.17356269
   0.27779128  0.77775101  0.10453548
   0.11109495  0.94446580  0.10449476
   0.27777276  0.94446580  0.10449479
   0.44438720  0.94448715  0.10454586
   0.61108214  0.77774873  0.10455103
   0.77782065  0.61105376  0.10454586
   0.72216893  0.55549843  0.17349345
   0.83328663  0.50005974  0.24266966
   0.88888621  0.38885530  0.17348138
   0.83328062  0.33335944  0.24268207
   0.72219697  0.38890181  0.17347241
   0.66660581  0.33341669  0.24273690
   0.61099608  0.27796885  0.31173724
   0.55544693  0.22243944  0.38088034
   0.44436904  0.27796885  0.31173721
   0.38893517  0.38896059  0.38127548
   0.49945009  0.33443300  0.45103997
   0.33324705  0.49991428  0.45091510
   0.38888875  0.55555568  0.38187890
   0.44431699  0.61098370  0.31211821
   0.27803328  0.61098370  0.31211821
   0.33337430  0.50004152  0.24289407
   0.16674986  0.49997824  0.24273679
   0.99998763  0.50005981  0.24266955
   0.16669322  0.33335951  0.24268197
   0.22223466  0.38890181  0.17347234
   0.38883237  0.22233263  0.17349338
   0.55549154  0.05565520  0.17349790
   0.50004293  0.99997873  0.24265269
   0.33339290  0.16665387  0.24266959
   0.27777606  0.27779511  0.31165476
   0.11112296  0.27778901  0.31166507
   0.05555549  0.22222232  0.38087783
   0.99999574  0.16666249  0.45007748
   0.16652765  0.00027773  0.45009886
   0.22228221  0.05549678  0.38086545
   0.27781755  0.11109092  0.31166579
   0.38899981  0.05550052  0.38080924
   0.38891953  0.22229154  0.38081131
   0.50000371  0.16690393  0.44999441
   0.44463736  0.11040944  0.51848269
   0.27768861  0.11115587  0.51853131
   0.11092017  0.27758706  0.51870369
   0.27762803  0.27671102  0.51854610
   0.11004360  0.44429498  0.51854607
   0.16638212  0.49998747  0.45010055
   0.33332055  0.33304847  0.45010059
   0.49991746  0.50004144  0.24289407
   0.44431680  0.44469957  0.31211821
   0.72206593  0.05568257  0.38084621
   0.66664528  0.00004262  0.45007172
   0.83336093  0.50027930  0.44998517
   0.88883308  0.55566691  0.38080931
   0.44444281  0.77777465  0.10455652
   0.38886388  0.72218729  0.17356272
   0.33337444  0.66658470  0.24289410
   0.16674987  0.83327204  0.24273686
   0.11130222  0.77766258  0.31173721
   0.05577293  0.72211327  0.38088031
   0.00023707  0.66667084  0.44999441
   0.61110776  0.61110941  0.10455652
   0.55552061  0.55553045  0.17356272
   0.22223474  0.88886396  0.17347238
   0.77779877  0.44443961  0.10449479
   0.94445912  0.44441521  0.10452790
   0.94445898  0.61105376  0.10454583
   0.88893086  0.55547175  0.17348997
   0.72218650  0.72215832  0.17349790
   0.66660148  0.66663730  0.24270445
   0.61099616  0.61103539  0.31173721
   0.55543832  0.55560127  0.38127548
   0.50017210  0.49991405  0.45091514
   0.55543829  0.38896043  0.38127548
   0.72218742  0.38890638  0.38089824
   0.66696437  0.33304831  0.45010066
   0.61227048  0.27662312  0.51861445
   0.77828652  0.11040928  0.51848272
   0.83336081  0.16636021  0.44998514
   0.88883063  0.22222125  0.38086552
   0.94447405  0.27776294  0.10450828
   0.94445957  0.11112591  0.10452793
   0.88888648  0.22225876  0.17348138
   0.49997085  0.83326823  0.24270445
   0.44436875  0.77766250  0.31173721
   0.77779192  0.77774949  0.10453617
   0.61108345  0.94445818  0.10453621
   0.55549150  0.88885329  0.17349793
   0.77782063  0.11112583  0.10454586
   0.61108208  0.11116929  0.10455103
   0.44444305  0.27778268  0.10455655
   0.27779097  0.44445783  0.10453552
   0.11111637  0.61110934  0.10455655
   0.05566605  0.55549835  0.17349345
   0.05573724  0.72213157  0.17355448
   0.00009468  0.66663715  0.24270448
   0.61110771  0.27778268  0.10455655
   0.55546493  0.22240346  0.17355448
   0.49997088  0.16676122  0.24270448
   0.44447352  0.11108467  0.31164069
   0.38886385  0.38894900  0.17356276
   0.33331161  0.33341654  0.24273690
   0.44444314  0.44444715  0.10461690
   0.27778104  0.61110934  0.10461690
   0.22228242  0.55553037  0.17356276
   0.11111609  0.77777457  0.10455655
   0.66667286  0.99998773  0.24266448
   0.77776280  0.44444273  0.31165486
   0.11112833  0.44444281  0.31165469
   0.05555426  0.38894847  0.38086534
   0.99999525  0.33334213  0.45007738
   0.16667461  0.16666234  0.45007741
   0.11091963  0.11149284  0.51870359
   0.55558467  0.88873284  0.38084617
   0.22229354  0.55560150  0.38127541
   0.22228205  0.22222133  0.38086541
   0.33324716  0.66683872  0.45091510
   0.33361254  0.00002752  0.44998507
   0.44611953  0.44109426  0.52319997
   0.11109518  0.44443953  0.10449483
   0.11109645  0.27776294  0.10450828
   0.05555567  0.22222209  0.17351690
   0.99997275  0.16664008  0.24268279
   0.16669302  0.99994740  0.24268210
   0.22218885  0.05555304  0.17348138
   0.27774789  0.11112591  0.10452793
   0.38880500  0.05559726  0.17348997
   0.33339337  0.99995273  0.24266966
   0.16672063  0.16664015  0.24268276
   0.11112246  0.11108863  0.31166521
   0.05555509  0.05549678  0.38086559
   0.99969332  0.00002760  0.44998524
   0.27777314  0.27776134  0.10449483
   0.22218894  0.22225861  0.17348138
   0.05559193  0.38885530  0.17348138
   0.99997334  0.33338688  0.24268276
   0.44438691  0.11112583  0.10454586
   0.11109641  0.11114047  0.10450828
   0.05559145  0.05555320  0.17348141
   0.99998731  0.99995289  0.24266969
   0.94374282  0.94495288  0.51848279
   0.38888879  0.55555561  0.55356862
   0.32095219  0.56666012  0.57232841
Direct configuration=     2
   0.44785006  0.61503923  0.52210359
   0.61604058  0.44194115  0.51823323
   0.77904437  0.27668982  0.51851305
   0.94448863  0.11118918  0.51846701
   0.94482182  0.27757859  0.51867213
   0.94447959  0.44433128  0.51847518
   0.77823383  0.61131625  0.51842984
   0.61127587  0.77788534  0.51852529
   0.44461567  0.94490978  0.51843499
   0.61123896  0.94436929  0.51854676
   0.77772229  0.94437787  0.51854058
   0.94414700  0.77792541  0.51851368
   0.94375561  0.61130270  0.51842950
   0.83313688  0.66704603  0.44985369
   0.66663745  0.83330875  0.44996406
   0.72223466  0.88888910  0.38087303
   0.88902670  0.72224793  0.38084470
   0.94446730  0.77776963  0.31162065
   0.77778440  0.94444881  0.31167335
   0.94442848  0.94443802  0.31165119
   0.88903154  0.88873916  0.38084339
   0.83338280  0.83330460  0.44995067
   0.77771809  0.77788610  0.51855616
   0.77903619  0.44426980  0.51850487
   0.66697422  0.49997963  0.44999203
   0.83361923  0.33318201  0.45000126
   0.88883377  0.38893429  0.38086589
   0.72212910  0.55557784  0.38081793
   0.77775003  0.61114773  0.31165187
   0.61109927  0.77774953  0.31162078
   0.66667189  0.83334938  0.24264148
   0.83332234  0.66669964  0.24263532
   0.88897538  0.72215236  0.17356058
   0.72221614  0.88888064  0.17354496
   0.77778378  0.94444179  0.10464770
   0.94449958  0.77774469  0.10466464
   0.94447600  0.94447961  0.10464719
   0.88898015  0.88885861  0.17356265
   0.83331058  0.83334159  0.24265573
   0.77778498  0.77777554  0.31167162
   0.72207030  0.72224306  0.38084684
   0.66642349  0.66668797  0.44989085
   0.55542741  0.72209533  0.38089723
   0.50000580  0.83308474  0.44989028
   0.33331559  0.83365078  0.44998122
   0.27535876  0.78277892  0.51819765
   0.11005279  0.94568167  0.51849922
   0.27763147  0.94568047  0.51852166
   0.44442386  0.77898415  0.51857148
   0.49938021  0.66602453  0.45103337
   0.61232853  0.61109789  0.51856107
   0.61110377  0.94445174  0.31166515
   0.44446108  0.94444011  0.31164604
   0.38890763  0.88878735  0.38082062
   0.38895358  0.72214879  0.38123704
   0.22227986  0.72208014  0.38127359
   0.05561386  0.88880646  0.38081580
   0.00023180  0.83310727  0.44987943
   0.16784970  0.66610720  0.45096236
   0.26434582  0.61965767  0.51733121
   0.10984084  0.61114255  0.51850079
   0.27536130  0.44175381  0.51816942
   0.44441377  0.27660700  0.51856520
   0.61127256  0.11084384  0.51850731
   0.66643803  0.16689922  0.44988499
   0.83314233  0.99982855  0.44984571
   0.88883002  0.05549905  0.38080700
   0.72213911  0.22228419  0.38081526
   0.77777750  0.27779105  0.31166936
   0.61097423  0.44450770  0.31185472
   0.66660525  0.49998184  0.24271541
   0.49988179  0.66655151  0.24282544
   0.55546922  0.72212753  0.17360677
   0.38881539  0.88882749  0.17355400
   0.33331174  0.83327012  0.24272177
   0.27784124  0.77764292  0.31186065
   0.11112936  0.94443653  0.31166453
   0.27777353  0.94442666  0.31166798
   0.22224063  0.88886063  0.38089702
   0.16637097  0.83366204  0.44998788
   0.10980120  0.77910590  0.51852675
   0.94444671  0.61113226  0.31164603
   0.94444377  0.44446749  0.31166934
   0.94442909  0.27778060  0.31167609
   0.94442782  0.11109383  0.31167376
   0.83330567  0.16665153  0.24265736
   0.66660250  0.16676779  0.24269663
   0.49987450  0.33357066  0.24283236
   0.55550179  0.38897152  0.17363058
   0.38888769  0.55555705  0.17367931
   0.44444589  0.61111502  0.10471436
   0.61107843  0.44447210  0.10464013
   0.77781525  0.27776797  0.10459331
   0.72218614  0.22233417  0.17356282
   0.72219378  0.05564479  0.17356880
   0.88894007  0.05560933  0.17355784
   0.83332027  0.99997889  0.24264595
   0.77775728  0.11110000  0.31165381
   0.61111384  0.11114617  0.31162016
   0.55557792  0.05569320  0.38084431
   0.50035725  0.99980622  0.44985321
   0.33360425  0.16635177  0.44987249
   0.16651889  0.33319834  0.44998923
   0.99969428  0.50026724  0.44987166
   0.05563106  0.55557889  0.38081211
   0.22224787  0.38889793  0.38088998
   0.27783541  0.44451709  0.31185647
   0.11132404  0.61103105  0.31175748
   0.16690339  0.66654034  0.24283750
   0.00010365  0.83326858  0.24269442
   0.05567753  0.88884806  0.17356142
   0.22230362  0.72218147  0.17362751
   0.27780428  0.77775163  0.10464070
   0.11111220  0.94446625  0.10458344
   0.27777004  0.94445543  0.10459509
   0.44439514  0.94446121  0.10464210
   0.61108723  0.77772798  0.10465308
   0.77778526  0.61106539  0.10464672
   0.72217333  0.55550134  0.17355585
   0.83330407  0.50004318  0.24264785
   0.88889606  0.38884470  0.17354546
   0.83329935  0.33334732  0.24266784
   0.72221712  0.38890585  0.17353510
   0.66660758  0.33341786  0.24272215
   0.61100286  0.27795616  0.31176318
   0.55544544  0.22244465  0.38087935
   0.44435215  0.27797490  0.31175696
   0.38894195  0.38891095  0.38124293
   0.49938971  0.33453196  0.45100472
   0.33330257  0.49989426  0.45086980
   0.38886818  0.55556878  0.38187071
   0.44430347  0.61100190  0.31212678
   0.27801737  0.61098631  0.31213074
   0.33337097  0.50003838  0.24287819
   0.16675406  0.49996812  0.24272497
   0.00000400  0.50004107  0.24265780
   0.16668113  0.33336232  0.24266840
   0.22223195  0.38890442  0.17354632
   0.38881362  0.22235066  0.17356334
   0.55550559  0.05562988  0.17356725
   0.50003264  0.99998600  0.24264246
   0.33338228  0.16665995  0.24265796
   0.27776838  0.27780978  0.31166669
   0.11113472  0.27776415  0.31167461
   0.05555195  0.22221473  0.38087682
   0.99999245  0.16665514  0.44997791
   0.16652201  0.00028725  0.44999365
   0.22227278  0.05549999  0.38086280
   0.27778890  0.11110585  0.31167495
   0.38900066  0.05550063  0.38080564
   0.38891070  0.22230265  0.38081157
   0.50000224  0.16691002  0.44987599
   0.44461591  0.11045401  0.51842925
   0.27763458  0.11116741  0.51848431
   0.11092044  0.27755152  0.51865321
   0.27762254  0.27669779  0.51850201
   0.11001738  0.44428979  0.51848482
   0.16637459  0.49997402  0.44997695
   0.33330706  0.33306923  0.44999349
   0.49990956  0.50004864  0.24287451
   0.44430183  0.44469341  0.31212393
   0.72208235  0.05568414  0.38083957
   0.66665082  0.00003655  0.44995770
   0.83336635  0.50027246  0.44988092
   0.88883527  0.55566997  0.38081214
   0.44444123  0.77776828  0.10465210
   0.38886738  0.72219354  0.17362234
   0.33338101  0.66657600  0.24287819
   0.16675686  0.83327046  0.24272259
   0.11131454  0.77764412  0.31175848
   0.05578043  0.72211176  0.38086329
   0.00024249  0.66665806  0.44988420
   0.61111057  0.61112500  0.10465004
   0.55551411  0.55554530  0.17362808
   0.22224261  0.88887333  0.17353798
   0.77780284  0.44443483  0.10459429
   0.94445402  0.44440852  0.10463079
   0.94445837  0.61105327  0.10465117
   0.88892360  0.55546551  0.17355217
   0.72218650  0.72215067  0.17355969
   0.66659239  0.66662762  0.24268466
   0.61099273  0.61104592  0.31176110
   0.55543616  0.55561817  0.38127768
   0.50017108  0.49988742  0.45084340
   0.55543749  0.38893784  0.38127232
   0.72220087  0.38889803  0.38089398
   0.66697565  0.33304548  0.44999246
   0.61236259  0.27654766  0.51856931
   0.77826947  0.11043503  0.51842657
   0.83338616  0.16635265  0.44987794
   0.88883648  0.22221356  0.38086472
   0.94447585  0.27776141  0.10461413
   0.94447185  0.11113579  0.10461849
   0.88890832  0.22225923  0.17354803
   0.49995718  0.83326973  0.24269067
   0.44436461  0.77767493  0.31174784
   0.77777791  0.77775864  0.10463929
   0.61109302  0.94443952  0.10463163
   0.55550421  0.88884069  0.17356404
   0.77779923  0.11114648  0.10465614
   0.61108413  0.11117716  0.10466415
   0.44443242  0.27779804  0.10466317
   0.27779980  0.44445287  0.10464309
   0.11113161  0.61111225  0.10465812
   0.05566599  0.55548376  0.17356763
   0.05573441  0.72212688  0.17361740
   0.00011428  0.66661403  0.24269173
   0.61110777  0.27777785  0.10466081
   0.55545449  0.22240718  0.17361640
   0.49995255  0.16677264  0.24269694
   0.44446167  0.11110023  0.31164176
   0.38884514  0.38896677  0.17363048
   0.33329897  0.33342846  0.24272721
   0.44444250  0.44445375  0.10472050
   0.27777621  0.61111870  0.10472695
   0.22230244  0.55551062  0.17363500
   0.11113983  0.77775543  0.10465299
   0.66666499  0.99999305  0.24264608
   0.77777036  0.44442108  0.31166826
   0.11114562  0.44443225  0.31166034
   0.05556217  0.38894483  0.38086647
   0.99998858  0.33333457  0.44997768
   0.16667566  0.16664820  0.44997407
   0.11091672  0.11151222  0.51865998
   0.55557003  0.88872779  0.38085189
   0.22228283  0.55562336  0.38126654
   0.22227288  0.22222752  0.38085844
   0.33321174  0.66683320  0.45084785
   0.33360608  0.00002353  0.44987720
   0.44903390  0.43692014  0.52169052
   0.11110447  0.44443000  0.10460074
   0.11109865  0.27774183  0.10462020
   0.05554708  0.22222123  0.17358199
   0.99997617  0.16664140  0.24266485
   0.16668058  0.99996858  0.24266260
   0.22217629  0.05555368  0.17355050
   0.27771875  0.11113215  0.10463743
   0.38879303  0.05559299  0.17355860
   0.33338624  0.99996162  0.24265435
   0.16672222  0.16664382  0.24266954
   0.11112730  0.11110806  0.31167815
   0.05554642  0.05549979  0.38086890
   0.99969093  0.00005680  0.44987125
   0.27776922  0.27777108  0.10460629
   0.22217360  0.22226378  0.17355413
   0.05558578  0.38884876  0.17355177
   0.99998381  0.33338015  0.24266461
   0.44438900  0.11113111  0.10465617
   0.11110271  0.11114882  0.10461179
   0.05559660  0.05556706  0.17354779
   0.99998552  0.99997145  0.24266081
   0.94376140  0.94494651  0.51842490
   0.41957254  0.54831205  0.54909921
   0.29582738  0.56910881  0.58505318
Direct configuration=     3
   0.44694484  0.61386055  0.52267710
   0.61602319  0.44196995  0.51828980
   0.77901809  0.27670083  0.51853039
   0.94448869  0.11117164  0.51850068
   0.94482401  0.27758290  0.51868869
   0.94448433  0.44434408  0.51850457
   0.77826136  0.61130975  0.51845752
   0.61126817  0.77790759  0.51855030
   0.44462707  0.94493236  0.51845996
   0.61123494  0.94437710  0.51858254
   0.77772026  0.94438120  0.51857960
   0.94414554  0.77792666  0.51854476
   0.94374897  0.61130329  0.51845736
   0.83314420  0.66703840  0.44991128
   0.66664142  0.83331068  0.45002038
   0.72222809  0.88888911  0.38087271
   0.88902104  0.72224971  0.38084549
   0.94447234  0.77776543  0.31161941
   0.77778112  0.94444649  0.31166510
   0.94442330  0.94443975  0.31164570
   0.88902330  0.88873581  0.38084487
   0.83337915  0.83330866  0.45001399
   0.77771801  0.77789196  0.51858703
   0.77901449  0.44428285  0.51852649
   0.66696908  0.49998365  0.45004887
   0.83361465  0.33318868  0.45005237
   0.88883197  0.38894162  0.38086569
   0.72212555  0.55558216  0.38081450
   0.77776303  0.61114364  0.31164602
   0.61109687  0.77775589  0.31161947
   0.66667265  0.83334402  0.24265353
   0.83331679  0.66670492  0.24264446
   0.88898259  0.72215548  0.17352783
   0.72221926  0.88888508  0.17350108
   0.77778830  0.94445036  0.10458940
   0.94450149  0.77774676  0.10460523
   0.94446719  0.94448351  0.10459421
   0.88898457  0.88885583  0.17352881
   0.83331630  0.83334030  0.24266033
   0.77778120  0.77777667  0.31166428
   0.72206805  0.72224739  0.38084651
   0.66642452  0.66667901  0.44994504
   0.55543777  0.72210476  0.38088838
   0.50000484  0.83308860  0.44994477
   0.33331826  0.83364049  0.45004367
   0.27534354  0.78272388  0.51827280
   0.11004821  0.94567100  0.51852374
   0.27762952  0.94567043  0.51853446
   0.44443227  0.77895926  0.51859396
   0.49941686  0.66607273  0.45103682
   0.61229789  0.61110276  0.51858901
   0.61110775  0.94444793  0.31166119
   0.44446748  0.94444078  0.31164323
   0.38891385  0.88878834  0.38081577
   0.38894385  0.72212550  0.38125715
   0.22228729  0.72209276  0.38127456
   0.05561944  0.88879746  0.38081345
   0.00023454  0.83309939  0.44993958
   0.16780609  0.66611212  0.45100293
   0.26961945  0.61606323  0.52040100
   0.10990140  0.61112406  0.51856022
   0.27534506  0.44188065  0.51825933
   0.44442764  0.27661551  0.51859096
   0.61126652  0.11082673  0.51854171
   0.66643150  0.16690168  0.44994226
   0.83314688  0.99982296  0.44990749
   0.88883188  0.05549982  0.38080822
   0.72213059  0.22228803  0.38081323
   0.77776954  0.27779309  0.31166176
   0.61097355  0.44451076  0.31185151
   0.66660563  0.49997992  0.24272663
   0.49988254  0.66655093  0.24284041
   0.55546717  0.72212964  0.17357938
   0.38882414  0.88883138  0.17352227
   0.33331163  0.83327112  0.24272963
   0.27784413  0.77764128  0.31185428
   0.11112881  0.94443270  0.31165936
   0.27777504  0.94442803  0.31166103
   0.22224005  0.88885723  0.38089760
   0.16637633  0.83364594  0.45004680
   0.10988237  0.77901741  0.51857255
   0.94443191  0.61113626  0.31164325
   0.94443359  0.44447643  0.31166752
   0.94442538  0.27778492  0.31167038
   0.94442625  0.11109227  0.31166963
   0.83329569  0.16665272  0.24266379
   0.66660184  0.16676439  0.24270072
   0.49987930  0.33356820  0.24284374
   0.55551162  0.38895974  0.17359509
   0.38888835  0.55555626  0.17364194
   0.44444441  0.61111205  0.10466336
   0.61108169  0.44446463  0.10458539
   0.77780704  0.27776450  0.10454180
   0.72217721  0.22233332  0.17352653
   0.72219003  0.05565020  0.17353173
   0.88893541  0.05560298  0.17352236
   0.83331611  0.99997873  0.24264951
   0.77776662  0.11109198  0.31164695
   0.61110397  0.11114470  0.31161915
   0.55558150  0.05568768  0.38084528
   0.50036132  0.99981227  0.44991103
   0.33360847  0.16635623  0.44993141
   0.16652366  0.33319647  0.45004660
   0.99969397  0.50027355  0.44993100
   0.05562780  0.55558266  0.38081169
   0.22224353  0.38890235  0.38089429
   0.27784141  0.44451524  0.31185233
   0.11131275  0.61103336  0.31174686
   0.16690153  0.66654560  0.24284617
   0.00009879  0.83326840  0.24269965
   0.05567172  0.88884122  0.17352583
   0.22229248  0.72218452  0.17359360
   0.27779748  0.77775131  0.10458566
   0.11110318  0.94446602  0.10453705
   0.27777146  0.94446086  0.10454263
   0.44439099  0.94447478  0.10459176
   0.61108457  0.77773883  0.10459970
   0.77780377  0.61105931  0.10459396
   0.72217103  0.55549981  0.17352321
   0.83329495  0.50005184  0.24265926
   0.88889091  0.38885025  0.17351194
   0.83328955  0.33335366  0.24267528
   0.72220658  0.38890374  0.17350231
   0.66660665  0.33341725  0.24272986
   0.61099931  0.27796280  0.31174961
   0.55544622  0.22244193  0.38087987
   0.44436098  0.27797174  0.31174663
   0.38893840  0.38893691  0.38125996
   0.49942129  0.33448020  0.45102316
   0.33327353  0.49990473  0.45089350
   0.38887894  0.55556193  0.38187499
   0.44431054  0.61099238  0.31212230
   0.27802569  0.61098494  0.31212418
   0.33337271  0.50004002  0.24288650
   0.16675186  0.49997342  0.24273115
  -0.00000456  0.50005088  0.24266395
   0.16668745  0.33336085  0.24267550
   0.22223337  0.38890305  0.17350762
   0.38882343  0.22234123  0.17352674
   0.55549824  0.05564312  0.17353097
   0.50003802  0.99998220  0.24264781
   0.33338783  0.16665677  0.24266404
   0.27777240  0.27780211  0.31166045
   0.11112857  0.27777716  0.31166962
   0.05555380  0.22221870  0.38087735
   0.99999417  0.16665898  0.45002999
   0.16652496  0.00028227  0.45004868
   0.22227772  0.05549831  0.38086419
   0.27780388  0.11109804  0.31167016
   0.38900021  0.05550057  0.38080752
   0.38891532  0.22229684  0.38081144
   0.50000301  0.16690684  0.44993794
   0.44462713  0.11043069  0.51845720
   0.27766284  0.11116137  0.51850890
   0.11092030  0.27757011  0.51867961
   0.27762541  0.27670471  0.51852508
   0.11003110  0.44429251  0.51851686
   0.16637853  0.49998105  0.45004160
   0.33331412  0.33305837  0.45004951
   0.49991369  0.50004488  0.24288474
   0.44430966  0.44469663  0.31212094
   0.72207376  0.05568332  0.38084304
   0.66664792  0.00003972  0.45001734
   0.83336351  0.50027604  0.44993545
   0.88883412  0.55566837  0.38081066
   0.44444206  0.77777161  0.10460210
   0.38886555  0.72219027  0.17359116
   0.33337757  0.66658055  0.24288652
   0.16675320  0.83327129  0.24273006
   0.11130810  0.77765378  0.31174735
   0.05577651  0.72211255  0.38087219
   0.00023965  0.66666474  0.44994185
   0.61110910  0.61111685  0.10460112
   0.55551751  0.55553753  0.17359389
   0.22223849  0.88886843  0.17350367
   0.77780071  0.44443733  0.10454225
   0.94445669  0.44441202  0.10457697
   0.94445869  0.61105353  0.10459607
   0.88892739  0.55546877  0.17351963
   0.72218650  0.72215467  0.17352737
   0.66659714  0.66663268  0.24269501
   0.61099452  0.61104041  0.31174860
   0.55543729  0.55560933  0.38127653
   0.50017161  0.49990135  0.45088093
   0.55543791  0.38894966  0.38127397
   0.72219383  0.38890240  0.38089621
   0.66696975  0.33304696  0.45004905
   0.61231441  0.27658713  0.51859292
   0.77827839  0.11042156  0.51845594
   0.83337290  0.16635661  0.44993401
   0.88883342  0.22221758  0.38086514
   0.94447491  0.27776221  0.10455876
   0.94446543  0.11113062  0.10457112
   0.88889689  0.22225898  0.17351317
   0.49996433  0.83326894  0.24269788
   0.44436678  0.77766843  0.31174228
   0.77778524  0.77775385  0.10458535
   0.61108802  0.94444928  0.10458172
   0.55549757  0.88884728  0.17352946
   0.77781042  0.11113568  0.10459846
   0.61108306  0.11117304  0.10460498
   0.44443798  0.27779001  0.10460740
   0.27779518  0.44445546  0.10458682
   0.11112364  0.61111073  0.10460499
   0.05566602  0.55549139  0.17352883
   0.05573589  0.72212933  0.17358449
   0.00010402  0.66662612  0.24269840
   0.61110774  0.27778038  0.10460627
   0.55545995  0.22240523  0.17358401
   0.49996214  0.16676666  0.24270089
   0.44446787  0.11109209  0.31164120
   0.38885493  0.38895747  0.17359506
   0.33330558  0.33342222  0.24273228
   0.44444284  0.44445030  0.10466631
   0.27777874  0.61111380  0.10466938
   0.22229197  0.55552095  0.17359721
   0.11112741  0.77776544  0.10460254
   0.66666911  0.99999026  0.24265571
   0.77776641  0.44443240  0.31166125
   0.11113658  0.44443777  0.31165739
   0.05555803  0.38894673  0.38086588
   0.99999207  0.33333852  0.45002983
   0.16667511  0.16665559  0.45002813
   0.11091824  0.11150208  0.51868279
   0.55557769  0.88873043  0.38084890
   0.22228843  0.55561193  0.38127118
   0.22227768  0.22222428  0.38086209
   0.33323027  0.66683609  0.45088303
   0.33360946  0.00002562  0.44993362
   0.44750946  0.43910352  0.52248008
   0.11109961  0.44443499  0.10454534
   0.11109750  0.27775287  0.10456166
   0.05555157  0.22222168  0.17354794
   0.99997438  0.16664071  0.24267423
   0.16668709  0.99995750  0.24267280
   0.22218286  0.05555335  0.17351435
   0.27773399  0.11112889  0.10458015
   0.38879929  0.05559522  0.17352270
   0.33338997  0.99995697  0.24266236
   0.16672139  0.16664190  0.24267646
   0.11112477  0.11109790  0.31167138
   0.05555096  0.05549821  0.38086717
   0.99969218  0.00004152  0.44993088
   0.27777127  0.27776598  0.10454799
   0.22218162  0.22226107  0.17351608
   0.05558899  0.38885218  0.17351495
   0.99997833  0.33338367  0.24267410
   0.44438791  0.11112835  0.10459847
   0.11109941  0.11114445  0.10455764
   0.05559391  0.05555981  0.17351307
   0.99998646  0.99996174  0.24266546
   0.94375168  0.94494984  0.51845518
   0.40352260  0.55210098  0.55143705
   0.30896957  0.56782796  0.57839716
Direct configuration=     4
   0.44702957  0.61397088  0.52262341
   0.61602482  0.44196726  0.51828450
   0.77902055  0.27669980  0.51852877
   0.94448868  0.11117328  0.51849753
   0.94482381  0.27758249  0.51868714
   0.94448389  0.44434288  0.51850182
   0.77825879  0.61131036  0.51845493
   0.61126889  0.77790551  0.51854796
   0.44462600  0.94493025  0.51845762
   0.61123532  0.94437637  0.51857919
   0.77772045  0.94438089  0.51857594
   0.94414567  0.77792654  0.51854186
   0.94374959  0.61130323  0.51845475
   0.83314351  0.66703911  0.44990589
   0.66664104  0.83331050  0.45001511
   0.72222870  0.88888911  0.38087274
   0.88902157  0.72224954  0.38084542
   0.94447187  0.77776583  0.31161953
   0.77778143  0.94444671  0.31166588