 254 254   0   0
  0.3019211E+02  0.1718057E-08  0.1718057E-08  0.3000000E-08  0.5000000E-15
   1.0000000000000000E-004
  CAR 
 NiAl                                    
      5.14246022    -18.32697173  301      1.74001151      1.00000000
    -18.327  0.0000E+00  0.0000E+00
    -18.249  0.0000E+00  0.0000E+00
    -18.171  0.0000E+00  0.0000E+00
    -18.092  0.0000E+00  0.0000E+00
    -18.014  0.0000E+00  0.0000E+00
    -17.936  0.0000E+00  0.0000E+00
    -17.858  0.0000E+00  0.0000E+00
    -17.779  0.0000E+00  0.0000E+00
    -17.701  0.0000E+00  0.0000E+00
    -17.623  0.0000E+00  0.0000E+00
    -17.545  0.1029E-13  0.8049E-15
    -17.466  0.6702E-07  0.5243E-08
    -17.388  0.3671E-02  0.2872E-03
    -17.310  0.2008E+01  0.1574E+00
    -17.232  0.1813E+02  0.1576E+01
    -17.154  0.5391E+01  0.1997E+01
    -17.075  0.3322E-01  0.2000E+01
    -16.997  0.2235E-05  0.2000E+01
    -16.919  0.1316E-11  0.2000E+01
    -16.841  0.0000E+00  0.2000E+01
    -16.762  0.0000E+00  0.2000E+01
    -16.684  0.0000E+00  0.2000E+01
    -16.606  0.0000E+00  0.2000E+01
    -16.528  0.0000E+00  0.2000E+01
    -16.449  0.0000E+00  0.2000E+01
    -16.371  0.0000E+00  0.2000E+01
    -16.293  0.0000E+00  0.2000E+01
    -16.215  0.0000E+00  0.2000E+01
    -16.136  0.0000E+00  0.2000E+01
    -16.058  0.0000E+00  0.2000E+01
    -15.980  0.0000E+00  0.2000E+01
    -15.902  0.0000E+00  0.2000E+01
    -15.824  0.0000E+00  0.2000E+01
    -15.745  0.0000E+00  0.2000E+01
    -15.667  0.0000E+00  0.2000E+01
    -15.589  0.0000E+00  0.2000E+01
    -15.511  0.0000E+00  0.2000E+01
    -15.432  0.0000E+00  0.2000E+01
    -15.354  0.0000E+00  0.2000E+01
    -15.276  0.0000E+00  0.2000E+01
    -15.198  0.0000E+00  0.2000E+01
    -15.119  0.0000E+00  0.2000E+01
    -15.041  0.0000E+00  0.2000E+01
    -14.963  0.0000E+00  0.2000E+01
    -14.885  0.0000E+00  0.2000E+01
    -14.807  0.0000E+00  0.2000E+01
    -14.728  0.0000E+00  0.2000E+01
    -14.650  0.0000E+00  0.2000E+01
    -14.572  0.0000E+00  0.2000E+01
    -14.494  0.0000E+00  0.2000E+01
    -14.415  0.0000E+00  0.2000E+01
    -14.337  0.0000E+00  0.2000E+01
    -14.259  0.0000E+00  0.2000E+01
    -14.181  0.0000E+00  0.2000E+01
    -14.102  0.0000E+00  0.2000E+01
    -14.024  0.0000E+00  0.2000E+01
    -13.946  0.0000E+00  0.2000E+01
    -13.868  0.0000E+00  0.2000E+01
    -13.790  0.0000E+00  0.2000E+01
    -13.711  0.0000E+00  0.2000E+01
    -13.633  0.0000E+00  0.2000E+01
    -13.555  0.0000E+00  0.2000E+01
    -13.477  0.0000E+00  0.2000E+01
    -13.398  0.2057E-08  0.2000E+01
    -13.320  0.3695E-03  0.2000E+01
    -13.242  0.6251E+00  0.2049E+01
    -13.164  0.1462E+02  0.3192E+01
    -13.085  0.1014E+02  0.3986E+01
    -13.007  0.1794E+00  0.4000E+01
    -12.929  0.3870E-04  0.4000E+01
    -12.851  0.7562E-10  0.4000E+01
    -12.773  0.0000E+00  0.4000E+01
    -12.694  0.0000E+00  0.4000E+01
    -12.616  0.0000E+00  0.4000E+01
    -12.538  0.0000E+00  0.4000E+01
    -12.460  0.0000E+00  0.4000E+01
    -12.381  0.0000E+00  0.4000E+01
    -12.303  0.0000E+00  0.4000E+01
    -12.225  0.0000E+00  0.4000E+01
    -12.147  0.0000E+00  0.4000E+01
    -12.068  0.0000E+00  0.4000E+01
    -11.990  0.0000E+00  0.4000E+01
    -11.912  0.0000E+00  0.4000E+01
    -11.834  0.0000E+00  0.4000E+01
    -11.756  0.0000E+00  0.4000E+01
    -11.677  0.0000E+00  0.4000E+01
    -11.599  0.0000E+00  0.4000E+01
    -11.521  0.0000E+00  0.4000E+01
    -11.443  0.0000E+00  0.4000E+01
    -11.364  0.0000E+00  0.4000E+01
    -11.286  0.0000E+00  0.4000E+01
    -11.208  0.0000E+00  0.4000E+01
    -11.130  0.0000E+00  0.4000E+01
    -11.051  0.0000E+00  0.4000E+01
    -10.973  0.0000E+00  0.4000E+01
    -10.895  0.0000E+00  0.4000E+01
    -10.817  0.0000E+00  0.4000E+01
    -10.739  0.0000E+00  0.4000E+01
    -10.660  0.0000E+00  0.4000E+01
    -10.582  0.0000E+00  0.4000E+01
    -10.504  0.0000E+00  0.4000E+01
    -10.426  0.0000E+00  0.4000E+01
    -10.347  0.0000E+00  0.4000E+01
    -10.269  0.0000E+00  0.4000E+01
    -10.191  0.0000E+00  0.4000E+01
    -10.113  0.0000E+00  0.4000E+01
    -10.034  0.0000E+00  0.4000E+01
     -9.956  0.0000E+00  0.4000E+01
     -9.878  0.0000E+00  0.4000E+01
     -9.800  0.0000E+00  0.4000E+01
     -9.722  0.0000E+00  0.4000E+01
     -9.643  0.0000E+00  0.4000E+01
     -9.565  0.0000E+00  0.4000E+01
     -9.487  0.0000E+00  0.4000E+01
     -9.409  0.1180E-08  0.4000E+01
     -9.330  0.1610E-03  0.4000E+01
     -9.252  0.2095E+00  0.4016E+01
     -9.174  0.3912E+01  0.4322E+01
     -9.096  0.2865E+01  0.4547E+01
     -9.017  0.1975E+02  0.6092E+01
     -8.939  0.1759E+02  0.7467E+01
     -8.861  0.1710E+01  0.7601E+01
     -8.783  0.4708E+01  0.7970E+01
     -8.705  0.1732E+02  0.9325E+01
     -8.626  0.5292E+02  0.1346E+02
     -8.548  0.1523E+02  0.1466E+02
     -8.470  0.2707E+02  0.1677E+02
     -8.392  0.4716E+01  0.1714E+02
     -8.313  0.2527E+02  0.1912E+02
     -8.235  0.1245E+02  0.2009E+02
     -8.157  0.2661E+02  0.2218E+02
     -8.079  0.2201E+02  0.2390E+02
     -8.000  0.7446E+02  0.2972E+02
     -7.922  0.3508E+02  0.3247E+02
     -7.844  0.4308E+00  0.3250E+02
     -7.766  0.1218E+01  0.3260E+02
     -7.687  0.5880E+02  0.3720E+02
     -7.609  0.8883E+02  0.4414E+02
     -7.531  0.1620E+02  0.4541E+02
     -7.453  0.2501E+02  0.4737E+02
     -7.375  0.9506E+01  0.4811E+02
     -7.296  0.3243E+02  0.5065E+02
     -7.218  0.2185E+02  0.5236E+02
     -7.140  0.5363E+02  0.5655E+02
     -7.062  0.2955E+02  0.5887E+02
     -6.983  0.1105E+03  0.6751E+02
     -6.905  0.2388E+02  0.6938E+02
     -6.827  0.5260E+02  0.7350E+02
     -6.749  0.2506E+02  0.7546E+02
     -6.670  0.9669E+02  0.8302E+02
     -6.592  0.5278E+02  0.8715E+02
     -6.514  0.2735E+02  0.8929E+02
     -6.436  0.8992E+01  0.9000E+02
     -6.358  0.7865E+00  0.9006E+02
     -6.279  0.6175E+01  0.9054E+02
     -6.201  0.7115E+02  0.9611E+02
     -6.123  0.1106E+03  0.1048E+03
     -6.045  0.7988E+02  0.1110E+03
     -5.966  0.8012E+02  0.1173E+03
     -5.888  0.1652E+02  0.1186E+03
     -5.810  0.4843E+02  0.1224E+03
     -5.732  0.5961E+02  0.1270E+03
     -5.653  0.1211E+03  0.1365E+03
     -5.575  0.3251E+02  0.1390E+03
     -5.497  0.2798E+02  0.1412E+03
     -5.419  0.1762E+02  0.1426E+03
     -5.341  0.8376E+02  0.1492E+03
     -5.262  0.2641E+02  0.1512E+03
     -5.184  0.8260E+02  0.1577E+03
     -5.106  0.7142E+02  0.1633E+03
     -5.028  0.8714E+02  0.1701E+03
     -4.949  0.2422E+02  0.1720E+03
     -4.871  0.1976E+02  0.1735E+03
     -4.793  0.6247E+02  0.1784E+03
     -4.715  0.1302E+03  0.1886E+03
     -4.636  0.6129E+02  0.1934E+03
     -4.558  0.6120E+02  0.1982E+03
     -4.480  0.4522E+02  0.2017E+03
     -4.402  0.3311E+02  0.2043E+03
     -4.324  0.7603E+02  0.2103E+03
     -4.245  0.9382E+02  0.2176E+03
     -4.167  0.1324E+03  0.2280E+03
     -4.089  0.8089E+02  0.2343E+03
     -4.011  0.4717E+02  0.2380E+03
     -3.932  0.3977E+02  0.2411E+03
     -3.854  0.9338E+02  0.2484E+03
     -3.776  0.6197E+02  0.2533E+03
     -3.698  0.9716E+02  0.2609E+03
     -3.619  0.4262E+02  0.2642E+03
     -3.541  0.7312E+02  0.2699E+03
     -3.463  0.1973E+02  0.2714E+03
     -3.385  0.8832E+01  0.2721E+03
     -3.307  0.5677E+02  0.2766E+03
     -3.228  0.9499E+02  0.2840E+03
     -3.150  0.8405E+02  0.2906E+03
     -3.072  0.1262E+03  0.3005E+03
     -2.994  0.7115E+02  0.3060E+03
     -2.915  0.1421E+03  0.3171E+03
     -2.837  0.1553E+03  0.3293E+03
     -2.759  0.1802E+03  0.3434E+03
     -2.681  0.2572E+02  0.3454E+03
     -2.602  0.1491E+01  0.3455E+03
     -2.524  0.1652E+02  0.3468E+03
     -2.446  0.6835E+02  0.3522E+03
     -2.368  0.1114E+03  0.3609E+03
     -2.290  0.1223E+03  0.3704E+03
     -2.211  0.5200E+02  0.3745E+03
     -2.133  0.1144E+03  0.3835E+03
     -2.055  0.4481E+02  0.3870E+03
     -1.977  0.6834E+02  0.3923E+03
     -1.898  0.1014E+03  0.4002E+03
     -1.820  0.1635E+03  0.4130E+03
     -1.742  0.6971E+02  0.4185E+03
     -1.664  0.5247E+02  0.4226E+03
     -1.585  0.7305E+02  0.4283E+03
     -1.507  0.6918E+02  0.4337E+03
     -1.429  0.9592E+02  0.4412E+03
     -1.351  0.1815E+03  0.4554E+03
     -1.273  0.8398E+02  0.4620E+03
     -1.194  0.1344E+03  0.4725E+03
     -1.116  0.7715E+02  0.4785E+03
     -1.038  0.8076E+02  0.4849E+03
     -0.960  0.7589E+02  0.4908E+03
     -0.881  0.1395E+03  0.5017E+03
     -0.803  0.8906E+02  0.5087E+03
     -0.725  0.7008E+02  0.5142E+03
     -0.647  0.3293E+02  0.5167E+03
     -0.568  0.6953E+02  0.5222E+03
     -0.490  0.1807E+03  0.5363E+03
     -0.412  0.1723E+03  0.5498E+03
     -0.334  0.8291E+02  0.5563E+03
     -0.256  0.1476E+03  0.5678E+03
     -0.177  0.5434E+02  0.5721E+03
     -0.099  0.3387E+02  0.5747E+03
     -0.021  0.5299E+02  0.5789E+03
      0.057  0.1197E+03  0.5882E+03
      0.136  0.7390E+02  0.5940E+03
      0.214  0.1100E+03  0.6026E+03
      0.292  0.6846E+02  0.6080E+03
      0.370  0.7793E+02  0.6141E+03
      0.449  0.1585E+03  0.6265E+03
      0.527  0.8255E+02  0.6329E+03
      0.605  0.7009E+02  0.6384E+03
      0.683  0.4410E+02  0.6419E+03
      0.761  0.5740E+02  0.6464E+03
      0.840  0.7307E+02  0.6521E+03
      0.918  0.2156E+03  0.6689E+03
      0.996  0.2099E+03  0.6854E+03
      1.074  0.1212E+03  0.6948E+03
      1.153  0.8846E+02  0.7018E+03
      1.231  0.6955E+02  0.7072E+03
      1.309  0.8102E+02  0.7135E+03
      1.387  0.8991E+02  0.7206E+03
      1.466  0.1119E+03  0.7293E+03
      1.544  0.1635E+03  0.7421E+03
      1.622  0.1781E+03  0.7561E+03
      1.700  0.1170E+03  0.7652E+03
      1.779  0.6117E+02  0.7700E+03
      1.857  0.4825E+02  0.7738E+03
      1.935  0.1657E+03  0.7867E+03
      2.013  0.1293E+03  0.7968E+03
      2.091  0.8618E+02  0.8036E+03
      2.170  0.7095E+02  0.8091E+03
      2.248  0.6240E+02  0.8140E+03
      2.326  0.6821E+02  0.8194E+03
      2.404  0.1194E+03  0.8287E+03
      2.483  0.8186E+02  0.8351E+03
      2.561  0.1434E+03  0.8463E+03
      2.639  0.1080E+03  0.8548E+03
      2.717  0.6302E+02  0.8597E+03
      2.796  0.8164E+02  0.8661E+03
      2.874  0.2565E+03  0.8861E+03
      2.952  0.2635E+03  0.9068E+03
      3.030  0.1352E+03  0.9173E+03
      3.108  0.3949E+02  0.9204E+03
      3.187  0.7929E+02  0.9266E+03
      3.265  0.1233E+03  0.9363E+03
      3.343  0.1332E+03  0.9467E+03
      3.421  0.1568E+03  0.9590E+03
      3.500  0.9129E+02  0.9661E+03
      3.578  0.7167E+02  0.9717E+03
      3.656  0.1118E+03  0.9804E+03
      3.734  0.8829E+02  0.9874E+03
      3.813  0.7292E+02  0.9931E+03
      3.891  0.1462E+03  0.1004E+04
      3.969  0.1660E+03  0.1017E+04
      4.047  0.7281E+02  0.1023E+04
      4.125  0.1004E+02  0.1024E+04
      4.204  0.5305E+00  0.1024E+04
      4.282  0.9405E-03  0.1024E+04
      4.360  0.1734E-07  0.1024E+04
      4.438  0.2838E-14  0.1024E+04
      4.517  0.0000E+00  0.1024E+04
      4.595  0.0000E+00  0.1024E+04
      4.673  0.0000E+00  0.1024E+04
      4.751  0.0000E+00  0.1024E+04
      4.830  0.0000E+00  0.1024E+04
      4.908  0.0000E+00  0.1024E+04
      4.986  0.0000E+00  0.1024E+04
      5.064  0.0000E+00  0.1024E+04
      5.142  0.0000E+00  0.1024E+04
