       N       E                     dE             d eps       ncg     rms          rms(c)
DAV:   1     0.238571722836E+04    0.23857E+04   -0.20434E+05  3072   0.854E+02
DAV:   2    -0.700027809303E+03   -0.30857E+04   -0.29170E+04  4184   0.202E+02
DAV:   3    -0.939687235296E+03   -0.23966E+03   -0.22881E+03  4440   0.438E+01
DAV:   4    -0.955517121618E+03   -0.15830E+02   -0.13416E+02  4808   0.949E+00
DAV:   5    -0.956901270709E+03   -0.13841E+01   -0.13620E+01  4656   0.258E+00    0.228E+01
DAV:   6    -0.967309242997E+03   -0.10408E+02   -0.18345E+02  4088   0.163E+01    0.196E+01
DAV:   7    -0.934810722594E+03    0.32499E+02   -0.14234E+02  3848   0.162E+01    0.185E+01
DAV:   8    -0.935100739369E+03   -0.29002E+00   -0.37346E+01  4376   0.907E+00    0.108E+01
DAV:   9    -0.950737823031E+03   -0.15637E+02   -0.13159E+01  4240   0.120E+01    0.237E+01
DAV:  10    -0.930282474670E+03    0.20455E+02   -0.10174E+01  4112   0.806E+00    0.718E+00
DAV:  11    -0.929321769742E+03    0.96070E+00   -0.50685E+00  4208   0.335E+00    0.473E+00
DAV:  12    -0.928929000196E+03    0.39277E+00   -0.19482E+00  4128   0.217E+00    0.193E+00
DAV:  13    -0.928888043813E+03    0.40956E-01   -0.72539E-01  3728   0.958E-01    0.142E+00
DAV:  14    -0.928883916231E+03    0.41276E-02   -0.74427E-02  3904   0.384E-01    0.123E+00
DAV:  15    -0.928847577288E+03    0.36339E-01   -0.95657E-02  3928   0.423E-01    0.124E+00
DAV:  16    -0.928830752824E+03    0.16824E-01   -0.58398E-02  4088   0.505E-01    0.886E-01
DAV:  17    -0.928826305750E+03    0.44471E-02   -0.23656E-02  3712   0.224E-01    0.500E-01
DAV:  18    -0.928837165583E+03   -0.10860E-01   -0.46737E-02  3856   0.201E-01    0.813E-01
DAV:  19    -0.928837125631E+03    0.39951E-04   -0.36662E-03  3584   0.904E-02    0.617E-01
DAV:  20    -0.928839876038E+03   -0.27504E-02   -0.72298E-03  4160   0.122E-01    0.246E-01
DAV:  21    -0.928844551854E+03   -0.46758E-02   -0.10894E-02  3840   0.104E-01    0.212E-01
DAV:  22    -0.928846713493E+03   -0.21616E-02   -0.87751E-04  3664   0.384E-02    0.197E-01
DAV:  23    -0.928848043502E+03   -0.13300E-02   -0.26936E-04  3808   0.305E-02    0.125E-01
DAV:  24    -0.928849493595E+03   -0.14501E-02   -0.66034E-04  3784   0.293E-02    0.408E-02
DAV:  25    -0.928850734300E+03   -0.12407E-02   -0.33269E-04  3688   0.184E-02    0.398E-02
DAV:  26    -0.928851361269E+03   -0.62697E-03   -0.56960E-05  3360   0.895E-03    0.282E-02
DAV:  27    -0.928852266842E+03   -0.90557E-03   -0.49001E-05  2880   0.599E-03    0.196E-02
DAV:  28    -0.928853062926E+03   -0.79608E-03   -0.55871E-05  2960   0.797E-03    0.809E-03
DAV:  29    -0.928853433912E+03   -0.37099E-03   -0.34819E-05  3232   0.617E-03    0.225E-02
DAV:  30    -0.928853674115E+03   -0.24020E-03   -0.11346E-05  2584   0.549E-03    0.652E-03
DAV:  31    -0.928853960078E+03   -0.28596E-03   -0.26926E-05  2864   0.389E-03    0.707E-03
DAV:  32    -0.928854022538E+03   -0.62460E-04   -0.30865E-06  2344   0.249E-03    0.320E-03
DAV:  33    -0.928854085525E+03   -0.62987E-04   -0.27795E-06  2176   0.124E-03    0.214E-03
DAV:  34    -0.928854114801E+03   -0.29275E-04   -0.14539E-06  2240   0.829E-04    0.201E-03
DAV:  35    -0.928854120311E+03   -0.55101E-05   -0.31454E-07  1840   0.743E-04    0.136E-03
DAV:  36    -0.928854121780E+03   -0.14690E-05   -0.14634E-07  1768   0.426E-04
   1 F= -.10016038E+04 E0= -.10015652E+04  d E =-.770789E-01
