 254 254   0   0
  0.2268316E+02  0.1514622E-08  0.1514622E-08  0.2900000E-08  0.5000000E-15
   1.0000000000000000E-004
  CAR 
 NiAl                                    
      6.69202671    -36.62012892  301     -0.47903612      1.00000000
    -36.620  0.0000E+00  0.0000E+00
    -36.476  0.0000E+00  0.0000E+00
    -36.331  0.0000E+00  0.0000E+00
    -36.187  0.0000E+00  0.0000E+00
    -36.043  0.0000E+00  0.0000E+00
    -35.898  0.0000E+00  0.0000E+00
    -35.754  0.0000E+00  0.0000E+00
    -35.610  0.0000E+00  0.0000E+00
    -35.465  0.0000E+00  0.0000E+00
    -35.321  0.0000E+00  0.0000E+00
    -35.176  0.0000E+00  0.0000E+00
    -35.032  0.0000E+00  0.0000E+00
    -34.888  0.1435E-09  0.2072E-10
    -34.743  0.6133E-01  0.8854E-02
    -34.599  0.1280E+02  0.1857E+01
    -34.455  0.9888E+00  0.2000E+01
    -34.310  0.1992E-06  0.2000E+01
    -34.166  0.0000E+00  0.2000E+01
    -34.021  0.0000E+00  0.2000E+01
    -33.877  0.0000E+00  0.2000E+01
    -33.733  0.0000E+00  0.2000E+01
    -33.588  0.0000E+00  0.2000E+01
    -33.444  0.0000E+00  0.2000E+01
    -33.300  0.0000E+00  0.2000E+01
    -33.155  0.0000E+00  0.2000E+01
    -33.011  0.0000E+00  0.2000E+01
    -32.866  0.0000E+00  0.2000E+01
    -32.722  0.0000E+00  0.2000E+01
    -32.578  0.0000E+00  0.2000E+01
    -32.433  0.0000E+00  0.2000E+01
    -32.289  0.0000E+00  0.2000E+01
    -32.145  0.0000E+00  0.2000E+01
    -32.000  0.0000E+00  0.2000E+01
    -31.856  0.0000E+00  0.2000E+01
    -31.711  0.0000E+00  0.2000E+01
    -31.567  0.0000E+00  0.2000E+01
    -31.423  0.0000E+00  0.2000E+01
    -31.278  0.0000E+00  0.2000E+01
    -31.134  0.0000E+00  0.2000E+01
    -30.990  0.0000E+00  0.2000E+01
    -30.845  0.0000E+00  0.2000E+01
    -30.701  0.0000E+00  0.2000E+01
    -30.556  0.0000E+00  0.2000E+01
    -30.412  0.0000E+00  0.2000E+01
    -30.268  0.0000E+00  0.2000E+01
    -30.123  0.0000E+00  0.2000E+01
    -29.979  0.0000E+00  0.2000E+01
    -29.835  0.0000E+00  0.2000E+01
    -29.690  0.0000E+00  0.2000E+01
    -29.546  0.0000E+00  0.2000E+01
    -29.401  0.0000E+00  0.2000E+01
    -29.257  0.0000E+00  0.2000E+01
    -29.113  0.0000E+00  0.2000E+01
    -28.968  0.0000E+00  0.2000E+01
    -28.824  0.0000E+00  0.2000E+01
    -28.680  0.0000E+00  0.2000E+01
    -28.535  0.0000E+00  0.2000E+01
    -28.391  0.0000E+00  0.2000E+01
    -28.246  0.0000E+00  0.2000E+01
    -28.102  0.0000E+00  0.2000E+01
    -27.958  0.0000E+00  0.2000E+01
    -27.813  0.0000E+00  0.2000E+01
    -27.669  0.0000E+00  0.2000E+01
    -27.525  0.0000E+00  0.2000E+01
    -27.380  0.0000E+00  0.2000E+01
    -27.236  0.0000E+00  0.2000E+01
    -27.091  0.0000E+00  0.2000E+01
    -26.947  0.0000E+00  0.2000E+01
    -26.803  0.0000E+00  0.2000E+01
    -26.658  0.0000E+00  0.2000E+01
    -26.514  0.0000E+00  0.2000E+01
    -26.370  0.0000E+00  0.2000E+01
    -26.225  0.0000E+00  0.2000E+01
    -26.081  0.0000E+00  0.2000E+01
    -25.936  0.0000E+00  0.2000E+01
    -25.792  0.0000E+00  0.2000E+01
    -25.648  0.0000E+00  0.2000E+01
    -25.503  0.0000E+00  0.2000E+01
    -25.359  0.0000E+00  0.2000E+01
    -25.215  0.0000E+00  0.2000E+01
    -25.070  0.0000E+00  0.2000E+01
    -24.926  0.0000E+00  0.2000E+01
    -24.781  0.0000E+00  0.2000E+01
    -24.637  0.0000E+00  0.2000E+01
    -24.493  0.0000E+00  0.2000E+01
    -24.348  0.0000E+00  0.2000E+01
    -24.204  0.0000E+00  0.2000E+01
    -24.060  0.0000E+00  0.2000E+01
    -23.915  0.0000E+00  0.2000E+01
    -23.771  0.0000E+00  0.2000E+01
    -23.626  0.0000E+00  0.2000E+01
    -23.482  0.0000E+00  0.2000E+01
    -23.338  0.0000E+00  0.2000E+01
    -23.193  0.0000E+00  0.2000E+01
    -23.049  0.0000E+00  0.2000E+01
    -22.905  0.0000E+00  0.2000E+01
    -22.760  0.0000E+00  0.2000E+01
    -22.616  0.0000E+00  0.2000E+01
    -22.471  0.0000E+00  0.2000E+01
    -22.327  0.0000E+00  0.2000E+01
    -22.183  0.0000E+00  0.2000E+01
    -22.038  0.0000E+00  0.2000E+01
    -21.894  0.0000E+00  0.2000E+01
    -21.750  0.0000E+00  0.2000E+01
    -21.605  0.0000E+00  0.2000E+01
    -21.461  0.0000E+00  0.2000E+01
    -21.317  0.0000E+00  0.2000E+01
    -21.172  0.0000E+00  0.2000E+01
    -21.028  0.0000E+00  0.2000E+01
    -20.883  0.0000E+00  0.2000E+01
    -20.739  0.0000E+00  0.2000E+01
    -20.595  0.0000E+00  0.2000E+01
    -20.450  0.0000E+00  0.2000E+01
    -20.306  0.0000E+00  0.2000E+01
    -20.162  0.0000E+00  0.2000E+01
    -20.017  0.0000E+00  0.2000E+01
    -19.873  0.0000E+00  0.2000E+01
    -19.728  0.0000E+00  0.2000E+01
    -19.584  0.0000E+00  0.2000E+01
    -19.440  0.0000E+00  0.2000E+01
    -19.295  0.0000E+00  0.2000E+01
    -19.151  0.0000E+00  0.2000E+01
    -19.007  0.8829E-05  0.2000E+01
    -18.862  0.3097E+01  0.2447E+01
    -18.718  0.1075E+02  0.3999E+01
    -18.573  0.6163E-02  0.4000E+01
    -18.429  0.0000E+00  0.4000E+01
    -18.285  0.0000E+00  0.4000E+01
    -18.140  0.0000E+00  0.4000E+01
    -17.996  0.0000E+00  0.4000E+01
    -17.852  0.0000E+00  0.4000E+01
    -17.707  0.0000E+00  0.4000E+01
    -17.563  0.0000E+00  0.4000E+01
    -17.418  0.0000E+00  0.4000E+01
    -17.274  0.0000E+00  0.4000E+01
    -17.130  0.0000E+00  0.4000E+01
    -16.985  0.0000E+00  0.4000E+01
    -16.841  0.0000E+00  0.4000E+01
    -16.697  0.0000E+00  0.4000E+01
    -16.552  0.0000E+00  0.4000E+01
    -16.408  0.0000E+00  0.4000E+01
    -16.263  0.0000E+00  0.4000E+01
    -16.119  0.0000E+00  0.4000E+01
    -15.975  0.0000E+00  0.4000E+01
    -15.830  0.0000E+00  0.4000E+01
    -15.686  0.0000E+00  0.4000E+01
    -15.542  0.0000E+00  0.4000E+01
    -15.397  0.0000E+00  0.4000E+01
    -15.253  0.0000E+00  0.4000E+01
    -15.108  0.0000E+00  0.4000E+01
    -14.964  0.0000E+00  0.4000E+01
    -14.820  0.0000E+00  0.4000E+01
    -14.675  0.0000E+00  0.4000E+01
    -14.531  0.0000E+00  0.4000E+01
    -14.387  0.1150E-09  0.4000E+01
    -14.242  0.8157E-01  0.4012E+01
    -14.098  0.2506E+02  0.7630E+01
    -13.953  0.2563E+01  0.8000E+01
    -13.809  0.8967E-06  0.8000E+01
    -13.665  0.0000E+00  0.8000E+01
    -13.520  0.0000E+00  0.8000E+01
    -13.376  0.0000E+00  0.8000E+01
    -13.232  0.0000E+00  0.8000E+01
    -13.087  0.0000E+00  0.8000E+01
    -12.943  0.0000E+00  0.8000E+01
    -12.798  0.0000E+00  0.8000E+01
    -12.654  0.9535E-13  0.8000E+01
    -12.510  0.2071E-02  0.8000E+01
    -12.365  0.9409E+01  0.9359E+01
    -12.221  0.4441E+01  0.1000E+02
    -12.077  0.3746E-04  0.1000E+02
    -11.932  0.0000E+00  0.1000E+02
    -11.788  0.0000E+00  0.1000E+02
    -11.643  0.0000E+00  0.1000E+02
    -11.499  0.0000E+00  0.1000E+02
    -11.355  0.0000E+00  0.1000E+02
    -11.210  0.0000E+00  0.1000E+02
    -11.066  0.0000E+00  0.1000E+02
    -10.922  0.0000E+00  0.1000E+02
    -10.777  0.0000E+00  0.1000E+02
    -10.633  0.0000E+00  0.1000E+02
    -10.488  0.0000E+00  0.1000E+02
    -10.344  0.0000E+00  0.1000E+02
    -10.200  0.0000E+00  0.1000E+02
    -10.055  0.0000E+00  0.1000E+02
     -9.911  0.0000E+00  0.1000E+02
     -9.767  0.0000E+00  0.1000E+02
     -9.622  0.0000E+00  0.1000E+02
     -9.478  0.0000E+00  0.1000E+02
     -9.333  0.0000E+00  0.1000E+02
     -9.189  0.2733E-04  0.1000E+02
     -9.045  0.1411E+01  0.1020E+02
     -8.900  0.2124E+01  0.1051E+02
     -8.756  0.1897E+02  0.1325E+02
     -8.612  0.1737E+01  0.1350E+02
     -8.467  0.2921E+01  0.1392E+02
     -8.323  0.1893E+02  0.1666E+02
     -8.178  0.2485E+02  0.2024E+02
     -8.034  0.1902E+02  0.2299E+02
     -7.890  0.1392E+01  0.2319E+02
     -7.745  0.1941E+02  0.2599E+02
     -7.601  0.1822E+02  0.2862E+02
     -7.457  0.4824E+02  0.3559E+02
     -7.312  0.2017E+02  0.3850E+02
     -7.168  0.1875E+00  0.3853E+02
     -7.023  0.4391E+02  0.4487E+02
     -6.879  0.4111E+02  0.5080E+02
     -6.735  0.1861E+02  0.5349E+02
     -6.590  0.3278E+02  0.5822E+02
     -6.446  0.3106E+02  0.6271E+02
     -6.302  0.5259E+02  0.7030E+02
     -6.157  0.4649E+02  0.7701E+02
     -6.013  0.3586E+02  0.8219E+02
     -5.868  0.8272E+02  0.9413E+02
     -5.724  0.3321E+02  0.9892E+02
     -5.580  0.1149E+02  0.1006E+03
     -5.435  0.3922E+02  0.1062E+03
     -5.291  0.1368E+03  0.1260E+03
     -5.147  0.4999E+02  0.1332E+03
     -5.002  0.1028E+03  0.1480E+03
     -4.858  0.8758E+02  0.1607E+03
     -4.714  0.7191E+02  0.1711E+03
     -4.569  0.2344E+03  0.2049E+03
     -4.425  0.2025E+03  0.2341E+03
     -4.280  0.2616E+03  0.2719E+03
     -4.136  0.2514E+03  0.3082E+03
     -3.992  0.2352E+03  0.3422E+03
     -3.847  0.3891E+03  0.3983E+03
     -3.703  0.4955E+03  0.4699E+03
     -3.559  0.4185E+03  0.5303E+03
     -3.414  0.4516E+03  0.5955E+03
     -3.270  0.3507E+03  0.6461E+03
     -3.125  0.3977E+03  0.7035E+03
     -2.981  0.5000E+03  0.7757E+03
     -2.837  0.3872E+03  0.8316E+03
     -2.692  0.5828E+03  0.9158E+03
     -2.548  0.5267E+03  0.9918E+03
     -2.404  0.5805E+03  0.1076E+04
     -2.259  0.7116E+03  0.1178E+04
     -2.115  0.8846E+03  0.1306E+04
     -1.970  0.8133E+03  0.1423E+04
     -1.826  0.8491E+03  0.1546E+04
     -1.682  0.5862E+03  0.1631E+04
     -1.537  0.5636E+03  0.1712E+04
     -1.393  0.5543E+03  0.1792E+04
     -1.249  0.8033E+03  0.1908E+04
     -1.104  0.5692E+03  0.1990E+04
     -0.960  0.7231E+03  0.2095E+04
     -0.815  0.8393E+03  0.2216E+04
     -0.671  0.6679E+03  0.2312E+04
     -0.527  0.1094E+04  0.2470E+04
     -0.382  0.1026E+04  0.2618E+04
     -0.238  0.3084E+03  0.2663E+04
     -0.094  0.1267E+03  0.2681E+04
      0.051  0.1657E+03  0.2705E+04
      0.195  0.8647E+02  0.2718E+04
      0.340  0.6737E+02  0.2727E+04
      0.484  0.6390E+02  0.2737E+04
      0.628  0.9400E+02  0.2750E+04
      0.773  0.8738E+02  0.2763E+04
      0.917  0.9724E+02  0.2777E+04
      1.061  0.1378E+03  0.2797E+04
      1.206  0.4215E+02  0.2803E+04
      1.350  0.7022E+02  0.2813E+04
      1.495  0.7471E+02  0.2824E+04
      1.639  0.5128E+02  0.2831E+04
      1.783  0.9594E+02  0.2845E+04
      1.928  0.8803E+02  0.2858E+04
      2.072  0.8276E+02  0.2870E+04
      2.216  0.6261E+02  0.2879E+04
      2.361  0.1051E+03  0.2894E+04
      2.505  0.6451E+02  0.2903E+04
      2.650  0.6003E+02  0.2912E+04
      2.794  0.3549E+02  0.2917E+04
      2.938  0.2958E+02  0.2921E+04
      3.083  0.1071E+03  0.2937E+04
      3.227  0.1642E+03  0.2960E+04
      3.371  0.3731E+02  0.2966E+04
      3.516  0.5529E+02  0.2974E+04
      3.660  0.5770E+02  0.2982E+04
      3.805  0.6680E+02  0.2992E+04
      3.949  0.2000E+02  0.2995E+04
      4.093  0.1882E+02  0.2997E+04
      4.238  0.5134E+02  0.3005E+04
      4.382  0.4311E+02  0.3011E+04
      4.526  0.8160E+02  0.3023E+04
      4.671  0.6600E+02  0.3032E+04
      4.815  0.4002E+02  0.3038E+04
      4.960  0.4343E-01  0.3038E+04
      5.104  0.7781E-10  0.3038E+04
      5.248  0.0000E+00  0.3038E+04
      5.393  0.0000E+00  0.3038E+04
      5.537  0.0000E+00  0.3038E+04
      5.681  0.0000E+00  0.3038E+04
      5.826  0.0000E+00  0.3038E+04
      5.970  0.0000E+00  0.3038E+04
      6.115  0.0000E+00  0.3038E+04
      6.259  0.0000E+00  0.3038E+04
      6.403  0.0000E+00  0.3038E+04
      6.548  0.0000E+00  0.3038E+04
      6.692  0.0000E+00  0.3038E+04
