       N       E                     dE             d eps       ncg     rms          rms(c)
DAV:   1     0.224113727972E+05    0.22411E+05   -0.98600E+05 12200   0.134E+03
DAV:   2     0.120064547721E+03   -0.22291E+05   -0.21295E+05 12152   0.469E+02
DAV:   3    -0.132976943084E+04   -0.14498E+04   -0.12234E+04 13768   0.132E+02
DAV:   4    -0.155295553482E+04   -0.22319E+03   -0.19084E+03 21752   0.490E+01
DAV:   5    -0.156398781019E+04   -0.11032E+02   -0.10420E+02 19984   0.117E+01    0.151E+02
DAV:   6    -0.197108755375E+04   -0.40710E+03   -0.26838E+03 16280   0.177E+02    0.308E+02
DAV:   7    -0.168504745158E+04    0.28604E+03   -0.99557E+02 13008   0.135E+02    0.230E+02
DAV:   8    -0.158894566340E+04    0.96102E+02   -0.77052E+02 16080   0.123E+02    0.200E+02
DAV:   9    -0.199932573759E+04   -0.41038E+03   -0.34153E+02 13552   0.154E+02    0.248E+02
DAV:  10    -0.163651165815E+04    0.36281E+03   -0.30199E+02 15840   0.106E+02    0.181E+02
DAV:  11    -0.171365465012E+04   -0.77143E+02   -0.30531E+02 14704   0.122E+02    0.213E+02
DAV:  12    -0.164696037955E+04    0.66694E+02   -0.27661E+02 13640   0.973E+01    0.231E+02
DAV:  13    -0.147109007478E+04    0.17587E+03   -0.14788E+02 12736   0.798E+01    0.144E+02
DAV:  14    -0.151536769771E+04   -0.44278E+02   -0.13673E+02 13136   0.708E+01    0.196E+02
DAV:  15    -0.147015780063E+04    0.45210E+02   -0.83248E+01 12992   0.564E+01    0.180E+02
DAV:  16    -0.136851845937E+04    0.10164E+03   -0.62280E+01 12656   0.406E+01    0.114E+02
DAV:  17    -0.134998997798E+04    0.18528E+02   -0.37577E+01 12992   0.337E+01    0.927E+01
DAV:  18    -0.135090248800E+04   -0.91251E+00   -0.34060E+01 13312   0.349E+01    0.855E+01
DAV:  19    -0.135568098941E+04   -0.47785E+01   -0.30896E+01 12992   0.320E+01    0.856E+01
DAV:  20    -0.137252940446E+04   -0.16848E+02   -0.22571E+01 13072   0.305E+01    0.117E+02
DAV:  21    -0.134293125273E+04    0.29598E+02   -0.16654E+01 13056   0.260E+01    0.794E+01
DAV:  22    -0.133513179760E+04    0.77995E+01   -0.98127E+00 13056   0.191E+01    0.676E+01
DAV:  23    -0.133306300980E+04    0.20688E+01   -0.79660E+00 13104   0.177E+01    0.613E+01
DAV:  24    -0.132925218362E+04    0.38108E+01   -0.66995E+00 13104   0.176E+01    0.522E+01
DAV:  25    -0.132705576159E+04    0.21964E+01   -0.45237E+00 13200   0.132E+01    0.519E+01
DAV:  26    -0.132634538026E+04    0.71038E+00   -0.35860E+00 13200   0.106E+01    0.475E+01
DAV:  27    -0.132668904156E+04   -0.34366E+00   -0.36813E+00 13160   0.113E+01    0.501E+01
DAV:  28    -0.132616791725E+04    0.52112E+00   -0.32491E+00 13176   0.108E+01    0.475E+01
DAV:  29    -0.132462880690E+04    0.15391E+01   -0.27372E+00 13176   0.966E+00    0.356E+01
DAV:  30    -0.132472456564E+04   -0.95759E-01   -0.25216E+00 13216   0.105E+01    0.363E+01
DAV:  31    -0.132492596113E+04   -0.20140E+00   -0.23772E+00 13216   0.105E+01    0.398E+01
DAV:  32    -0.132379615100E+04    0.11298E+01   -0.21180E+00 13248   0.904E+00    0.334E+01
DAV:  33    -0.132311036796E+04    0.68578E+00   -0.15684E+00 13312   0.781E+00    0.284E+01
DAV:  34    -0.132357101498E+04   -0.46065E+00   -0.15643E+00 13232   0.788E+00    0.335E+01
DAV:  35    -0.132275225337E+04    0.81876E+00   -0.14489E+00 13248   0.761E+00    0.290E+01
DAV:  36    -0.132194786638E+04    0.80439E+00   -0.11541E+00 13280   0.633E+00    0.219E+01
DAV:  37    -0.132147953964E+04    0.46833E+00   -0.81947E-01 13304   0.514E+00    0.172E+01
DAV:  38    -0.132190786620E+04   -0.42833E+00   -0.73672E-01 13392   0.524E+00    0.223E+01
DAV:  39    -0.132169864107E+04    0.20923E+00   -0.69920E-01 13264   0.484E+00    0.214E+01
DAV:  40    -0.132125818356E+04    0.44046E+00   -0.54984E-01 13248   0.422E+00    0.168E+01
DAV:  41    -0.132091698606E+04    0.34120E+00   -0.44187E-01 13312   0.365E+00    0.116E+01
DAV:  42    -0.132087663912E+04    0.40347E-01   -0.25520E-01 13376   0.285E+00    0.115E+01
DAV:  43    -0.132082191319E+04    0.54726E-01   -0.20880E-01 13448   0.227E+00    0.102E+01
DAV:  44    -0.132074864286E+04    0.73270E-01   -0.16357E-01 13344   0.215E+00    0.805E+00
DAV:  45    -0.132070416175E+04    0.44481E-01   -0.10998E-01 13328   0.188E+00    0.731E+00
DAV:  46    -0.132066141859E+04    0.42743E-01   -0.60777E-02 13360   0.123E+00    0.595E+00
DAV:  47    -0.132065754860E+04    0.38700E-02   -0.47924E-02 13432   0.115E+00    0.573E+00
DAV:  48    -0.132062979066E+04    0.27758E-01   -0.37711E-02 13352   0.106E+00    0.483E+00
DAV:  49    -0.132060793639E+04    0.21854E-01   -0.29341E-02 13400   0.966E-01    0.442E+00
DAV:  50    -0.132060422239E+04    0.37140E-02   -0.23121E-02 13392   0.704E-01    0.428E+00
DAV:  51    -0.132082586804E+04   -0.22165E+00   -0.22195E-01 22144   0.234E+00    0.961E+00
DAV:  52    -0.132068743960E+04    0.13843E+00   -0.12599E-01 17456   0.197E+00    0.697E+00
DAV:  53    -0.132064058055E+04    0.46859E-01   -0.66325E-02 15424   0.133E+00    0.599E+00
DAV:  54    -0.132064525784E+04   -0.46773E-02   -0.60087E-02 14928   0.128E+00    0.625E+00
DAV:  55    -0.132065573092E+04   -0.10473E-01   -0.79470E-02 14584   0.141E+00    0.599E+00
DAV:  56    -0.132063428928E+04    0.21442E-01   -0.80185E-02 14416   0.162E+00    0.505E+00
DAV:  57    -0.132058459452E+04    0.49695E-01   -0.40031E-02 14344   0.120E+00    0.281E+00
DAV:  58    -0.132059659933E+04   -0.12005E-01   -0.27356E-02 14328   0.930E-01    0.325E+00
DAV:  59    -0.132058270386E+04    0.13895E-01   -0.24976E-02 14184   0.923E-01    0.226E+00
DAV:  60    -0.132057370564E+04    0.89982E-02   -0.10919E-02 14088   0.610E-01    0.157E+00
DAV:  61    -0.132060127782E+04   -0.27572E-01   -0.20695E-02 14240   0.881E-01    0.335E+00
DAV:  62    -0.132057482940E+04    0.26448E-01   -0.16894E-02 14016   0.805E-01    0.133E+00
DAV:  63    -0.132057375970E+04    0.10697E-02   -0.46054E-03 13864   0.393E-01    0.117E+00
DAV:  64    -0.132057413186E+04   -0.37215E-03   -0.34056E-03 13472   0.332E-01    0.102E+00
DAV:  65    -0.132057313875E+04    0.99310E-03   -0.22555E-03 13520   0.273E-01    0.797E-01
DAV:  66    -0.132058298513E+04   -0.98464E-02   -0.67867E-03 14184   0.495E-01    0.215E+00
DAV:  67    -0.132057610586E+04    0.68793E-02   -0.61102E-03 13880   0.485E-01    0.120E+00
DAV:  68    -0.132057483433E+04    0.12715E-02   -0.21580E-03 13568   0.285E-01    0.689E-01
DAV:  69    -0.132057446531E+04    0.36902E-03   -0.96123E-04 13528   0.184E-01    0.397E-01
DAV:  70    -0.132057472718E+04   -0.26187E-03   -0.57961E-04 13624   0.128E-01    0.342E-01
DAV:  71    -0.132057710939E+04   -0.23822E-02   -0.12376E-03 13712   0.204E-01    0.939E-01
DAV:  72    -0.132057570310E+04    0.14063E-02   -0.12472E-03 13576   0.197E-01    0.441E-01
DAV:  73    -0.132057597292E+04   -0.26982E-03   -0.36042E-04 13864   0.992E-02    0.271E-01
DAV:  74    -0.132057622563E+04   -0.25271E-03   -0.20838E-04 13632   0.774E-02    0.215E-01
DAV:  75    -0.132057663839E+04   -0.41276E-03   -0.15209E-04 13272   0.647E-02    0.214E-01
DAV:  76    -0.132057706058E+04   -0.42220E-03   -0.33662E-04 13904   0.109E-01    0.504E-01
DAV:  77    -0.132057702705E+04    0.33538E-04   -0.32641E-04 13640   0.107E-01    0.239E-01
DAV:  78    -0.132057730534E+04   -0.27829E-03   -0.88787E-05 14040   0.440E-02    0.139E-01
DAV:  79    -0.132057759502E+04   -0.28968E-03   -0.56228E-05 13224   0.373E-02    0.128E-01
DAV:  80    -0.132057802637E+04   -0.43135E-03   -0.60063E-05 13072   0.404E-02    0.130E-01
DAV:  81    -0.132057804728E+04   -0.20911E-04   -0.89438E-05 13304   0.530E-02    0.258E-01
DAV:  82    -0.132057805558E+04   -0.82990E-05   -0.82754E-05 12952   0.474E-02    0.119E-01
DAV:  83    -0.132057834682E+04   -0.29124E-03   -0.36592E-05 11624   0.295E-02    0.113E-01
DAV:  84    -0.132057865485E+04   -0.30802E-03   -0.41327E-05 11848   0.311E-02    0.115E-01
DAV:  85    -0.132057877923E+04   -0.12438E-03   -0.26892E-05 10320   0.252E-02    0.955E-02
DAV:  86    -0.132057865556E+04    0.12366E-03   -0.54816E-05 12320   0.418E-02    0.196E-01
DAV:  87    -0.132057875156E+04   -0.95999E-04   -0.59484E-05 11824   0.416E-02    0.122E-01
DAV:  88    -0.132057910345E+04   -0.35189E-03   -0.46875E-05 11314   0.308E-02    0.135E-01
DAV:  89    -0.132057927309E+04   -0.16964E-03   -0.35546E-05 12056   0.262E-02    0.718E-02
DAV:  90    -0.132057934797E+04   -0.74876E-04   -0.17556E-05  9665   0.196E-02    0.614E-02
DAV:  91    -0.132057930600E+04    0.41966E-04   -0.16027E-05  8016   0.232E-02    0.942E-02
DAV:  92    -0.132057943112E+04   -0.12511E-03   -0.20101E-05  8888   0.231E-02    0.571E-02
DAV:  93    -0.132057948485E+04   -0.53735E-04   -0.10356E-05  8280   0.153E-02    0.507E-02
DAV:  94    -0.132057955039E+04   -0.65539E-04   -0.17446E-05  9752   0.153E-02    0.557E-02
DAV:  95    -0.132057957137E+04   -0.20982E-04   -0.84594E-06  7712   0.132E-02    0.429E-02
DAV:  96    -0.132057958114E+04   -0.97717E-05   -0.13021E-05  7336   0.218E-02    0.925E-02
DAV:  97    -0.132057958862E+04   -0.74715E-05   -0.13061E-05  7256   0.213E-02    0.482E-02
DAV:  98    -0.132057960971E+04   -0.21098E-04   -0.72656E-06  7504   0.135E-02    0.449E-02
DAV:  99    -0.132057962016E+04   -0.10450E-04   -0.72025E-06  7920   0.117E-02    0.301E-02
DAV: 100    -0.132057962520E+04   -0.50415E-05   -0.48967E-06  7984   0.803E-03    0.235E-02
DAV: 101    -0.132057964177E+04   -0.16565E-04   -0.58050E-06  6824   0.143E-02    0.542E-02
DAV: 102    -0.132057963883E+04    0.29441E-05   -0.60842E-06  7096   0.144E-02
   1 F= -.14180062E+04 E0= -.14172730E+04  d E =-.146648E+01
