   4   4   0   0
  0.7621563E+03  0.1450000E-08  0.1450000E-08  0.1450000E-08  0.5000000E-15
   1.0000000000000000E-004
  CAR 
 NiAl                                    
      2.12068516    -34.67222784  301     -5.86261044      1.00000000
    -34.672  0.0000E+00  0.0000E+00
    -34.550  0.0000E+00  0.0000E+00
    -34.427  0.0000E+00  0.0000E+00
    -34.304  0.0000E+00  0.0000E+00
    -34.182  0.0000E+00  0.0000E+00
    -34.059  0.0000E+00  0.0000E+00
    -33.936  0.0000E+00  0.0000E+00
    -33.814  0.0000E+00  0.0000E+00
    -33.691  0.0000E+00  0.0000E+00
    -33.568  0.0000E+00  0.0000E+00
    -33.446  0.0000E+00  0.0000E+00
    -33.323  0.0000E+00  0.0000E+00
    -33.201  0.1122E-06  0.1376E-07
    -33.078  0.2224E+00  0.2728E-01
    -32.955  0.1440E+02  0.1793E+01
    -32.833  0.1689E+01  0.2000E+01
    -32.710  0.1828E-04  0.2000E+01
    -32.587  0.3942E-02  0.2000E+01
    -32.465  0.8014E+01  0.2983E+01
    -32.342  0.8285E+01  0.3999E+01
    -32.219  0.4605E-02  0.4000E+01
    -32.097  0.3765E-10  0.4000E+01
    -31.974  0.0000E+00  0.4000E+01
    -31.851  0.0000E+00  0.4000E+01
    -31.729  0.0000E+00  0.4000E+01
    -31.606  0.0000E+00  0.4000E+01
    -31.484  0.0000E+00  0.4000E+01
    -31.361  0.0000E+00  0.4000E+01
    -31.238  0.0000E+00  0.4000E+01
    -31.116  0.0000E+00  0.4000E+01
    -30.993  0.0000E+00  0.4000E+01
    -30.870  0.0000E+00  0.4000E+01
    -30.748  0.0000E+00  0.4000E+01
    -30.625  0.0000E+00  0.4000E+01
    -30.502  0.0000E+00  0.4000E+01
    -30.380  0.0000E+00  0.4000E+01
    -30.257  0.0000E+00  0.4000E+01
    -30.134  0.0000E+00  0.4000E+01
    -30.012  0.0000E+00  0.4000E+01
    -29.889  0.0000E+00  0.4000E+01
    -29.767  0.0000E+00  0.4000E+01
    -29.644  0.0000E+00  0.4000E+01
    -29.521  0.0000E+00  0.4000E+01
    -29.399  0.0000E+00  0.4000E+01
    -29.276  0.0000E+00  0.4000E+01
    -29.153  0.0000E+00  0.4000E+01
    -29.031  0.0000E+00  0.4000E+01
    -28.908  0.0000E+00  0.4000E+01
    -28.785  0.0000E+00  0.4000E+01
    -28.663  0.0000E+00  0.4000E+01
    -28.540  0.0000E+00  0.4000E+01
    -28.417  0.0000E+00  0.4000E+01
    -28.295  0.0000E+00  0.4000E+01
    -28.172  0.0000E+00  0.4000E+01
    -28.050  0.0000E+00  0.4000E+01
    -27.927  0.0000E+00  0.4000E+01
    -27.804  0.0000E+00  0.4000E+01
    -27.682  0.0000E+00  0.4000E+01
    -27.559  0.0000E+00  0.4000E+01
    -27.436  0.0000E+00  0.4000E+01
    -27.314  0.0000E+00  0.4000E+01
    -27.191  0.0000E+00  0.4000E+01
    -27.068  0.0000E+00  0.4000E+01
    -26.946  0.0000E+00  0.4000E+01
    -26.823  0.0000E+00  0.4000E+01
    -26.700  0.0000E+00  0.4000E+01
    -26.578  0.0000E+00  0.4000E+01
    -26.455  0.0000E+00  0.4000E+01
    -26.333  0.0000E+00  0.4000E+01
    -26.210  0.0000E+00  0.4000E+01
    -26.087  0.0000E+00  0.4000E+01
    -25.965  0.0000E+00  0.4000E+01
    -25.842  0.0000E+00  0.4000E+01
    -25.719  0.0000E+00  0.4000E+01
    -25.597  0.0000E+00  0.4000E+01
    -25.474  0.0000E+00  0.4000E+01
    -25.351  0.0000E+00  0.4000E+01
    -25.229  0.0000E+00  0.4000E+01
    -25.106  0.0000E+00  0.4000E+01
    -24.983  0.0000E+00  0.4000E+01
    -24.861  0.0000E+00  0.4000E+01
    -24.738  0.0000E+00  0.4000E+01
    -24.615  0.0000E+00  0.4000E+01
    -24.493  0.0000E+00  0.4000E+01
    -24.370  0.0000E+00  0.4000E+01
    -24.248  0.0000E+00  0.4000E+01
    -24.125  0.0000E+00  0.4000E+01
    -24.002  0.0000E+00  0.4000E+01
    -23.880  0.0000E+00  0.4000E+01
    -23.757  0.0000E+00  0.4000E+01
    -23.634  0.0000E+00  0.4000E+01
    -23.512  0.0000E+00  0.4000E+01
    -23.389  0.0000E+00  0.4000E+01
    -23.266  0.0000E+00  0.4000E+01
    -23.144  0.0000E+00  0.4000E+01
    -23.021  0.0000E+00  0.4000E+01
    -22.898  0.0000E+00  0.4000E+01
    -22.776  0.0000E+00  0.4000E+01
    -22.653  0.0000E+00  0.4000E+01
    -22.531  0.0000E+00  0.4000E+01
    -22.408  0.0000E+00  0.4000E+01
    -22.285  0.0000E+00  0.4000E+01
    -22.163  0.0000E+00  0.4000E+01
    -22.040  0.0000E+00  0.4000E+01
    -21.917  0.0000E+00  0.4000E+01
    -21.795  0.0000E+00  0.4000E+01
    -21.672  0.0000E+00  0.4000E+01
    -21.549  0.0000E+00  0.4000E+01
    -21.427  0.0000E+00  0.4000E+01
    -21.304  0.0000E+00  0.4000E+01
    -21.181  0.0000E+00  0.4000E+01
    -21.059  0.0000E+00  0.4000E+01
    -20.936  0.0000E+00  0.4000E+01
    -20.814  0.0000E+00  0.4000E+01
    -20.691  0.0000E+00  0.4000E+01
    -20.568  0.1539E-13  0.4000E+01
    -20.446  0.6106E-04  0.4000E+01
    -20.323  0.2546E+01  0.4312E+01
    -20.200  0.1365E+02  0.5986E+01
    -20.078  0.1138E+00  0.6000E+01
    -19.955  0.2511E-07  0.6000E+01
    -19.832  0.9052E-15  0.6000E+01
    -19.710  0.8950E-05  0.6000E+01
    -19.587  0.1306E+01  0.6160E+01
    -19.464  0.1468E+02  0.7961E+01
    -19.342  0.3178E+00  0.8000E+01
    -19.219  0.2562E-06  0.8000E+01
    -19.097  0.0000E+00  0.8000E+01
    -18.974  0.0000E+00  0.8000E+01
    -18.851  0.0000E+00  0.8000E+01
    -18.729  0.0000E+00  0.8000E+01
    -18.606  0.0000E+00  0.8000E+01
    -18.483  0.0000E+00  0.8000E+01
    -18.361  0.0000E+00  0.8000E+01
    -18.238  0.0000E+00  0.8000E+01
    -18.115  0.0000E+00  0.8000E+01
    -17.993  0.0000E+00  0.8000E+01
    -17.870  0.0000E+00  0.8000E+01
    -17.747  0.0000E+00  0.8000E+01
    -17.625  0.0000E+00  0.8000E+01
    -17.502  0.0000E+00  0.8000E+01
    -17.380  0.0000E+00  0.8000E+01
    -17.257  0.0000E+00  0.8000E+01
    -17.134  0.0000E+00  0.8000E+01
    -17.012  0.0000E+00  0.8000E+01
    -16.889  0.0000E+00  0.8000E+01
    -16.766  0.0000E+00  0.8000E+01
    -16.644  0.0000E+00  0.8000E+01
    -16.521  0.0000E+00  0.8000E+01
    -16.398  0.0000E+00  0.8000E+01
    -16.276  0.0000E+00  0.8000E+01
    -16.153  0.0000E+00  0.8000E+01
    -16.030  0.0000E+00  0.8000E+01
    -15.908  0.0000E+00  0.8000E+01
    -15.785  0.0000E+00  0.8000E+01
    -15.663  0.0000E+00  0.8000E+01
    -15.540  0.0000E+00  0.8000E+01
    -15.417  0.0000E+00  0.8000E+01
    -15.295  0.0000E+00  0.8000E+01
    -15.172  0.0000E+00  0.8000E+01
    -15.049  0.0000E+00  0.8000E+01
    -14.927  0.0000E+00  0.8000E+01
    -14.804  0.0000E+00  0.8000E+01
    -14.681  0.0000E+00  0.8000E+01
    -14.559  0.0000E+00  0.8000E+01
    -14.436  0.5703E-13  0.8000E+01
    -14.313  0.1293E-03  0.8000E+01
    -14.191  0.3234E+01  0.8397E+01
    -14.068  0.1300E+02  0.9991E+01
    -13.946  0.7144E-01  0.1000E+02
    -13.823  0.9200E-08  0.1000E+02
    -13.700  0.0000E+00  0.1000E+02
    -13.578  0.0000E+00  0.1000E+02
    -13.455  0.1614E-05  0.1000E+02
    -13.332  0.6785E+00  0.1008E+02
    -13.210  0.1510E+02  0.1193E+02
    -13.087  0.1459E+02  0.1372E+02
    -12.964  0.1388E+02  0.1543E+02
    -12.842  0.4671E+01  0.1600E+02
    -12.719  0.4902E-03  0.1600E+02
    -12.596  0.2221E+01  0.1627E+02
    -12.474  0.1394E+02  0.1798E+02
    -12.351  0.1445E+00  0.1800E+02
    -12.229  0.4252E-07  0.1800E+02
    -12.106  0.0000E+00  0.1800E+02
    -11.983  0.0000E+00  0.1800E+02
    -11.861  0.0000E+00  0.1800E+02
    -11.738  0.0000E+00  0.1800E+02
    -11.615  0.2490E-05  0.1800E+02
    -11.493  0.8047E+00  0.1810E+02
    -11.370  0.1494E+02  0.1993E+02
    -11.247  0.5636E+00  0.2000E+02
    -11.125  0.1016E-05  0.2000E+02
    -11.002  0.0000E+00  0.2000E+02
    -10.879  0.0000E+00  0.2000E+02
    -10.757  0.0000E+00  0.2000E+02
    -10.634  0.0000E+00  0.2000E+02
    -10.512  0.0000E+00  0.2000E+02
    -10.389  0.0000E+00  0.2000E+02
    -10.266  0.0000E+00  0.2000E+02
    -10.144  0.0000E+00  0.2000E+02
    -10.021  0.0000E+00  0.2000E+02
     -9.898  0.0000E+00  0.2000E+02
     -9.776  0.0000E+00  0.2000E+02
     -9.653  0.0000E+00  0.2000E+02
     -9.530  0.0000E+00  0.2000E+02
     -9.408  0.0000E+00  0.2000E+02
     -9.285  0.0000E+00  0.2000E+02
     -9.162  0.0000E+00  0.2000E+02
     -9.040  0.0000E+00  0.2000E+02
     -8.917  0.0000E+00  0.2000E+02
     -8.795  0.0000E+00  0.2000E+02
     -8.672  0.0000E+00  0.2000E+02
     -8.549  0.0000E+00  0.2000E+02
     -8.427  0.0000E+00  0.2000E+02
     -8.304  0.0000E+00  0.2000E+02
     -8.181  0.0000E+00  0.2000E+02
     -8.059  0.0000E+00  0.2000E+02
     -7.936  0.0000E+00  0.2000E+02
     -7.813  0.0000E+00  0.2000E+02
     -7.691  0.0000E+00  0.2000E+02
     -7.568  0.0000E+00  0.2000E+02
     -7.445  0.0000E+00  0.2000E+02
     -7.323  0.0000E+00  0.2000E+02
     -7.200  0.0000E+00  0.2000E+02
     -7.078  0.0000E+00  0.2000E+02
     -6.955  0.5487E-07  0.2000E+02
     -6.832  0.1621E+00  0.2002E+02
     -6.710  0.1407E+02  0.2175E+02
     -6.587  0.2073E+01  0.2200E+02
     -6.464  0.3298E-04  0.2200E+02
     -6.342  0.1084E-09  0.2200E+02
     -6.219  0.7980E-02  0.2200E+02
     -6.096  0.9261E+01  0.2314E+02
     -5.974  0.7036E+01  0.2400E+02
     -5.851  0.2213E-02  0.2400E+02
     -5.728  0.1471E-01  0.2400E+02
     -5.606  0.1036E+02  0.2527E+02
     -5.483  0.5933E+01  0.2600E+02
     -5.361  0.1101E-02  0.2600E+02
     -5.238  0.2607E-11  0.2600E+02
     -5.115  0.0000E+00  0.2600E+02
     -4.993  0.2067E-06  0.2600E+02
     -4.870  0.2899E+00  0.2604E+02
     -4.747  0.1462E+02  0.2783E+02
     -4.625  0.1400E+01  0.2800E+02
     -4.502  0.1082E-04  0.2800E+02
     -4.379  0.0000E+00  0.2800E+02
     -4.257  0.0000E+00  0.2800E+02
     -4.134  0.0000E+00  0.2800E+02
     -4.011  0.0000E+00  0.2800E+02
     -3.889  0.0000E+00  0.2800E+02
     -3.766  0.0000E+00  0.2800E+02
     -3.644  0.0000E+00  0.2800E+02
     -3.521  0.0000E+00  0.2800E+02
     -3.398  0.0000E+00  0.2800E+02
     -3.276  0.0000E+00  0.2800E+02
     -3.153  0.0000E+00  0.2800E+02
     -3.030  0.0000E+00  0.2800E+02
     -2.908  0.0000E+00  0.2800E+02
     -2.785  0.0000E+00  0.2800E+02
     -2.662  0.0000E+00  0.2800E+02
     -2.540  0.0000E+00  0.2800E+02
     -2.417  0.0000E+00  0.2800E+02
     -2.294  0.0000E+00  0.2800E+02
     -2.172  0.0000E+00  0.2800E+02
     -2.049  0.0000E+00  0.2800E+02
     -1.927  0.0000E+00  0.2800E+02
     -1.804  0.0000E+00  0.2800E+02
     -1.681  0.0000E+00  0.2800E+02
     -1.559  0.0000E+00  0.2800E+02
     -1.436  0.0000E+00  0.2800E+02
     -1.313  0.0000E+00  0.2800E+02
     -1.191  0.0000E+00  0.2800E+02
     -1.068  0.0000E+00  0.2800E+02
     -0.945  0.0000E+00  0.2800E+02
     -0.823  0.0000E+00  0.2800E+02
     -0.700  0.0000E+00  0.2800E+02
     -0.577  0.0000E+00  0.2800E+02
     -0.455  0.3499E-07  0.2800E+02
     -0.332  0.1323E+00  0.2802E+02
     -0.210  0.1384E+02  0.2971E+02
     -0.087  0.2338E+01  0.3000E+02
      0.036  0.4718E-04  0.3000E+02
      0.158  0.3992E-06  0.3000E+02
      0.281  0.3866E+00  0.3005E+02
      0.404  0.2419E+02  0.3301E+02
      0.526  0.2412E+02  0.3597E+02
      0.649  0.2280E+00  0.3600E+02
      0.772  0.1123E-06  0.3600E+02
      0.894  0.0000E+00  0.3600E+02
      1.017  0.0000E+00  0.3600E+02
      1.140  0.0000E+00  0.3600E+02
      1.262  0.0000E+00  0.3600E+02
      1.385  0.0000E+00  0.3600E+02
      1.507  0.0000E+00  0.3600E+02
      1.630  0.0000E+00  0.3600E+02
      1.753  0.0000E+00  0.3600E+02
      1.875  0.0000E+00  0.3600E+02
      1.998  0.0000E+00  0.3600E+02
      2.121  0.0000E+00  0.3600E+02
