    4    4    1    1
  0.7621563E+03  0.1450000E-08  0.1450000E-08  0.1450000E-08  0.5000000E-15
   1.0000000000000000E-004
  CAR 
 NiAl                                    
     24      1     18
 
  0.1262379E-14  0.1262379E-14  0.1262379E-14  0.1000000E+01
      1        -32.999823   1.000000
      2        -32.463914   1.000000
      3        -20.287267   1.000000
      4        -19.537480   1.000000
      5        -14.160871   1.000000
      6        -13.271091   1.000000
      7        -13.125298   1.000000
      8        -12.984341   1.000000
      9        -12.557675   1.000000
     10        -11.434313   1.000000
     11         -6.749926   1.000000
     12         -6.102490   1.000000
     13         -5.618134   0.000000
     14         -4.795651   0.000000
     15         -0.247193   0.000000
     16          0.351262   0.000000
     17          0.406130   0.000000
     18          0.448280   0.000000
