       N       E                     dE             d eps       ncg     rms          rms(c)
DAV:   1     0.169801989422E+03    0.16980E+03   -0.48442E+03    60   0.514E+02
DAV:   2     0.299793051565E+02   -0.13982E+03   -0.13898E+03    66   0.170E+02
DAV:   3    -0.453390045081E+01   -0.34513E+02   -0.23608E+02    48   0.672E+01
DAV:   4    -0.183828121684E+02   -0.13849E+02   -0.13734E+02    60   0.353E+01
DAV:   5    -0.187848193060E+02   -0.40201E+00   -0.34646E+00    42   0.622E+00    0.594E+01
DAV:   6    -0.183541317371E+02    0.43069E+00   -0.71356E-01    42   0.740E+00    0.366E+01
DAV:   7    -0.183558963162E+02   -0.17646E-02   -0.76123E-01    42   0.755E+00    0.108E+00
DAV:   8    -0.183442777139E+02    0.11619E-01   -0.11915E-01    36   0.308E+00    0.424E-01
DAV:   9    -0.183447810598E+02   -0.50335E-03   -0.49131E-03    72   0.568E-01    0.240E-01
DAV:  10    -0.183450873062E+02   -0.30625E-03   -0.68720E-04    48   0.245E-01    0.142E-01
DAV:  11    -0.183452393271E+02   -0.15202E-03   -0.11418E-05    42   0.238E-02    0.650E-02
DAV:  12    -0.183455142539E+02   -0.27493E-03   -0.66037E-05    60   0.620E-02    0.164E-02
DAV:  13    -0.183457587809E+02   -0.24453E-03   -0.18162E-05    60   0.226E-02    0.985E-03
DAV:  14    -0.183459256240E+02   -0.16684E-03   -0.16223E-05    54   0.211E-02    0.411E-03
DAV:  15    -0.183460266754E+02   -0.10105E-03   -0.38612E-06    60   0.108E-02    0.229E-03
DAV:  16    -0.183460729297E+02   -0.46254E-04   -0.11507E-06    48   0.484E-03    0.289E-03
DAV:  17    -0.183461073749E+02   -0.34445E-04   -0.81800E-07    48   0.482E-03    0.328E-04
DAV:  18    -0.183461130258E+02   -0.56509E-05   -0.27933E-08    30   0.136E-03    0.708E-04
DAV:  19    -0.183461174549E+02   -0.44291E-05   -0.36957E-08    36   0.147E-03    0.510E-04
DAV:  20    -0.183461175272E+02   -0.72341E-07   -0.14538E-08    36   0.106E-03
   1 F= -.18386713E+02 E0= -.18386713E+02  d E =-.401438E-11
