 vasp.6.3.1 04May22 (build Jun 29 2022 13:52:15) complex                         
 executed on              LinuxNV date 2022.10.05  18:59:33
 running    6 mpi-ranks, with   12 threads/rank
 distrk:  each k-point on    6 cores,    1 groups
 distr:  one band on NCORE=   1 cores,    6 groups


--------------------------------------------------------------------------------------------------------


 INCAR:
   SYSTEM = NiAl
   ISTART = 0
   EDIFF = 1E-7
   NELMIN = 6
   IVDW = 12
   LWAVE = .FALSE.
   LCHARG = .FALSE.
   LREAL = Auto
   NCORE = 1
   LPLANE = .TRUE.
   ENCUT = 360.00 eV
   ISMEAR = 0
   SIGMA = 0.05

 POTCAR:    PAW O_GW 19Mar2012                    
 POTCAR:    PAW O_GW 19Mar2012                    
   VRHFIN =O: s2p4                                                                                  
   LEXCH  = PE                                                                                      
   EATOM  =   432.3788 eV,   31.7789 Ry                                                             
                                                                                                    
   TITEL  = PAW O_GW 19Mar2012                                                                      
   LULTRA =        F    use ultrasoft PP ?                                                          
   IUNSCR =        1    unscreen: 0-lin 1-nonlin 2-no                                               
   RPACOR =    0.800    partial core radius                                                         
   POMASS =   16.000; ZVAL   =    6.000    mass and valenz                                          
   RCORE  =    1.600    outmost cutoff radius                                                       
   RWIGS  =    1.600; RWIGS  =    0.847    wigner-seitz radius (au A)                               
   ENMAX  =  434.431; ENMIN  =  325.824 eV                                                          
   ICORE  =        3    local potential                                                             
   LCOR   =        T    correct aug charges                                                         
   LPAW   =        T    paw PP                                                                      
   EAUG   = 1139.609                                                                                
   DEXC   =    0.000                                                                                
   RMAX   =    1.629    core radius for proj-oper                                                   
   RAUG   =    1.300    factor for augmentation sphere                                              
   RDEP   =    1.652    radius for radial grids                                                     
   RDEPT  =    1.200    core radius for aug-charge                                                  
                                                                                                    
   Atomic configuration                                                                             
    5 entries                                                                                       
     n  l   j            E        occ.                                                              
     1  0  0.50      -514.6923   2.0000                                                             
     2  0  0.50       -23.9615   2.0000                                                             
     2  1  0.50        -9.0305   4.0000                                                             
     3  2  1.50        -9.5241   0.0000                                                             
     4  3  2.50        -9.5241   0.0000                                                             
   Description                                                                                      
     l       E           TYP  RCUT    TYP  RCUT                                                     
     0    -23.9615316     23  1.150                                                                 
     0    -25.3221142     23  1.150                                                                 
     0    244.9048680     23  1.300                                                                 
     1     -9.0304908     23  1.500                                                                 
     1     -6.9258396     23  1.500                                                                 
     1    122.4524340     23  1.500                                                                 
     2     13.6058260     23  1.500                                                                 
     2    190.4815640     23  1.600                                                                 
     3     54.4233040     23  1.400                                                                 
  local pseudopotential read in
  partial core-charges read in
  partial kinetic energy density read in
  kinetic energy density of atom read in
  atomic valenz-charges read in
  non local Contribution for L=            0  read in
    real space projection operators read in
  non local Contribution for L=            0  read in
    real space projection operators read in
  non local Contribution for L=            0  read in
    real space projection operators read in
  non local Contribution for L=            1  read in
    real space projection operators read in
  non local Contribution for L=            1  read in
    real space projection operators read in
  non local Contribution for L=            1  read in
    real space projection operators read in
  non local Contribution for L=            2  read in
    real space projection operators read in
  non local Contribution for L=            2  read in
    real space projection operators read in
    PAW grid and wavefunctions read in
 
   number of l-projection  operators is LMAX  =            8
   number of lm-projection operators is LMMAX =           22
 
 -----------------------------------------------------------------------------
|                                                                             |
|               ----> ADVICE to this user running VASP <----                  |
|                                                                             |
|     You have a (more or less) 'small supercell' and for smaller cells       |
|     it is recommended to use the reciprocal-space projection scheme!        |
|     The real-space optimization is not efficient for small cells and it     |
|     is also less accurate ...                                               |
|     Therefore, set LREAL=.FALSE. in the INCAR file.                         |
|                                                                             |
 -----------------------------------------------------------------------------

 Optimization of the real space projectors (new method)

 maximal supplied QI-value         = 23.62
 optimisation between [QCUT,QGAM] = [  9.68, 19.37] = [ 26.27,105.06] Ry 
 Optimized for a Real-space Cutoff    2.14 Angstroem

   l    n(q)    QCUT    max X(q) W(low)/X(q) W(high)/X(q)  e(spline) 
   0     13     9.685   116.464    0.15E-03    0.15E-03    0.47E-05
   0     13     9.685   116.329    0.15E-03    0.15E-03    0.46E-05
   0     13     9.685     0.942    0.20E-04    0.50E-04    0.17E-05
   1     12     9.685    29.046    0.36E-03    0.11E-02    0.25E-04
   1     12     9.685    24.247    0.38E-03    0.11E-02    0.26E-04
   1     12     9.685     2.381    0.13E-03    0.38E-03    0.78E-05
   2     12     9.685     2.237    0.60E-05    0.28E-04    0.14E-05
   2     12     9.685     1.850    0.17E-04    0.70E-04    0.25E-05
  PAW O_GW 19Mar2012                    :
 energy of atom  1       EATOM= -432.3788
 kinetic energy error for atom=    0.3913 (will be added to EATOM!!)
 
 
 POSCAR:  O
  positions in cartesian coordinates
  No initial velocities read in
 exchange correlation table for  LEXCH =        8
   RHO(1)=    0.500       N(1)  =     2000
   RHO(2)=  100.500       N(2)  =     4000
 


--------------------------------------------------------------------------------------------------------


 ion  position               nearest neighbor table
   1  0.000  0.000  0.000-   2 1.21
   2  0.083  0.000  0.000-   1 1.21
   3  0.000  0.000  0.155-   4 1.21
   4  0.083  0.000  0.155-   3 1.21
 
  LATTYP: Found a simple cubic cell.
 ALAT       =    14.5000000000
  
  Lattice vectors:
  
 A1 = (  14.5000000000,   0.0000000000,   0.0000000000)
 A2 = (   0.0000000000,  14.5000000000,   0.0000000000)
 A3 = (   0.0000000000,   0.0000000000,  14.5000000000)


Analysis of symmetry for initial positions (statically):
=====================================================================
 Subroutine PRICEL returns:
 Original cell was already a primitive cell.
 

 Routine SETGRP: Setting up the symmetry group for a 
 simple cubic supercell.


 Subroutine GETGRP returns: Found  8 space group operations
 (whereof  2 operations were pure point group operations)
 out of a pool of 48 trial point group operations.


The static configuration has the point symmetry C_1h.
 The point group associated with its full space group is D_2h.


Analysis of symmetry for dynamics (positions and initial velocities):
=====================================================================
 Subroutine PRICEL returns:
 Original cell was already a primitive cell.
 

 Routine SETGRP: Setting up the symmetry group for a 
 simple cubic supercell.


 Subroutine GETGRP returns: Found  8 space group operations
 (whereof  2 operations were pure point group operations)
 out of a pool of 48 trial point group operations.


The dynamic configuration has the point symmetry C_1h.
 The point group associated with its full space group is D_2h.


 Subroutine INISYM returns: Found  8 space group operations
 (whereof  2 operations are pure point group operations),
 and found     1 'primitive' translations


----------------------------------------------------------------------------------------

                                     Primitive cell                                     

  volume of cell :    3048.6250

  direct lattice vectors                    reciprocal lattice vectors
    14.500000000  0.000000000  0.000000000     0.068965517  0.000000000  0.000000000
     0.000000000 14.500000000  0.000000000     0.000000000  0.068965517  0.000000000
     0.000000000  0.000000000 14.500000000     0.000000000  0.000000000  0.068965517

  length of vectors
    14.500000000 14.500000000 14.500000000     0.068965517  0.068965517  0.068965517

  position of ions in fractional coordinates (direct lattice)
     0.000000000  0.000000000  0.000000000
     0.083241379  0.000000000  0.000000000
     0.000000000  0.000000000  0.155172414
     0.083241379  0.000000000  0.155172414

  ion indices of the primitive-cell ions
   primitive index   ion index
                 1           1
                 2           2
                 3           3
                 4           4

----------------------------------------------------------------------------------------

 
 
 KPOINTS: Automatic generation                    

Automatic generation of k-mesh.
 Grid dimensions read from file:
 generate k-points for:    1    1    1

 Generating k-lattice:

  Cartesian coordinates                     Fractional coordinates (reciprocal lattice)
     0.068965517  0.000000000  0.000000000     1.000000000  0.000000000  0.000000000
     0.000000000  0.068965517  0.000000000     0.000000000  1.000000000  0.000000000
     0.000000000  0.000000000  0.068965517     0.000000000  0.000000000  1.000000000

  Length of vectors
     0.068965517  0.068965517  0.068965517

  Shift w.r.t. Gamma in fractional coordinates (k-lattice)
     0.000000000  0.000000000  0.000000000

 
 Subroutine IBZKPT returns following result:
 ===========================================
 
 Found      1 irreducible k-points:
 
 Following reciprocal coordinates:
            Coordinates               Weight
  0.000000  0.000000  0.000000      1.000000
 
 Following cartesian coordinates:
            Coordinates               Weight
  0.000000  0.000000  0.000000      1.000000
 


--------------------------------------------------------------------------------------------------------




 Dimension of arrays:
   k-points           NKPTS =      1   k-points in BZ     NKDIM =      1   number of bands    NBANDS=     18
   number of dos      NEDOS =    301   number of ions     NIONS =      4
   non local maximal  LDIM  =      8   non local SUM 2l+1 LMDIM =     22
   total plane-waves  NPLWV = 343000
   max r-space proj   IRMAX =   4649   max aug-charges    IRDMAX=   1404
   dimension x,y,z NGX =    70 NGY =   70 NGZ =   70
   dimension x,y,z NGXF=   140 NGYF=  140 NGZF=  140
   support grid    NGXF=   140 NGYF=  140 NGZF=  140
   ions per type =               4
   NGX,Y,Z   is equivalent  to a cutoff of   8.03,  8.03,  8.03 a.u.
   NGXF,Y,Z  is equivalent  to a cutoff of  16.05, 16.05, 16.05 a.u.

 SYSTEM =  NiAl                                    
 POSCAR =   O                                      

 Startparameter for this run:
   NWRITE =      2    write-flag & timer
   PREC   = normal    normal or accurate (medium, high low for compatibility)
   ISTART =      0    job   : 0-new  1-cont  2-samecut
   ICHARG =      2    charge: 1-file 2-atom 10-const
   ISPIN  =      1    spin polarized calculation?
   LNONCOLLINEAR =      F non collinear calculations
   LSORBIT =      F    spin-orbit coupling
   INIWAV =      1    electr: 0-lowe 1-rand  2-diag
   LASPH  =      F    aspherical Exc in radial PAW
 Electronic Relaxation 1
   ENCUT  =  360.0 eV  26.46 Ry    5.14 a.u.  22.43 22.43 22.43*2*pi/ulx,y,z
   ENINI  =  360.0     initial cutoff
   ENAUG  = 1139.6 eV  augmentation charge cutoff
   NELM   =     60;   NELMIN=  6; NELMDL= -5     # of ELM steps 
   EDIFF  = 0.1E-06   stopping-criterion for ELM
   LREAL  =      T    real-space projection
   NLSPLINE    = F    spline interpolate recip. space projectors
   LCOMPAT=      F    compatible to vasp.4.4
   GGA_COMPAT  = T    GGA compatible to vasp.4.4-vasp.4.6
   LMAXPAW     = -100 max onsite density
   LMAXMIX     =    2 max onsite mixed and CHGCAR
   VOSKOWN=      0    Vosko Wilk Nusair interpolation
   ROPT   =   -0.00050
 Ionic relaxation
   EDIFFG = 0.1E-05   stopping-criterion for IOM
   NSW    =      0    number of steps for IOM
   NBLOCK =      1;   KBLOCK =      1    inner block; outer block 
   IBRION =     -1    ionic relax: 0-MD 1-quasi-New 2-CG
   NFREE  =      0    steps in history (QN), initial steepest desc. (CG)
   ISIF   =      2    stress and relaxation
   IWAVPR =     10    prediction:  0-non 1-charg 2-wave 3-comb
   ISYM   =      2    0-nonsym 1-usesym 2-fastsym
   LCORR  =      T    Harris-Foulkes like correction to forces

   POTIM  = 0.5000    time-step for ionic-motion
   TEIN   =    0.0    initial temperature
   TEBEG  =    0.0;   TEEND  =   0.0 temperature during run
   SMASS  =  -3.00    Nose mass-parameter (am)
   estimated Nose-frequenzy (Omega)   =  0.10E-29 period in steps = 0.13E+47 mass=  -0.480E-26a.u.
   SCALEE = 1.0000    scale energy and forces
   NPACO  =    256;   APACO  = 10.0  distance and # of slots for P.C.
   PSTRESS=    0.0 pullay stress

  Mass of Ions in am
   POMASS =  16.00
  Ionic Valenz
   ZVAL   =   6.00
  Atomic Wigner-Seitz radii
   RWIGS  =  -1.00
  virtual crystal weights 
   VCA    =   1.00
   NELECT =      24.0000    total number of electrons
   NUPDOWN=      -1.0000    fix difference up-down

 DOS related values:
   EMIN   =  10.00;   EMAX   =-10.00  energy-range for DOS
   EFERMI =   0.00
   ISMEAR =     0;   SIGMA  =   0.05  broadening in eV -4-tet -1-fermi 0-gaus

 Electronic relaxation 2 (details)
   IALGO  =     38    algorithm
   LDIAG  =      T    sub-space diagonalisation (order eigenvalues)
   LSUBROT=      F    optimize rotation matrix (better conditioning)
   TURBO    =      0    0=normal 1=particle mesh
   IRESTART =      0    0=no restart 2=restart with 2 vectors
   NREBOOT  =      0    no. of reboots
   NMIN     =      0    reboot dimension
   EREF     =   0.00    reference energy to select bands
   IMIX   =      4    mixing-type and parameters
     AMIX     =   0.40;   BMIX     =  1.00
     AMIX_MAG =   1.60;   BMIX_MAG =  1.00
     AMIN     =   0.10
     WC   =   100.;   INIMIX=   1;  MIXPRE=   1;  MAXMIX= -45

 Intra band minimization:
   WEIMIN = 0.0000     energy-eigenvalue tresh-hold
   EBREAK =  0.14E-08  absolut break condition
   DEPER  =   0.30     relativ break condition  

   TIME   =   0.40     timestep for ELM

  volume/ion in A,a.u.               =     762.16      5143.28
  Fermi-wavevector in a.u.,A,eV,Ry     =   0.325670  0.615426  1.443043  0.106061
  Thomas-Fermi vector in A             =   1.216865
 
 Write flags
   LWAVE        =      F    write WAVECAR
   LDOWNSAMPLE  =      F    k-point downsampling of WAVECAR
   LCHARG       =      F    write CHGCAR
   LVTOT        =      F    write LOCPOT, total local potential
   LVHAR        =      F    write LOCPOT, Hartree potential only
   LELF         =      F    write electronic localiz. function (ELF)
   LORBIT       =      0    0 simple, 1 ext, 2 COOP (PROOUT), +10 PAW based schemes


 Dipole corrections
   LMONO  =      F    monopole corrections only (constant potential shift)
   LDIPOL =      F    correct potential (dipole corrections)
   IDIPOL =      0    1-x, 2-y, 3-z, 4-all directions 
   EPSILON=  1.0000000 bulk dielectric constant

 Exchange correlation treatment:
   GGA     =    --    GGA type
   LEXCH   =     8    internal setting for exchange type
   LIBXC   =     F    Libxc                    
   VOSKOWN =     0    Vosko Wilk Nusair interpolation
   LHFCALC =     F    Hartree Fock is set to
   LHFONE  =     F    Hartree Fock one center treatment
   AEXX    =    0.0000 exact exchange contribution

 Linear response parameters
   LEPSILON=     F    determine dielectric tensor
   LRPA    =     F    only Hartree local field effects (RPA)
   LNABLA  =     F    use nabla operator in PAW spheres
   LVEL    =     F    velocity operator in full k-point grid
   CSHIFT  =0.1000    complex shift for real part using Kramers Kronig
   OMEGAMAX=  -1.0    maximum frequency
   DEG_THRESHOLD= 0.2000000E-02 threshold for treating states as degnerate
   RTIME   =   -0.100 relaxation time in fs
  (WPLASMAI=    0.000 imaginary part of plasma frequency in eV, 0.658/RTIME)
   DFIELD  = 0.0000000 0.0000000 0.0000000 field for delta impulse in time
 
  Optional k-point grid parameters
   LKPOINTS_OPT  =     F    use optional k-point grid
   KPOINTS_OPT_MODE=     1    mode for optional k-point grid
 
 Orbital magnetization related:
   ORBITALMAG=     F  switch on orbital magnetization
   LCHIMAG   =     F  perturbation theory with respect to B field
   DQ        =  0.001000  dq finite difference perturbation B field
   LLRAUG    =     F  two centre corrections for induced B field



--------------------------------------------------------------------------------------------------------


 Static calculation
 charge density and potential will be updated during run
 non-spin polarized calculation
 Variant of blocked Davidson
 Davidson routine will perform the subspace rotation
 perform sub-space diagonalisation
    after iterative eigenvector-optimisation
 modified Broyden-mixing scheme, WC =      100.0
 initial mixing is a Kerker type mixing with AMIX =  0.4000 and BMIX =      1.0000
 Hartree-type preconditioning will be used
 using additional bands             6
 real space projection scheme for non local part
 use partial core corrections
 calculate Harris-corrections to forces 
   (improved forces if not selfconsistent)
 use gradient corrections 
 use of overlap-Matrix (Vanderbilt PP)
 Gauss-broadening in eV      SIGMA  =   0.05


--------------------------------------------------------------------------------------------------------


  energy-cutoff  :      360.00
  volume of cell :     3048.63
      direct lattice vectors                 reciprocal lattice vectors
    14.500000000  0.000000000  0.000000000     0.068965517  0.000000000  0.000000000
     0.000000000 14.500000000  0.000000000     0.000000000  0.068965517  0.000000000
     0.000000000  0.000000000 14.500000000     0.000000000  0.000000000  0.068965517

  length of vectors
    14.500000000 14.500000000 14.500000000     0.068965517  0.068965517  0.068965517


 
 k-points in units of 2pi/SCALE and weight: Automatic generation                    
   0.00000000  0.00000000  0.00000000       1.000
 
 k-points in reciprocal lattice and weights: Automatic generation                    
   0.00000000  0.00000000  0.00000000       1.000
 
 position of ions in fractional coordinates (direct lattice) 
   0.00000000  0.00000000  0.00000000
   0.08324138  0.00000000  0.00000000
   0.00000000  0.00000000  0.15517241
   0.08324138  0.00000000  0.15517241
 
 position of ions in cartesian coordinates  (Angst):
   0.00000000  0.00000000  0.00000000
   1.20700000  0.00000000  0.00000000
   0.00000000  0.00000000  2.25000000
   1.20700000  0.00000000  2.25000000
 


--------------------------------------------------------------------------------------------------------


 k-point   1 :   0.0000 0.0000 0.0000  plane waves:   47257

 maximum and minimum number of plane-waves per node :     47257    47257

 maximum number of plane-waves:     47257
 maximum index in each direction: 
   IXMAX=   22   IYMAX=   22   IZMAX=   22
   IXMIN=  -22   IYMIN=  -22   IZMIN=  -22


 serial   3D FFT for wavefunctions
 parallel 3D FFT for charge:
    minimum data exchange during FFTs selected (reduces bandwidth)


 total amount of memory used by VASP MPI-rank0    90944. kBytes
=======================================================================

   base      :      30000. kBytes
   nonlr-proj:       4698. kBytes
   fftplans  :      17290. kBytes
   grid      :      36592. kBytes
   one-center:         92. kBytes
   wavefun   :       2272. kBytes
 
     INWAV:  cpu time      0.0006: real time      0.0001
 Broyden mixing: mesh for mixing (old mesh)
   NGX = 45   NGY = 45   NGZ = 45
  (NGX  =140   NGY  =140   NGZ  =140)
  gives a total of  91125 points

 initial charge density was supplied:
 charge density of overlapping atoms calculated
 number of electron      24.0000000 magnetization 
 keeping initial charge density in first step


--------------------------------------------------------------------------------------------------------


 Maximum index for non-local projection operator           500
 Maximum index for augmentation-charges           279 (set IRDMAX)


--------------------------------------------------------------------------------------------------------


 First call to EWALD:  gamma=   0.122
 Maximum number of real-space cells 3x 3x 3
 Maximum number of reciprocal cells 3x 3x 3

    FEWALD:  cpu time      0.1478: real time      0.0856


--------------------------------------- Iteration      1(   1)  ---------------------------------------


    POTLOK:  cpu time      3.6890: real time      1.8861
    SETDIJ:  cpu time      0.2894: real time      0.1675
     EDDAV:  cpu time     13.1423: real time      6.8052
       DOS:  cpu time      0.0011: real time      0.0011
    --------------------------------------------
      LOOP:  cpu time     17.1218: real time      8.8600

 eigenvalue-minimisations  :    60
 total energy-change (2. order) : 0.1698020E+03  (-0.4844182E+03)
 number of electron      24.0000000 magnetization 
 augmentation part       24.0000000 magnetization 

 Free energy of the ion-electron system (eV)
  ---------------------------------------------------
  alpha Z        PSCENC =         0.35861207
  Ewald energy   TEWEN  =       923.78644852
  -Hartree energ DENC   =     -2377.46136238
  -exchange      EXHF   =         0.00000000
  -V(xc)+E(xc)   XCENC  =       102.78252719
  PAW double counting   =      1396.60603497    -1393.39258355
  entropy T*S    EENTRO =        -0.00000000
  eigenvalues    EBANDS =      -210.82772969
  atomic energy  EATOM  =      1727.95004229
  Solvation  Ediel_sol  =         0.00000000
  ---------------------------------------------------
  free energy    TOTEN  =       169.80198942 eV

  energy without entropy =      169.80198942  energy(sigma->0) =      169.80198942


--------------------------------------------------------------------------------------------------------




--------------------------------------- Iteration      1(   2)  ---------------------------------------


     EDDAV:  cpu time     14.2678: real time      6.9215
       DOS:  cpu time      0.0004: real time      0.0004
    --------------------------------------------
      LOOP:  cpu time     14.2683: real time      6.9219

 eigenvalue-minimisations  :    66
 total energy-change (2. order) :-0.1398227E+03  (-0.1389817E+03)
 number of electron      24.0000000 magnetization 
 augmentation part       24.0000000 magnetization 

 Free energy of the ion-electron system (eV)
  ---------------------------------------------------
  alpha Z        PSCENC =         0.35861207
  Ewald energy   TEWEN  =       923.78644852
  -Hartree energ DENC   =     -2377.46136238
  -exchange      EXHF   =         0.00000000
  -V(xc)+E(xc)   XCENC  =       102.78252719
  PAW double counting   =      1396.60603497    -1393.39258355
  entropy T*S    EENTRO =        -0.02541959
  eigenvalues    EBANDS =      -350.62499437
  atomic energy  EATOM  =      1727.95004229
  Solvation  Ediel_sol  =         0.00000000
  ---------------------------------------------------
  free energy    TOTEN  =        29.97930516 eV

  energy without entropy =       30.00472474  energy(sigma->0) =       29.99201495


--------------------------------------------------------------------------------------------------------




--------------------------------------- Iteration      1(   3)  ---------------------------------------


     EDDAV:  cpu time     11.1183: real time      5.5404
       DOS:  cpu time      0.0005: real time      0.0005
    --------------------------------------------
      LOOP:  cpu time     11.1188: real time      5.5409

 eigenvalue-minimisations  :    48
 total energy-change (2. order) :-0.3451321E+02  (-0.2360797E+02)
 number of electron      24.0000000 magnetization 
 augmentation part       24.0000000 magnetization 

 Free energy of the ion-electron system (eV)
  ---------------------------------------------------
  alpha Z        PSCENC =         0.35861207
  Ewald energy   TEWEN  =       923.78644852
  -Hartree energ DENC   =     -2377.46136238
  -exchange      EXHF   =         0.00000000
  -V(xc)+E(xc)   XCENC  =       102.78252719
  PAW double counting   =      1396.60603497    -1393.39258355
  entropy T*S    EENTRO =        -0.00000000
  eigenvalues    EBANDS =      -385.16361956
  atomic energy  EATOM  =      1727.95004229
  Solvation  Ediel_sol  =         0.00000000
  ---------------------------------------------------
  free energy    TOTEN  =        -4.53390045 eV

  energy without entropy =       -4.53390045  energy(sigma->0) =       -4.53390045


--------------------------------------------------------------------------------------------------------




--------------------------------------- Iteration      1(   4)  ---------------------------------------


     EDDAV:  cpu time     13.7085: real time      6.7188
       DOS:  cpu time      0.0008: real time      0.0008
    --------------------------------------------
      LOOP:  cpu time     13.7093: real time      6.7196

 eigenvalue-minimisations  :    60
 total energy-change (2. order) :-0.1384891E+02  (-0.1373415E+02)
 number of electron      24.0000000 magnetization 
 augmentation part       24.0000000 magnetization 

 Free energy of the ion-electron system (eV)
  ---------------------------------------------------
  alpha Z        PSCENC =         0.35861207
  Ewald energy   TEWEN  =       923.78644852
  -Hartree energ DENC   =     -2377.46136238
  -exchange      EXHF   =         0.00000000
  -V(xc)+E(xc)   XCENC  =       102.78252719
  PAW double counting   =      1396.60603497    -1393.39258355
  entropy T*S    EENTRO =        -0.00000000
  eigenvalues    EBANDS =      -399.01253128
  atomic energy  EATOM  =      1727.95004229
  Solvation  Ediel_sol  =         0.00000000
  ---------------------------------------------------
  free energy    TOTEN  =       -18.38281217 eV

  energy without entropy =      -18.38281217  energy(sigma->0) =      -18.38281217


--------------------------------------------------------------------------------------------------------




--------------------------------------- Iteration      1(   5)  ---------------------------------------


     EDDAV:  cpu time     10.1752: real time      5.1046
       DOS:  cpu time      0.0015: real time      0.0015
    CHARGE:  cpu time      1.3741: real time      0.5905
    MIXING:  cpu time      0.3974: real time      0.2419
    --------------------------------------------
      LOOP:  cpu time     11.9482: real time      5.9384

 eigenvalue-minimisations  :    42
 total energy-change (2. order) :-0.4020071E+00  (-0.3464551E+00)
 number of electron      23.9999994 magnetization 
 augmentation part        1.9993936 magnetization 

 Broyden mixing:
  rms(total) = 0.59370E+01    rms(broyden)= 0.59358E+01
  rms(prec ) = 0.59399E+01
  weight for this iteration     100.00

 Free energy of the ion-electron system (eV)
  ---------------------------------------------------
  alpha Z        PSCENC =         0.35861207
  Ewald energy   TEWEN  =       923.78644852
  -Hartree energ DENC   =     -2377.46136238
  -exchange      EXHF   =         0.00000000
  -V(xc)+E(xc)   XCENC  =       102.78252719
  PAW double counting   =      1396.60603497    -1393.39258355
  entropy T*S    EENTRO =        -0.00000000
  eigenvalues    EBANDS =      -399.41453842
  atomic energy  EATOM  =      1727.95004229
  Solvation  Ediel_sol  =         0.00000000
  ---------------------------------------------------
  free energy    TOTEN  =       -18.78481931 eV

  energy without entropy =      -18.78481931  energy(sigma->0) =      -18.78481931


--------------------------------------------------------------------------------------------------------




--------------------------------------- Iteration      1(   6)  ---------------------------------------


    POTLOK:  cpu time      3.4132: real time      1.7552
    SETDIJ:  cpu time      0.3330: real time      0.1416
     EDDAV:  cpu time     10.5420: real time      5.0437
       DOS:  cpu time      0.0009: real time      0.0009
    CHARGE:  cpu time      1.1983: real time      0.5639
    MIXING:  cpu time      0.5642: real time      0.3046
    --------------------------------------------
      LOOP:  cpu time     16.0516: real time      7.8099

 eigenvalue-minimisations  :    42
 total energy-change (2. order) : 0.4306876E+00  (-0.7135575E-01)
 number of electron      23.9999992 magnetization 
 augmentation part        1.9706578 magnetization 

 Broyden mixing:
  rms(total) = 0.36568E+01    rms(broyden)= 0.36567E+01
  rms(prec ) = 0.36583E+01
  weight for this iteration     100.00

 eigenvalues of (default mixing * dielectric matrix)
  average eigenvalue GAMMA=   2.5991
  2.5991

 Free energy of the ion-electron system (eV)
  ---------------------------------------------------
  alpha Z        PSCENC =         0.35861207
  Ewald energy   TEWEN  =       923.78644852
  -Hartree energ DENC   =     -2380.23467329
  -exchange      EXHF   =         0.00000000
  -V(xc)+E(xc)   XCENC  =       103.24170473
  PAW double counting   =      2331.31178367    -2328.28613383
  entropy T*S    EENTRO =        -0.00000000
  eigenvalues    EBANDS =      -396.48191590
  atomic energy  EATOM  =      1727.95004229
  Solvation  Ediel_sol  =         0.00000000
  ---------------------------------------------------
  free energy    TOTEN  =       -18.35413174 eV

  energy without entropy =      -18.35413174  energy(sigma->0) =      -18.35413174


--------------------------------------------------------------------------------------------------------




--------------------------------------- Iteration      1(   7)  ---------------------------------------


    POTLOK:  cpu time      3.5776: real time      1.8088
    SETDIJ:  cpu time      0.2966: real time      0.1891
     EDDAV:  cpu time      9.5620: real time      4.9807
       DOS:  cpu time      0.0011: real time      0.0011
    CHARGE:  cpu time      0.9417: real time      0.5191
    MIXING:  cpu time      0.5747: real time      0.3220
    --------------------------------------------
      LOOP:  cpu time     14.9535: real time      7.8207

 eigenvalue-minimisations  :    42
 total energy-change (2. order) :-0.1764579E-02  (-0.7612329E-01)
 number of electron      23.9999991 magnetization 
 augmentation part        1.9430853 magnetization 

 Broyden mixing:
  rms(total) = 0.10778E+00    rms(broyden)= 0.10744E+00
  rms(prec ) = 0.11509E+00
  weight for this iteration     100.00

 eigenvalues of (default mixing * dielectric matrix)
  average eigenvalue GAMMA=   2.1070
  1.6802  2.5338

 Free energy of the ion-electron system (eV)
  ---------------------------------------------------
  alpha Z        PSCENC =         0.35861207
  Ewald energy   TEWEN  =       923.78644852
  -Hartree energ DENC   =     -2384.90357623
  -exchange      EXHF   =         0.00000000
  -V(xc)+E(xc)   XCENC  =       103.79803557
  PAW double counting   =      4551.13834557    -4548.36450520
  entropy T*S    EENTRO =        -0.00000000
  eigenvalues    EBANDS =      -392.11929890
  atomic energy  EATOM  =      1727.95004229
  Solvation  Ediel_sol  =         0.00000000
  ---------------------------------------------------
  free energy    TOTEN  =       -18.35589632 eV

  energy without entropy =      -18.35589632  energy(sigma->0) =      -18.35589632


--------------------------------------------------------------------------------------------------------




--------------------------------------- Iteration      1(   8)  ---------------------------------------


    POTLOK:  cpu time      3.2432: real time      1.7473
    SETDIJ:  cpu time      0.4465: real time      0.2354
     EDDAV:  cpu time      8.2004: real time      4.4717
       DOS:  cpu time      0.0005: real time      0.0005
    CHARGE:  cpu time      1.3200: real time      0.7321
    MIXING:  cpu time      0.4861: real time      0.2774
    --------------------------------------------
      LOOP:  cpu time     13.6967: real time      7.4644

 eigenvalue-minimisations  :    36
 total energy-change (2. order) : 0.1161860E-01  (-0.1191468E-01)
 number of electron      23.9999991 magnetization 
 augmentation part        1.9502607 magnetization 

 Broyden mixing:
  rms(total) = 0.42355E-01    rms(broyden)= 0.42338E-01
  rms(prec ) = 0.42876E-01
  weight for this iteration     100.00

 eigenvalues of (default mixing * dielectric matrix)
  average eigenvalue GAMMA=   1.5813
  2.5538  1.6270  0.5632

 Free energy of the ion-electron system (eV)
  ---------------------------------------------------
  alpha Z        PSCENC =         0.35861207
  Ewald energy   TEWEN  =       923.78644852
  -Hartree energ DENC   =     -2385.29580340
  -exchange      EXHF   =         0.00000000
  -V(xc)+E(xc)   XCENC  =       103.72066818
  PAW double counting   =      4519.52190981    -4516.71032389
  entropy T*S    EENTRO =        -0.00000000
  eigenvalues    EBANDS =      -391.67583129
  atomic energy  EATOM  =      1727.95004229
  Solvation  Ediel_sol  =         0.00000000
  ---------------------------------------------------
  free energy    TOTEN  =       -18.34427771 eV

  energy without entropy =      -18.34427771  energy(sigma->0) =      -18.34427771


--------------------------------------------------------------------------------------------------------




--------------------------------------- Iteration      1(   9)  ---------------------------------------


    POTLOK:  cpu time      3.7560: real time      2.0048
    SETDIJ:  cpu time      0.1983: real time      0.1067
     EDDAV:  cpu time     15.7407: real time      7.9666
       DOS:  cpu time      0.0011: real time      0.0011
    CHARGE:  cpu time      1.2406: real time      0.6445
    MIXING:  cpu time      0.4999: real time      0.2622
    --------------------------------------------
      LOOP:  cpu time     21.4365: real time     10.9861

 eigenvalue-minimisations  :    72
 total energy-change (2. order) :-0.5033458E-03  (-0.4913111E-03)
 number of electron      23.9999991 magnetization 
 augmentation part        1.9510345 magnetization 

 Broyden mixing:
  rms(total) = 0.23972E-01    rms(broyden)= 0.23967E-01
  rms(prec ) = 0.24479E-01
  weight for this iteration     100.00

 eigenvalues of (default mixing * dielectric matrix)
  average eigenvalue GAMMA=   1.7108
  2.4646  1.8100  1.2844  1.2844

 Free energy of the ion-electron system (eV)
  ---------------------------------------------------
  alpha Z        PSCENC =         0.35861207
  Ewald energy   TEWEN  =       923.78644852
  -Hartree energ DENC   =     -2385.24922375
  -exchange      EXHF   =         0.00000000
  -V(xc)+E(xc)   XCENC  =       103.71341598
  PAW double counting   =      4524.01929416    -4521.21203648
  entropy T*S    EENTRO =        -0.00000000
  eigenvalues    EBANDS =      -391.71133386
  atomic energy  EATOM  =      1727.95004229
  Solvation  Ediel_sol  =         0.00000000
  ---------------------------------------------------
  free energy    TOTEN  =       -18.34478106 eV

  energy without entropy =      -18.34478106  energy(sigma->0) =      -18.34478106


--------------------------------------------------------------------------------------------------------




--------------------------------------- Iteration      1(  10)  ---------------------------------------


    POTLOK:  cpu time      3.3868: real time      1.8495
    SETDIJ:  cpu time      0.3291: real time      0.1247
     EDDAV:  cpu time     10.5127: real time      5.5435
       DOS:  cpu time      0.0002: real time      0.0002
    CHARGE:  cpu time      1.2081: real time      0.5927
    MIXING:  cpu time      0.6020: real time      0.3506
    --------------------------------------------
      LOOP:  cpu time     16.0389: real time      8.4612

 eigenvalue-minimisations  :    48
 total energy-change (2. order) :-0.3062465E-03  (-0.6871981E-04)
 number of electron      23.9999991 magnetization 
 augmentation part        1.9529254 magnetization 

 Broyden mixing:
  rms(total) = 0.14156E-01    rms(broyden)= 0.14154E-01
  rms(prec ) = 0.14362E-01
  weight for this iteration     100.00

 eigenvalues of (default mixing * dielectric matrix)
  average eigenvalue GAMMA=   1.5864
  2.4886  1.9044  1.9044  1.0147  0.6201

 Free energy of the ion-electron system (eV)
  ---------------------------------------------------
  alpha Z        PSCENC =         0.35861207
  Ewald energy   TEWEN  =       923.78644852
  -Hartree energ DENC   =     -2384.99353129
  -exchange      EXHF   =         0.00000000
  -V(xc)+E(xc)   XCENC  =       103.68991377
  PAW double counting   =      4506.53514698    -4503.73855102
  entropy T*S    EENTRO =        -0.00000000
  eigenvalues    EBANDS =      -391.93316863
  atomic energy  EATOM  =      1727.95004229
  Solvation  Ediel_sol  =         0.00000000
  ---------------------------------------------------
  free energy    TOTEN  =       -18.34508731 eV

  energy without entropy =      -18.34508731  energy(sigma->0) =      -18.34508731


--------------------------------------------------------------------------------------------------------




--------------------------------------- Iteration      1(  11)  ---------------------------------------


    POTLOK:  cpu time      3.5608: real time      1.8148
    SETDIJ:  cpu time      0.3130: real time      0.1947
     EDDAV:  cpu time     10.8448: real time      5.3079
       DOS:  cpu time      0.0002: real time      0.0002
    CHARGE:  cpu time      1.5378: real time      0.7340
    MIXING:  cpu time      0.5183: real time      0.2912
    --------------------------------------------
      LOOP:  cpu time     16.7749: real time      8.3427

 eigenvalue-minimisations  :    42
 total energy-change (2. order) :-0.1520209E-03  (-0.1141794E-05)
 number of electron      23.9999991 magnetization 
 augmentation part        1.9528453 magnetization 

 Broyden mixing:
  rms(total) = 0.64956E-02    rms(broyden)= 0.64954E-02
  rms(prec ) = 0.67981E-02
  weight for this iteration     100.00

 eigenvalues of (default mixing * dielectric matrix)
  average eigenvalue GAMMA=   1.6743
  2.6482  2.4042  1.8035  1.0101  1.0900  1.0900

 Free energy of the ion-electron system (eV)
  ---------------------------------------------------
  alpha Z        PSCENC =         0.35861207
  Ewald energy   TEWEN  =       923.78644852
  -Hartree energ DENC   =     -2385.08170273
  -exchange      EXHF   =         0.00000000
  -V(xc)+E(xc)   XCENC  =       103.69234675
  PAW double counting   =      4508.58854234    -4505.79479962
  entropy T*S    EENTRO =        -0.00000000
  eigenvalues    EBANDS =      -391.84472895
  atomic energy  EATOM  =      1727.95004229
  Solvation  Ediel_sol  =         0.00000000
  ---------------------------------------------------
  free energy    TOTEN  =       -18.34523933 eV

  energy without entropy =      -18.34523933  energy(sigma->0) =      -18.34523933


--------------------------------------------------------------------------------------------------------




--------------------------------------- Iteration      1(  12)  ---------------------------------------


    POTLOK:  cpu time      3.6154: real time      1.8704
    SETDIJ:  cpu time      0.2959: real time      0.1533
     EDDAV:  cpu time     13.5462: real time      6.6491
       DOS:  cpu time      0.0005: real time      0.0005
    CHARGE:  cpu time      1.2284: real time      0.5769
    MIXING:  cpu time      0.4552: real time      0.2630
    --------------------------------------------
      LOOP:  cpu time     19.1418: real time      9.5132

 eigenvalue-minimisations  :    60
 total energy-change (2. order) :-0.2749268E-03  (-0.6603701E-05)
 number of electron      23.9999991 magnetization 
 augmentation part        1.9524430 magnetization 

 Broyden mixing:
  rms(total) = 0.16427E-02    rms(broyden)= 0.16411E-02
  rms(prec ) = 0.19925E-02
  weight for this iteration     100.00

 eigenvalues of (default mixing * dielectric matrix)
  average eigenvalue GAMMA=   1.6449
  2.4409  2.3008  1.7338  1.7338  1.3404  0.9823  0.9823

 Free energy of the ion-electron system (eV)
  ---------------------------------------------------
  alpha Z        PSCENC =         0.35861207
  Ewald energy   TEWEN  =       923.78644852
  -Hartree energ DENC   =     -2385.34171972
  -exchange      EXHF   =         0.00000000
  -V(xc)+E(xc)   XCENC  =       103.70052410
  PAW double counting   =      4510.70441818    -4507.91084179
  entropy T*S    EENTRO =        -0.00000000
  eigenvalues    EBANDS =      -391.59299791
  atomic energy  EATOM  =      1727.95004229
  Solvation  Ediel_sol  =         0.00000000
  ---------------------------------------------------
  free energy    TOTEN  =       -18.34551425 eV

  energy without entropy =      -18.34551425  energy(sigma->0) =      -18.34551425


--------------------------------------------------------------------------------------------------------




--------------------------------------- Iteration      1(  13)  ---------------------------------------


    POTLOK:  cpu time      3.9037: real time      1.9193
    SETDIJ:  cpu time      0.3160: real time      0.1838
     EDDAV:  cpu time     14.0643: real time      6.8966
       DOS:  cpu time      0.0008: real time      0.0008
    CHARGE:  cpu time      1.5528: real time      0.7191
    MIXING:  cpu time      0.4270: real time      0.2378
    --------------------------------------------
      LOOP:  cpu time     20.2646: real time      9.9574

 eigenvalue-minimisations  :    60
 total energy-change (2. order) :-0.2445270E-03  (-0.1816178E-05)
 number of electron      23.9999991 magnetization 
 augmentation part        1.9522875 magnetization 

 Broyden mixing:
  rms(total) = 0.98469E-03    rms(broyden)= 0.98382E-03
  rms(prec ) = 0.12541E-02
  weight for this iteration     100.00

 eigenvalues of (default mixing * dielectric matrix)
  average eigenvalue GAMMA=   1.9158
  4.2807  2.5174  2.4079  1.8154  1.2425  1.0984  0.9821  0.9821

 Free energy of the ion-electron system (eV)
  ---------------------------------------------------
  alpha Z        PSCENC =         0.35861207
  Ewald energy   TEWEN  =       923.78644852
  -Hartree energ DENC   =     -2385.48055225
  -exchange      EXHF   =         0.00000000
  -V(xc)+E(xc)   XCENC  =       103.70328953
  PAW double counting   =      4510.10162280    -4507.30589932
  entropy T*S    EENTRO =        -0.00000000
  eigenvalues    EBANDS =      -391.45932243
  atomic energy  EATOM  =      1727.95004229
  Solvation  Ediel_sol  =         0.00000000
  ---------------------------------------------------
  free energy    TOTEN  =       -18.34575878 eV

  energy without entropy =      -18.34575878  energy(sigma->0) =      -18.34575878


--------------------------------------------------------------------------------------------------------




--------------------------------------- Iteration      1(  14)  ---------------------------------------


    POTLOK:  cpu time      3.5647: real time      1.8469
    SETDIJ:  cpu time      0.5877: real time      0.2108
     EDDAV:  cpu time     11.7119: real time      5.9804
       DOS:  cpu time      0.0009: real time      0.0009
    CHARGE:  cpu time      1.2415: real time      0.6421
    MIXING:  cpu time      0.4570: real time      0.2579
    --------------------------------------------
      LOOP:  cpu time     17.5636: real time      8.9390

 eigenvalue-minimisations  :    54
 total energy-change (2. order) :-0.1668431E-03  (-0.1622283E-05)
 number of electron      23.9999991 magnetization 
 augmentation part        1.9523381 magnetization 

 Broyden mixing:
  rms(total) = 0.41094E-03    rms(broyden)= 0.41086E-03
  rms(prec ) = 0.53691E-03
  weight for this iteration     100.00

 eigenvalues of (default mixing * dielectric matrix)
  average eigenvalue GAMMA=   2.0119
  4.6316  2.5179  2.3990  2.3990  1.7728  1.4147  1.0006  0.9857  0.9857

 Free energy of the ion-electron system (eV)
  ---------------------------------------------------
  alpha Z        PSCENC =         0.35861207
  Ewald energy   TEWEN  =       923.78644852
  -Hartree energ DENC   =     -2385.58142314
  -exchange      EXHF   =         0.00000000
  -V(xc)+E(xc)   XCENC  =       103.70373247
  PAW double counting   =      4510.56840035    -4507.77278578
  entropy T*S    EENTRO =        -0.00000000
  eigenvalues    EBANDS =      -391.35895241
  atomic energy  EATOM  =      1727.95004229
  Solvation  Ediel_sol  =         0.00000000
  ---------------------------------------------------
  free energy    TOTEN  =       -18.34592562 eV

  energy without entropy =      -18.34592562  energy(sigma->0) =      -18.34592562


--------------------------------------------------------------------------------------------------------




--------------------------------------- Iteration      1(  15)  ---------------------------------------


    POTLOK:  cpu time      3.4087: real time      1.9061
    SETDIJ:  cpu time      0.2840: real time      0.1582
     EDDAV:  cpu time     13.5009: real time      6.7714
       DOS:  cpu time      0.0012: real time      0.0012
    CHARGE:  cpu time      1.1548: real time      0.6633
    MIXING:  cpu time      0.4424: real time      0.2472
    --------------------------------------------
      LOOP:  cpu time     18.7919: real time      9.7474

 eigenvalue-minimisations  :    60
 total energy-change (2. order) :-0.1010514E-03  (-0.3861238E-06)
 number of electron      23.9999991 magnetization 
 augmentation part        1.9523827 magnetization 

 Broyden mixing:
  rms(total) = 0.22931E-03    rms(broyden)= 0.22914E-03
  rms(prec ) = 0.28609E-03
  weight for this iteration     100.00

 eigenvalues of (default mixing * dielectric matrix)
  average eigenvalue GAMMA=   2.1296
  6.1926  3.0437  2.4424  2.4079  1.7795  1.4330  0.9759  0.9759  1.0223  1.0223

 Free energy of the ion-electron system (eV)
  ---------------------------------------------------
  alpha Z        PSCENC =         0.35861207
  Ewald energy   TEWEN  =       923.78644852
  -Hartree energ DENC   =     -2385.57966337
  -exchange      EXHF   =         0.00000000
  -V(xc)+E(xc)   XCENC  =       103.70264403
  PAW double counting   =      4510.23660622    -4507.44205956
  entropy T*S    EENTRO =        -0.00000000
  eigenvalues    EBANDS =      -391.35865687
  atomic energy  EATOM  =      1727.95004229
  Solvation  Ediel_sol  =         0.00000000
  ---------------------------------------------------
  free energy    TOTEN  =       -18.34602668 eV

  energy without entropy =      -18.34602668  energy(sigma->0) =      -18.34602668


--------------------------------------------------------------------------------------------------------




--------------------------------------- Iteration      1(  16)  ---------------------------------------


    POTLOK:  cpu time      3.4835: real time      1.7980
    SETDIJ:  cpu time      0.3371: real time      0.1884
     EDDAV:  cpu time     10.7997: real time      5.9058
       DOS:  cpu time      0.0007: real time      0.0007
    CHARGE:  cpu time      1.4088: real time      0.6804
    MIXING:  cpu time      0.4801: real time      0.2603
    --------------------------------------------
      LOOP:  cpu time     16.5101: real time      8.8337

 eigenvalue-minimisations  :    48
 total energy-change (2. order) :-0.4625433E-04  (-0.1150704E-06)
 number of electron      23.9999991 magnetization 
 augmentation part        1.9523842 magnetization 

 Broyden mixing:
  rms(total) = 0.28884E-03    rms(broyden)= 0.28883E-03
  rms(prec ) = 0.30624E-03
  weight for this iteration     100.00

 eigenvalues of (default mixing * dielectric matrix)
  average eigenvalue GAMMA=   2.3021
  7.2253  3.2567  2.5837  2.5837  2.4405  1.6993  1.5403  0.9981  0.9981  0.9986
  0.9986

 Free energy of the ion-electron system (eV)
  ---------------------------------------------------
  alpha Z        PSCENC =         0.35861207
  Ewald energy   TEWEN  =       923.78644852
  -Hartree energ DENC   =     -2385.58340800
  -exchange      EXHF   =         0.00000000
  -V(xc)+E(xc)   XCENC  =       103.70231846
  PAW double counting   =      4510.20116508    -4507.40660161
  entropy T*S    EENTRO =        -0.00000000
  eigenvalues    EBANDS =      -391.35464974
  atomic energy  EATOM  =      1727.95004229
  Solvation  Ediel_sol  =         0.00000000
  ---------------------------------------------------
  free energy    TOTEN  =       -18.34607293 eV

  energy without entropy =      -18.34607293  energy(sigma->0) =      -18.34607293


--------------------------------------------------------------------------------------------------------




--------------------------------------- Iteration      1(  17)  ---------------------------------------


    POTLOK:  cpu time      3.7484: real time      1.8571
    SETDIJ:  cpu time      0.4292: real time      0.2813
     EDDAV:  cpu time     11.7390: real time      6.1510
       DOS:  cpu time      0.0001: real time      0.0001
    CHARGE:  cpu time      1.6818: real time      0.7215
    MIXING:  cpu time      0.4459: real time      0.2497
    --------------------------------------------
      LOOP:  cpu time     18.0446: real time      9.2608

 eigenvalue-minimisations  :    48
 total energy-change (2. order) :-0.3444516E-04  (-0.8179981E-07)
 number of electron      23.9999991 magnetization 
 augmentation part        1.9523607 magnetization 

 Broyden mixing:
  rms(total) = 0.32776E-04    rms(broyden)= 0.32514E-04
  rms(prec ) = 0.47581E-04
  weight for this iteration     100.00

 eigenvalues of (default mixing * dielectric matrix)
  average eigenvalue GAMMA=   2.3548
  8.1045  4.2955  2.7036  2.4538  2.2842  1.7912  1.4734  0.9923  0.9923  1.0128
  0.9555  1.1980

 Free energy of the ion-electron system (eV)
  ---------------------------------------------------
  alpha Z        PSCENC =         0.35861207
  Ewald energy   TEWEN  =       923.78644852
  -Hartree energ DENC   =     -2385.59083768
  -exchange      EXHF   =         0.00000000
  -V(xc)+E(xc)   XCENC  =       103.70259866
  PAW double counting   =      4510.31880780    -4507.52388190
  entropy T*S    EENTRO =        -0.00000000
  eigenvalues    EBANDS =      -391.34789714
  atomic energy  EATOM  =      1727.95004229
  Solvation  Ediel_sol  =         0.00000000
  ---------------------------------------------------
  free energy    TOTEN  =       -18.34610737 eV

  energy without entropy =      -18.34610737  energy(sigma->0) =      -18.34610737


--------------------------------------------------------------------------------------------------------




--------------------------------------- Iteration      1(  18)  ---------------------------------------


    POTLOK:  cpu time      3.6482: real time      2.0835
    SETDIJ:  cpu time      0.3382: real time      0.2474
     EDDAV:  cpu time      8.6857: real time      4.2286
       DOS:  cpu time      0.0001: real time      0.0001
    CHARGE:  cpu time      1.4370: real time      0.6273
    MIXING:  cpu time      0.4190: real time      0.2602
    --------------------------------------------
      LOOP:  cpu time     14.5282: real time      7.4472

 eigenvalue-minimisations  :    30
 total energy-change (2. order) :-0.5650938E-05  (-0.2793264E-08)
 number of electron      23.9999991 magnetization 
 augmentation part        1.9523667 magnetization 

 Broyden mixing:
  rms(total) = 0.70796E-04    rms(broyden)= 0.70792E-04
  rms(prec ) = 0.74607E-04
  weight for this iteration     100.00

 eigenvalues of (default mixing * dielectric matrix)
  average eigenvalue GAMMA=   2.4546
  8.5287  4.4843  2.9570  2.9570  2.4985  2.1036  1.7748  1.5312  0.9971  0.9971
  0.9846  0.9846  1.1107

 Free energy of the ion-electron system (eV)
  ---------------------------------------------------
  alpha Z        PSCENC =         0.35861207
  Ewald energy   TEWEN  =       923.78644852
  -Hartree energ DENC   =     -2385.59022699
  -exchange      EXHF   =         0.00000000
  -V(xc)+E(xc)   XCENC  =       103.70255579
  PAW double counting   =      4510.33149649    -4507.53660811
  entropy T*S    EENTRO =        -0.00000000
  eigenvalues    EBANDS =      -391.34843309
  atomic energy  EATOM  =      1727.95004229
  Solvation  Ediel_sol  =         0.00000000
  ---------------------------------------------------
  free energy    TOTEN  =       -18.34611303 eV

  energy without entropy =      -18.34611303  energy(sigma->0) =      -18.34611303


--------------------------------------------------------------------------------------------------------




--------------------------------------- Iteration      1(  19)  ---------------------------------------


    POTLOK:  cpu time      3.7529: real time      2.0693
    SETDIJ:  cpu time      0.3079: real time      0.1486
     EDDAV:  cpu time      9.3308: real time      4.6817
       DOS:  cpu time      0.0005: real time      0.0005
    CHARGE:  cpu time      1.2142: real time      0.6682
    MIXING:  cpu time      0.5692: real time      0.2892
    --------------------------------------------
      LOOP:  cpu time     15.1755: real time      7.8575

 eigenvalue-minimisations  :    36
 total energy-change (2. order) :-0.4429057E-05  (-0.3695678E-08)
 number of electron      23.9999991 magnetization 
 augmentation part        1.9523586 magnetization 

 Broyden mixing:
  rms(total) = 0.50977E-04    rms(broyden)= 0.50960E-04
  rms(prec ) = 0.52533E-04
  weight for this iteration     100.00

 eigenvalues of (default mixing * dielectric matrix)
  average eigenvalue GAMMA=   2.3921
  8.8185  5.1638  3.1399  2.6001  2.4607  2.1625  1.7544  1.5315  0.9942  0.9942
  1.1033  1.0089  0.9889  0.7690

 Free energy of the ion-electron system (eV)
  ---------------------------------------------------
  alpha Z        PSCENC =         0.35861207
  Ewald energy   TEWEN  =       923.78644852
  -Hartree energ DENC   =     -2385.59021620
  -exchange      EXHF   =         0.00000000
  -V(xc)+E(xc)   XCENC  =       103.70255402
  PAW double counting   =      4510.31752834    -4507.52264666
  entropy T*S    EENTRO =        -0.00000000
  eigenvalues    EBANDS =      -391.34843984
  atomic energy  EATOM  =      1727.95004229
  Solvation  Ediel_sol  =         0.00000000
  ---------------------------------------------------
  free energy    TOTEN  =       -18.34611745 eV

  energy without entropy =      -18.34611745  energy(sigma->0) =      -18.34611745


--------------------------------------------------------------------------------------------------------




--------------------------------------- Iteration      1(  20)  ---------------------------------------


    POTLOK:  cpu time      3.2402: real time      1.7547
    SETDIJ:  cpu time      0.3384: real time      0.1535
     EDDAV:  cpu time      9.4080: real time      4.8189
       DOS:  cpu time      0.0002: real time      0.0002
    --------------------------------------------
      LOOP:  cpu time     12.9868: real time      6.7273

 eigenvalue-minimisations  :    36
 total energy-change (2. order) :-0.7234075E-07  (-0.1453840E-08)
 number of electron      23.9999991 magnetization 
 augmentation part        1.9523586 magnetization 

 Free energy of the ion-electron system (eV)
  ---------------------------------------------------
  alpha Z        PSCENC =         0.35861207
  Ewald energy   TEWEN  =       923.78644852
  -Hartree energ DENC   =     -2385.58964655
  -exchange      EXHF   =         0.00000000
  -V(xc)+E(xc)   XCENC  =       103.70253135
  PAW double counting   =      4510.31428610    -4507.51941123
  entropy T*S    EENTRO =        -0.00000000
  eigenvalues    EBANDS =      -391.34898008
  atomic energy  EATOM  =      1727.95004229
  Solvation  Ediel_sol  =         0.00000000
  ---------------------------------------------------
  free energy    TOTEN  =       -18.34611753 eV

  energy without entropy =      -18.34611753  energy(sigma->0) =      -18.34611753


--------------------------------------------------------------------------------------------------------




 average (electrostatic) potential at core
  the test charge radii are     0.6768
  (the norm of the test charge is              1.0000)
       1-129.6845       2-129.6845       3-129.6844       4-129.6845
 
 
 
 E-fermi :  -5.8626     XC(G=0):  -0.4283     alpha+bet : -0.1136

 Fermi energy:        -5.8626104418

 k-point     1 :       0.0000    0.0000    0.0000
  band No.  band energies     occupation 
      1     -32.9998      2.00000
      2     -32.4639      2.00000
      3     -20.2873      2.00000
      4     -19.5375      2.00000
      5     -14.1609      2.00000
      6     -13.2711      2.00000
      7     -13.1253      2.00000
      8     -12.9843      2.00000
      9     -12.5577      2.00000
     10     -11.4343      2.00000
     11      -6.7499      2.00000
     12      -6.1025      2.00000
     13      -5.6181      0.00000
     14      -4.7957      0.00000
     15      -0.2472      0.00000
     16       0.3513      0.00000
     17       0.4061      0.00000
     18       0.4483      0.00000


--------------------------------------------------------------------------------------------------------


 soft charge-density along one line, spin component            1
         0         1         2         3         4         5         6         7         8         9
 total charge-density along one line
 
 pseudopotential strength for first ion, spin component:            1
 33.842  34.901  39.338   0.000  -0.004  -0.103   0.000  -0.005
 34.901  35.993  40.531   0.000  -0.004  -0.106   0.000  -0.005
 39.338  40.531  32.412   0.000  -0.001  -0.016   0.000  -0.001
  0.000   0.000   0.000  -7.113   0.000  -0.000  -8.009   0.000
 -0.004  -0.004  -0.001   0.000  -7.112   0.001   0.000  -8.008
 -0.103  -0.106  -0.016  -0.000   0.001  -7.271  -0.000   0.001
  0.000   0.000   0.000  -8.009   0.000  -0.000  -9.003   0.000
 -0.005  -0.005  -0.001   0.000  -8.008   0.001   0.000  -9.001
 -0.123  -0.127  -0.020  -0.000   0.001  -8.192  -0.000   0.001
 -0.000  -0.000  -0.000  -1.871  -0.000   0.000  -3.134  -0.000
  0.027   0.028   0.020  -0.000  -1.874  -0.001  -0.000  -3.138
  0.608   0.629   0.283   0.000  -0.001  -1.609   0.000  -0.001
  0.000   0.000  -0.000  -0.043  -0.000   0.000  -0.051  -0.000
 -0.000  -0.000   0.000  -0.002   0.000  -0.000  -0.003   0.000
 -0.002  -0.002   0.001  -0.000  -0.003   0.028  -0.000  -0.003
  0.000   0.000  -0.000  -0.000  -0.043  -0.002  -0.000  -0.051
  0.003   0.004  -0.002  -0.000  -0.000  -0.049  -0.000  -0.000
  0.000   0.000  -0.000   0.412   0.000  -0.000   0.474   0.000
 -0.000  -0.000   0.000   0.019  -0.000   0.000   0.022  -0.000
 -0.087  -0.090   0.027   0.000   0.022  -0.293   0.000   0.025
 -0.000  -0.000  -0.001   0.000   0.413   0.020   0.000   0.475
  0.148   0.154  -0.046   0.000   0.000   0.509   0.000   0.000
 total augmentation occupancy for first ion, spin component:            1
 28.684 -26.609   0.001   0.000  -0.117 -21.426   0.000  -0.144  15.141   0.000  -0.005  -0.142   0.000   0.000   0.708   0.080
-26.609  26.480  -0.018   0.000   0.110  20.601   0.000   0.124 -14.719   0.000   0.005   0.149   0.000   0.000  -0.713  -0.071
  0.001  -0.018   0.000  -0.000   0.000  -0.008   0.000  -0.001   0.007  -0.000  -0.000  -0.000   0.000   0.000   0.001   0.000
  0.000   0.000  -0.000   3.710   0.000  -0.000  -2.091   0.000  -0.000   0.034   0.000  -0.000   0.397  -0.001   0.000   0.000
 -0.117   0.110   0.000  -0.000   3.659  -0.011  -0.000  -1.925   0.015   0.000   0.036   0.000  -0.000   0.000   0.012   0.366
-21.426  20.601  -0.008  -0.000  -0.011  17.007   0.000   0.027 -12.249   0.000   0.001   0.108   0.000   0.000  -0.592   0.005
  0.000   0.000   0.000  -2.091  -0.000  -0.000   1.991   0.000  -0.000   0.000   0.000   0.000  -0.257   0.006   0.000   0.000
 -0.144   0.124  -0.001   0.000  -1.925   0.027  -0.000   1.742  -0.022   0.000  -0.000   0.000  -0.000   0.000  -0.004  -0.226
 15.141 -14.719   0.007  -0.000   0.015 -12.249   0.000  -0.022   9.458   0.000  -0.000  -0.040   0.000   0.000   0.375  -0.005
 -0.000   0.000   0.000   0.034   0.000   0.000   0.000   0.000   0.000   0.001   0.000   0.000   0.003   0.000   0.000   0.000
 -0.005   0.005  -0.000   0.000   0.036   0.001   0.000  -0.000  -0.000   0.000   0.001   0.000   0.000   0.000   0.000   0.003
 -0.142   0.149  -0.000   0.000   0.000   0.108  -0.000   0.000  -0.040  -0.000   0.000   0.003   0.000   0.000  -0.007   0.000
  0.000   0.000   0.000   0.397   0.000   0.000  -0.257  -0.000   0.000   0.003   0.000   0.000   0.044  -0.000   0.000  -0.000
 -0.000   0.000   0.000  -0.001   0.000   0.000   0.006   0.000   0.000   0.000   0.000  -0.000  -0.000   0.000   0.000   0.000
  0.708  -0.713   0.001   0.000   0.012  -0.592   0.000  -0.004   0.375   0.000   0.000  -0.007   0.000   0.000   0.027  -0.002
  0.080  -0.071   0.000   0.000   0.366   0.005   0.000  -0.226  -0.005   0.000   0.003   0.000  -0.000   0.000  -0.002   0.045
 -1.291   1.293  -0.001   0.000  -0.002   1.024   0.000   0.005  -0.646   0.000   0.000   0.013   0.000   0.000  -0.045   0.000
  0.000   0.000   0.000   0.015  -0.000   0.000  -0.015   0.000   0.000  -0.000   0.000   0.000   0.002  -0.000   0.000   0.000
 -0.000   0.000   0.000  -0.000  -0.000  -0.000   0.000   0.000  -0.000  -0.000   0.000   0.000  -0.000   0.000   0.000   0.000
  0.045  -0.046   0.000   0.000   0.001  -0.037   0.000  -0.001   0.023   0.000  -0.000  -0.001   0.000   0.000   0.002  -0.000
  0.006  -0.005   0.000   0.000   0.013  -0.000   0.000  -0.013  -0.000   0.000  -0.000  -0.000   0.000   0.000  -0.000   0.002
 -0.081   0.083  -0.000   0.000   0.000   0.065   0.000  -0.000  -0.040  -0.000   0.000   0.001   0.000  -0.000  -0.003   0.000


------------------------ aborting loop because EDIFF is reached ----------------------------------------


    CHARGE:  cpu time      1.3342: real time      0.6539
    FORLOC:  cpu time      0.1280: real time      0.1772
    FORNL :  cpu time      1.3631: real time      0.8739
    STRESS:  cpu time      4.7609: real time      2.3648
    FORCOR:  cpu time      2.6714: real time      1.5668
    FORHAR:  cpu time      1.2248: real time      0.5733
    MIXING:  cpu time      0.4966: real time      0.2657
    OFIELD:  cpu time      0.0001: real time      0.0001

 ---------------------------------------------------------------------------------------------

         DFTD3 V3.0 Rev 1        
 IVDW         = 12
 DF pbe       
 parameters
 VDW_S6       =    1.0000
 VDW_S8       =    0.7875
 VDW_A1       =    0.4289
 VDW_A2       =    4.4407
 k1-k3        =   16.0000    1.3333   -4.0000
 VDW_RADIUS   =   50.2022 A
 VDW_CNRADIUS =   21.1671 A
 Edisp (eV)   -0.04060

 E6    (eV) :    -0.0289
 E8    (eV) :    -0.0117
 % E8        : 28.89
    FORVDW:  cpu time      0.0041: real time      0.0041

  FORCE on cell =-STRESS in cart. coord.  units (eV):
  Direction    XX          YY          ZZ          XY          YZ          ZX
  --------------------------------------------------------------------------------------
  Alpha Z     0.35861     0.35861     0.35861
  Ewald     679.92898  -274.93186   518.78903     0.00000     0.00000    -0.00000
  Hartree   894.07053   421.40432  1070.11372    -0.00000    -0.00000     0.00001
  E(xc)    -117.91107  -120.57434  -119.93869     0.00000     0.00000    -0.00000
  Local   -2098.59832  -772.71700 -2215.32426    -0.00000     0.00000     0.00001
  n-local    89.95702    99.15037    98.07856    -0.00000     0.00000     0.00062
  augment    53.81678    65.89502    65.75999     0.00000     0.00000    -0.00031
  Kinetic   491.60876   567.25537   563.50117    -0.00000    -0.00000    -0.00015
  Fock        0.00000     0.00000     0.00000     0.00000     0.00000     0.00000
  vdW        -0.00265    -0.00011    -0.01422    -0.00000    -0.00000     0.00000
  -------------------------------------------------------------------------------------
  Total      -6.77136   -14.15962   -18.67608     0.00000     0.00000    -0.00000
  in kB      -3.55863    -7.44146    -9.81505     0.00000     0.00000    -0.00000
  external pressure =       -6.94 kB  Pullay stress =        0.00 kB


 VOLUME and BASIS-vectors are now :
 -----------------------------------------------------------------------------
  energy-cutoff  :      360.00
  volume of cell :     3048.63
      direct lattice vectors                 reciprocal lattice vectors
    14.500000000  0.000000000  0.000000000     0.068965517  0.000000000  0.000000000
     0.000000000 14.500000000  0.000000000     0.000000000  0.068965517  0.000000000
     0.000000000  0.000000000 14.500000000     0.000000000  0.000000000  0.068965517

  length of vectors
    14.500000000 14.500000000 14.500000000     0.068965517  0.068965517  0.068965517


 FORCES acting on ions
    electron-ion (+dipol)            ewald-force                    non-local-force                 convergence-correction
 -----------------------------------------------------------------------------------------------
   0.324E+03 0.132E-12 0.165E+03   -.392E+03 0.112E-16 -.169E+03   0.643E+02 0.000E+00 0.503E+01   0.136E-03 0.314E-13 -.352E-04
   -.324E+03 -.742E-13 0.165E+03   0.392E+03 0.331E-16 -.169E+03   -.643E+02 0.000E+00 0.503E+01   -.136E-03 0.348E-13 -.352E-04
   0.324E+03 -.128E-12 -.165E+03   -.392E+03 0.216E-16 0.169E+03   0.643E+02 0.207E-24 -.503E+01   0.136E-03 0.158E-13 0.352E-04
   -.324E+03 -.188E-13 -.165E+03   0.392E+03 0.436E-16 0.169E+03   -.643E+02 0.000E+00 -.503E+01   -.136E-03 0.315E-13 0.352E-04
 -----------------------------------------------------------------------------------------------
   -.133E-02 -.886E-13 0.134E-02   0.000E+00 0.109E-15 0.284E-13   -.142E-13 0.207E-24 0.000E+00   -.494E-07 0.113E-12 -.204E-08
 
 
 POSITION                                       TOTAL-FORCE (eV/Angst)
 -----------------------------------------------------------------------------------
      0.00000      0.00000      0.00000        -3.606016      0.000000      0.981565
      1.20700      0.00000      0.00000         3.606016      0.000000      0.981565
      0.00000      0.00000      2.25000        -3.606016      0.000000     -0.981565
      1.20700      0.00000      2.25000         3.606016      0.000000     -0.981565
 -----------------------------------------------------------------------------------
    total drift:                               -0.001332      0.000000      0.001336


--------------------------------------------------------------------------------------------------------



  FREE ENERGIE OF THE ION-ELECTRON SYSTEM (eV)
  ---------------------------------------------------
  free  energy   TOTEN  =       -18.38671321 eV

  energy  without entropy=      -18.38671321  energy(sigma->0) =      -18.38671321
 


--------------------------------------------------------------------------------------------------------


    POTLOK:  cpu time      3.6715: real time      2.0886


--------------------------------------------------------------------------------------------------------


     LOOP+:  cpu time    336.0145: real time    171.8529
    4ORBIT:  cpu time      0.0000: real time      0.0000

 total amount of memory used by VASP MPI-rank0    90944. kBytes
=======================================================================

   base      :      30000. kBytes
   nonlr-proj:       4698. kBytes
   fftplans  :      17290. kBytes
   grid      :      36592. kBytes
   one-center:         92. kBytes
   wavefun   :       2272. kBytes
 
  
  
 General timing and accounting informations for this job:
 ========================================================
  
                  Total CPU time used (sec):      383.951
                            User time (sec):      281.716
                          System time (sec):      102.235
                         Elapsed time (sec):      193.571
  
                   Maximum memory used (kb):      196376.
                   Average memory used (kb):          N/A
  
                          Minor page faults:       286776
                          Major page faults:         1096
                 Voluntary context switches:        23322
