<?xml version="1.0" encoding="ISO-8859-1"?>
<modeling>
 <generator>
  <i name="program" type="string">vasp </i>
  <i name="version" type="string">6.3.1  </i>
  <i name="subversion" type="string">04May22 (build Jun 29 2022 13:52:15) complex                          parallel </i>
  <i name="platform" type="string">LinuxNV </i>
  <i name="date" type="string">2022 10 05 </i>
  <i name="time" type="string">18:59:33 </i>
 </generator>
 <incar>
  <i type="string" name="SYSTEM">NiAl</i>
  <i type="int" name="ISTART">     0</i>
  <i type="int" name="NELMIN">     6</i>
  <i name="EDIFF">      0.00000010</i>
  <i name="ENCUT">    360.00000000</i>
  <i type="string" name="LREAL">Auto</i>
  <i type="logical" name="LPLANE"> T  </i>
  <i type="int" name="ISMEAR">     0</i>
  <i name="SIGMA">      0.05000000</i>
  <i type="logical" name="LWAVE"> F  </i>
  <i type="logical" name="LCHARG"> F  </i>
  <i type="int" name="IVDW">    12</i>
 </incar>
 <primitive_cell>
  <structure name="primitive_cell" >
   <crystal>
    <varray name="basis" >
     <v>      14.50000000       0.00000000       0.00000000 </v>
     <v>       0.00000000      14.50000000       0.00000000 </v>
     <v>       0.00000000       0.00000000      14.50000000 </v>
    </varray>
    <i name="volume">   3048.62500000 </i>
    <varray name="rec_basis" >
     <v>       0.06896552       0.00000000       0.00000000 </v>
     <v>       0.00000000       0.06896552       0.00000000 </v>
     <v>       0.00000000       0.00000000       0.06896552 </v>
    </varray>
   </crystal>
   <varray name="positions" >
    <v>       0.00000000       0.00000000       0.00000000 </v>
    <v>       0.08324138       0.00000000       0.00000000 </v>
    <v>       0.00000000       0.00000000       0.15517241 </v>
    <v>       0.08324138       0.00000000       0.15517241 </v>
   </varray>
  </structure>
  <varray name="primitive_index" >
   <v type="int" >        1 </v>
   <v type="int" >        2 </v>
   <v type="int" >        3 </v>
   <v type="int" >        4 </v>
  </varray>
 </primitive_cell>
 <kpoints>
  <generation param="Gamma">
   <v type="int" name="divisions">       1        1        1 </v>
   <v name="usershift">      0.00000000       0.00000000       0.00000000 </v>
   <v name="genvec1">      1.00000000       0.00000000       0.00000000 </v>
   <v name="genvec2">      0.00000000       1.00000000       0.00000000 </v>
   <v name="genvec3">      0.00000000       0.00000000       1.00000000 </v>
   <v name="shift">      0.00000000       0.00000000       0.00000000 </v>
  </generation>
  <varray name="kpointlist" >
   <v>       0.00000000       0.00000000       0.00000000 </v>
  </varray>
  <varray name="weights" >
   <v>       1.00000000 </v>
  </varray>
 </kpoints>
 <parameters>
  <separator name="general" >
   <i type="string" name="SYSTEM">NiAl</i>
   <i type="logical" name="LCOMPAT"> F  </i>
  </separator>
  <separator name="electronic" >
   <i type="string" name="PREC">normal</i>
   <i name="ENMAX">    360.00000000</i>
   <i name="ENAUG">   1139.60900000</i>
   <i name="EDIFF">      0.00000010</i>
   <i type="int" name="IALGO">    38</i>
   <i type="int" name="IWAVPR">    10</i>
   <i type="int" name="NBANDS">    18</i>
   <i type="int" name="NBANDSLOW">    -1</i>
   <i type="int" name="NBANDSHIGH">    -1</i>
   <i name="NELECT">     24.00000000</i>
   <i type="int" name="TURBO">     0</i>
   <i type="int" name="IRESTART">     0</i>
   <i type="int" name="NREBOOT">     0</i>
   <i type="int" name="NMIN">     0</i>
   <i name="EREF">      0.00000000</i>
   <separator name="electronic smearing" >
    <i type="int" name="ISMEAR">     0</i>
    <i name="SIGMA">      0.05000000</i>
    <i name="KSPACING">      0.50000000</i>
    <i type="logical" name="KGAMMA"> T  </i>
    <i type="logical" name="KBLOWUP"> T  </i>
   </separator>
   <separator name="electronic projectors" >
    <i type="logical" name="LREAL"> T  </i>
    <v name="ROPT">     -0.00050000</v>
    <i type="int" name="LMAXPAW">  -100</i>
    <i type="int" name="LMAXMIX">     2</i>
    <i type="logical" name="NLSPLINE"> F  </i>
   </separator>
   <separator name="electronic startup" >
    <i type="int" name="ISTART">     0</i>
    <i type="int" name="ICHARG">     2</i>
    <i type="int" name="INIWAV">     1</i>
   </separator>
   <separator name="electronic spin" >
    <i type="int" name="ISPIN">     1</i>
    <i type="logical" name="LNONCOLLINEAR"> F  </i>
    <v name="MAGMOM">      1.00000000      1.00000000      1.00000000      1.00000000</v>
    <i name="NUPDOWN">     -1.00000000</i>
    <i type="logical" name="LSORBIT"> F  </i>
    <v name="SAXIS">      0.00000000      0.00000000      1.00000000</v>
    <i type="logical" name="LSPIRAL"> F  </i>
    <v name="QSPIRAL">      0.00000000      0.00000000      0.00000000</v>
    <i type="logical" name="LZEROZ"> F  </i>
   </separator>
   <separator name="electronic exchange-correlation" >
    <i type="logical" name="LASPH"> F  </i>
    <i type="logical" name="LMETAGGA"> F  </i>
   </separator>
   <separator name="electronic convergence" >
    <i type="int" name="NELM">    60</i>
    <i type="int" name="NELMDL">    -5</i>
    <i type="int" name="NELMIN">     6</i>
    <i name="ENINI">    360.00000000</i>
    <separator name="electronic convergence detail" >
     <i type="logical" name="LDIAG"> T  </i>
     <i type="logical" name="LSUBROT"> F  </i>
     <i name="WEIMIN">      0.00000000</i>
     <i name="EBREAK">      0.00000000</i>
     <i name="DEPER">      0.30000000</i>
     <i type="int" name="NRMM">     4</i>
     <i name="TIME">      0.40000000</i>
    </separator>
   </separator>
   <separator name="electronic mixer" >
    <i name="AMIX">      0.40000000</i>
    <i name="BMIX">      1.00000000</i>
    <i name="AMIN">      0.10000000</i>
    <i name="AMIX_MAG">      1.60000000</i>
    <i name="BMIX_MAG">      1.00000000</i>
    <separator name="electronic mixer details" >
     <i type="int" name="IMIX">     4</i>
     <i type="logical" name="MIXFIRST"> F  </i>
     <i type="int" name="MAXMIX">   -45</i>
     <i name="WC">    100.00000000</i>
     <i type="int" name="INIMIX">     1</i>
     <i type="int" name="MIXPRE">     1</i>
     <i type="int" name="MREMOVE">     5</i>
    </separator>
   </separator>
   <separator name="electronic dipolcorrection" >
    <i type="logical" name="LDIPOL"> F  </i>
    <i type="logical" name="LMONO"> F  </i>
    <i type="int" name="IDIPOL">     0</i>
    <i name="EPSILON">      1.00000000</i>
    <v name="DIPOL">   -100.00000000   -100.00000000   -100.00000000</v>
    <i name="EFIELD">      0.00000000</i>
   </separator>
  </separator>
  <separator name="grids" >
   <i type="int" name="NGX">    70</i>
   <i type="int" name="NGY">    70</i>
   <i type="int" name="NGZ">    70</i>
   <i type="int" name="NGXF">   140</i>
   <i type="int" name="NGYF">   140</i>
   <i type="int" name="NGZF">   140</i>
   <i type="logical" name="ADDGRID"> F  </i>
  </separator>
  <separator name="ionic" >
   <i type="int" name="NSW">     0</i>
   <i type="int" name="IBRION">    -1</i>
   <i type="int" name="MDALGO">     0</i>
   <i type="int" name="ISIF">     2</i>
   <i name="PSTRESS">      0.00000000</i>
   <i name="EDIFFG">      0.00000100</i>
   <i type="int" name="NFREE">     0</i>
   <i name="POTIM">      0.50000000</i>
   <i name="SMASS">     -3.00000000</i>
   <i name="SCALEE">      1.00000000</i>
  </separator>
  <separator name="ionic md" >
   <i name="TEBEG">      0.00010000</i>
   <i name="TEEND">      0.00010000</i>
   <i type="int" name="NBLOCK">     1</i>
   <i type="int" name="KBLOCK">     1</i>
   <i type="int" name="NPACO">   256</i>
   <i name="APACO">     10.00000000</i>
  </separator>
  <separator name="symmetry" >
   <i type="int" name="ISYM">     2</i>
   <i name="SYMPREC">      0.00001000</i>
  </separator>
  <separator name="dos" >
   <i type="int" name="LORBIT">     0</i>
   <v name="RWIGS">     -1.00000000</v>
   <i type="int" name="NEDOS">   301</i>
   <i name="EMIN">     10.00000000</i>
   <i name="EMAX">    -10.00000000</i>
   <i name="EFERMI">      0.00000000</i>
  </separator>
  <separator name="writing" >
   <i type="int" name="NWRITE">     2</i>
   <i type="logical" name="LWAVE"> F  </i>
   <i type="logical" name="LDOWNSAMPLE"> F  </i>
   <i type="logical" name="LCHARG"> F  </i>
   <i type="logical" name="LPARD"> F  </i>
   <i type="logical" name="LVTOT"> F  </i>
   <i type="logical" name="LVHAR"> F  </i>
   <i type="logical" name="LELF"> F  </i>
   <i type="logical" name="LOPTICS"> F  </i>
   <v name="STM">      0.00000000      0.00000000      0.00000000      0.00000000      0.00000000      0.00000000      0.00000000</v>
  </separator>
  <separator name="performance" >
   <i type="int" name="NPAR">     6</i>
   <i type="int" name="NSIM">     4</i>
   <i type="int" name="NBLK">    -1</i>
   <i type="logical" name="LPLANE"> T  </i>
   <i type="logical" name="LSCALAPACK"> T  </i>
   <i type="logical" name="LSCAAWARE"> F  </i>
   <i type="logical" name="LSCALU"> F  </i>
   <i type="logical" name="LASYNC"> F  </i>
   <i type="logical" name="LORBITALREAL"> F  </i>
  </separator>
  <separator name="miscellaneous" >
   <i type="int" name="IDIOT">     3</i>
   <i type="int" name="PHON_NSTRUCT">    -1</i>
   <i type="logical" name="LMUSIC"> F  </i>
   <v name="POMASS">     16.00000000</v>
   <v name="DARWINR">      0.00000000</v>
   <v name="DARWINV">      1.00000000</v>
   <i type="logical" name="LCORR"> T  </i>
  </separator>
  <i type="logical" name="GGA_COMPAT"> T  </i>
  <i type="logical" name="LBERRY"> F  </i>
  <i type="int" name="ICORELEVEL">     0</i>
  <i type="logical" name="LDAU"> F  </i>
  <i type="int" name="I_CONSTRAINED_M">     0</i>
  <separator name="electronic exchange-correlation" >
   <i type="string" name="GGA">--</i>
   <i type="int" name="VOSKOWN">     0</i>
   <i type="logical" name="LHFCALC"> F  </i>
   <i type="string" name="PRECFOCK"></i>
   <i type="logical" name="LSYMGRAD"> F  </i>
   <i type="logical" name="LHFONE"> F  </i>
   <i type="logical" name="LRHFCALC"> F  </i>
   <i type="logical" name="LTHOMAS"> F  </i>
   <i type="logical" name="LMODELHF"> F  </i>
   <i type="logical" name="LFOCKACE"> F  </i>
   <i name="ENCUT4O">     -1.00000000</i>
   <i type="int" name="EXXOEP">     0</i>
   <i type="int" name="FOURORBIT">     0</i>
   <i name="AEXX">      0.00000000</i>
   <i name="HFALPHA">      0.00000000</i>
   <i name="MCALPHA">      0.00000000</i>
   <i name="ALDAX">      1.00000000</i>
   <i name="AGGAX">      1.00000000</i>
   <i name="ALDAC">      1.00000000</i>
   <i name="AGGAC">      1.00000000</i>
   <i type="int" name="NKREDX">     1</i>
   <i type="int" name="NKREDY">     1</i>
   <i type="int" name="NKREDZ">     1</i>
   <i type="logical" name="SHIFTRED"> F  </i>
   <i type="logical" name="ODDONLY"> F  </i>
   <i type="logical" name="EVENONLY"> F  </i>
   <i type="int" name="LMAXFOCK">     0</i>
   <i type="int" name="NMAXFOCKAE">     0</i>
   <i type="logical" name="LFOCKAEDFT"> F  </i>
   <i name="HFSCREEN">      0.00000000</i>
   <i name="HFSCREENC">      0.00000000</i>
   <i type="int" name="NBANDSGWLOW">     0</i>
  </separator>
  <separator name="vdW DFT" >
   <i type="logical" name="LUSE_VDW"> F  </i>
   <i name="Zab_VDW">     -0.84910000</i>
   <i name="PARAM1">      0.12340000</i>
   <i name="PARAM2">      1.00000000</i>
   <i name="PARAM3">      0.00000000</i>
  </separator>
  <separator name="model GW" >
   <i type="int" name="MODEL_GW">     0</i>
   <i name="MODEL_EPS0">    457.29375000</i>
   <i name="MODEL_ALPHA">      1.00000000</i>
  </separator>
  <separator name="linear response parameters" >
   <i type="logical" name="LEPSILON"> F  </i>
   <i type="logical" name="LRPA"> F  </i>
   <i type="logical" name="LNABLA"> F  </i>
   <i type="logical" name="LVEL"> F  </i>
   <i name="CSHIFT">      0.10000000</i>
   <i name="OMEGAMAX">     -1.00000000</i>
   <i name="DEG_THRESHOLD">      0.00200000</i>
   <i name="RTIME">     -0.10000000</i>
   <i name="WPLASMAI">      0.00000000</i>
   <v name="DFIELD">      0.00000000      0.00000000      0.00000000</v>
   <v name="WPLASMA">      0.00000000      0.00000000      0.00000000      0.00000000      0.00000000      0.00000000      0.00000000      0.00000000      0.00000000</v>
  </separator>
  <separator name="orbital magnetization" >
   <i type="logical" name="NUCIND"> F  </i>
   <v name="MAGPOS">      0.00000000      0.00000000      0.00000000</v>
   <i type="logical" name="LNICSALL"> T  </i>
   <i type="logical" name="ORBITALMAG"> F  </i>
   <i type="logical" name="LMAGBLOCH"> F  </i>
   <i type="logical" name="LCHIMAG"> F  </i>
   <i type="logical" name="LGAUGE"> T  </i>
   <i type="int" name="MAGATOM">     0</i>
   <v name="MAGDIPOL">      0.00000000      0.00000000      0.00000000</v>
   <v name="AVECCONST">      0.00000000      0.00000000      0.00000000</v>
  </separator>
  <separator name="response functions" >
   <i type="logical" name="LFINITE_TEMPERATURE"> F  </i>
   <i type="logical" name="LADDER"> F  </i>
   <i type="logical" name="LRPAFORCE"> F  </i>
   <i type="logical" name="LFXC"> F  </i>
   <i type="logical" name="LHARTREE"> T  </i>
   <i type="int" name="IBSE">     0</i>
   <v type="int" name="KPOINT">    -1     0     0     0</v>
   <i type="logical" name="LTCTC"> F  </i>
   <i type="logical" name="LTCTE"> F  </i>
   <i type="logical" name="LTETE"> F  </i>
   <i type="logical" name="LTRIPLET"> F  </i>
   <i type="logical" name="LFXCEPS"> F  </i>
   <i type="logical" name="LFXHEG"> F  </i>
   <i type="int" name="NATURALO">     2</i>
   <i type="logical" name="LHOLEGF"> F  </i>
   <i type="logical" name="L2ORDER"> F  </i>
   <i type="logical" name="LDMP1"> F  </i>
   <i type="logical" name="LMP2LT"> F  </i>
   <i type="logical" name="LSMP2LT"> F  </i>
   <i type="logical" name="LGWLF"> F  </i>
   <i name="ENCUTGW">     -2.00000000</i>
   <i name="ENCUTGWSOFT">     -2.00000000</i>
   <i name="ENCUTLF">     -1.00000000</i>
   <i type="logical" name="LESF_SPLINES"> F  </i>
   <i type="int" name="LMAXMP2">    -1</i>
   <i name="SCISSOR">      0.00000000</i>
   <i type="int" name="NOMEGA">     0</i>
   <i type="int" name="NOMEGAR">     0</i>
   <i type="int" name="NBANDSGW">    -1</i>
   <i type="int" name="NBANDSO">    -1</i>
   <i type="int" name="NBANDSV">    -1</i>
   <i type="int" name="NELMGW">     1</i>
   <i type="int" name="NELMHF">     1</i>
   <i type="int" name="DIM">     3</i>
   <i type="int" name="IESPILON">     4</i>
   <i type="int" name="ANTIRES">     0</i>
   <i name="OMEGAMAX">    -30.00000000</i>
   <i name="OMEGAMIN">    -30.00000000</i>
   <i name="OMEGATL">   -200.00000000</i>
   <i type="int" name="OMEGAGRID">     0</i>
   <i name="CSHIFT">     -0.10000000</i>
   <i type="logical" name="LSELFENERGY"> F  </i>
   <i type="logical" name="LSPECTRAL"> F  </i>
   <i type="logical" name="LSPECTRALGW"> F  </i>
   <i type="logical" name="LSINGLES"> F  </i>
   <i type="logical" name="LFERMIGW"> F  </i>
   <i type="logical" name="ODDONLYGW"> F  </i>
   <i type="logical" name="EVENONLYGW"> F  </i>
   <i type="int" name="NKREDLFX">     1</i>
   <i type="int" name="NKREDLFY">     1</i>
   <i type="int" name="NKREDLFZ">     1</i>
   <i type="int" name="MAXMEM">  2800</i>
   <i type="int" name="TELESCOPE">     0</i>
   <i type="int" name="NTAUPAR">    -1</i>
   <i type="int" name="NOMEGAPAR">    -1</i>
   <i name="DAMP_NEWTON">      0.80000001</i>
   <i name="LAMBDA">      1.00000000</i>
  </separator>
  <separator name="External order field" >
   <i name="OFIELD_KAPPA">      0.00000000</i>
   <v name="OFIELD_K">      0.00000000      0.00000000      0.00000000</v>
   <i name="OFIELD_Q6_NEAR">      0.00000000</i>
   <i name="OFIELD_Q6_FAR">      0.00000000</i>
   <i name="OFIELD_A">      0.00000000</i>
  </separator>
  <separator name="optional k-points parameters" >
   <i type="int" name="KPOINTS_OPT_MODE">     1</i>
   <i type="logical" name="LKPOINTS_OPT"> F  </i>
  </separator>
 </parameters>
 <atominfo>
  <atoms>       4 </atoms>
  <types>       1 </types>
  <array name="atoms" >
   <dimension dim="1">ion</dimension>
   <field type="string">element</field>
   <field type="int">atomtype</field>
   <set>
    <rc><c>O </c><c>   1</c></rc>
    <rc><c>O </c><c>   1</c></rc>
    <rc><c>O </c><c>   1</c></rc>
    <rc><c>O </c><c>   1</c></rc>
   </set>
  </array>
  <array name="atomtypes" >
   <dimension dim="1">type</dimension>
   <field type="int">atomspertype</field>
   <field type="string">element</field>
   <field>mass</field>
   <field>valence</field>
   <field type="string">pseudopotential</field>
   <set>
    <rc><c>   4</c><c>O </c><c>     16.00000000</c><c>      6.00000000</c><c>  PAW O_GW 19Mar2012                    </c></rc>
   </set>
  </array>
 </atominfo>
 <structure name="initialpos" >
  <crystal>
   <varray name="basis" >
    <v>      14.50000000       0.00000000       0.00000000 </v>
    <v>       0.00000000      14.50000000       0.00000000 </v>
    <v>       0.00000000       0.00000000      14.50000000 </v>
   </varray>
   <i name="volume">   3048.62500000 </i>
   <varray name="rec_basis" >
    <v>       0.06896552       0.00000000       0.00000000 </v>
    <v>       0.00000000       0.06896552       0.00000000 </v>
    <v>       0.00000000       0.00000000       0.06896552 </v>
   </varray>
  </crystal>
  <varray name="positions" >
   <v>       0.00000000       0.00000000       0.00000000 </v>
   <v>       0.08324138       0.00000000       0.00000000 </v>
   <v>       0.00000000       0.00000000       0.15517241 </v>
   <v>       0.08324138       0.00000000       0.15517241 </v>
  </varray>
 </structure>
 <calculation>
  <scstep>
   <time name="dav">   13.14    6.81</time>
   <time name="total">   17.12    8.86</time>
   <energy>
    <i name="alphaZ">      0.35861207 </i>
    <i name="ewald">    923.78644852 </i>
    <i name="hartreedc">  -2377.46136238 </i>
    <i name="XCdc">    102.78252719 </i>
    <i name="pawpsdc">   1396.60603497 </i>
    <i name="pawaedc">  -1393.39258355 </i>
    <i name="eentropy">     -0.00000000 </i>
    <i name="bandstr">   -210.82772969 </i>
    <i name="atom">   1727.95004229 </i>
    <i name="e_fr_energy">    169.80198942 </i>
    <i name="e_wo_entrp">    169.80198942 </i>
    <i name="e_0_energy">    169.80198942 </i>
   </energy>
  </scstep>
  <scstep>
   <time name="dav">   14.27    6.92</time>
   <time name="total">   14.27    6.92</time>
   <energy>
    <i name="e_fr_energy">     29.97930516 </i>
    <i name="e_wo_entrp">     30.00472474 </i>
    <i name="e_0_energy">     29.99201495 </i>
   </energy>
  </scstep>
  <scstep>
   <time name="dav">   11.12    5.54</time>
   <time name="total">   11.12    5.54</time>
   <energy>
    <i name="e_fr_energy">     -4.53390045 </i>
    <i name="e_wo_entrp">     -4.53390045 </i>
    <i name="e_0_energy">     -4.53390045 </i>
   </energy>
  </scstep>
  <scstep>
   <time name="dav">   13.71    6.72</time>
   <time name="total">   13.71    6.72</time>
   <energy>
    <i name="e_fr_energy">    -18.38281217 </i>
    <i name="e_wo_entrp">    -18.38281217 </i>
    <i name="e_0_energy">    -18.38281217 </i>
   </energy>
  </scstep>
  <scstep>
   <time name="dav">   10.18    5.10</time>
   <time name="total">   11.95    5.94</time>
   <energy>
    <i name="e_fr_energy">    -18.78481931 </i>
    <i name="e_wo_entrp">    -18.78481931 </i>
    <i name="e_0_energy">    -18.78481931 </i>
   </energy>
  </scstep>
  <scstep>
   <time name="dav">   10.54    5.04</time>
   <time name="total">   16.05    7.81</time>
   <energy>
    <i name="e_fr_energy">    -18.35413174 </i>
    <i name="e_wo_entrp">    -18.35413174 </i>
    <i name="e_0_energy">    -18.35413174 </i>
   </energy>
  </scstep>
  <scstep>
   <time name="dav">    9.56    4.98</time>
   <time name="total">   14.95    7.82</time>
   <energy>
    <i name="e_fr_energy">    -18.35589632 </i>
    <i name="e_wo_entrp">    -18.35589632 </i>
    <i name="e_0_energy">    -18.35589632 </i>
   </energy>
  </scstep>
  <scstep>
   <time name="dav">    8.20    4.47</time>
   <time name="total">   13.70    7.46</time>
   <energy>
    <i name="e_fr_energy">    -18.34427771 </i>
    <i name="e_wo_entrp">    -18.34427771 </i>
    <i name="e_0_energy">    -18.34427771 </i>
   </energy>
  </scstep>
  <scstep>
   <time name="dav">   15.74    7.97</time>
   <time name="total">   21.44   10.99</time>
   <energy>
    <i name="e_fr_energy">    -18.34478106 </i>
    <i name="e_wo_entrp">    -18.34478106 </i>
    <i name="e_0_energy">    -18.34478106 </i>
   </energy>
  </scstep>
  <scstep>
   <time name="dav">   10.51    5.54</time>
   <time name="total">   16.04    8.46</time>
   <energy>
    <i name="e_fr_energy">    -18.34508731 </i>
    <i name="e_wo_entrp">    -18.34508731 </i>
    <i name="e_0_energy">    -18.34508731 </i>
   </energy>
  </scstep>
  <scstep>
   <time name="dav">   10.84    5.31</time>
   <time name="total">   16.77    8.34</time>
   <energy>
    <i name="e_fr_energy">    -18.34523933 </i>
    <i name="e_wo_entrp">    -18.34523933 </i>
    <i name="e_0_energy">    -18.34523933 </i>
   </energy>
  </scstep>
  <scstep>
   <time name="dav">   13.55    6.65</time>
   <time name="total">   19.14    9.51</time>
   <energy>
    <i name="e_fr_energy">    -18.34551425 </i>
    <i name="e_wo_entrp">    -18.34551425 </i>
    <i name="e_0_energy">    -18.34551425 </i>
   </energy>
  </scstep>
  <scstep>
   <time name="dav">   14.06    6.90</time>
   <time name="total">   20.26    9.96</time>
   <energy>
    <i name="e_fr_energy">    -18.34575878 </i>
    <i name="e_wo_entrp">    -18.34575878 </i>
    <i name="e_0_energy">    -18.34575878 </i>
   </energy>
  </scstep>
  <scstep>
   <time name="dav">   11.71    5.98</time>
   <time name="total">   17.56    8.94</time>
   <energy>
    <i name="e_fr_energy">    -18.34592562 </i>
    <i name="e_wo_entrp">    -18.34592562 </i>
    <i name="e_0_energy">    -18.34592562 </i>
   </energy>
  </scstep>
  <scstep>
   <time name="dav">   13.50    6.77</time>
   <time name="total">   18.79    9.75</time>
   <energy>
    <i name="e_fr_energy">    -18.34602668 </i>
    <i name="e_wo_entrp">    -18.34602668 </i>
    <i name="e_0_energy">    -18.34602668 </i>
   </energy>
  </scstep>
  <scstep>
   <time name="dav">   10.80    5.91</time>
   <time name="total">   16.51    8.83</time>
   <energy>
    <i name="e_fr_energy">    -18.34607293 </i>
    <i name="e_wo_entrp">    -18.34607293 </i>
    <i name="e_0_energy">    -18.34607293 </i>
   </energy>
  </scstep>
  <scstep>
   <time name="dav">   11.74    6.15</time>
   <time name="total">   18.04    9.26</time>
   <energy>
    <i name="e_fr_energy">    -18.34610737 </i>
    <i name="e_wo_entrp">    -18.34610737 </i>
    <i name="e_0_energy">    -18.34610737 </i>
   </energy>
  </scstep>
  <scstep>
   <time name="dav">    8.69    4.23</time>
   <time name="total">   14.53    7.45</time>
   <energy>
    <i name="e_fr_energy">    -18.34611303 </i>
    <i name="e_wo_entrp">    -18.34611303 </i>
    <i name="e_0_energy">    -18.34611303 </i>
   </energy>
  </scstep>
  <scstep>
   <time name="dav">    9.33    4.68</time>
   <time name="total">   15.18    7.86</time>
   <energy>
    <i name="e_fr_energy">    -18.34611745 </i>
    <i name="e_wo_entrp">    -18.34611745 </i>
    <i name="e_0_energy">    -18.34611745 </i>
   </energy>
  </scstep>
  <scstep>
   <time name="dav">    9.41    4.82</time>
   <time name="total">   12.99    6.73</time>
   <energy>
    <i name="alphaZ">      0.35861207 </i>
    <i name="ewald">    923.78644852 </i>
    <i name="hartreedc">  -2385.58964655 </i>
    <i name="XCdc">    103.70253135 </i>
    <i name="pawpsdc">   4510.31428610 </i>
    <i name="pawaedc">  -4507.51941123 </i>
    <i name="eentropy">     -0.00000000 </i>
    <i name="bandstr">   -391.34898008 </i>
    <i name="atom">   1727.95004229 </i>
    <i name="e_fr_energy">    -18.34611753 </i>
    <i name="e_wo_entrp">    -18.34611753 </i>
    <i name="e_0_energy">    -18.34611753 </i>
   </energy>
  </scstep>
  <structure>
   <crystal>
    <varray name="basis" >
     <v>      14.50000000       0.00000000       0.00000000 </v>
     <v>       0.00000000      14.50000000       0.00000000 </v>
     <v>       0.00000000       0.00000000      14.50000000 </v>
    </varray>
    <i name="volume">   3048.62500000 </i>
    <varray name="rec_basis" >
     <v>       0.06896552       0.00000000       0.00000000 </v>
     <v>       0.00000000       0.06896552       0.00000000 </v>
     <v>       0.00000000       0.00000000       0.06896552 </v>
    </varray>
   </crystal>
   <varray name="positions" >
    <v>       0.00000000       0.00000000       0.00000000 </v>
    <v>       0.08324138       0.00000000       0.00000000 </v>
    <v>       0.00000000       0.00000000       0.15517241 </v>
    <v>       0.08324138       0.00000000       0.15517241 </v>
   </varray>
  </structure>
  <varray name="forces" >
   <v>      -3.60601596       0.00000000       0.98156533 </v>
   <v>       3.60601596       0.00000000       0.98156533 </v>
   <v>      -3.60601596       0.00000000      -0.98156533 </v>
   <v>       3.60601596       0.00000000      -0.98156533 </v>
  </varray>
  <varray name="stress" >
   <v>      -3.55862693      -0.00000000      -0.00000000 </v>
   <v>       0.00000000      -7.44145872       0.00000000 </v>
   <v>       0.00000000       0.00000000      -9.81504607 </v>
  </varray>
  <energy>
   <i name="e_fr_energy">    -18.38671321 </i>
   <i name="e_wo_entrp">    -18.38671321 </i>
   <i name="e_0_energy">    -18.38671321 </i>
  </energy>
  <time name="totalsc">  336.01  171.85</time>
  <eigenvalues>
   <array>
    <dimension dim="1">band</dimension>
    <dimension dim="2">kpoint</dimension>
    <dimension dim="3">spin</dimension>
    <field>eigene</field>
    <field>occ</field>
    <set>
     <set comment="spin 1">
      <set comment="kpoint 1">
       <r>  -32.9998    1.0000 </r>
       <r>  -32.4639    1.0000 </r>
       <r>  -20.2873    1.0000 </r>
       <r>  -19.5375    1.0000 </r>
       <r>  -14.1609    1.0000 </r>
       <r>  -13.2711    1.0000 </r>
       <r>  -13.1253    1.0000 </r>
       <r>  -12.9843    1.0000 </r>
       <r>  -12.5577    1.0000 </r>
       <r>  -11.4343    1.0000 </r>
       <r>   -6.7499    1.0000 </r>
       <r>   -6.1025    1.0000 </r>
       <r>   -5.6181    0.0000 </r>
       <r>   -4.7957    0.0000 </r>
       <r>   -0.2472    0.0000 </r>
       <r>    0.3513    0.0000 </r>
       <r>    0.4061    0.0000 </r>
       <r>    0.4483    0.0000 </r>
      </set>
     </set>
    </set>
   </array>
  </eigenvalues>
  <separator name="orbital magnetization" >
   <v name="MAGDIPOLOUT">      0.00000000      0.00000000      0.00000000</v>
  </separator>
  <dos>
   <i name="efermi">     -5.86261044 </i>
   <total>
    <array>
     <dimension dim="1">gridpoints</dimension>
     <dimension dim="2">spin</dimension>
     <field>energy</field>
     <field>total</field>
     <field>integrated</field>
     <set>
      <set comment="spin 1">
       <r>   -34.6722     0.0000     0.0000 </r>
       <r>   -34.5496     0.0000     0.0000 </r>
       <r>   -34.4269     0.0000     0.0000 </r>
       <r>   -34.3043     0.0000     0.0000 </r>
       <r>   -34.1817     0.0000     0.0000 </r>
       <r>   -34.0590     0.0000     0.0000 </r>
       <r>   -33.9364     0.0000     0.0000 </r>
       <r>   -33.8137     0.0000     0.0000 </r>
       <r>   -33.6911     0.0000     0.0000 </r>
       <r>   -33.5684     0.0000     0.0000 </r>
       <r>   -33.4458     0.0000     0.0000 </r>
       <r>   -33.3232     0.0000     0.0000 </r>
       <r>   -33.2005     0.0000     0.0000 </r>
       <r>   -33.0779     0.2224     0.0273 </r>
       <r>   -32.9552    14.3959     1.7928 </r>
       <r>   -32.8326     1.6891     2.0000 </r>
       <r>   -32.7099     0.0000     2.0000 </r>
       <r>   -32.5873     0.0039     2.0005 </r>
       <r>   -32.4647     8.0139     2.9833 </r>
       <r>   -32.3420     8.2851     3.9994 </r>
       <r>   -32.2194     0.0046     4.0000 </r>
       <r>   -32.0967     0.0000     4.0000 </r>
       <r>   -31.9741     0.0000     4.0000 </r>
       <r>   -31.8514     0.0000     4.0000 </r>
       <r>   -31.7288     0.0000     4.0000 </r>
       <r>   -31.6062     0.0000     4.0000 </r>
       <r>   -31.4835     0.0000     4.0000 </r>
       <r>   -31.3609     0.0000     4.0000 </r>
       <r>   -31.2382     0.0000     4.0000 </r>
       <r>   -31.1156     0.0000     4.0000 </r>
       <r>   -30.9929     0.0000     4.0000 </r>
       <r>   -30.8703     0.0000     4.0000 </r>
       <r>   -30.7477     0.0000     4.0000 </r>
       <r>   -30.6250     0.0000     4.0000 </r>
       <r>   -30.5024     0.0000     4.0000 </r>
       <r>   -30.3797     0.0000     4.0000 </r>
       <r>   -30.2571     0.0000     4.0000 </r>
       <r>   -30.1344     0.0000     4.0000 </r>
       <r>   -30.0118     0.0000     4.0000 </r>
       <r>   -29.8891     0.0000     4.0000 </r>
       <r>   -29.7665     0.0000     4.0000 </r>
       <r>   -29.6439     0.0000     4.0000 </r>
       <r>   -29.5212     0.0000     4.0000 </r>
       <r>   -29.3986     0.0000     4.0000 </r>
       <r>   -29.2759     0.0000     4.0000 </r>
       <r>   -29.1533     0.0000     4.0000 </r>
       <r>   -29.0306     0.0000     4.0000 </r>
       <r>   -28.9080     0.0000     4.0000 </r>
       <r>   -28.7854     0.0000     4.0000 </r>
       <r>   -28.6627     0.0000     4.0000 </r>
       <r>   -28.5401     0.0000     4.0000 </r>
       <r>   -28.4174     0.0000     4.0000 </r>
       <r>   -28.2948     0.0000     4.0000 </r>
       <r>   -28.1721     0.0000     4.0000 </r>
       <r>   -28.0495     0.0000     4.0000 </r>
       <r>   -27.9269     0.0000     4.0000 </r>
       <r>   -27.8042     0.0000     4.0000 </r>
       <r>   -27.6816     0.0000     4.0000 </r>
       <r>   -27.5589     0.0000     4.0000 </r>
       <r>   -27.4363     0.0000     4.0000 </r>
       <r>   -27.3136     0.0000     4.0000 </r>
       <r>   -27.1910     0.0000     4.0000 </r>
       <r>   -27.0684     0.0000     4.0000 </r>
       <r>   -26.9457     0.0000     4.0000 </r>
       <r>   -26.8231     0.0000     4.0000 </r>
       <r>   -26.7004     0.0000     4.0000 </r>
       <r>   -26.5778     0.0000     4.0000 </r>
       <r>   -26.4551     0.0000     4.0000 </r>
       <r>   -26.3325     0.0000     4.0000 </r>
       <r>   -26.2099     0.0000     4.0000 </r>
       <r>   -26.0872     0.0000     4.0000 </r>
       <r>   -25.9646     0.0000     4.0000 </r>
       <r>   -25.8419     0.0000     4.0000 </r>
       <r>   -25.7193     0.0000     4.0000 </r>
       <r>   -25.5966     0.0000     4.0000 </r>
       <r>   -25.4740     0.0000     4.0000 </r>
       <r>   -25.3514     0.0000     4.0000 </r>
       <r>   -25.2287     0.0000     4.0000 </r>
       <r>   -25.1061     0.0000     4.0000 </r>
       <r>   -24.9834     0.0000     4.0000 </r>
       <r>   -24.8608     0.0000     4.0000 </r>
       <r>   -24.7381     0.0000     4.0000 </r>
       <r>   -24.6155     0.0000     4.0000 </r>
       <r>   -24.4929     0.0000     4.0000 </r>
       <r>   -24.3702     0.0000     4.0000 </r>
       <r>   -24.2476     0.0000     4.0000 </r>
       <r>   -24.1249     0.0000     4.0000 </r>
       <r>   -24.0023     0.0000     4.0000 </r>
       <r>   -23.8796     0.0000     4.0000 </r>
       <r>   -23.7570     0.0000     4.0000 </r>
       <r>   -23.6344     0.0000     4.0000 </r>
       <r>   -23.5117     0.0000     4.0000 </r>
       <r>   -23.3891     0.0000     4.0000 </r>
       <r>   -23.2664     0.0000     4.0000 </r>
       <r>   -23.1438     0.0000     4.0000 </r>
       <r>   -23.0211     0.0000     4.0000 </r>
       <r>   -22.8985     0.0000     4.0000 </r>
       <r>   -22.7759     0.0000     4.0000 </r>
       <r>   -22.6532     0.0000     4.0000 </r>
       <r>   -22.5306     0.0000     4.0000 </r>
       <r>   -22.4079     0.0000     4.0000 </r>
       <r>   -22.2853     0.0000     4.0000 </r>
       <r>   -22.1626     0.0000     4.0000 </r>
       <r>   -22.0400     0.0000     4.0000 </r>
       <r>   -21.9174     0.0000     4.0000 </r>
       <r>   -21.7947     0.0000     4.0000 </r>
       <r>   -21.6721     0.0000     4.0000 </r>
       <r>   -21.5494     0.0000     4.0000 </r>
       <r>   -21.4268     0.0000     4.0000 </r>
       <r>   -21.3041     0.0000     4.0000 </r>
       <r>   -21.1815     0.0000     4.0000 </r>
       <r>   -21.0589     0.0000     4.0000 </r>
       <r>   -20.9362     0.0000     4.0000 </r>
       <r>   -20.8136     0.0000     4.0000 </r>
       <r>   -20.6909     0.0000     4.0000 </r>
       <r>   -20.5683     0.0000     4.0000 </r>
       <r>   -20.4456     0.0001     4.0000 </r>
       <r>   -20.3230     2.5462     4.3123 </r>
       <r>   -20.2003    13.6475     5.9860 </r>
       <r>   -20.0777     0.1138     6.0000 </r>
       <r>   -19.9551     0.0000     6.0000 </r>
       <r>   -19.8324     0.0000     6.0000 </r>
       <r>   -19.7098     0.0000     6.0000 </r>
       <r>   -19.5871     1.3062     6.1602 </r>
       <r>   -19.4645    14.6835     7.9610 </r>
       <r>   -19.3418     0.3178     8.0000 </r>
       <r>   -19.2192     0.0000     8.0000 </r>
       <r>   -19.0966     0.0000     8.0000 </r>
       <r>   -18.9739     0.0000     8.0000 </r>
       <r>   -18.8513     0.0000     8.0000 </r>
       <r>   -18.7286     0.0000     8.0000 </r>
       <r>   -18.6060     0.0000     8.0000 </r>
       <r>   -18.4833     0.0000     8.0000 </r>
       <r>   -18.3607     0.0000     8.0000 </r>
       <r>   -18.2381     0.0000     8.0000 </r>
       <r>   -18.1154     0.0000     8.0000 </r>
       <r>   -17.9928     0.0000     8.0000 </r>
       <r>   -17.8701     0.0000     8.0000 </r>
       <r>   -17.7475     0.0000     8.0000 </r>
       <r>   -17.6248     0.0000     8.0000 </r>
       <r>   -17.5022     0.0000     8.0000 </r>
       <r>   -17.3796     0.0000     8.0000 </r>
       <r>   -17.2569     0.0000     8.0000 </r>
       <r>   -17.1343     0.0000     8.0000 </r>
       <r>   -17.0116     0.0000     8.0000 </r>
       <r>   -16.8890     0.0000     8.0000 </r>
       <r>   -16.7663     0.0000     8.0000 </r>
       <r>   -16.6437     0.0000     8.0000 </r>
       <r>   -16.5211     0.0000     8.0000 </r>
       <r>   -16.3984     0.0000     8.0000 </r>
       <r>   -16.2758     0.0000     8.0000 </r>
       <r>   -16.1531     0.0000     8.0000 </r>
       <r>   -16.0305     0.0000     8.0000 </r>
       <r>   -15.9078     0.0000     8.0000 </r>
       <r>   -15.7852     0.0000     8.0000 </r>
       <r>   -15.6626     0.0000     8.0000 </r>
       <r>   -15.5399     0.0000     8.0000 </r>
       <r>   -15.4173     0.0000     8.0000 </r>
       <r>   -15.2946     0.0000     8.0000 </r>
       <r>   -15.1720     0.0000     8.0000 </r>
       <r>   -15.0493     0.0000     8.0000 </r>
       <r>   -14.9267     0.0000     8.0000 </r>
       <r>   -14.8041     0.0000     8.0000 </r>
       <r>   -14.6814     0.0000     8.0000 </r>
       <r>   -14.5588     0.0000     8.0000 </r>
       <r>   -14.4361     0.0000     8.0000 </r>
       <r>   -14.3135     0.0001     8.0000 </r>
       <r>   -14.1908     3.2340     8.3966 </r>
       <r>   -14.0682    13.0019     9.9912 </r>
       <r>   -13.9456     0.0714    10.0000 </r>
       <r>   -13.8229     0.0000    10.0000 </r>
       <r>   -13.7003     0.0000    10.0000 </r>
       <r>   -13.5776     0.0000    10.0000 </r>
       <r>   -13.4550     0.0000    10.0000 </r>
       <r>   -13.3323     0.6785    10.0832 </r>
       <r>   -13.2097    15.0950    11.9345 </r>
       <r>   -13.0871    14.5936    13.7243 </r>
       <r>   -12.9644    13.8840    15.4271 </r>
       <r>   -12.8418     4.6710    15.9999 </r>
       <r>   -12.7191     0.0005    16.0000 </r>
       <r>   -12.5965     2.2209    16.2724 </r>
       <r>   -12.4738    13.9420    17.9823 </r>
       <r>   -12.3512     0.1445    18.0000 </r>
       <r>   -12.2286     0.0000    18.0000 </r>
       <r>   -12.1059     0.0000    18.0000 </r>
       <r>   -11.9833     0.0000    18.0000 </r>
       <r>   -11.8606     0.0000    18.0000 </r>
       <r>   -11.7380     0.0000    18.0000 </r>
       <r>   -11.6153     0.0000    18.0000 </r>
       <r>   -11.4927     0.8047    18.0987 </r>
       <r>   -11.3700    14.9392    19.9309 </r>
       <r>   -11.2474     0.5636    20.0000 </r>
       <r>   -11.1248     0.0000    20.0000 </r>
       <r>   -11.0021     0.0000    20.0000 </r>
       <r>   -10.8795     0.0000    20.0000 </r>
       <r>   -10.7568     0.0000    20.0000 </r>
       <r>   -10.6342     0.0000    20.0000 </r>
       <r>   -10.5115     0.0000    20.0000 </r>
       <r>   -10.3889     0.0000    20.0000 </r>
       <r>   -10.2663     0.0000    20.0000 </r>
       <r>   -10.1436     0.0000    20.0000 </r>
       <r>   -10.0210     0.0000    20.0000 </r>
       <r>    -9.8983     0.0000    20.0000 </r>
       <r>    -9.7757     0.0000    20.0000 </r>
       <r>    -9.6530     0.0000    20.0000 </r>
       <r>    -9.5304     0.0000    20.0000 </r>
       <r>    -9.4078     0.0000    20.0000 </r>
       <r>    -9.2851     0.0000    20.0000 </r>
       <r>    -9.1625     0.0000    20.0000 </r>
       <r>    -9.0398     0.0000    20.0000 </r>
       <r>    -8.9172     0.0000    20.0000 </r>
       <r>    -8.7945     0.0000    20.0000 </r>
       <r>    -8.6719     0.0000    20.0000 </r>
       <r>    -8.5493     0.0000    20.0000 </r>
       <r>    -8.4266     0.0000    20.0000 </r>
       <r>    -8.3040     0.0000    20.0000 </r>
       <r>    -8.1813     0.0000    20.0000 </r>
       <r>    -8.0587     0.0000    20.0000 </r>
       <r>    -7.9360     0.0000    20.0000 </r>
       <r>    -7.8134     0.0000    20.0000 </r>
       <r>    -7.6908     0.0000    20.0000 </r>
       <r>    -7.5681     0.0000    20.0000 </r>
       <r>    -7.4455     0.0000    20.0000 </r>
       <r>    -7.3228     0.0000    20.0000 </r>
       <r>    -7.2002     0.0000    20.0000 </r>
       <r>    -7.0775     0.0000    20.0000 </r>
       <r>    -6.9549     0.0000    20.0000 </r>
       <r>    -6.8323     0.1621    20.0199 </r>
       <r>    -6.7096    14.0727    21.7458 </r>
       <r>    -6.5870     2.0726    22.0000 </r>
       <r>    -6.4643     0.0000    22.0000 </r>
       <r>    -6.3417     0.0000    22.0000 </r>
       <r>    -6.2190     0.0080    22.0010 </r>
       <r>    -6.0964     9.2612    23.1368 </r>
       <r>    -5.9738     7.0361    23.9997 </r>
       <r>    -5.8511     0.0022    24.0000 </r>
       <r>    -5.7285     0.0147    24.0018 </r>
       <r>    -5.6058    10.3589    25.2722 </r>
       <r>    -5.4832     5.9328    25.9999 </r>
       <r>    -5.3605     0.0011    26.0000 </r>
       <r>    -5.2379     0.0000    26.0000 </r>
       <r>    -5.1153     0.0000    26.0000 </r>
       <r>    -4.9926     0.0000    26.0000 </r>
       <r>    -4.8700     0.2899    26.0356 </r>
       <r>    -4.7473    14.6179    27.8283 </r>
       <r>    -4.6247     1.3997    28.0000 </r>
       <r>    -4.5020     0.0000    28.0000 </r>
       <r>    -4.3794     0.0000    28.0000 </r>
       <r>    -4.2568     0.0000    28.0000 </r>
       <r>    -4.1341     0.0000    28.0000 </r>
       <r>    -4.0115     0.0000    28.0000 </r>
       <r>    -3.8888     0.0000    28.0000 </r>
       <r>    -3.7662     0.0000    28.0000 </r>
       <r>    -3.6435     0.0000    28.0000 </r>
       <r>    -3.5209     0.0000    28.0000 </r>
       <r>    -3.3983     0.0000    28.0000 </r>
       <r>    -3.2756     0.0000    28.0000 </r>
       <r>    -3.1530     0.0000    28.0000 </r>
       <r>    -3.0303     0.0000    28.0000 </r>
       <r>    -2.9077     0.0000    28.0000 </r>
       <r>    -2.7850     0.0000    28.0000 </r>
       <r>    -2.6624     0.0000    28.0000 </r>
       <r>    -2.5398     0.0000    28.0000 </r>
       <r>    -2.4171     0.0000    28.0000 </r>
       <r>    -2.2945     0.0000    28.0000 </r>
       <r>    -2.1718     0.0000    28.0000 </r>
       <r>    -2.0492     0.0000    28.0000 </r>
       <r>    -1.9265     0.0000    28.0000 </r>
       <r>    -1.8039     0.0000    28.0000 </r>
       <r>    -1.6812     0.0000    28.0000 </r>
       <r>    -1.5586     0.0000    28.0000 </r>
       <r>    -1.4360     0.0000    28.0000 </r>
       <r>    -1.3133     0.0000    28.0000 </r>
       <r>    -1.1907     0.0000    28.0000 </r>
       <r>    -1.0680     0.0000    28.0000 </r>
       <r>    -0.9454     0.0000    28.0000 </r>
       <r>    -0.8227     0.0000    28.0000 </r>
       <r>    -0.7001     0.0000    28.0000 </r>
       <r>    -0.5775     0.0000    28.0000 </r>
       <r>    -0.4548     0.0000    28.0000 </r>
       <r>    -0.3322     0.1323    28.0162 </r>
       <r>    -0.2095    13.8367    29.7132 </r>
       <r>    -0.0869     2.3384    30.0000 </r>
       <r>     0.0358     0.0000    30.0000 </r>
       <r>     0.1584     0.0000    30.0000 </r>
       <r>     0.2810     0.3866    30.0474 </r>
       <r>     0.4037    24.1873    33.0138 </r>
       <r>     0.5263    24.1206    35.9720 </r>
       <r>     0.6490     0.2280    36.0000 </r>
       <r>     0.7716     0.0000    36.0000 </r>
       <r>     0.8943     0.0000    36.0000 </r>
       <r>     1.0169     0.0000    36.0000 </r>
       <r>     1.1395     0.0000    36.0000 </r>
       <r>     1.2622     0.0000    36.0000 </r>
       <r>     1.3848     0.0000    36.0000 </r>
       <r>     1.5075     0.0000    36.0000 </r>
       <r>     1.6301     0.0000    36.0000 </r>
       <r>     1.7528     0.0000    36.0000 </r>
       <r>     1.8754     0.0000    36.0000 </r>
       <r>     1.9980     0.0000    36.0000 </r>
       <r>     2.1207     0.0000    36.0000 </r>
      </set>
     </set>
    </array>
   </total>
  </dos>
 </calculation>
 <structure name="finalpos" >
  <crystal>
   <varray name="basis" >
    <v>      14.50000000       0.00000000       0.00000000 </v>
    <v>       0.00000000      14.50000000       0.00000000 </v>
    <v>       0.00000000       0.00000000      14.50000000 </v>
   </varray>
   <i name="volume">   3048.62500000 </i>
   <varray name="rec_basis" >
    <v>       0.06896552       0.00000000       0.00000000 </v>
    <v>       0.00000000       0.06896552       0.00000000 </v>
    <v>       0.00000000       0.00000000       0.06896552 </v>
   </varray>
  </crystal>
  <varray name="positions" >
   <v>       0.00000000       0.00000000       0.00000000 </v>
   <v>       0.08324138       0.00000000       0.00000000 </v>
   <v>       0.00000000       0.00000000       0.15517241 </v>
   <v>       0.08324138       0.00000000       0.15517241 </v>
  </varray>
 </structure>
</modeling>
