NiAl                                    
            1
    14.500000    0.000000    0.000000
     0.000000   14.500000    0.000000
     0.000000    0.000000   14.500000
   O 
     4
Direct configuration=     1
   0.00000000  0.00000000  0.00000000
   0.08324138  0.00000000  0.00000000
   0.00000000  0.00000000  0.15517241
   0.08324138  0.00000000  0.15517241
