         262
 Energy:  -1397.8736987000000     
 X   0.00000000       0.00000000       0.00000000    
 X   0.00000000      -15.1462221       0.00000000    
 X   0.00000000      -7.57311106      -13.1170130    
 X   29.0000000       0.00000000       0.00000000    
 X   0.00000000      -22.7193336      -13.1170130    
 X   29.0000000      -15.1462221       0.00000000    
 X   29.0000000      -7.57311106      -13.1170130    
 X   29.0000000      -22.7193336      -13.1170130    
 Ni   15.1728001      -11.3977203      -8.03792000    
 Ni   15.0319004      -12.6774702      -5.79766989    
 Ni   15.0378399      -13.8943796      -3.62962008    
 Ni   15.0374098      -15.1472301      -1.45802999    
 Ni   15.0424099      -16.4127407      -3.64110994    
 Ni   15.0374098      -17.6705894      -5.82861996    
 Ni   15.0360003      -16.4175701      -8.01848030    
 Ni   15.0386200      -15.1496296      -10.2040901    
 Ni   15.0360003      -13.8908100      -12.3949604    
 Ni   15.0398397      -16.4097691      -12.3874998    
 Ni   15.0398397      -18.9314194      -12.3874998    
 Ni   15.0386200      -20.1915493      -10.2040901    
 Ni   15.0360003      -18.9236107      -8.01848030    
 Ni   13.0489502      -17.6705894      -8.74946022    
 Ni   13.0520802      -16.4079208      -10.9305696    
 Ni   11.0452995      -17.6705894      -11.6595697    
 Ni   11.0445404      -18.9349194      -9.47377968    
 Ni   9.03693008      -20.1953297      -10.2019100    
 Ni   9.03806973      -18.9327793      -12.3882904    
 Ni   9.03757954      -21.4567299      -12.3882504    
 Ni   11.0445404      -20.1956997      -11.6575203    
 Ni   13.0520802      -18.9332600      -10.9305696    
 Ni   15.0398397      -17.6705894      -10.2036896    
 Ni   15.0378399      -15.1635199      -5.82781982    
 Ni   13.0529203      -13.8884497      -6.55834007    
 Ni   13.0528698      -15.1493702      -4.37052011    
 Ni   11.0451002      -16.4079704      -5.10184002    
 Ni   11.0435305      -15.1449404      -7.28763008    
 Ni   9.03757954      -16.4085808      -8.01632977    
 Ni   9.03693008      -15.1458502      -10.2019100    
 Ni   7.03727007      -16.4085503      -10.9309196    
 Ni   7.03693008      -17.6705894      -8.74524021    
 Ni   5.03143978      -18.9338093      -9.47255993    
 Ni   5.03037024      -17.6705894      -11.6595697    
 Ni   3.03154993      -18.9330997      -12.3884697    
 Ni   3.03198004      -20.1956291      -10.2017403    
 Ni   3.03183007      -21.4576893      -12.3888502    
 Ni   5.03143978      -20.1961994      -11.6590996    
 Ni   7.03727007      -18.9326401      -10.9309196    
 Ni   9.03806973      -17.6705894      -10.2021198    
 Ni   11.0445404      -16.4062595      -9.47377968    
 Ni   13.0498400      -15.1426001      -8.74473000    
 Ni   11.0455303      -13.8815699      -9.47196960    
 Ni   13.0498400      -13.8822699      -10.9276800    
 Ni   13.0529203      -11.3617296      -10.9347496    
 Ni   15.0319004      -10.0974798      -10.2663403    
 Ni   15.0378399      -8.82835007      -12.4042501    
 Ni   15.0378399      -11.3666096      -12.4042501    
 Ni   15.0398197      -12.6305599      -10.2173204    
 Ni   13.0801601      -12.6093597      -8.73746014    
 Ni   15.0398197      -13.9015598      -8.01589966    
 Ni   9.03806973      -16.4084091      -12.3882904    
 Ni   9.03757954      -13.8844500      -12.3882504    
 Ni   11.0435305      -12.6215601      -11.6582603    
 Ni   11.0569897      -11.3594704      -9.47185040    
 Ni   11.0569897      -8.83549023      -9.47185040    
 Ni   11.0435305      -7.57340002      -11.6582603    
 Ni   13.0498400      -6.31268978      -10.9276800    
 Ni   13.0801601      -7.58559990      -8.73746014    
 Ni   15.1728001      -8.79724026      -8.03792000    
 Ni   15.0398197      -6.29340982      -8.01589966    
 Ni   15.0319004      -7.51749992      -5.79766989    
 Ni   15.0398197      -8.82649040      -3.62846994    
 Ni   15.0386200      -10.0974798      -1.45351005    
 Ni   13.0498400      -11.3578100      -2.18928003    
 Ni   13.0489502      -20.1908207      -13.1146202    
 Ni   11.0434704      -13.8827801     -0.727999985    
 Ni   11.0435305      -12.6208696      -2.91580009    
 Ni   9.03798962      -13.8839302      -3.64384007    
 Ni   9.04360962      -12.6202803      -5.83068991    
 Ni   7.03937006      -13.8829498      -6.55821991    
 Ni   7.04276991      -12.6191998      -8.74314976    
 Ni   5.03308010      -13.8819799      -9.47220993    
 Ni   5.03131008      -12.6205797      -11.6588602    
 Ni   7.03937006      -11.3588696      -10.9300404    
 Ni   9.04360962      -10.0974798      -10.2003098    
 Ni   9.03798008      -8.83543968      -12.3880901    
 Ni   9.03798962      -11.3595304      -12.3880901    
 Ni   11.0460501      -10.0974798      -11.6591101    
 Ni   13.0529203      -8.83323002      -10.9347496    
 Ni   15.0398197      -7.56440020      -10.2173204    
 Ni   9.03757954      -18.9326000      -8.01632977    
 Ni   9.03831005      -17.6705894      -5.83030987    
 Ni   9.03829002      -16.4081497      -3.64375997    
 Ni   9.03831005      -15.1457701      -1.45718002    
 Ni   7.03741980      -13.8832302      -2.18600011    
 Ni   7.03843021      -11.3593903      -2.18741012    
 Ni   7.04276991      -10.0974798      -4.37539005    
 Ni   5.03331995      -11.3595896      -5.10185003    
 Ni   5.03462982      -10.0974798      -7.28723001    
 Ni   3.03389001      -11.3596296      -8.01593018    
 Ni   3.03152990      -12.6215496      -5.82995987    
 Ni   3.03034997      -13.8842402      -3.64339995    
 Ni   5.03131008      -12.6218796      -2.91634011    
 Ni   5.03143978      -11.3598804     -0.730030000    
 Ni   5.03120995      -13.8849897     -0.729269981    
 Ni   7.03693008      -20.1944809      -13.1167297    
 Ni   9.03757954      -12.6216097      -1.45710003    
 Ni   9.03693008      -10.0974798      -1.45787001    
 Ni   11.0445404      -8.83670044     -0.730390012    
 Ni   13.0489502      -15.1503696      -13.1146202    
 Ni   13.0495701      -6.31282997      -2.18214989    
 Ni   13.0528698      -5.04558992      -4.37052011    
 Ni   13.0495701      -18.9302502      -6.56217003    
 Ni   11.0435305      -5.05002022      -7.28763008    
 Ni   11.0460501      -6.31131983      -5.10129023    
 Ni   9.04360962      -7.57467985      -5.83068991    
 Ni   9.04037952      -6.31325006      -8.01496029    
 Ni   7.04276991      -7.57575989      -8.74314976    
 Ni   7.03843021      -6.31186008      -10.9299898    
 Ni   5.03131008      -7.57437992      -11.6588602    
 Ni   5.03331995      -8.83594036      -9.47294044    
 Ni   3.03152990      -10.0974798      -10.2017698    
 Ni   3.03034997      -8.83520985      -12.3885698    
 Ni   3.03034997      -11.3597498      -12.3885698    
 Ni   3.03183007      -13.8834896      -12.3888502    
 Ni   3.03198004      -15.1455603      -10.2017403    
 Ni   3.03183007      -16.4086208      -8.01519966    
 Ni   5.03131008      -15.1449804      -7.28647995    
 Ni   7.03741980      -16.4081497      -6.55928993    
 Ni   5.03096008      -16.4081097      -5.10061979    
 Ni   7.03777981      -15.1456203      -4.37268019    
 Ni   5.03070021      -13.8837500      -5.10123014    
 Ni   7.03937006      -12.6215601      -4.37342978    
 Ni   9.04037952      -11.3593702      -3.64612007    
 Ni   11.0455303      -10.0974798      -2.91774011    
 Ni   9.04037952      -8.83559990      -3.64612007    
 Ni   11.0569897      -8.83654022      -5.10200024    
 Ni   13.0801601      -10.0974798      -4.38676023    
 Ni   13.0765400      -8.83333969      -6.55738020    
 Ni   11.0744896      -10.0974798      -7.28723001    
 Ni   9.05142975      -11.3567696      -8.01428032    
 Ni   9.05142975      -8.83819962      -8.01428032    
 Ni   7.04393005      -8.83623028      -6.55905008    
 Ni   7.03937006      -6.31201982      -6.55821991    
 Ni   7.03741980      -18.9330406      -6.55928993    
 Ni   7.03777981      -5.04933977      -4.37268019    
 Ni   5.03070021      -6.31121016      -5.10123014    
 Ni   5.03131008      -7.57309008      -2.91634011    
 Ni   5.03143978      -8.83508015     -0.730030000    
 Ni   7.03693008      -15.1467104      -13.1167297    
 Ni   7.03741980      -6.31172991      -2.18600011    
 Ni   9.03798962      -6.31102991      -3.64384007    
 Ni   9.03829002      -3.78681993      -3.64375997    
 Ni   11.0454597      -2.52436996      -2.91489005    
 Ni   13.0522499      -16.4083099      -2.18611002    
 Ni   13.0528698      -2.52436996      -3.64000001E-03
 Ni   11.0451002      -3.78701997     -0.727949977    
 Ni   9.03831005      -5.04919004      -1.45718002    
 Ni   11.0434704      -6.31219006     -0.727999985    
 Ni   11.0435305      -7.57410002      -2.91580009    
 Ni   13.0498400      -8.83714962      -2.18928003    
 Ni   15.0360003      -7.57072020      -1.44824004    
 Ni   15.0374098      -5.04772997      -1.45802999    
 Ni   15.0424099      -3.78221989      -3.64110994    
 Ni   15.0378399      -6.30058002      -3.62962008    
 Ni   15.0378399      -5.03143978      -5.82781982    
 Ni   13.0529203      -6.30651999      -6.55834007    
 Ni   13.0529203      -7.57075977      -4.36859989    
 Ni   7.04393005      -11.3587303      -6.55905008    
 Ni   9.05142975      -10.0974798      -5.83312988    
 Ni   11.0445404      -11.3582602     -0.730390012    
 Ni   13.0520802      -10.0974798      -5.60000015E-04
 Ni   13.0495701      -16.4109402      -6.56217003    
 Ni   11.0434704      -17.6705894      -7.28869009    
 Ni   3.03214002      -12.6218004      -10.2020798    
 Ni   5.03331995      -11.3590202      -9.47294044    
 Ni   7.04393005      -10.0974798      -8.74359989    
 Ni   7.03937006      -8.83609009      -10.9300404    
 Ni   9.04037952      -7.57512999      -10.2006102    
 Ni   11.0455303      -6.31338978      -9.47196960    
 Ni   13.0498400      -5.05236006      -8.74473000    
 Ni   3.03214002      -13.8839703      -8.01593018    
 Ni   5.03331995      -12.6211300      -7.28690004    
 Ni   5.03070021      -10.0974798      -11.6592398    
 Ni   3.03034997      -15.1464996      -5.82972002    
 Ni   3.03131008      -17.6705894      -5.82940006    
 Ni   3.03183007      -18.9325600      -8.01519966    
 Ni   5.03120995      -17.6705894      -7.28612995    
 Ni   5.03143978      -16.4073792      -9.47255993    
 Ni   7.03843021      -15.1450100      -8.74429035    
 Ni   9.04037952      -13.8817196      -8.01496029    
 Ni   11.0569897      -12.6204205      -7.28782988    
 Ni   13.0765400      -11.3616199      -6.55738020    
 Ni   11.0569897      -11.3584299      -5.10200024    
 Ni   11.0460501      -13.8836403      -5.10129023    
 Ni   13.0529203      -12.6241999      -4.36859989    
 Ni   15.0398197      -11.3684797      -3.62846994    
 Ni   15.0360003      -12.6242399      -1.44824004    
 Ni   13.0495701      -13.8821297      -2.18214989    
 Ni   11.0451002      -15.1453304      -2.91488004    
 Ni   3.03074002      -16.4087391      -3.64341998    
 Ni   3.03131008      -15.1465597      -1.45764005    
 Ni   5.03096008      -15.1464596      -2.91536999    
 Ni   7.03843021      -13.8830996      -10.9299898    
 Ni   9.04037952      -12.6198301      -10.2006102    
 Ni   3.03154993      -17.6705894      -10.2017498    
 Ni   3.03154993      -16.4080906      -12.3884697    
 Ni   5.03143978      -15.1449804      -11.6590996    
 Ni   3.03183007      -12.6226101      -1.45764005    
 Ni   3.03198004      -10.0974798      -1.45820999    
 Ni   3.03214002      -8.83530998      -3.64368010    
 Ni   3.03152990      -7.57341003      -5.82995987    
 Ni   3.03214002      -6.31098986      -8.01593018    
 Ni   5.03131008      -5.04998016      -7.28647995    
 Ni   5.03308010      -6.31299019      -9.47220993    
 Ni   7.03843021      -5.04995012      -8.74429035    
 Ni   3.03214002      -11.3596497      -3.64368010    
 Ni   5.03308010      -10.0974798      -2.91726995    
 Ni   7.03843021      -8.83557034      -2.18741012    
 Ni   9.03757954      -7.57334995      -1.45710003    
 Ni   5.03331995      -8.83537006      -5.10185003    
 Ni   7.03937006      -7.57341003      -4.37342978    
 Ni   3.03389001      -10.0974798      -5.82982016    
 Ni   3.03389001      -8.83533001      -8.01593018    
 Ni   5.03331995      -7.57383013      -7.28690004    
 Ni   3.03214002      -7.57316017      -10.2020798    
 Ni   7.03727007      -17.6705894      -13.1168499    
 Ni   9.03798962      -15.1459799      -5.82976007    
 Ni   9.03798962      -5.04898977      -5.82976007    
 Ni   11.0450897      -3.78698993      -5.10184002    
 Ni   13.0522404      -17.6705894      -4.37244987    
 Ni   13.0522404      -3.78663993      -2.18611002    
 Ni   15.0424004      -2.52435994      -1.46245003    
 Ni   11.0445404      -15.1454802      -11.6575203    
 Ni   11.0569897      -7.57454014      -7.28782988    
 Ni   11.0451002      -5.04964018      -2.91488004    
 Ni   13.0765400      -10.0974798      -8.74693012    
 Ni   13.0495701      -5.05318022      -3.60000005E-04
 Ni   15.1728001      -10.0974798      -5.78584003    
 Ni   3.03034997      -5.04846001      -5.82972002    
 Ni   3.03074002      -3.78622007      -3.64341998    
 Ni   5.03199005      -2.52436996      -2.91489005    
 Ni   7.03779984      -16.4077892      -2.18582010    
 Ni   7.03777981      -10.0974798      -13.1163197    
 Ni   5.03096008      -3.78603005     -0.728690028    
 Ni   3.03131008      -5.04839993      -1.45764005    
 Ni   5.03120995      -6.30996990     -0.729269981    
 Ni   7.03741980      -12.6224003      -13.1163902    
 Ni   7.03779984      -3.78716993      -2.18582010    
 Ni   9.03829002      -2.52436996      -1.45714998    
 Ni   11.0451002      -1.26172996     -0.727949977    
 Ni   13.0495701      -15.1417904      -3.60000005E-04
 Ni   3.03034997      -6.31072998      -3.64339995    
 Ni   5.03096008      -5.04851007      -2.91536999    
 Ni   5.03096008      -3.78684998      -5.10061979    
 Ni   7.03779984      -17.6705894      -4.37304020    
 Ni   3.03183007      -7.57235003      -1.45764005    
 Ni   3.03074002      -2.52436996      -1.45782995    
 Ni   5.03096008      -1.26270998     -0.728690028    
 Ni   7.03741980      -22.7187805      -13.1163902    
 Ni   15.0360003      -21.4503708      -12.3949604    
 O    13.4534903      -10.0974798      -7.28723001    
 O    13.9975204      -9.15258980      -7.43288994    
         262
 Energy:  -1411.4945712000001     
 X   0.00000000       0.00000000       0.00000000    
 X   0.00000000      -15.1462221       0.00000000    
 X   0.00000000      -7.57311106      -13.1170130    
 X   29.0000000       0.00000000       0.00000000    
 X   0.00000000      -22.7193336      -13.1170130    
 X   29.0000000      -15.1462221       0.00000000    
 X   29.0000000      -7.57311106      -13.1170130    
 X   29.0000000      -22.7193336      -13.1170130    
 Ni   15.1879597      -11.4204597      -8.04928970    
 Ni   15.0355301      -12.6748400      -5.79924011    
 Ni   15.0366602      -13.8946400      -3.62928009    
 Ni   15.0362101      -15.1467800      -1.45853996    
 Ni   15.0419302      -16.4123802      -3.64110994    
 Ni   15.0360699      -17.6701202      -5.82845020    
 Ni   15.0353804      -16.4167309      -8.01891041    
 Ni   15.0380898      -15.1499100      -10.2038097    
 Ni   15.0348501      -13.8905697      -12.3944397    
 Ni   15.0393801      -16.4103699      -12.3871803    
 Ni   15.0395403      -18.9309902      -12.3872700    
 Ni   15.0369701      -20.1913204      -10.2045298    
 Ni   15.0347900      -18.9234104      -8.01879978    
 Ni   13.0461798      -17.6697598      -8.75047970    
 Ni   13.0490198      -16.4084091      -10.9310799    
 Ni   11.0457802      -17.6700592      -11.6598597    
 Ni   11.0446196      -18.9341202      -9.47459984    
 Ni   9.03759003      -20.1953697      -10.2023602    
 Ni   9.03897953      -18.9323406      -12.3881998    
 Ni   9.03814030      -21.4571304      -12.3883104    
 Ni   11.0445204      -20.1950893      -11.6581602    
 Ni   13.0492401      -18.9322701      -10.9315596    
 Ni   15.0401402      -17.6705208      -10.2043304    
 Ni   15.0360899      -15.1636801      -5.82769012    
 Ni   13.0490799      -13.8901901      -6.55735016    
 Ni   13.0497599      -15.1497297      -4.36987019    
 Ni   11.0452099      -16.4079399      -5.10113001    
 Ni   11.0436602      -15.1448698      -7.28772020    
 Ni   9.03841972      -16.4076309      -8.01665974    
 Ni   9.03814983      -15.1454897      -10.2018204    
 Ni   7.03642988      -16.4082699      -10.9314699    
 Ni   7.03643990      -17.6703701      -8.74557018    
 Ni   5.03263998      -18.9337807      -9.47311020    
 Ni   5.03201008      -17.6703892      -11.6599197    
 Ni   3.03415990      -18.9333000      -12.3885403    
 Ni   3.03388000      -20.1955795      -10.2022495    
 Ni   3.03351998      -21.4574909      -12.3890400    
 Ni   5.03240013      -20.1962605      -11.6594601    
 Ni   7.03639984      -18.9321404      -10.9313698    
 Ni   9.03919983      -17.6700802      -10.2026396    
 Ni   11.0446301      -16.4059296      -9.47447014    
 Ni   13.0470400      -15.1433802      -8.74532032    
 Ni   11.0460701      -13.8810701      -9.47202969    
 Ni   13.0466604      -13.8826199      -10.9278698    
 Ni   13.0481901      -11.3632803      -10.9373503    
 Ni   15.0352898      -10.0987301      -10.2665100    
 Ni   15.0357103      -8.82808971      -12.4044104    
 Ni   15.0363302      -11.3673296      -12.4044504    
 Ni   15.0403204      -12.6301203      -10.2169104    
 Ni   13.0761604      -12.6170502      -8.74221039    
 Ni   15.0395498      -13.9012699      -8.01568985    
 Ni   9.03882980      -16.4082909      -12.3879995    
 Ni   9.03816986      -13.8844204      -12.3878698    
 Ni   11.0433798      -12.6219597      -11.6582603    
 Ni   11.0538597      -11.3618698      -9.47476959    
 Ni   11.0525999      -8.83331966      -9.47439957    
 Ni   11.0435801      -7.57334995      -11.6589899    
 Ni   13.0470800      -6.31149006      -10.9290600    
 Ni   13.0639696      -7.55739021      -8.75885010    
 Ni   15.6099396      -8.66394043      -8.25961971    
 Ni   15.0418100      -6.28578997      -8.01683044    
 Ni   15.0412102      -7.50914001      -5.78816986    
 Ni   15.0410204      -8.82643032      -3.62796998    
 Ni   15.0370798      -10.0979404      -1.45327997    
 Ni   13.0476904      -11.3582697      -2.18810010    
 Ni   13.0459805      -20.1904202      -13.1147804    
 Ni   11.0440397      -13.8830795     -0.728030026    
 Ni   11.0441704      -12.6212597      -2.91553998    
 Ni   9.03901005      -13.8840704      -3.64417005    
 Ni   9.04370022      -12.6203899      -5.83097982    
 Ni   7.03880978      -13.8825798      -6.55832005    
 Ni   7.04291010      -12.6191702      -8.74322987    
 Ni   5.03482008      -13.8824100      -9.47282028    
 Ni   5.03275013      -12.6205101      -11.6595602    
 Ni   7.03913021      -11.3588104      -10.9300699    
 Ni   9.04395008      -10.0979700      -10.2003899    
 Ni   9.03855991      -8.83559036      -12.3878803    
 Ni   9.03868961      -11.3595505      -12.3876696    
 Ni   11.0453396      -10.0978298      -11.6596498    
 Ni   13.0496197      -8.83376026      -10.9370203    
 Ni   15.0427198      -7.56273985      -10.2207298    
 Ni   9.03771973      -18.9323101      -8.01636028    
 Ni   9.03899002      -17.6700592      -5.82972002    
 Ni   9.04008007      -16.4082794      -3.64377999    
 Ni   9.03942013      -15.1462603      -1.45711994    
 Ni   7.03641987      -13.8829298      -2.18604994    
 Ni   7.03728008      -11.3590202      -2.18755007    
 Ni   7.04202986      -10.0973997      -4.37547016    
 Ni   5.03544998      -11.3596296      -5.10123014    
 Ni   5.03676987      -10.0972300      -7.28672981    
 Ni   3.03795004      -11.3599100      -8.01595020    
 Ni   3.03358006      -12.6220999      -5.82922983    
 Ni   3.03344011      -13.8840799      -3.64320993    
 Ni   5.03263998      -12.6216698      -2.91602993    
 Ni   5.03274012      -11.3600302     -0.729889989    
 Ni   5.03185987      -13.8843098     -0.728760004    
 Ni   7.03590012      -20.1944695      -13.1167603    
 Ni   9.03829956      -12.6213303      -1.45726001    
 Ni   9.03787994      -10.0974703      -1.45808005    
 Ni   11.0450096      -8.83646011     -0.729719996    
 Ni   13.0455198      -15.1507397      -13.1145296    
 Ni   13.0467196      -6.31288004      -2.18149996    
 Ni   13.0500603      -5.04515982      -4.36934996    
 Ni   13.0470800      -18.9286098      -6.56176996    
 Ni   11.0436897      -5.04933977      -7.28758001    
 Ni   11.0460100      -6.31120014      -5.10023022    
 Ni   9.04356003      -7.57544994      -5.83016014    
 Ni   9.03940010      -6.31335020      -8.01566982    
 Ni   7.04229021      -7.57601976      -8.74330997    
 Ni   7.03739023      -6.31202984      -10.9302502    
 Ni   5.03270006      -7.57441998      -11.6592302    
 Ni   5.03540993      -8.83580971      -9.47397041    
 Ni   3.03408003      -10.0973701      -10.2030602    
 Ni   3.03239989      -8.83512020      -12.3885803    
 Ni   3.03336000      -11.3599005      -12.3887901    
 Ni   3.03397012      -13.8835602      -12.3891201    
 Ni   3.03392005      -15.1458702      -10.2021704    
 Ni   3.03434992      -16.4085293      -8.01541996    
 Ni   5.03304005      -15.1449699      -7.28652000    
 Ni   7.03683996      -16.4078503      -6.55929995    
 Ni   5.03190994      -16.4076900      -5.10148001    
 Ni   7.03742981      -15.1450996      -4.37286997    
 Ni   5.03210020      -13.8832998      -5.10121012    
 Ni   7.03845978      -12.6210899      -4.37373018    
 Ni   9.04014015      -11.3592501      -3.64582992    
 Ni   11.0468798      -10.0970697      -2.91849995    
 Ni   9.03958988      -8.83557987      -3.64554000    
 Ni   11.0535402      -8.83549976      -5.09842014    
 Ni   13.0760698      -10.0982399      -4.37560987    
 Ni   12.4990597      -8.40485954      -5.92783022    
 Ni   11.0394897      -10.0997400      -7.28926992    
 Ni   9.05117989      -11.3574800      -8.01506996    
 Ni   9.05165005      -8.83858967      -8.01486969    
 Ni   7.04366016      -8.83640957      -6.55869007    
 Ni   7.03812981      -6.31228018      -6.55798006    
 Ni   7.03678989      -18.9331398      -6.55914021    
 Ni   7.03678989      -5.04966021      -4.37256002    
 Ni   5.03206015      -6.31181002      -5.10066986    
 Ni   5.03274012      -7.57290983      -2.91652012    
 Ni   5.03286982      -8.83495998     -0.729799986    
 Ni   7.03643990      -15.1467800      -13.1164398    
 Ni   7.03647995      -6.31193018      -2.18586993    
 Ni   9.03845978      -6.31126022      -3.64364004    
 Ni   9.03960991      -3.78650999      -3.64305997    
 Ni   11.0456495      -2.52392006      -2.91475010    
 Ni   13.0490599      -16.4080906      -2.18665004    
 Ni   13.0494499      -2.52452993      -4.47000004E-03
 Ni   11.0448503      -3.78692007     -0.728230000    
 Ni   9.03927040      -5.04866982      -1.45709002    
 Ni   11.0436802      -6.31232977     -0.727569997    
 Ni   11.0440702      -7.57419014      -2.91532993    
 Ni   13.0470896      -8.83705044      -2.18871999    
 Ni   15.0348797      -7.57108021      -1.44893003    
 Ni   15.0360899      -5.04766989      -1.45844996    
 Ni   15.0408802      -3.78188992      -3.64040995    
 Ni   15.0375204      -6.30084991      -3.62927008    
 Ni   15.0353298      -5.03153992      -5.82788992    
 Ni   13.0498600      -6.30207014      -6.55639982    
 Ni   13.0480499      -7.56884003      -4.36358023    
 Ni   7.04362011      -11.3588800      -6.55878019    
 Ni   9.05144024      -10.0973597      -5.83279991    
 Ni   11.0448999      -11.3582296     -0.729579985    
 Ni   13.0492201      -10.0972004       1.40000004E-04
 Ni   13.0468197      -16.4108200      -6.56178999    
 Ni   11.0437603      -17.6699295      -7.28858995    
 Ni   3.03505993      -12.6218996      -10.2032204    
 Ni   5.03544998      -11.3590002      -9.47393990    
 Ni   7.04416990      -10.0974903      -8.74382019    
 Ni   7.03863001      -8.83629036      -10.9301500    
 Ni   9.03999996      -7.57538986      -10.2008495    
 Ni   11.0455599      -6.31383991      -9.47257996    
 Ni   13.0474396      -5.05097008      -8.74580956    
 Ni   3.03566003      -13.8848104      -8.01593018    
 Ni   5.03568983      -12.6215496      -7.28630018    
 Ni   5.03223991      -10.0975199      -11.6595201    
 Ni   3.03310990      -15.1465502      -5.82952976    
 Ni   3.03348994      -17.6705208      -5.82942009    
 Ni   3.03474998      -18.9324894      -8.01531029    
 Ni   5.03222990      -17.6704998      -7.28667021    
 Ni   5.03302002      -16.4072495      -9.47313976    
 Ni   7.03810978      -15.1447697      -8.74458981    
 Ni   9.04061031      -13.8818998      -8.01554966    
 Ni   11.0538797      -12.6234798      -7.28855991    
 Ni   13.0310202      -11.5746403      -6.43294001    
 Ni   11.0536499      -11.3594704      -5.09922981    
 Ni   11.0460701      -13.8844805      -5.10105991    
 Ni   13.0494003      -12.6258602      -4.36782980    
 Ni   15.0410204      -11.3682203      -3.62921000    
 Ni   15.0353899      -12.6236095      -1.44902003    
 Ni   13.0469303      -13.8827696      -2.18203998    
 Ni   11.0455399      -15.1461096      -2.91476989    
 Ni   3.03363991      -16.4083900      -3.64352012    
 Ni   3.03464007      -15.1462898      -1.45731997    
 Ni   5.03177023      -15.1453896      -2.91495991    
 Ni   7.03786993      -13.8833599      -10.9302197    
 Ni   9.04086018      -12.6198902      -10.2007504    
 Ni   3.03372002      -17.6706600      -10.2021303    
 Ni   3.03359008      -16.4079494      -12.3882704    
 Ni   5.03283024      -15.1450901      -11.6594601    
 Ni   3.03378010      -12.6224298      -1.45738006    
 Ni   3.03376007      -10.0978298      -1.45793998    
 Ni   3.03466010      -8.83479977      -3.64340997    
 Ni   3.03401995      -7.57292986      -5.82923985    
 Ni   3.03455997      -6.31062984      -8.01605988    
 Ni   5.03264999      -5.05013990      -7.28637981    
 Ni   5.03437996      -6.31282997      -9.47276020    
 Ni   7.03745985      -5.05009985      -8.74456978    
 Ni   3.03544998      -11.3601198      -3.64308000    
 Ni   5.03471994      -10.0973902      -2.91732001    
 Ni   7.03723001      -8.83572960      -2.18694997    
 Ni   9.03814983      -7.57326984      -1.45708001    
 Ni   5.03528023      -8.83497047      -5.10126019    
 Ni   7.03851986      -7.57387018      -4.37348986    
 Ni   3.03678012      -10.0972700      -5.82915020    
 Ni   3.03814006      -8.83463955      -8.01605034    
 Ni   5.03526020      -7.57356024      -7.28631020    
 Ni   3.03491998      -7.57282019      -10.2026300    
 Ni   7.03627014      -17.6701508      -13.1167402    
 Ni   9.03880024      -15.1458302      -5.82969999    
 Ni   9.03800011      -5.04898977      -5.82937002    
 Ni   11.0451403      -3.78607011      -5.10104990    
 Ni   13.0492601      -17.6697598      -4.37168980    
 Ni   13.0489902      -3.78622007      -2.18622994    
 Ni   15.0410995      -2.52461004      -1.46308005    
 Ni   11.0446901      -15.1457100      -11.6576500    
 Ni   11.0497103      -7.57025003      -7.28881979    
 Ni   11.0451403      -5.04921007      -2.91431999    
 Ni   12.9719296      -10.1501198      -9.05430984    
 Ni   13.0465002      -5.05359983      -8.80000007E-04
 Ni   15.2008200      -10.1109695      -5.74525023    
 Ni   3.03256989      -5.04866982      -5.82958984    
 Ni   3.03331995      -3.78673005      -3.64306998    
 Ni   5.03278017      -2.52470994      -2.91439009    
 Ni   7.03771019      -16.4078293      -2.18542004    
 Ni   7.03697014      -10.0974302      -13.1158199    
 Ni   5.03195000      -3.78687000     -0.727850020    
 Ni   3.03386998      -5.04832983      -1.45744002    
 Ni   5.03223991      -6.31006002     -0.728900015    
 Ni   7.03666019      -12.6224298      -13.1160803    
 Ni   7.03755999      -3.78748989      -2.18560004    
 Ni   9.03987026      -2.52468991      -1.45725000    
 Ni   11.0452900      -1.26164997     -0.728619993    
 Ni   13.0464001      -15.1413498      -1.79999997E-03
 Ni   3.03238010      -6.31078005      -3.64333010    
 Ni   5.03212023      -5.04960012      -2.91493011    
 Ni   5.03204012      -3.78748989      -5.10097980    
 Ni   7.03776979      -17.6707897      -4.37312984    
 Ni   3.03375006      -7.57202005      -1.45739996    
 Ni   3.03313994      -2.52489996      -1.45730996    
 Ni   5.03190994      -1.26240003     -0.727599978    
 Ni   7.03673983      -7.57282019      -13.1158199    
 Ni   15.0344896      -21.4498291      -12.3949900    
 O    13.3372698      -10.5832500      -7.24919987    
 O    14.3954401      -8.97698975      -7.70971012    
         262
 Energy:  -1413.7426485999999     
 X   0.00000000       0.00000000       0.00000000    
 X   0.00000000      -15.1462221       0.00000000    
 X   0.00000000      -7.57311106      -13.1170130    
 X   29.0000000       0.00000000       0.00000000    
 X   0.00000000      -22.7193336      -13.1170130    
 X   29.0000000      -15.1462221       0.00000000    
 X   29.0000000      -7.57311106      -13.1170130    
 X   29.0000000      -22.7193336      -13.1170130    
 Ni   15.1804705      -11.4092302      -8.04368019    
 Ni   15.0337400      -12.6761398      -5.79847002    
 Ni   15.0372400      -13.8945103      -3.62945008    
 Ni   15.0368004      -15.1470003      -1.45828998    
 Ni   15.0421696      -16.4125595      -3.64110994    
 Ni   15.0367298      -17.6703491      -5.82852983    
 Ni   15.0356903      -16.4171505      -8.01869965    
 Ni   15.0383501      -15.1497698      -10.2039499    
 Ni   15.0354204      -13.8906898      -12.3947001    
 Ni   15.0396099      -16.4100800      -12.3873396    
 Ni   15.0396900      -18.9312000      -12.3873901    