 running on    1 total cores
 distrk:  each k-point on    1 cores,    1 groups
 distr:  one band on    1 cores,    1 groups
 OpenACC runtime initialized ...    1 GPUs detected
 vasp.6.2.1 16May21 (build Jun 16 2021 03:23:30) complex                         
 POSCAR found type information on POSCAR NiO 
 POSCAR found :  2 types and     254 ions
 scaLAPACK will be used selectively (only on CPU)
 LDA part: xc-table for Pade appr. of Perdew
 POSCAR found type information on POSCAR NiO 
 POSCAR found :  2 types and     254 ions
 POSCAR, INCAR and KPOINTS ok, starting setup
 FFT: planning ...
 WAVECAR not read
 entering main loop
       N       E                     dE             d eps       ncg     rms          rms(c)
DAV:   1     0.224904039592E+05    0.22490E+05   -0.98649E+05 12200   0.134E+03
DAV:   2     0.160603314560E+03   -0.22330E+05   -0.21332E+05 12152   0.470E+02
DAV:   3    -0.131331042576E+04   -0.14739E+04   -0.12488E+04 13816   0.132E+02
DAV:   4    -0.153244007251E+04   -0.21913E+03   -0.18708E+03 21448   0.491E+01
DAV:   5    -0.154281016649E+04   -0.10370E+02   -0.98512E+01 19496   0.117E+01    0.167E+02
DAV:   6    -0.193634092143E+04   -0.39353E+03   -0.26081E+03 16064   0.179E+02    0.310E+02
DAV:   7    -0.167278822148E+04    0.26355E+03   -0.10124E+03 13056   0.142E+02    0.239E+02
DAV:   8    -0.225756343369E+04   -0.58478E+03   -0.70502E+02 16352   0.174E+02    0.345E+02
DAV:   9    -0.204628815670E+04    0.21128E+03   -0.33954E+02 13400   0.130E+02    0.313E+02
DAV:  10    -0.177287024185E+04    0.27342E+03   -0.29301E+02 16512   0.851E+01    0.236E+02
DAV:  11    -0.170211275953E+04    0.70757E+02   -0.40489E+02 13640   0.104E+02    0.240E+02
DAV:  12    -0.158802039451E+04    0.11409E+03   -0.32442E+02 13656   0.112E+02    0.204E+02
DAV:  13    -0.152200375291E+04    0.66017E+02   -0.22075E+02 12768   0.883E+01    0.205E+02
DAV:  14    -0.159021666071E+04   -0.68213E+02   -0.19012E+02 12672   0.623E+01    0.211E+02
DAV:  15    -0.152394686172E+04    0.66270E+02   -0.10426E+02 12672   0.615E+01    0.173E+02
DAV:  16    -0.149044388717E+04    0.33503E+02   -0.96812E+01 12688   0.639E+01    0.160E+02
DAV:  17    -0.157061839115E+04   -0.80175E+02   -0.95054E+01 13440   0.675E+01    0.204E+02
DAV:  18    -0.151963703652E+04    0.50981E+02   -0.86832E+01 12720   0.536E+01    0.188E+02
DAV:  19    -0.146450476558E+04    0.55132E+02   -0.55774E+01 12896   0.463E+01    0.178E+02
DAV:  20    -0.140157271913E+04    0.62932E+02   -0.48026E+01 12680   0.462E+01    0.156E+02
DAV:  21    -0.135842961590E+04    0.43143E+02   -0.38181E+01 12784   0.340E+01    0.125E+02
DAV:  22    -0.134109548078E+04    0.17334E+02   -0.27989E+01 12848   0.293E+01    0.109E+02
DAV:  23    -0.132166235832E+04    0.19433E+02   -0.20730E+01 12800   0.241E+01    0.815E+01
DAV:  24    -0.131125383621E+04    0.10409E+02   -0.12112E+01 13104   0.160E+01    0.566E+01
DAV:  25    -0.130974464733E+04    0.15092E+01   -0.72294E+00 13376   0.124E+01    0.556E+01
DAV:  26    -0.131437484160E+04   -0.46302E+01   -0.67065E+00 13120   0.151E+01    0.684E+01
DAV:  27    -0.131152218221E+04    0.28527E+01   -0.44357E+00 13184   0.120E+01    0.613E+01
DAV:  28    -0.130871210244E+04    0.28101E+01   -0.28741E+00 13104   0.848E+00    0.540E+01
DAV:  29    -0.130732701893E+04    0.13851E+01   -0.23142E+00 13120   0.855E+00    0.493E+01
DAV:  30    -0.130614527891E+04    0.11817E+01   -0.22682E+00 13184   0.911E+00    0.459E+01
DAV:  31    -0.130445701666E+04    0.16883E+01   -0.20317E+00 13336   0.799E+00    0.401E+01
DAV:  32    -0.130393239297E+04    0.52462E+00   -0.23550E+00 13336   0.930E+00    0.387E+01
DAV:  33    -0.130648634089E+04   -0.25539E+01   -0.32899E+00 13344   0.119E+01    0.470E+01
DAV:  34    -0.130772182331E+04   -0.12355E+01   -0.41476E+00 13392   0.137E+01    0.481E+01
DAV:  35    -0.130834086833E+04   -0.61905E+00   -0.46609E+00 13376   0.150E+01    0.536E+01
DAV:  36    -0.130895814344E+04   -0.61728E+00   -0.44966E+00 13344   0.142E+01    0.535E+01
DAV:  37    -0.130843043099E+04    0.52771E+00   -0.42681E+00 13344   0.142E+01    0.505E+01
DAV:  38    -0.130643456281E+04    0.19959E+01   -0.35703E+00 13408   0.123E+01    0.430E+01
DAV:  39    -0.130469413552E+04    0.17404E+01   -0.29009E+00 13376   0.107E+01    0.400E+01
DAV:  40    -0.130215596440E+04    0.25382E+01   -0.21079E+00 13376   0.911E+00    0.282E+01
DAV:  41    -0.130162989755E+04    0.52607E+00   -0.15318E+00 13344   0.733E+00    0.248E+01
DAV:  42    -0.130159669564E+04    0.33202E-01   -0.13113E+00 13392   0.651E+00    0.246E+01
DAV:  43    -0.130132688727E+04    0.26981E+00   -0.10550E+00 13392   0.581E+00    0.245E+01
DAV:  44    -0.130087267807E+04    0.45421E+00   -0.75356E-01 13360   0.471E+00    0.204E+01
DAV:  45    -0.130073721660E+04    0.13546E+00   -0.53423E-01 13344   0.383E+00    0.184E+01
DAV:  46    -0.130053809641E+04    0.19912E+00   -0.41292E-01 13368   0.312E+00    0.144E+01
DAV:  47    -0.130042873250E+04    0.10936E+00   -0.35618E-01 13376   0.300E+00    0.128E+01
DAV:  48    -0.130051481076E+04   -0.86078E-01   -0.36204E-01 13336   0.339E+00    0.145E+01
DAV:  49    -0.130055641877E+04   -0.41608E-01   -0.36272E-01 13384   0.345E+00    0.156E+01
DAV:  50    -0.130070610362E+04   -0.14968E+00   -0.43944E-01 13408   0.380E+00    0.169E+01
DAV:  51    -0.130181384641E+04   -0.11077E+01   -0.88131E-01 13936   0.626E+00    0.256E+01
DAV:  52    -0.130101888969E+04    0.79496E+00   -0.66923E-01 13424   0.451E+00    0.190E+01
DAV:  53    -0.130063937103E+04    0.37952E+00   -0.44942E-01 13392   0.367E+00    0.153E+01
DAV:  54    -0.130052188681E+04    0.11748E+00   -0.29471E-01 13456   0.300E+00    0.138E+01
DAV:  55    -0.130047231371E+04    0.49573E-01   -0.25761E-01 13440   0.279E+00    0.138E+01
DAV:  56    -0.130277182123E+04   -0.22995E+01   -0.13120E+00 16920   0.730E+00    0.348E+01
DAV:  57    -0.130058964352E+04    0.21822E+01   -0.11632E+00 14376   0.589E+00    0.142E+01
DAV:  58    -0.130019208724E+04    0.39756E+00   -0.38259E-01 13920   0.363E+00    0.109E+01
DAV:  59    -0.130013314515E+04    0.58942E-01   -0.22314E-01 13664   0.225E+00    0.869E+00
DAV:  60    -0.130012324877E+04    0.98964E-02   -0.20586E-01 13584   0.253E+00
 -----------------------------------------------------------------------------
|                                                                             |
|           W    W    AA    RRRRR   N    N  II  N    N   GGGG   !!!           |
|           W    W   A  A   R    R  NN   N  II  NN   N  G    G  !!!           |
|           W    W  A    A  R    R  N N  N  II  N N  N  G       !!!           |
|           W WW W  AAAAAA  RRRRR   N  N N  II  N  N N  G  GGG   !            |
|           WW  WW  A    A  R   R   N   NN  II  N   NN  G    G                |
|           W    W  A    A  R    R  N    N  II  N    N   GGGG   !!!           |
|                                                                             |
|     The electronic self-consistency was not achieved in the given           |
|     number of steps (NELM). The forces and other quantities evaluated       |
|     might not be reliable so examine the results carefully. If you find     |
|     spurious results, we suggest increasing NELM, if you were close to      |
|     convergence or switching to a different ALGO or adjusting the           |
|     density mixing parameters otherwise.                                    |
|                                                                             |
 -----------------------------------------------------------------------------

   1 F= -.13978737E+04 E0= -.13971520E+04  d E =-.139787E+04
 curvature:   0.00 expect dE= 0.000E+00 dE for cont linesearch  0.000E+00
 trial: gam= 0.00000 g(F)=  0.968E+02 g(S)=  0.000E+00 ort = 0.000E+00 (trialstep = 0.100E+01)
 search vector abs. value=  0.968E+02
 bond charge predicted
       N       E                     dE             d eps       ncg     rms          rms(c)
DAV:   1    -0.124922286903E+04    0.50910E+02   -0.10539E+04 15408   0.106E+02    0.868E+01
DAV:   2    -0.208772377478E+04   -0.83850E+03   -0.22277E+03 19000   0.189E+02    0.743E+02
DAV:   3    -0.172702014917E+04    0.36070E+03   -0.11433E+03 16728   0.836E+01    0.328E+02
DAV:   4    -0.235361392680E+04   -0.62659E+03   -0.17861E+02 13520   0.140E+02    0.392E+02
DAV:   5    -0.187912061126E+04    0.47449E+03   -0.29318E+02 21864   0.116E+02    0.284E+02
DAV:   6    -0.180768908574E+04    0.71432E+02   -0.19152E+02 14120   0.808E+01    0.259E+02
DAV:   7    -0.146980996484E+04    0.33788E+03   -0.12198E+02 12896   0.714E+01    0.181E+02
DAV:   8    -0.138976732490E+04    0.80043E+02   -0.94039E+01 12784   0.488E+01    0.126E+02
DAV:   9    -0.143489172564E+04   -0.45124E+02   -0.10282E+02 13408   0.563E+01    0.166E+02
DAV:  10    -0.137832415804E+04    0.56568E+02   -0.76675E+01 12960   0.425E+01    0.116E+02
DAV:  11    -0.134679464034E+04    0.31530E+02   -0.51436E+01 12832   0.381E+01    0.928E+01
DAV:  12    -0.135051780059E+04   -0.37232E+01   -0.29452E+01 13008   0.319E+01    0.108E+02
DAV:  13    -0.134718583985E+04    0.33320E+01   -0.26696E+01 13072   0.309E+01    0.103E+02
DAV:  14    -0.133966924937E+04    0.75166E+01   -0.23666E+01 13152   0.303E+01    0.902E+01
DAV:  15    -0.134211530828E+04   -0.24461E+01   -0.22956E+01 13200   0.326E+01    0.100E+02
DAV:  16    -0.134873569424E+04   -0.66204E+01   -0.24958E+01 13184   0.351E+01    0.967E+01
DAV:  17    -0.135673437171E+04   -0.79987E+01   -0.26378E+01 13192   0.368E+01    0.102E+02
DAV:  18    -0.137338577397E+04   -0.16651E+02   -0.25561E+01 13264   0.393E+01    0.114E+02
DAV:  19    -0.137465054779E+04   -0.12648E+01   -0.23632E+01 13168   0.375E+01    0.124E+02
DAV:  20    -0.136122673173E+04    0.13424E+02   -0.18645E+01 13104   0.295E+01    0.108E+02
DAV:  21    -0.134957875228E+04    0.11648E+02   -0.14722E+01 13208   0.259E+01    0.959E+01
DAV:  22    -0.134361563927E+04    0.59631E+01   -0.15011E+01 13040   0.260E+01    0.920E+01
DAV:  23    -0.133638475774E+04    0.72309E+01   -0.13093E+01 13104   0.244E+01    0.831E+01
DAV:  24    -0.133171835231E+04    0.46664E+01   -0.10307E+01 13120   0.229E+01    0.767E+01
DAV:  25    -0.132559425961E+04    0.61241E+01   -0.83619E+00 13112   0.209E+01    0.667E+01
DAV:  26    -0.132249444203E+04    0.30998E+01   -0.62333E+00 13088   0.171E+01    0.622E+01
DAV:  27    -0.132145173999E+04    0.10427E+01   -0.44980E+00 13096   0.141E+01    0.639E+01
DAV:  28    -0.131794261294E+04    0.35091E+01   -0.30581E+00 13072   0.102E+01    0.524E+01
DAV:  29    -0.131652280040E+04    0.14198E+01   -0.22109E+00 13168   0.836E+00    0.464E+01
DAV:  30    -0.131638880791E+04    0.13399E+00   -0.19019E+00 13072   0.795E+00    0.477E+01
DAV:  31    -0.131477664405E+04    0.16122E+01   -0.14405E+00 13072   0.651E+00    0.388E+01
DAV:  32    -0.131425144799E+04    0.52520E+00   -0.10762E+00 13152   0.626E+00    0.366E+01
DAV:  33    -0.131373234075E+04    0.51911E+00   -0.84328E-01 13152   0.515E+00    0.344E+01
DAV:  34    -0.131346678501E+04    0.26556E+00   -0.67842E-01 13104   0.474E+00    0.338E+01
DAV:  35    -0.131329102851E+04    0.17576E+00   -0.50861E-01 13120   0.421E+00    0.330E+01
DAV:  36    -0.131316740871E+04    0.12362E+00   -0.37009E-01 13264   0.314E+00    0.322E+01
DAV:  37    -0.131308973833E+04    0.77670E-01   -0.34075E-01 13320   0.330E+00    0.311E+01
DAV:  38    -0.131320301915E+04   -0.11328E+00   -0.37519E-01 13272   0.371E+00    0.318E+01
DAV:  39    -0.131305774301E+04    0.14528E+00   -0.40784E-01 13256   0.363E+00    0.303E+01
DAV:  40    -0.131305528923E+04    0.24538E-02   -0.35787E-01 13376   0.354E+00    0.299E+01
DAV:  41    -0.131315056414E+04   -0.95275E-01   -0.39600E-01 13304   0.378E+00    0.302E+01
DAV:  42    -0.131297443019E+04    0.17613E+00   -0.36021E-01 13248   0.353E+00    0.286E+01
DAV:  43    -0.131286506509E+04    0.10937E+00   -0.20641E-01 13328   0.265E+00    0.279E+01
DAV:  44    -0.131280635787E+04    0.58707E-01   -0.14993E-01 13376   0.217E+00    0.270E+01
DAV:  45    -0.131281677253E+04   -0.10415E-01   -0.16409E-01 13328   0.233E+00    0.269E+01
DAV:  46    -0.131261884655E+04    0.19793E+00   -0.13692E-01 13344   0.206E+00    0.251E+01
DAV:  47    -0.131900619081E+04   -0.63873E+01   -0.27375E+00 19272   0.103E+01    0.523E+01
DAV:  48    -0.131569693502E+04    0.33093E+01   -0.25370E+00 14376   0.102E+01    0.364E+01
DAV:  49    -0.131587942963E+04   -0.18249E+00   -0.17868E+00 14200   0.862E+00    0.379E+01
DAV:  50    -0.131566735387E+04    0.21208E+00   -0.19093E+00 13976   0.873E+00    0.368E+01
DAV:  51    -0.131576193567E+04   -0.94582E-01   -0.20186E+00 13728   0.923E+00    0.386E+01
DAV:  52    -0.136331284003E+04   -0.47551E+02   -0.22277E+01 17928   0.324E+01    0.110E+02
DAV:  53    -0.133245120335E+04    0.30862E+02   -0.16330E+01 14832   0.294E+01    0.704E+01
DAV:  54    -0.132160951917E+04    0.10842E+02   -0.81655E+00 13600   0.198E+01    0.503E+01
DAV:  55    -0.131781212106E+04    0.37974E+01   -0.58524E+00 13400   0.143E+01    0.402E+01
DAV:  56    -0.131667844786E+04    0.11337E+01   -0.45418E+00 13440   0.123E+01    0.381E+01
DAV:  57    -0.132847488603E+04   -0.11796E+02   -0.73625E+00 13520   0.193E+01    0.627E+01
DAV:  58    -0.131700522485E+04    0.11470E+02   -0.56908E+00 13416   0.180E+01    0.363E+01
DAV:  59    -0.131395144844E+04    0.30538E+01   -0.22785E+00 13352   0.970E+00    0.238E+01
DAV:  60    -0.131370237120E+04    0.24908E+00   -0.12998E+00 13392   0.649E+00
 -----------------------------------------------------------------------------
|                                                                             |
|           W    W    AA    RRRRR   N    N  II  N    N   GGGG   !!!           |
|           W    W   A  A   R    R  NN   N  II  NN   N  G    G  !!!           |
|           W    W  A    A  R    R  N N  N  II  N N  N  G       !!!           |
|           W WW W  AAAAAA  RRRRR   N  N N  II  N  N N  G  GGG   !            |
|           WW  WW  A    A  R   R   N   NN  II  N   NN  G    G                |
|           W    W  A    A  R    R  N    N  II  N    N   GGGG   !!!           |
|                                                                             |
|     The electronic self-consistency was not achieved in the given           |
|     number of steps (NELM). The forces and other quantities evaluated       |
|     might not be reliable so examine the results carefully. If you find     |
|     spurious results, we suggest increasing NELM, if you were close to      |
|     convergence or switching to a different ALGO or adjusting the           |
|     density mixing parameters otherwise.                                    |
|                                                                             |
 -----------------------------------------------------------------------------

   2 F= -.14114946E+04 E0= -.14108173E+04  d E =-.136209E+02
 trial-energy change:  -13.620873  1 .order  -39.474320  -96.761459   17.812819
 step:   0.5061(harm=  0.8445)  dis= 0.31862  next Energy= -1419.008031 (dE=-0.211E+02)
 bond charge predicted
       N       E                     dE             d eps       ncg     rms          rms(c)
DAV:   1    -0.129532921633E+04    0.18622E+02   -0.48376E+03 16040   0.727E+01    0.575E+01
DAV:   2    -0.214323645955E+04   -0.84791E+03   -0.53358E+02 17928   0.175E+02    0.477E+02
DAV:   3    -0.159872874299E+04    0.54451E+03   -0.43317E+02 13586   0.690E+01    0.237E+02
DAV:   4    -0.175981593955E+04   -0.16109E+03   -0.10478E+02 13072   0.700E+01    0.266E+02
DAV:   5    -0.152352968030E+04    0.23629E+03   -0.11685E+02 17248   0.768E+01    0.188E+02
DAV:   6    -0.143666201454E+04    0.86868E+02   -0.81003E+01 13120   0.506E+01    0.147E+02
DAV:   7    -0.141357509555E+04    0.23087E+02   -0.55136E+01 13288   0.527E+01    0.140E+02
DAV:   8    -0.140546655152E+04    0.81085E+01   -0.52631E+01 12992   0.482E+01    0.123E+02
DAV:   9    -0.141061047671E+04   -0.51439E+01   -0.44855E+01 13120   0.564E+01    0.136E+02
DAV:  10    -0.139362189105E+04    0.16989E+02   -0.48173E+01 12976   0.428E+01    0.133E+02
DAV:  11    -0.136182544219E+04    0.31796E+02   -0.40304E+01 12992   0.383E+01    0.105E+02
DAV:  12    -0.134285125814E+04    0.18974E+02   -0.26762E+01 13040   0.317E+01    0.890E+01
DAV:  13    -0.133114888028E+04    0.11702E+02   -0.19967E+01 13168   0.267E+01    0.714E+01
DAV:  14    -0.133488122274E+04   -0.37323E+01   -0.16890E+01 13080   0.249E+01    0.762E+01
DAV:  15    -0.133760656883E+04   -0.27253E+01   -0.16017E+01 13184   0.248E+01    0.779E+01
DAV:  16    -0.132666330438E+04    0.10943E+02   -0.10905E+01 13040   0.193E+01    0.490E+01
DAV:  17    -0.132831860060E+04   -0.16553E+01   -0.69898E+00 13120   0.174E+01    0.630E+01
DAV:  18    -0.132337166924E+04    0.49469E+01   -0.46619E+00 13208   0.130E+01    0.479E+01
DAV:  19    -0.132256917688E+04    0.80249E+00   -0.41237E+00 13248   0.131E+01    0.458E+01
DAV:  20    -0.132220768470E+04    0.36149E+00   -0.35893E+00 13208   0.126E+01    0.451E+01
DAV:  21    -0.131924403344E+04    0.29637E+01   -0.27139E+00 13168   0.106E+01    0.325E+01
DAV:  22    -0.131877521019E+04    0.46882E+00   -0.17528E+00 13184   0.895E+00    0.337E+01
DAV:  23    -0.131847152551E+04    0.30368E+00   -0.16194E+00 13288   0.798E+00    0.304E+01
DAV:  24    -0.131881112829E+04   -0.33960E+00   -0.15706E+00 13280   0.777E+00    0.347E+01
DAV:  25    -0.131810159620E+04    0.70953E+00   -0.13847E+00 13200   0.719E+00    0.307E+01
DAV:  26    -0.131740395224E+04    0.69764E+00   -0.10596E+00 13184   0.605E+00    0.259E+01
DAV:  27    -0.131755162957E+04   -0.14768E+00   -0.10022E+00 13328   0.610E+00    0.252E+01
DAV:  28    -0.131760742368E+04   -0.55794E-01   -0.11776E+00 13304   0.673E+00    0.247E+01
DAV:  29    -0.131744028689E+04    0.16714E+00   -0.92781E-01 13184   0.596E+00    0.252E+01
DAV:  30    -0.131711361931E+04    0.32667E+00   -0.77502E-01 13200   0.545E+00    0.224E+01
DAV:  31    -0.131676109069E+04    0.35253E+00   -0.53203E-01 13360   0.414E+00    0.183E+01
DAV:  32    -0.131679664160E+04   -0.35551E-01   -0.56855E-01 13360   0.429E+00    0.191E+01
DAV:  33    -0.131667713793E+04    0.11950E+00   -0.53825E-01 13232   0.434E+00    0.176E+01
DAV:  34    -0.131632719775E+04    0.34994E+00   -0.40527E-01 13296   0.365E+00    0.133E+01
DAV:  35    -0.131623828011E+04    0.88918E-01   -0.20921E-01 13464   0.253E+00    0.122E+01
DAV:  36    -0.131634952147E+04   -0.11124E+00   -0.21134E-01 13232   0.275E+00    0.141E+01
DAV:  37    -0.131622948304E+04    0.12004E+00   -0.14598E-01 13224   0.217E+00    0.122E+01
DAV:  38    -0.131619565582E+04    0.33827E-01   -0.91709E-02 13408   0.166E+00    0.117E+01
DAV:  39    -0.131620309366E+04   -0.74378E-02   -0.11308E-01 13416   0.187E+00    0.115E+01
DAV:  40    -0.131609205237E+04    0.11104E+00   -0.84056E-02 13352   0.162E+00    0.930E+00
DAV:  41    -0.131605631172E+04    0.35741E-01   -0.42299E-02 13256   0.113E+00    0.860E+00
DAV:  42    -0.131604805508E+04    0.82566E-02   -0.28854E-02 13296   0.907E-01    0.845E+00
DAV:  43    -0.131603943443E+04    0.86207E-02   -0.11119E-02 13456   0.459E-01    0.825E+00
DAV:  44    -0.131604305894E+04   -0.36245E-02   -0.11011E-02 13456   0.571E-01    0.826E+00
DAV:  45    -0.131604121693E+04    0.18420E-02   -0.73200E-03 13352   0.446E-01    0.815E+00
DAV:  46    -0.131603566903E+04    0.55479E-02   -0.94532E-03 13448   0.529E-01    0.790E+00
DAV:  47    -0.131647550368E+04   -0.43983E+00   -0.42248E-01 18616   0.354E+00    0.129E+01
DAV:  48    -0.131641494536E+04    0.60558E-01   -0.31227E-01 15232   0.296E+00    0.116E+01
DAV:  49    -0.131623322944E+04    0.18172E+00   -0.19754E-01 14928   0.256E+00    0.981E+00
DAV:  50    -0.131614350396E+04    0.89725E-01   -0.10538E-01 14760   0.183E+00    0.865E+00
DAV:  51    -0.131619065409E+04   -0.47150E-01   -0.11624E-01 14680   0.190E+00    0.937E+00
DAV:  52    -0.131619913549E+04   -0.84814E-02   -0.28929E-01 16208   0.312E+00    0.922E+00
DAV:  53    -0.131607972919E+04    0.11941E+00   -0.19994E-01 14712   0.252E+00    0.690E+00
DAV:  54    -0.131603744151E+04    0.42288E-01   -0.11838E-01 14600   0.191E+00    0.582E+00
DAV:  55    -0.131603423824E+04    0.32033E-02   -0.10090E-01 14528   0.178E+00    0.589E+00
DAV:  56    -0.131604280467E+04   -0.85664E-02   -0.71748E-02 14376   0.153E+00    0.641E+00
DAV:  57    -0.131619353757E+04   -0.15073E+00   -0.13970E-01 14448   0.229E+00    0.101E+01
DAV:  58    -0.131602270258E+04    0.17083E+00   -0.12731E-01 14208   0.201E+00    0.533E+00
DAV:  59    -0.131597966169E+04    0.43041E-01   -0.40373E-02 13752   0.117E+00    0.392E+00
DAV:  60    -0.131596506867E+04    0.14593E-01   -0.19151E-02 13464   0.762E-01
 -----------------------------------------------------------------------------
|                                                                             |
|           W    W    AA    RRRRR   N    N  II  N    N   GGGG   !!!           |
|           W    W   A  A   R    R  NN   N  II  NN   N  G    G  !!!           |
|           W    W  A    A  R    R  N N  N  II  N N  N  G       !!!           |
|           W WW W  AAAAAA  RRRRR   N  N N  II  N  N N  G  GGG   !            |
|           WW  WW  A    A  R   R   N   NN  II  N   NN  G    G                |
|           W    W  A    A  R    R  N    N  II  N    N   GGGG   !!!           |
|                                                                             |
|     The electronic self-consistency was not achieved in the given           |
|     number of steps (NELM). The forces and other quantities evaluated       |
|     might not be reliable so examine the results carefully. If you find     |
|     spurious results, we suggest increasing NELM, if you were close to      |
|     convergence or switching to a different ALGO or adjusting the           |
|     density mixing parameters otherwise.                                    |
|                                                                             |
 -----------------------------------------------------------------------------

   3 F= -.14137427E+04 E0= -.14130225E+04  d E =-.158690E+02
 curvature:   1.58 expect dE= 0.350E+02 dE for cont linesearch  0.240E+00
 trial: gam= 0.18955 g(F)=  0.222E+02 g(S)=  0.000E+00 ort = 0.383E+01 (trialstep = 0.901E+00)
 search vector abs. value=  0.271E+02
 bond charge predicted
       N       E                     dE             d eps       ncg     rms          rms(c)
DAV:   1    -0.129165802380E+04    0.24322E+02   -0.49647E+03 15806   0.742E+01    0.406E+01
DAV:   2    -0.150698043460E+04   -0.21532E+03   -0.44899E+02 16008   0.101E+02    0.366E+02
DAV:   3    -0.150204669570E+04    0.49337E+01   -0.30660E+02 15045   0.713E+01    0.175E+02
DAV:   4    -0.156120060164E+04   -0.59154E+02   -0.85690E+01 13392   0.813E+01    0.174E+02
DAV:   5    -0.149994194834E+04    0.61259E+02   -0.80281E+01 15608   0.676E+01    0.159E+02
DAV:   6    -0.141422086970E+04    0.85721E+02   -0.42981E+01 13240   0.469E+01    0.141E+02
DAV:   7    -0.136635353873E+04    0.47867E+02   -0.40398E+01 12912   0.313E+01    0.790E+01
DAV:   8    -0.134923294848E+04    0.17121E+02   -0.20508E+01 13392   0.277E+01    0.635E+01
DAV:   9    -0.135072416296E+04   -0.14912E+01   -0.16761E+01 13328   0.234E+01    0.732E+01
DAV:  10    -0.133975689237E+04    0.10967E+02   -0.13409E+01 13264   0.211E+01    0.594E+01
DAV:  11    -0.133383465655E+04    0.59222E+01   -0.94435E+00 13264   0.177E+01    0.468E+01
DAV:  12    -0.133526855511E+04   -0.14339E+01   -0.69356E+00 13320   0.167E+01    0.588E+01
DAV:  13    -0.133479502545E+04    0.47353E+00   -0.81897E+00 13408   0.179E+01    0.586E+01
DAV:  14    -0.133029880728E+04    0.44962E+01   -0.76930E+00 13488   0.174E+01    0.568E+01
DAV:  15    -0.132586882043E+04    0.44300E+01   -0.68489E+00 15696   0.145E+01    0.462E+01
DAV:  16    -0.132364141901E+04    0.22274E+01   -0.40956E+00 14480   0.103E+01    0.403E+01
DAV:  17    -0.132495682636E+04   -0.13154E+01   -0.32475E+00 13584   0.106E+01    0.474E+01
DAV:  18    -0.132523833576E+04   -0.28151E+00   -0.30085E+00 13440   0.108E+01    0.471E+01
DAV:  19    -0.132326305863E+04    0.19753E+01   -0.23492E+00 13456   0.934E+00    0.384E+01
DAV:  20    -0.132259193771E+04    0.67112E+00   -0.16969E+00 13456   0.836E+00    0.355E+01
DAV:  21    -0.132311397755E+04   -0.52204E+00   -0.16772E+00 13424   0.849E+00    0.366E+01
DAV:  22    -0.132490885891E+04   -0.17949E+01   -0.22247E+00 13480   0.102E+01    0.446E+01
DAV:  23    -0.132360630312E+04    0.13026E+01   -0.19923E+00 13456   0.942E+00    0.381E+01
DAV:  24    -0.132248451309E+04    0.11218E+01   -0.12846E+00 13448   0.707E+00    0.339E+01
DAV:  25    -0.132189058315E+04    0.59393E+00   -0.68656E-01 13408   0.469E+00    0.310E+01
DAV:  26    -0.132156818349E+04    0.32240E+00   -0.52600E-01 13456   0.388E+00    0.283E+01
DAV:  27    -0.132147841779E+04    0.89766E-01   -0.53303E-01 13456   0.387E+00    0.278E+01
DAV:  28    -0.132115154825E+04    0.32687E+00   -0.45475E-01 13456   0.381E+00    0.239E+01
DAV:  29    -0.132126251757E+04   -0.11097E+00   -0.41373E-01 13472   0.398E+00    0.247E+01
DAV:  30    -0.132136073093E+04   -0.98213E-01   -0.47925E-01 13440   0.403E+00    0.259E+01
DAV:  31    -0.132100461579E+04    0.35612E+00   -0.36777E-01 13472   0.342E+00    0.230E+01
DAV:  32    -0.132081788034E+04    0.18674E+00   -0.17054E-01 13400   0.230E+00    0.218E+01
DAV:  33    -0.132071598907E+04    0.10189E+00   -0.12345E-01 13456   0.180E+00    0.203E+01
DAV:  34    -0.132065851238E+04    0.57477E-01   -0.89187E-02 13496   0.155E+00    0.189E+01
DAV:  35    -0.132072466567E+04   -0.66153E-01   -0.11124E-01 13512   0.183E+00    0.192E+01
DAV:  36    -0.132068111082E+04    0.43555E-01   -0.62116E-02 13472   0.114E+00    0.185E+01
DAV:  37    -0.132067067202E+04    0.10439E-01   -0.51753E-02 13488   0.122E+00    0.185E+01
DAV:  38    -0.132063007121E+04    0.40601E-01   -0.38448E-02 13560   0.108E+00    0.182E+01
DAV:  39    -0.132060582640E+04    0.24245E-01   -0.17657E-02 13456   0.590E-01    0.178E+01
DAV:  40    -0.132060861428E+04   -0.27879E-02   -0.17275E-02 13456   0.707E-01    0.177E+01
DAV:  41    -0.132061547364E+04   -0.68594E-02   -0.19055E-02 13456   0.777E-01    0.174E+01
DAV:  42    -0.132059657185E+04    0.18902E-01   -0.15032E-02 13432   0.722E-01    0.168E+01
DAV:  43    -0.132057963605E+04    0.16936E-01   -0.10563E-02 13448   0.598E-01    0.165E+01
DAV:  44    -0.132055646677E+04    0.23169E-01   -0.82253E-03 13416   0.468E-01    0.160E+01
DAV:  45    -0.132053555346E+04    0.20913E-01   -0.75612E-03 13504   0.523E-01    0.156E+01
DAV:  46    -0.132052799995E+04    0.75535E-02   -0.31343E-03 13712   0.258E-01    0.154E+01
DAV:  47    -0.132096762821E+04   -0.43963E+00   -0.54915E-01 16784   0.375E+00    0.123E+01
DAV:  48    -0.132092228353E+04    0.45345E-01   -0.27534E-01 15432   0.284E+00    0.118E+01
DAV:  49    -0.132092001495E+04    0.22686E-02   -0.23247E-01 14552   0.275E+00    0.115E+01
DAV:  50    -0.132080819756E+04    0.11182E+00   -0.21481E-01 14240   0.284E+00    0.112E+01
DAV:  51    -0.132069738523E+04    0.11081E+00   -0.13154E-01 14064   0.222E+00    0.102E+01
DAV:  52    -0.132089101109E+04   -0.19363E+00   -0.31007E-01 18440   0.320E+00    0.153E+01
DAV:  53    -0.132067948818E+04    0.21152E+00   -0.28002E-01 16864   0.296E+00    0.110E+01
DAV:  54    -0.132051331283E+04    0.16618E+00   -0.17875E-01 16392   0.232E+00    0.743E+00
DAV:  55    -0.132044271578E+04    0.70597E-01   -0.94102E-02 15784   0.167E+00    0.494E+00
DAV:  56    -0.132040287714E+04    0.39839E-01   -0.50120E-02 15384   0.127E+00    0.318E+00
DAV:  57    -0.132054276238E+04   -0.13989E+00   -0.87207E-02 15976   0.169E+00    0.809E+00
DAV:  58    -0.132041073193E+04    0.13203E+00   -0.78769E-02 14184   0.157E+00    0.399E+00
DAV:  59    -0.132039476578E+04    0.15966E-01   -0.23311E-02 13888   0.786E-01    0.259E+00
DAV:  60    -0.132039746609E+04   -0.27003E-02   -0.17855E-02 13624   0.785E-01
 -----------------------------------------------------------------------------
|                                                                             |
|           W    W    AA    RRRRR   N    N  II  N    N   GGGG   !!!           |
|           W    W   A  A   R    R  NN   N  II  NN   N  G    G  !!!           |
|           W    W  A    A  R    R  N N  N  II  N N  N  G       !!!           |
|           W WW W  AAAAAA  RRRRR   N  N N  II  N  N N  G  GGG   !            |
|           WW  WW  A    A  R   R   N   NN  II  N   NN  G    G                |
|           W    W  A    A  R    R  N    N  II  N    N   GGGG   !!!           |
|                                                                             |
|     The electronic self-consistency was not achieved in the given           |
|     number of steps (NELM). The forces and other quantities evaluated       |
|     might not be reliable so examine the results carefully. If you find     |
|     spurious results, we suggest increasing NELM, if you were close to      |
|     convergence or switching to a different ALGO or adjusting the           |
|     density mixing parameters otherwise.                                    |
|                                                                             |
 -----------------------------------------------------------------------------

   4 F= -.14182373E+04 E0= -.14175131E+04  d E =-.449466E+01
 trial-energy change:   -4.494664  1 .order   -9.471449  -20.637243    1.694345
 step:   0.5447(harm=  0.8328)  dis= 0.24719  next Energy= -1418.880515 (dE=-0.514E+01)
 bond charge predicted
       N       E                     dE             d eps       ncg     rms          rms(c)
DAV:   1    -0.131919117326E+04    0.12036E+01   -0.82088E+02 12160   0.291E+01    0.112E+01
DAV:   2    -0.139257017565E+04   -0.73379E+02   -0.33523E+01 15592   0.418E+01    0.115E+02
DAV:   3    -0.135035027923E+04    0.42220E+02   -0.21388E+01 13048   0.354E+01    0.805E+01
DAV:   4    -0.133207725775E+04    0.18273E+02   -0.61968E+00 13648   0.202E+01    0.475E+01
DAV:   5    -0.132719783157E+04    0.48794E+01   -0.41202E+00 13504   0.127E+01    0.405E+01
DAV:   6    -0.132971903059E+04   -0.25212E+01   -0.40581E+00 13712   0.121E+01    0.522E+01
DAV:   7    -0.133005678021E+04   -0.33775E+00   -0.45379E+00 13696   0.150E+01    0.567E+01
DAV:   8    -0.132713587975E+04    0.29209E+01   -0.53445E+00 15536   0.133E+01    0.464E+01
DAV:   9    -0.132397445377E+04    0.31614E+01   -0.38766E+00 15264   0.121E+01    0.361E+01
DAV:  10    -0.132193032333E+04    0.20441E+01   -0.20288E+00 13536   0.782E+00    0.228E+01
DAV:  11    -0.132218889867E+04   -0.25858E+00   -0.15185E+00 13312   0.654E+00    0.257E+01
DAV:  12    -0.132196034694E+04    0.22855E+00   -0.12787E+00 13440   0.606E+00    0.221E+01
DAV:  13    -0.132132306899E+04    0.63728E+00   -0.82660E-01 13376   0.516E+00    0.171E+01
DAV:  14    -0.132093535099E+04    0.38772E+00   -0.39360E-01 13368   0.348E+00    0.118E+01
DAV:  15    -0.132105075271E+04   -0.11540E+00   -0.31229E-01 13440   0.315E+00    0.134E+01
DAV:  16    -0.132106739669E+04   -0.16644E-01   -0.33681E-01 13424   0.311E+00    0.127E+01
DAV:  17    -0.132094734438E+04    0.12005E+00   -0.28475E-01 13384   0.292E+00    0.108E+01
DAV:  18    -0.132079659268E+04    0.15075E+00   -0.18473E-01 13344   0.226E+00    0.714E+00
DAV:  19    -0.132073901359E+04    0.57579E-01   -0.99164E-02 13328   0.167E+00    0.543E+00
DAV:  20    -0.132081340716E+04   -0.74394E-01   -0.11419E-01 13456   0.182E+00    0.793E+00
DAV:  21    -0.132076513536E+04    0.48272E-01   -0.12200E-01 13448   0.193E+00    0.655E+00
DAV:  22    -0.132074238733E+04    0.22748E-01   -0.99681E-02 13448   0.174E+00    0.611E+00
DAV:  23    -0.132074197408E+04    0.41325E-03   -0.91709E-02 13416   0.150E+00    0.581E+00
DAV:  24    -0.132073162543E+04    0.10349E-01   -0.71564E-02 13352   0.143E+00    0.494E+00
DAV:  25    -0.132070383638E+04    0.27789E-01   -0.43207E-02 13328   0.124E+00    0.446E+00
DAV:  26    -0.132068567219E+04    0.18164E-01   -0.22078E-02 13456   0.754E-01    0.349E+00
DAV:  27    -0.132068283529E+04    0.28369E-02   -0.15138E-02 13408   0.657E-01    0.315E+00
DAV:  28    -0.132069285738E+04   -0.10022E-01   -0.19022E-02 13448   0.778E-01    0.383E+00
DAV:  29    -0.132067112755E+04    0.21730E-01   -0.18961E-02 13344   0.714E-01    0.217E+00
DAV:  30    -0.132066339029E+04    0.77373E-02   -0.68844E-03 13472   0.447E-01    0.120E+00
DAV:  31    -0.132066686002E+04   -0.34697E-02   -0.60522E-03 13488   0.391E-01    0.169E+00
DAV:  32    -0.132066666036E+04    0.19966E-03   -0.64907E-03 13440   0.391E-01    0.153E+00
DAV:  33    -0.132066354707E+04    0.31133E-02   -0.43000E-03 13408   0.353E-01    0.114E+00
DAV:  34    -0.132066223928E+04    0.13078E-02   -0.23112E-03 13408   0.242E-01    0.898E-01
DAV:  35    -0.132066154164E+04    0.69764E-03   -0.12498E-03 13456   0.180E-01    0.647E-01
DAV:  36    -0.132066148524E+04    0.56403E-04   -0.88860E-04 13504   0.161E-01    0.608E-01
DAV:  37    -0.132066113365E+04    0.35159E-03   -0.78107E-04 13504   0.145E-01    0.545E-01
DAV:  38    -0.132066092690E+04    0.20675E-03   -0.50062E-04 13384   0.105E-01    0.443E-01
DAV:  39    -0.132066097405E+04   -0.47151E-04   -0.35449E-04 13456   0.995E-02    0.423E-01
DAV:  40    -0.132066091936E+04    0.54685E-04   -0.33989E-04 13488   0.105E-01    0.376E-01
DAV:  41    -0.132066070230E+04    0.21706E-03   -0.21256E-04 13488   0.869E-02    0.246E-01
DAV:  42    -0.132066070522E+04   -0.29202E-05   -0.11296E-04 13552   0.607E-02    0.239E-01
DAV:  43    -0.132066075745E+04   -0.52236E-04   -0.12962E-04 13616   0.664E-02    0.238E-01
DAV:  44    -0.132066063750E+04    0.11995E-03   -0.10237E-04 13576   0.583E-02    0.119E-01
DAV:  45    -0.132066062557E+04    0.11928E-04   -0.39829E-05 12392   0.336E-02    0.953E-02
DAV:  46    -0.132066063893E+04   -0.13354E-04   -0.31993E-05 11496   0.295E-02    0.101E-01
DAV:  47    -0.132066062877E+04    0.10161E-04   -0.29884E-05 11288   0.295E-02    0.758E-02
DAV:  48    -0.132066061915E+04    0.96196E-05   -0.14813E-05  7160   0.204E-02    0.468E-02
DAV:  49    -0.132066062023E+04   -0.10857E-05   -0.63246E-06  6352   0.125E-02
   5 F= -.14184387E+04 E0= -.14177144E+04  d E =-.469607E+01
 curvature:   8.26 expect dE= 0.167E+02 dE for cont linesearch  0.215E+00
 ZBRENT: interpolating
 opt :   0.6547  next Energy= -1418.484887 (dE=-0.474E+01)
 bond charge predicted
       N       E                     dE             d eps       ncg     rms          rms(c)
DAV:   1    -0.132059733106E+04    0.63288E-01   -0.68115E+01 12152   0.810E+00    0.246E+00
DAV:   2    -0.132225423831E+04   -0.16569E+01   -0.11005E+00 13604   0.478E+00    0.294E+01
DAV:   3    -0.132285320267E+04   -0.59896E+00   -0.99949E-01 12736   0.596E+00    0.338E+01
DAV:   4    -0.132090060488E+04    0.19526E+01   -0.81727E-01 13608   0.476E+00    0.996E+00
DAV:   5    -0.132113443347E+04   -0.23383E+00   -0.34985E-01 13448   0.322E+00    0.145E+01
DAV:   6    -0.132109740090E+04    0.37033E-01   -0.42948E-01 13344   0.347E+00    0.124E+01
DAV:   7    -0.132098664577E+04    0.11076E+00   -0.33466E-01 13240   0.327E+00    0.111E+01
DAV:   8    -0.132083112322E+04    0.15552E+00   -0.25616E-01 13232   0.262E+00    0.764E+00
DAV:   9    -0.132077630974E+04    0.54813E-01   -0.13955E-01 13232   0.198E+00    0.631E+00
DAV:  10    -0.132078721089E+04   -0.10901E-01   -0.12068E-01 13248   0.178E+00    0.663E+00
DAV:  11    -0.132081138963E+04   -0.24179E-01   -0.11965E-01 13352   0.186E+00    0.691E+00
DAV:  12    -0.132074707751E+04    0.64312E-01   -0.92017E-02 13328   0.173E+00    0.506E+00
DAV:  13    -0.132071167741E+04    0.35400E-01   -0.54282E-02 13192   0.123E+00    0.360E+00
DAV:  14    -0.132071149273E+04    0.18468E-03   -0.40708E-02 13296   0.106E+00    0.339E+00
DAV:  15    -0.132073695639E+04   -0.25464E-01   -0.36028E-02 13296   0.109E+00    0.487E+00
DAV:  16    -0.132070142537E+04    0.35531E-01   -0.34407E-02 13296   0.938E-01    0.297E+00
DAV:  17    -0.132068886865E+04    0.12557E-01   -0.13599E-02 13208   0.690E-01    0.196E+00
DAV:  18    -0.132069748862E+04   -0.86200E-02   -0.11961E-02 13424   0.625E-01    0.259E+00
DAV:  19    -0.132070048246E+04   -0.29938E-02   -0.16589E-02 13424   0.665E-01    0.295E+00
DAV:  20    -0.132068486546E+04    0.15617E-01   -0.11768E-02 13392   0.571E-01    0.131E+00
DAV:  21    -0.132068186398E+04    0.30015E-02   -0.31222E-03 13344   0.323E-01    0.872E-01
DAV:  22    -0.132068192390E+04   -0.59916E-04   -0.21001E-03 13408   0.226E-01    0.880E-01
DAV:  23    -0.132068235942E+04   -0.43552E-03   -0.20282E-03 13408   0.242E-01    0.888E-01
DAV:  24    -0.132068158002E+04    0.77940E-03   -0.16729E-03 13376   0.226E-01    0.794E-01
DAV:  25    -0.132068069120E+04    0.88882E-03   -0.94286E-04 13336   0.154E-01    0.478E-01
DAV:  26    -0.132068050625E+04    0.18496E-03   -0.43296E-04 13432   0.113E-01    0.351E-01
DAV:  27    -0.132068076220E+04   -0.25595E-03   -0.40971E-04 13496   0.119E-01    0.431E-01
DAV:  28    -0.132068099890E+04   -0.23670E-03   -0.56620E-04 13368   0.130E-01    0.599E-01
DAV:  29    -0.132068056101E+04    0.43789E-03   -0.43382E-04 13328   0.105E-01    0.413E-01
DAV:  30    -0.132068048085E+04    0.80161E-04   -0.17206E-04 13424   0.739E-02    0.375E-01
DAV:  31    -0.132068052430E+04   -0.43447E-04   -0.19677E-04 13312   0.683E-02    0.387E-01
DAV:  32    -0.132068039313E+04    0.13117E-03   -0.20536E-04 13400   0.786E-02    0.244E-01
DAV:  33    -0.132068025755E+04    0.13558E-03   -0.93155E-05 13304   0.611E-02    0.144E-01
DAV:  34    -0.132068025795E+04   -0.39302E-06   -0.34418E-05 10640   0.314E-02
   6 F= -.14184581E+04 E0= -.14177338E+04  d E =-.471549E+01
 curvature:  -1.78 expect dE=-0.365E+01 dE for cont linesearch -0.101E-01
 trial: gam= 0.12647 g(F)=  0.205E+01 g(S)=  0.000E+00 ort =-0.392E+00 (trialstep = 0.852E+00)
 search vector abs. value=  0.239E+01
 bond charge predicted
       N       E                     dE             d eps       ncg     rms          rms(c)
DAV:   1    -0.132164326724E+04   -0.96301E+00   -0.29388E+02 12152   0.165E+01    0.105E+01
DAV:   2    -0.132593961367E+04   -0.42963E+01   -0.75823E+00 13448   0.104E+01    0.347E+01
DAV:   3    -0.132895488929E+04   -0.30153E+01   -0.46850E+00 13408   0.134E+01    0.561E+01
DAV:   4    -0.133068011320E+04   -0.17252E+01   -0.40481E+00 13344   0.119E+01    0.637E+01
DAV:   5    -0.132471818608E+04    0.59619E+01   -0.26434E+00 13360   0.100E+01    0.331E+01
DAV:   6    -0.132377488470E+04    0.94330E+00   -0.16498E+00 13360   0.812E+00    0.266E+01
DAV:   7    -0.132452446081E+04   -0.74958E+00   -0.14367E+00 13456   0.828E+00    0.294E+01
DAV:   8    -0.132588442551E+04   -0.13600E+01   -0.18311E+00 13488   0.945E+00    0.366E+01
DAV:   9    -0.132588165750E+04    0.27680E-02   -0.22075E+00 13408   0.107E+01    0.346E+01
DAV:  10    -0.132715167312E+04   -0.12700E+01   -0.26885E+00 13456   0.119E+01    0.404E+01
DAV:  11    -0.132644666469E+04    0.70501E+00   -0.25036E+00 13432   0.110E+01    0.371E+01
DAV:  12    -0.132483641996E+04    0.16102E+01   -0.19838E+00 13496   0.985E+00    0.302E+01
DAV:  13    -0.132440644273E+04    0.42998E+00   -0.15702E+00 13432   0.823E+00    0.301E+01
DAV:  14    -0.132433862974E+04    0.67813E-01   -0.15022E+00 13376   0.773E+00    0.275E+01
DAV:  15    -0.132368827029E+04    0.65036E+00   -0.11253E+00 13528   0.708E+00    0.227E+01
DAV:  16    -0.132286833231E+04    0.81994E+00   -0.71730E-01 13472   0.538E+00    0.169E+01
DAV:  17    -0.132259000909E+04    0.27832E+00   -0.41476E-01 13400   0.356E+00    0.138E+01
DAV:  18    -0.132253512168E+04    0.54887E-01   -0.28945E-01 13432   0.301E+00    0.125E+01
DAV:  19    -0.132241571608E+04    0.11941E+00   -0.24190E-01 13488   0.269E+00    0.107E+01
DAV:  20    -0.132222262890E+04    0.19309E+00   -0.15287E-01 13464   0.217E+00    0.605E+00
DAV:  21    -0.132219408932E+04    0.28540E-01   -0.69980E-02 13432   0.146E+00    0.517E+00
DAV:  22    -0.132225249599E+04   -0.58407E-01   -0.79835E-02 13368   0.149E+00    0.748E+00
DAV:  23    -0.132217335058E+04    0.79145E-01   -0.72668E-02 13480   0.145E+00    0.400E+00
DAV:  24    -0.132214130810E+04    0.32042E-01   -0.30805E-02 13432   0.100E+00    0.241E+00
DAV:  25    -0.132214444561E+04   -0.31375E-02   -0.20339E-02 13416   0.685E-01    0.278E+00
DAV:  26    -0.132214830312E+04   -0.38575E-02   -0.19038E-02 13400   0.701E-01    0.284E+00
DAV:  27    -0.132215639868E+04   -0.80956E-02   -0.20118E-02 13472   0.801E-01    0.372E+00
DAV:  28    -0.132214630695E+04    0.10092E-01   -0.16932E-02 13360   0.655E-01    0.309E+00
DAV:  29    -0.132214451956E+04    0.17874E-02   -0.11000E-02 13456   0.580E-01    0.288E+00
DAV:  30    -0.132214417774E+04    0.34182E-03   -0.10237E-02 13432   0.569E-01    0.262E+00
DAV:  31    -0.132213613963E+04    0.80381E-02   -0.10727E-02 13376   0.538E-01    0.196E+00
DAV:  32    -0.132213009759E+04    0.60420E-02   -0.54614E-03 13456   0.375E-01    0.107E+00
DAV:  33    -0.132212979138E+04    0.30621E-03   -0.26114E-03 13424   0.284E-01    0.965E-01
DAV:  34    -0.132213358666E+04   -0.37953E-02   -0.43073E-03 13488   0.332E-01    0.163E+00
DAV:  35    -0.132212981062E+04    0.37760E-02   -0.40533E-03 13504   0.330E-01    0.923E-01
DAV:  36    -0.132212817678E+04    0.16338E-02   -0.12165E-03 13328   0.207E-01    0.556E-01
DAV:  37    -0.132212810303E+04    0.73747E-04   -0.57376E-04 13424   0.127E-01    0.526E-01
DAV:  38    -0.132212836031E+04   -0.25728E-03   -0.65249E-04 13392   0.125E-01    0.602E-01
DAV:  39    -0.132212789677E+04    0.46354E-03   -0.58595E-04 13432   0.125E-01    0.377E-01
DAV:  40    -0.132212763690E+04    0.25987E-03   -0.21166E-04 13488   0.839E-02    0.198E-01
DAV:  41    -0.132212770501E+04   -0.68108E-04   -0.13936E-04 13568   0.671E-02    0.241E-01
DAV:  42    -0.132212768783E+04    0.17182E-04   -0.14286E-04 13640   0.691E-02    0.228E-01
DAV:  43    -0.132212759700E+04    0.90833E-04   -0.82203E-05 13560   0.526E-02    0.166E-01
DAV:  44    -0.132212760189E+04   -0.48992E-05   -0.44745E-05 12688   0.364E-02
   7 F= -.14199262E+04 E0= -.14192052E+04  d E =-.146803E+01
 ZBRENT: can't locate minimum, use default step
 trial-energy change:   -1.468025  1 .order   -1.471299   -1.706420   -1.236179
 step:   3.4077(harm=  3.0915)  dis= 0.41667  next Energy= -1421.789491 (dE=-0.333E+01)
 bond charge predicted
       N       E                     dE             d eps       ncg     rms          rms(c)
DAV:   1    -0.131351153009E+04    0.86161E+01   -0.27401E+03 12152   0.546E+01    0.185E+01
DAV:   2    -0.137331199407E+04   -0.59800E+02   -0.91381E+01 13624   0.436E+01    0.939E+01
DAV:   3    -0.140536901151E+04   -0.32057E+02   -0.51116E+01 13056   0.508E+01    0.130E+02
DAV:   4    -0.134075235028E+04    0.64617E+02   -0.18115E+01 13104   0.344E+01    0.716E+01
DAV:   5    -0.133308138455E+04    0.76710E+01   -0.10713E+01 13600   0.199E+01    0.553E+01
DAV:   6    -0.133418792402E+04   -0.11065E+01   -0.10254E+01 13552   0.204E+01    0.562E+01
DAV:   7    -0.132955281739E+04    0.46351E+01   -0.85762E+00 13224   0.175E+01    0.455E+01
DAV:   8    -0.132833805111E+04    0.12148E+01   -0.51103E+00 13176   0.141E+01    0.450E+01
DAV:   9    -0.132546086949E+04    0.28772E+01   -0.25412E+00 13104   0.925E+00    0.286E+01
DAV:  10    -0.132642332609E+04   -0.96246E+00   -0.20633E+00 13184   0.906E+00    0.335E+01
DAV:  11    -0.132806424929E+04   -0.16409E+01   -0.19376E+00 13328   0.102E+01    0.411E+01
DAV:  12    -0.132873402013E+04   -0.66977E+00   -0.22815E+00 13312   0.107E+01    0.411E+01
DAV:  13    -0.132830660891E+04    0.42741E+00   -0.23080E+00 13320   0.117E+01    0.415E+01
DAV:  14    -0.132739413807E+04    0.91247E+00   -0.23606E+00 13296   0.109E+01    0.374E+01
DAV:  15    -0.132851741576E+04   -0.11233E+01   -0.24590E+00 13448   0.107E+01    0.427E+01
DAV:  16    -0.132767925182E+04    0.83816E+00   -0.22191E+00 13520   0.936E+00    0.375E+01
DAV:  17    -0.132738980371E+04    0.28945E+00   -0.21759E+00 13360   0.101E+01    0.374E+01
DAV:  18    -0.132603303365E+04    0.13568E+01   -0.17691E+00 13408   0.945E+00    0.300E+01
DAV:  19    -0.132519616832E+04    0.83687E+00   -0.12599E+00 13496   0.731E+00    0.241E+01
DAV:  20    -0.132520927914E+04   -0.13111E-01   -0.11785E+00 13344   0.647E+00    0.239E+01
DAV:  21    -0.132513883180E+04    0.70447E-01   -0.10779E+00 13400   0.653E+00    0.247E+01
DAV:  22    -0.132426173531E+04    0.87710E+00   -0.84176E-01 13480   0.537E+00    0.157E+01
DAV:  23    -0.132377171759E+04    0.49002E+00   -0.34689E-01 13408   0.332E+00    0.876E+00
DAV:  24    -0.132377918212E+04   -0.74645E-02   -0.19507E-01 13432   0.228E+00    0.987E+00
DAV:  25    -0.132383118528E+04   -0.52003E-01   -0.21274E-01 13344   0.237E+00    0.106E+01
DAV:  26    -0.132367950211E+04    0.15168E+00   -0.14716E-01 13472   0.214E+00    0.649E+00
DAV:  27    -0.132362220542E+04    0.57297E-01   -0.76334E-02 13312   0.149E+00    0.524E+00
DAV:  28    -0.132361226398E+04    0.99414E-02   -0.55163E-02 13352   0.120E+00    0.468E+00
DAV:  29    -0.132365769842E+04   -0.45434E-01   -0.66960E-02 13344   0.136E+00    0.612E+00
DAV:  30    -0.132362333520E+04    0.34363E-01   -0.71795E-02 13344   0.136E+00    0.497E+00
DAV:  31    -0.132358989660E+04    0.33439E-01   -0.46226E-02 13360   0.109E+00    0.354E+00
DAV:  32    -0.132358146212E+04    0.84345E-02   -0.24396E-02 13328   0.831E-01    0.300E+00
DAV:  33    -0.132359600212E+04   -0.14540E-01   -0.25287E-02 13360   0.861E-01    0.376E+00
DAV:  34    -0.132360139260E+04   -0.53905E-02   -0.35803E-02 13320   0.938E-01    0.413E+00
DAV:  35    -0.132357121622E+04    0.30176E-01   -0.22322E-02 13424   0.772E-01    0.185E+00
DAV:  36    -0.132356622488E+04    0.49913E-02   -0.71584E-03 13288   0.482E-01    0.141E+00
DAV:  37    -0.132357031008E+04   -0.40852E-02   -0.70389E-03 13320   0.415E-01    0.191E+00
DAV:  38    -0.132356922488E+04    0.10852E-02   -0.81397E-03 13448   0.466E-01    0.170E+00
DAV:  39    -0.132356294508E+04    0.62798E-02   -0.37189E-03 13304   0.348E-01    0.824E-01
DAV:  40    -0.132356257732E+04    0.36776E-03   -0.12135E-03 13408   0.193E-01    0.767E-01
DAV:  41    -0.132356384392E+04   -0.12666E-02   -0.16614E-03 13376   0.233E-01    0.978E-01
DAV:  42    -0.132356197994E+04    0.18640E-02   -0.11145E-03 13328   0.182E-01    0.589E-01
DAV:  43    -0.132356186172E+04    0.11822E-03   -0.63867E-04 13368   0.149E-01    0.585E-01
DAV:  44    -0.132356212820E+04   -0.26648E-03   -0.55613E-04 13424   0.131E-01    0.621E-01
DAV:  45    -0.132356178626E+04    0.34193E-03   -0.50499E-04 13520   0.128E-01    0.571E-01
DAV:  46    -0.132356152310E+04    0.26317E-03   -0.17457E-04 13480   0.528E-02    0.479E-01
DAV:  47    -0.132356363116E+04   -0.21081E-02   -0.25204E-03 21344   0.281E-01    0.944E-01
DAV:  48    -0.132356200857E+04    0.16226E-02   -0.16902E-03 16208   0.234E-01    0.644E-01
DAV:  49    -0.132356143785E+04    0.57072E-03   -0.72448E-04 15704   0.141E-01    0.413E-01
DAV:  50    -0.132356174600E+04   -0.30815E-03   -0.74970E-04 15352   0.156E-01    0.511E-01
DAV:  51    -0.132356152998E+04    0.21602E-03   -0.78430E-04 15056   0.160E-01    0.438E-01
DAV:  52    -0.132356258382E+04   -0.10538E-02   -0.12661E-03 15080   0.198E-01    0.826E-01
DAV:  53    -0.132356132871E+04    0.12551E-02   -0.96454E-04 14384   0.166E-01    0.366E-01
DAV:  54    -0.132356110369E+04    0.22502E-03   -0.21058E-04 13424   0.896E-02    0.283E-01
DAV:  55    -0.132356111210E+04   -0.84073E-05   -0.15496E-04 13488   0.653E-02    0.250E-01
DAV:  56    -0.132356108452E+04    0.27579E-04   -0.15519E-04 13416   0.672E-02    0.234E-01
DAV:  57    -0.132356142488E+04   -0.34035E-03   -0.28165E-04 13584   0.915E-02    0.441E-01
DAV:  58    -0.132356099054E+04    0.43433E-03   -0.28492E-04 13344   0.847E-02    0.135E-01
DAV:  59    -0.132356100382E+04   -0.13278E-04   -0.50440E-05 12464   0.392E-02    0.138E-01
DAV:  60    -0.132356097975E+04    0.24069E-04   -0.36126E-05 12096   0.344E-02
 -----------------------------------------------------------------------------
|                                                                             |
|           W    W    AA    RRRRR   N    N  II  N    N   GGGG   !!!           |
|           W    W   A  A   R    R  NN   N  II  NN   N  G    G  !!!           |
|           W    W  A    A  R    R  N N  N  II  N N  N  G       !!!           |
|           W WW W  AAAAAA  RRRRR   N  N N  II  N  N N  G  GGG   !            |
|           WW  WW  A    A  R   R   N   NN  II  N   NN  G    G                |
|           W    W  A    A  R    R  N    N  II  N    N   GGGG   !!!           |
|                                                                             |
|     The electronic self-consistency was not achieved in the given           |
|     number of steps (NELM). The forces and other quantities evaluated       |
|     might not be reliable so examine the results carefully. If you find     |
|     spurious results, we suggest increasing NELM, if you were close to      |
|     convergence or switching to a different ALGO or adjusting the           |
|     density mixing parameters otherwise.                                    |
|                                                                             |
 -----------------------------------------------------------------------------

   8 F= -.14214784E+04 E0= -.14207651E+04  d E =-.302028E+01
 curvature:  -1.81 expect dE=-0.154E+01 dE for cont linesearch -0.161E-01
 trial: gam= 0.41793 g(F)=  0.855E+00 g(S)=  0.000E+00 ort =-0.146E+00 (trialstep = 0.136E+01)
 search vector abs. value=  0.115E+01
 bond charge predicted
       N       E                     dE             d eps       ncg     rms          rms(c)
DAV:   1    -0.132335463200E+04    0.20637E+00   -0.35330E+02 12152   0.189E+01    0.690E+00
DAV:   2    -0.133258447322E+04   -0.92298E+01   -0.11361E+01 13208   0.131E+01    0.477E+01
DAV:   3    -0.133347199617E+04   -0.88752E+00   -0.46198E+00 13064   0.163E+01    0.657E+01
DAV:   4    -0.133203237794E+04    0.14396E+01   -0.38144E+00 13120   0.129E+01    0.599E+01
DAV:   5    -0.132787592687E+04    0.41565E+01   -0.35436E+00 13200   0.109E+01    0.394E+01
DAV:   6    -0.132717521780E+04    0.70071E+00   -0.24083E+00 13296   0.101E+01    0.298E+01
DAV:   7    -0.132803680286E+04   -0.86159E+00   -0.17931E+00 13216   0.986E+00    0.371E+01
DAV:   8    -0.132577100914E+04    0.22658E+01   -0.13839E+00 13248   0.780E+00    0.199E+01
DAV:   9    -0.132505049383E+04    0.72052E+00   -0.70448E-01 13176   0.545E+00    0.152E+01
DAV:  10    -0.132523813105E+04   -0.18764E+00   -0.57202E-01 13232   0.450E+00    0.187E+01
DAV:  11    -0.132480466129E+04    0.43347E+00   -0.49438E-01 13296   0.407E+00    0.127E+01
DAV:  12    -0.132453642218E+04    0.26824E+00   -0.27852E-01 13224   0.301E+00    0.896E+00
DAV:  13    -0.132445033062E+04    0.86092E-01   -0.16561E-01 13208   0.207E+00    0.693E+00
DAV:  14    -0.132446617442E+04   -0.15844E-01   -0.12401E-01 13232   0.187E+00    0.691E+00
DAV:  15    -0.132452238802E+04   -0.56214E-01   -0.13573E-01 13200   0.212E+00    0.813E+00
DAV:  16    -0.132452567566E+04   -0.32876E-02   -0.15782E-01 13248   0.215E+00    0.862E+00
DAV:  17    -0.132444198686E+04    0.83689E-01   -0.12426E-01 13216   0.193E+00    0.577E+00
DAV:  18    -0.132448679099E+04   -0.44804E-01   -0.99214E-02 13216   0.174E+00    0.706E+00
DAV:  19    -0.132454219693E+04   -0.55406E-01   -0.13228E-01 13232   0.195E+00    0.868E+00
DAV:  20    -0.132440114231E+04    0.14105E+00   -0.11000E-01 13272   0.180E+00    0.406E+00
DAV:  21    -0.132437850488E+04    0.22637E-01   -0.34227E-02 13360   0.109E+00    0.326E+00
DAV:  22    -0.132438128325E+04   -0.27784E-02   -0.27843E-02 13208   0.814E-01    0.339E+00
DAV:  23    -0.132438000456E+04    0.12787E-02   -0.26760E-02 13264   0.875E-01    0.295E+00
DAV:  24    -0.132436576980E+04    0.14235E-01   -0.18581E-02 13264   0.779E-01    0.228E+00
DAV:  25    -0.132436037910E+04    0.53907E-02   -0.87537E-03 13296   0.463E-01    0.172E+00
DAV:  26    -0.132435933008E+04    0.10490E-02   -0.49963E-03 13200   0.361E-01    0.154E+00
DAV:  27    -0.132436099480E+04   -0.16647E-02   -0.53361E-03 13296   0.403E-01    0.175E+00
DAV:  28    -0.132435970082E+04    0.12940E-02   -0.62525E-03 13224   0.412E-01    0.169E+00
DAV:  29    -0.132435522126E+04    0.44796E-02   -0.37739E-03 13392   0.322E-01    0.804E-01
DAV:  30    -0.132435456857E+04    0.65269E-03   -0.15858E-03 13360   0.231E-01    0.630E-01
DAV:  31    -0.132435611751E+04   -0.15489E-02   -0.19505E-03 13344   0.246E-01    0.106E+00
DAV:  32    -0.132435465048E+04    0.14670E-02   -0.20228E-03 13352   0.228E-01    0.754E-01
DAV:  33    -0.132435380250E+04    0.84798E-03   -0.88505E-04 13320   0.158E-01    0.488E-01
DAV:  34    -0.132435377288E+04    0.29611E-04   -0.45417E-04 13432   0.112E-01    0.471E-01
DAV:  35    -0.132435417280E+04   -0.39992E-03   -0.64123E-04 13360   0.125E-01    0.617E-01
DAV:  36    -0.132435378981E+04    0.38299E-03   -0.66421E-04 13416   0.134E-01    0.422E-01
DAV:  37    -0.132435360187E+04    0.18795E-03   -0.31245E-04 13424   0.105E-01    0.378E-01
DAV:  38    -0.132435363377E+04   -0.31901E-04   -0.19989E-04 13424   0.741E-02    0.397E-01
DAV:  39    -0.132435361577E+04    0.17998E-04   -0.24964E-04 13360   0.768E-02    0.360E-01
DAV:  40    -0.132435338035E+04    0.23542E-03   -0.16245E-04 13424   0.683E-02    0.164E-01
DAV:  41    -0.132435333792E+04    0.42434E-04   -0.56244E-05 13176   0.428E-02    0.104E-01
DAV:  42    -0.132435337806E+04   -0.40145E-04   -0.53092E-05 12864   0.425E-02    0.140E-01
DAV:  43    -0.132435336261E+04    0.15458E-04   -0.56983E-05 12776   0.446E-02    0.129E-01
DAV:  44    -0.132435332948E+04    0.33127E-04   -0.29555E-05 10712   0.319E-02    0.760E-02
DAV:  45    -0.132435332909E+04    0.38720E-06   -0.13008E-05  6752   0.200E-02
   9 F= -.14223192E+04 E0= -.14216085E+04  d E =-.840772E+00
 trial-energy change:   -0.840772  1 .order   -0.841679   -1.082074   -0.601284
 step:   3.0678(harm=  3.0678)  dis= 0.24670  next Energy= -1422.696093 (dE=-0.122E+01)
 bond charge predicted
       N       E                     dE             d eps       ncg     rms          rms(c)
DAV:   1    -0.132297102860E+04    0.13823E+01   -0.55476E+02 12152   0.236E+01    0.952E+00
DAV:   2    -0.133757315622E+04   -0.14602E+02   -0.18777E+01 13176   0.172E+01    0.568E+01
DAV:   3    -0.134098300262E+04   -0.34098E+01   -0.78067E+00 13088   0.218E+01    0.810E+01
DAV:   4    -0.133893980299E+04    0.20432E+01   -0.53206E+00 13104   0.178E+01    0.767E+01
DAV:   5    -0.133160728176E+04    0.73325E+01   -0.50637E+00 13176   0.147E+01    0.532E+01
DAV:   6    -0.132906711327E+04    0.25402E+01   -0.36329E+00 13240   0.135E+01    0.362E+01
DAV:   7    -0.133127938485E+04   -0.22123E+01   -0.30002E+00 13168   0.132E+01    0.472E+01
DAV:   8    -0.132758204991E+04    0.36973E+01   -0.23626E+00 13184   0.107E+01    0.273E+01
DAV:   9    -0.132639826924E+04    0.11838E+01   -0.13772E+00 13144   0.783E+00    0.239E+01
DAV:  10    -0.132628097617E+04    0.11729E+00   -0.11153E+00 13160   0.652E+00    0.242E+01
DAV:  11    -0.132557954280E+04    0.70143E+00   -0.83141E-01 13216   0.552E+00    0.181E+01
DAV:  12    -0.132512837359E+04    0.45117E+00   -0.54372E-01 13272   0.423E+00    0.140E+01
DAV:  13    -0.132490369542E+04    0.22468E+00   -0.33576E-01 13240   0.304E+00    0.105E+01
DAV:  14    -0.132482457254E+04    0.79123E-01   -0.21016E-01 13256   0.238E+00    0.828E+00
DAV:  15    -0.132486455950E+04   -0.39987E-01   -0.17944E-01 13184   0.236E+00    0.883E+00
DAV:  16    -0.132488244622E+04   -0.17887E-01   -0.20821E-01 13288   0.241E+00    0.957E+00
DAV:  17    -0.132479095603E+04    0.91490E-01   -0.16342E-01 13184   0.219E+00    0.669E+00
DAV:  18    -0.132487297279E+04   -0.82017E-01   -0.13217E-01 13168   0.201E+00    0.911E+00
DAV:  19    -0.132492465569E+04   -0.51683E-01   -0.18892E-01 13216   0.237E+00    0.966E+00
DAV:  20    -0.132477019885E+04    0.15446E+00   -0.15689E-01 13304   0.230E+00    0.578E+00
DAV:  21    -0.132472527007E+04    0.44929E-01   -0.71069E-02 13320   0.154E+00    0.459E+00
DAV:  22    -0.132474042872E+04   -0.15159E-01   -0.63024E-02 13200   0.131E+00    0.526E+00
DAV:  23    -0.132474396510E+04   -0.35364E-02   -0.62942E-02 13248   0.133E+00    0.508E+00
DAV:  24    -0.132471188751E+04    0.32078E-01   -0.54105E-02 13344   0.117E+00    0.399E+00
DAV:  25    -0.132468710988E+04    0.24778E-01   -0.24523E-02 13248   0.785E-01    0.238E+00
DAV:  26    -0.132468505233E+04    0.20576E-02   -0.93846E-03 13280   0.531E-01    0.216E+00
DAV:  27    -0.132469262963E+04   -0.75773E-02   -0.12593E-02 13328   0.598E-01    0.285E+00
DAV:  28    -0.132468372040E+04    0.89092E-02   -0.15007E-02 13312   0.596E-01    0.212E+00
DAV:  29    -0.132467659607E+04    0.71243E-02   -0.63915E-03 13288   0.440E-01    0.116E+00
DAV:  30    -0.132467880031E+04   -0.22042E-02   -0.44753E-03 13288   0.341E-01    0.155E+00
DAV:  31    -0.132467855918E+04    0.24113E-03   -0.53158E-03 13248   0.385E-01    0.139E+00
DAV:  32    -0.132467482007E+04    0.37391E-02   -0.32894E-03 13296   0.334E-01    0.920E-01
DAV:  33    -0.132467449994E+04    0.32013E-03   -0.14155E-03 13296   0.199E-01    0.907E-01
DAV:  34    -0.132467475266E+04   -0.25271E-03   -0.14183E-03 13304   0.183E-01    0.919E-01
DAV:  35    -0.132467470713E+04    0.45526E-04   -0.16068E-03 13336   0.228E-01    0.770E-01
DAV:  36    -0.132467367083E+04    0.10363E-02   -0.10628E-03 13288   0.194E-01    0.571E-01
DAV:  37    -0.132467358738E+04    0.83450E-04   -0.54777E-04 13288   0.121E-01    0.575E-01
DAV:  38    -0.132467376686E+04   -0.17948E-03   -0.56876E-04 13328   0.115E-01    0.618E-01
DAV:  39    -0.132467330411E+04    0.46275E-03   -0.50611E-04 13336   0.122E-01    0.358E-01
DAV:  40    -0.132467305631E+04    0.24780E-03   -0.27434E-04 13280   0.983E-02    0.215E-01
DAV:  41    -0.132467318769E+04   -0.13137E-03   -0.22354E-04 14304   0.857E-02    0.271E-01
DAV:  42    -0.132467326674E+04   -0.79051E-04   -0.26305E-04 14336   0.982E-02    0.312E-01
DAV:  43    -0.132467303977E+04    0.22697E-03   -0.18711E-04 14160   0.828E-02    0.173E-01
DAV:  44    -0.132467300609E+04    0.33672E-04   -0.57723E-05 13344   0.428E-02    0.122E-01
DAV:  45    -0.132467303318E+04   -0.27089E-04   -0.52801E-05 13288   0.423E-02    0.140E-01
DAV:  46    -0.132467300092E+04    0.32259E-04   -0.49332E-05 13016   0.417E-02    0.989E-02
DAV:  47    -0.132467299436E+04    0.65619E-05   -0.31723E-05 10560   0.339E-02    0.906E-02
DAV:  48    -0.132467299235E+04    0.20086E-05   -0.19069E-05  7896   0.242E-02
  10 F= -.14227013E+04 E0= -.14219949E+04  d E =-.122285E+01
 curvature:  -2.22 expect dE=-0.761E+00 dE for cont linesearch -0.159E-04
 trial: gam= 0.40024 g(F)=  0.342E+00 g(S)=  0.000E+00 ort = 0.287E-02 (trialstep = 0.170E+01)
 search vector abs. value=  0.529E+00
 bond charge predicted
       N       E                     dE             d eps       ncg     rms          rms(c)
DAV:   1    -0.132445222489E+04    0.22077E+00   -0.28743E+02 12152   0.176E+01    0.457E+00
DAV:   2    -0.133403449506E+04   -0.95823E+01   -0.71680E+00 13200   0.124E+01    0.527E+01
DAV:   3    -0.133099730789E+04    0.30372E+01   -0.37391E+00 13288   0.142E+01    0.531E+01
DAV:   4    -0.132786665431E+04    0.31307E+01   -0.22594E+00 13104   0.971E+00    0.371E+01
DAV:   5    -0.132633564595E+04    0.15310E+01   -0.16865E+00 13136   0.728E+00    0.237E+01
DAV:   6    -0.132630310866E+04    0.32537E-01   -0.13156E+00 13184   0.656E+00    0.212E+01
DAV:   7    -0.132695714084E+04   -0.65403E+00   -0.11650E+00 13168   0.671E+00    0.273E+01
DAV:   8    -0.132582085166E+04    0.11363E+01   -0.88749E-01 13152   0.573E+00    0.152E+01
DAV:   9    -0.132535708097E+04    0.46377E+00   -0.39387E-01 13136   0.384E+00    0.983E+00
DAV:  10    -0.132537861842E+04   -0.21537E-01   -0.26264E-01 13184   0.272E+00    0.109E+01
DAV:  11    -0.132533331319E+04    0.45305E-01   -0.24953E-01 13208   0.266E+00    0.960E+00
DAV:  12    -0.132518279960E+04    0.15051E+00   -0.16965E-01 13200   0.227E+00    0.640E+00
DAV:  13    -0.132514410092E+04    0.38699E-01   -0.90014E-02 13200   0.152E+00    0.562E+00
DAV:  14    -0.132512648074E+04    0.17620E-01   -0.56194E-02 13184   0.117E+00    0.441E+00
DAV:  15    -0.132517314440E+04   -0.46664E-01   -0.61394E-02 13184   0.140E+00    0.594E+00
DAV:  16    -0.132516790968E+04    0.52347E-02   -0.81418E-02 13240   0.150E+00    0.604E+00
DAV:  17    -0.132512259499E+04    0.45315E-01   -0.58622E-02 13232   0.129E+00    0.386E+00
DAV:  18    -0.132512765008E+04   -0.50551E-02   -0.37277E-02 13160   0.101E+00    0.407E+00
DAV:  19    -0.132513969442E+04   -0.12044E-01   -0.42815E-02 13200   0.107E+00    0.456E+00
DAV:  20    -0.132511516192E+04    0.24533E-01   -0.38271E-02 13232   0.107E+00    0.331E+00
DAV:  21    -0.132509811460E+04    0.17047E-01   -0.19151E-02 13160   0.800E-01    0.251E+00
DAV:  22    -0.132509332274E+04    0.47919E-02   -0.97984E-03 13224   0.477E-01    0.204E+00
DAV:  23    -0.132509104397E+04    0.22788E-02   -0.76370E-03 13216   0.456E-01    0.155E+00
DAV:  24    -0.132509078591E+04    0.25806E-03   -0.62549E-03 13256   0.427E-01    0.155E+00
DAV:  25    -0.132508761441E+04    0.31715E-02   -0.47688E-03 13208   0.332E-01    0.109E+00
DAV:  26    -0.132508707520E+04    0.53921E-03   -0.21079E-03 13256   0.235E-01    0.101E+00
DAV:  27    -0.132508835401E+04   -0.12788E-02   -0.22070E-03 13296   0.245E-01    0.126E+00
DAV:  28    -0.132508789682E+04    0.45718E-03   -0.31187E-03 13272   0.284E-01    0.111E+00
DAV:  29    -0.132508541103E+04    0.24858E-02   -0.18292E-03 13232   0.247E-01    0.491E-01
DAV:  30    -0.132508501854E+04    0.39250E-03   -0.63107E-04 13208   0.144E-01    0.342E-01
DAV:  31    -0.132508554987E+04   -0.53133E-03   -0.66707E-04 13208   0.133E-01    0.593E-01
DAV:  32    -0.132508528794E+04    0.26193E-03   -0.74594E-04 13224   0.136E-01    0.455E-01
DAV:  33    -0.132508488605E+04    0.40189E-03   -0.36919E-04 13288   0.107E-01    0.270E-01
DAV:  34    -0.132508480026E+04    0.85785E-04   -0.16872E-04 13216   0.609E-02    0.202E-01
DAV:  35    -0.132508478642E+04    0.13846E-04   -0.11438E-04 13208   0.535E-02    0.165E-01
DAV:  36    -0.132508483672E+04   -0.50309E-04   -0.10215E-04 13328   0.566E-02    0.207E-01
DAV:  37    -0.132508479334E+04    0.43381E-04   -0.86124E-05 13320   0.512E-02    0.197E-01
DAV:  38    -0.132508477572E+04    0.17625E-04   -0.44866E-05 11512   0.319E-02    0.178E-01
DAV:  39    -0.132508477298E+04    0.27390E-05   -0.30933E-05  9872   0.289E-02
  11 F= -.14231727E+04 E0= -.14224689E+04  d E =-.471429E+00
 trial-energy change:   -0.471429  1 .order   -0.467476   -0.585492   -0.349461
 step:   3.7683(harm=  4.2269)  dis= 0.18938  next Energy= -1423.391398 (dE=-0.690E+00)
 bond charge predicted
       N       E                     dE             d eps       ncg     rms          rms(c)
DAV:   1    -0.132422964202E+04    0.85513E+00   -0.42266E+02 12160   0.213E+01    0.585E+00
DAV:   2    -0.133775189589E+04   -0.13522E+02   -0.10828E+01 13184   0.152E+01    0.599E+01
DAV:   3    -0.133384629421E+04    0.39056E+01   -0.55327E+00 13208   0.174E+01    0.620E+01
DAV:   4    -0.132980068749E+04    0.40456E+01   -0.30302E+00 13104   0.122E+01    0.470E+01
DAV:   5    -0.132718460294E+04    0.26161E+01   -0.25214E+00 13232   0.900E+00    0.296E+01
DAV:   6    -0.132693273093E+04    0.25187E+00   -0.18607E+00 13184   0.805E+00    0.250E+01
DAV:   7    -0.132813938439E+04   -0.12067E+01   -0.17039E+00 13168   0.831E+00    0.332E+01
DAV:   8    -0.132661156512E+04    0.15278E+01   -0.13956E+00 13200   0.736E+00    0.206E+01
DAV:   9    -0.132578597527E+04    0.82559E+00   -0.69177E-01 13152   0.518E+00    0.141E+01
DAV:  10    -0.132568727967E+04    0.98696E-01   -0.41313E-01 13160   0.357E+00    0.132E+01
DAV:  11    -0.132563133534E+04    0.55944E-01   -0.35579E-01 13216   0.338E+00    0.120E+01
DAV:  12    -0.132543307713E+04    0.19826E+00   -0.26861E-01 13280   0.297E+00    0.903E+00
DAV:  13    -0.132535475740E+04    0.78320E-01   -0.16968E-01 13200   0.216E+00    0.781E+00
DAV:  14    -0.132529430381E+04    0.60454E-01   -0.97957E-02 13232   0.155E+00    0.533E+00
DAV:  15    -0.132534478610E+04   -0.50482E-01   -0.84917E-02 13312   0.168E+00    0.654E+00
DAV:  16    -0.132536695831E+04   -0.22172E-01   -0.11596E-01 13328   0.187E+00    0.765E+00
DAV:  17    -0.132530473567E+04    0.62223E-01   -0.98454E-02 13304   0.161E+00    0.531E+00
DAV:  18    -0.132530359607E+04    0.11396E-02   -0.63291E-02 13200   0.137E+00    0.500E+00
DAV:  19    -0.132534050042E+04   -0.36904E-01   -0.76134E-02 13280   0.147E+00    0.649E+00
DAV:  20    -0.132530110035E+04    0.39400E-01   -0.84824E-02 13280   0.149E+00    0.494E+00
DAV:  21    -0.132525378165E+04    0.47319E-01   -0.38440E-02 13240   0.113E+00    0.283E+00
DAV:  22    -0.132524726730E+04    0.65143E-02   -0.15329E-02 13328   0.646E-01    0.249E+00
DAV:  23    -0.132524870124E+04   -0.14339E-02   -0.16207E-02 13336   0.605E-01    0.249E+00
DAV:  24    -0.132524462984E+04    0.40714E-02   -0.12501E-02 13288   0.585E-01    0.201E+00
DAV:  25    -0.132523958135E+04    0.50485E-02   -0.72764E-03 13320   0.443E-01    0.155E+00
DAV:  26    -0.132523834312E+04    0.12382E-02   -0.35523E-03 13288   0.314E-01    0.139E+00
DAV:  27    -0.132523892251E+04   -0.57939E-03   -0.33469E-03 13384   0.323E-01    0.139E+00
DAV:  28    -0.132523997776E+04   -0.10553E-02   -0.46004E-03 13304   0.377E-01    0.163E+00
DAV:  29    -0.132523566456E+04    0.43132E-02   -0.37773E-03 13320   0.318E-01    0.849E-01
DAV:  30    -0.132523442279E+04    0.12418E-02   -0.14174E-03 13344   0.210E-01    0.484E-01
DAV:  31    -0.132523539848E+04   -0.97569E-03   -0.12637E-03 13352   0.185E-01    0.813E-01
DAV:  32    -0.132523511600E+04    0.28248E-03   -0.15805E-03 13352   0.194E-01    0.695E-01
DAV:  33    -0.132523409854E+04    0.10175E-02   -0.78290E-04 13320   0.156E-01    0.336E-01
DAV:  34    -0.132523402402E+04    0.74522E-04   -0.30336E-04 13288   0.865E-02    0.323E-01
DAV:  35    -0.132523400287E+04    0.21141E-04   -0.25498E-04 13328   0.751E-02    0.284E-01
DAV:  36    -0.132523413138E+04   -0.12851E-03   -0.25350E-04 13336   0.877E-02    0.337E-01
DAV:  37    -0.132523396797E+04    0.16341E-03   -0.19269E-04 13344   0.815E-02    0.277E-01
DAV:  38    -0.132523392372E+04    0.44253E-04   -0.83462E-05 13344   0.474E-02    0.243E-01
DAV:  39    -0.132523395470E+04   -0.30977E-04   -0.87143E-05 13216   0.457E-02    0.262E-01
DAV:  40    -0.132523391204E+04    0.42653E-04   -0.96944E-05 13392   0.524E-02    0.190E-01
DAV:  41    -0.132523383102E+04    0.81023E-04   -0.57617E-05 13280   0.448E-02    0.823E-02
DAV:  42    -0.132523382496E+04    0.60580E-05   -0.21937E-05  9096   0.265E-02    0.648E-02
DAV:  43    -0.132523383673E+04   -0.11769E-04   -0.18693E-05  8440   0.250E-02    0.844E-02
DAV:  44    -0.132523382455E+04    0.12176E-04   -0.16337E-05  7944   0.237E-02    0.606E-02
DAV:  45    -0.132523381965E+04    0.49034E-05   -0.70358E-06  6392   0.145E-02
  12 F= -.14233956E+04 E0= -.14226954E+04  d E =-.694310E+00
 curvature:  -3.15 expect dE=-0.902E+00 dE for cont linesearch -0.377E-04
 trial: gam= 0.90538 g(F)=  0.287E+00 g(S)=  0.000E+00 ort = 0.252E-02 (trialstep = 0.154E+01)
 search vector abs. value=  0.725E+00
 bond charge predicted
       N       E                     dE             d eps       ncg     rms          rms(c)
DAV:   1    -0.132480817334E+04    0.42565E+00   -0.31675E+02 12152   0.182E+01    0.451E+00
DAV:   2    -0.133466823858E+04   -0.98601E+01   -0.79718E+00 13216   0.122E+01    0.548E+01
DAV:   3    -0.132901030582E+04    0.56579E+01   -0.39814E+00 13240   0.135E+01    0.423E+01
DAV:   4    -0.132910721887E+04   -0.96913E-01   -0.21942E+00 13112   0.864E+00    0.430E+01
DAV:   5    -0.132640044064E+04    0.27068E+01   -0.18068E+00 13168   0.746E+00    0.192E+01
DAV:   6    -0.132691079857E+04   -0.51036E+00   -0.11480E+00 13128   0.644E+00    0.229E+01
DAV:   7    -0.132720344650E+04   -0.29265E+00   -0.10720E+00 13144   0.670E+00    0.261E+01
DAV:   8    -0.132606840517E+04    0.11350E+01   -0.77945E-01 13160   0.523E+00    0.136E+01
DAV:   9    -0.132573827600E+04    0.33013E+00   -0.34726E-01 13200   0.344E+00    0.904E+00
DAV:  10    -0.132577980761E+04   -0.41532E-01   -0.24914E-01 13232   0.255E+00    0.103E+01
DAV:  11    -0.132573434476E+04    0.45463E-01   -0.25208E-01 13264   0.259E+00    0.905E+00
DAV:  12    -0.132556811319E+04    0.16623E+00   -0.14360E-01 13240   0.204E+00    0.453E+00
DAV:  13    -0.132555900972E+04    0.91035E-02   -0.75977E-02 13312   0.140E+00    0.468E+00
DAV:  14    -0.132558109084E+04   -0.22081E-01   -0.66894E-02 13248   0.131E+00    0.509E+00
DAV:  15    -0.132561229663E+04   -0.31206E-01   -0.74376E-02 13296   0.157E+00    0.593E+00
DAV:  16    -0.132559024738E+04    0.22049E-01   -0.81870E-02 13232   0.155E+00    0.576E+00
DAV:  17    -0.132555158839E+04    0.38659E-01   -0.52443E-02 13240   0.121E+00    0.375E+00
DAV:  18    -0.132555422216E+04   -0.26338E-02   -0.34009E-02 13200   0.965E-01    0.371E+00
DAV:  19    -0.132557483436E+04   -0.20612E-01   -0.44275E-02 13248   0.109E+00    0.477E+00
DAV:  20    -0.132553305897E+04    0.41775E-01   -0.32645E-02 13272   0.993E-01    0.244E+00
DAV:  21    -0.132552276289E+04    0.10296E-01   -0.11035E-02 13312   0.594E-01    0.174E+00
DAV:  22    -0.132552180446E+04    0.95843E-03   -0.61534E-03 13264   0.367E-01    0.163E+00
DAV:  23    -0.132552217885E+04   -0.37439E-03   -0.65472E-03 13312   0.404E-01    0.146E+00
DAV:  24    -0.132551978249E+04    0.23964E-02   -0.45543E-03 13240   0.377E-01    0.118E+00
DAV:  25    -0.132551812613E+04    0.16564E-02   -0.28804E-03 13200   0.270E-01    0.931E-01
DAV:  26    -0.132551763819E+04    0.48794E-03   -0.15062E-03 13248   0.191E-01    0.795E-01
DAV:  27    -0.132551883698E+04   -0.11988E-02   -0.16190E-03 13312   0.202E-01    0.107E+00
DAV:  28    -0.132551778815E+04    0.10488E-02   -0.19514E-03 13312   0.226E-01    0.762E-01
DAV:  29    -0.132551646234E+04    0.13258E-02   -0.87632E-04 13264   0.175E-01    0.324E-01
DAV:  30    -0.132551647362E+04   -0.11282E-04   -0.40009E-04 13336   0.110E-01    0.339E-01
DAV:  31    -0.132551680490E+04   -0.33128E-03   -0.50671E-04 13392   0.114E-01    0.502E-01
DAV:  32    -0.132551646884E+04    0.33606E-03   -0.45570E-04 13280   0.111E-01    0.315E-01
DAV:  33    -0.132551625101E+04    0.21784E-03   -0.18155E-04 13304   0.758E-02    0.174E-01
DAV:  34    -0.132551624589E+04    0.51172E-05   -0.87413E-05 13152   0.432E-02    0.174E-01
DAV:  35    -0.132551625303E+04   -0.71425E-05   -0.78603E-05 13104   0.451E-02    0.155E-01
DAV:  36    -0.132551626117E+04   -0.81370E-05   -0.74418E-05 13240   0.484E-02    0.160E-01
DAV:  37    -0.132551623985E+04    0.21323E-04   -0.62949E-05 12632   0.425E-02    0.158E-01
DAV:  38    -0.132551621792E+04    0.21929E-04   -0.33375E-05  9072   0.276E-02    0.123E-01
DAV:  39    -0.132551621794E+04   -0.24447E-07   -0.19320E-05  8120   0.246E-02
  13 F= -.14237582E+04 E0= -.14230611E+04  d E =-.362608E+00
 trial-energy change:   -0.362608  1 .order   -0.361442   -0.446468   -0.276416
 step:   3.8231(harm=  4.0553)  dis= 0.19086  next Energy= -1423.965821 (dE=-0.570E+00)
 bond charge predicted
       N       E                     dE             d eps       ncg     rms          rms(c)
DAV:   1    -0.132382752546E+04    0.16887E+01   -0.69317E+02 12152   0.270E+01    0.734E+00
DAV:   2    -0.134490897615E+04   -0.21081E+02   -0.18270E+01 13184   0.186E+01    0.727E+01
DAV:   3    -0.133322194807E+04    0.11687E+02   -0.91554E+00 13112   0.210E+01    0.592E+01
DAV:   4    -0.133542740163E+04   -0.22055E+01   -0.42917E+00 13120   0.140E+01    0.666E+01
DAV:   5    -0.132811823722E+04    0.73092E+01   -0.43387E+00 13232   0.121E+01    0.323E+01
DAV:   6    -0.132908524992E+04   -0.96701E+00   -0.26757E+00 13208   0.104E+01    0.345E+01
DAV:   7    -0.132946830830E+04   -0.38306E+00   -0.23900E+00 13192   0.106E+01    0.373E+01
DAV:   8    -0.132708200587E+04    0.23863E+01   -0.16285E+00 13224   0.815E+00    0.215E+01
DAV:   9    -0.132633320319E+04    0.74880E+00   -0.88953E-01 13112   0.571E+00    0.159E+01
DAV:  10    -0.132645010131E+04   -0.11690E+00   -0.64624E-01 13216   0.448E+00    0.182E+01
DAV:  11    -0.132610183470E+04    0.34827E+00   -0.56576E-01 13248   0.424E+00    0.134E+01
DAV:  12    -0.132572041425E+04    0.38142E+00   -0.28766E-01 13232   0.303E+00    0.653E+00
DAV:  13    -0.132571777971E+04    0.26345E-02   -0.15690E-01 13192   0.207E+00    0.721E+00
DAV:  14    -0.132575953898E+04   -0.41759E-01   -0.15854E-01 13264   0.195E+00    0.743E+00
DAV:  15    -0.132575376483E+04    0.57741E-02   -0.13945E-01 13296   0.213E+00    0.719E+00
DAV:  16    -0.132573495757E+04    0.18807E-01   -0.12398E-01 13272   0.203E+00    0.749E+00
DAV:  17    -0.132570634021E+04    0.28617E-01   -0.96519E-02 13248   0.161E+00    0.603E+00
DAV:  18    -0.132575970729E+04   -0.53367E-01   -0.10747E-01 13232   0.181E+00    0.700E+00
DAV:  19    -0.132575333781E+04    0.63695E-02   -0.12258E-01 13224   0.192E+00    0.745E+00
DAV:  20    -0.132565102983E+04    0.10231E+00   -0.81377E-02 13312   0.146E+00    0.380E+00
DAV:  21    -0.132564290622E+04    0.81236E-02   -0.28402E-02 13280   0.911E-01    0.354E+00
DAV:  22    -0.132565131031E+04   -0.84041E-02   -0.27671E-02 13296   0.812E-01    0.400E+00
DAV:  23    -0.132563825206E+04    0.13058E-01   -0.31387E-02 13264   0.896E-01    0.286E+00
DAV:  24    -0.132562256956E+04    0.15683E-01   -0.14833E-02 13216   0.676E-01    0.179E+00
DAV:  25    -0.132562092922E+04    0.16403E-02   -0.67191E-03 13328   0.404E-01    0.164E+00
DAV:  26    -0.132562271703E+04   -0.17878E-02   -0.60739E-03 13368   0.399E-01    0.173E+00
DAV:  27    -0.132562106599E+04    0.16510E-02   -0.58885E-03 13336   0.425E-01    0.155E+00
DAV:  28    -0.132561806862E+04    0.29974E-02   -0.45236E-03 13280   0.359E-01    0.122E+00
DAV:  29    -0.132561639767E+04    0.16710E-02   -0.25627E-03 13264   0.255E-01    0.835E-01
DAV:  30    -0.132561710930E+04   -0.71163E-03   -0.20449E-03 13360   0.245E-01    0.919E-01
DAV:  31    -0.132561767916E+04   -0.56986E-03   -0.27097E-03 13232   0.263E-01    0.109E+00
DAV:  32    -0.132561552421E+04    0.21550E-02   -0.18522E-03 13216   0.224E-01    0.519E-01
DAV:  33    -0.132561499629E+04    0.52792E-03   -0.48545E-04 13152   0.124E-01    0.321E-01
DAV:  34    -0.132561513194E+04   -0.13565E-03   -0.32095E-04 13272   0.962E-02    0.373E-01
DAV:  35    -0.132561547810E+04   -0.34616E-03   -0.51305E-04 13216   0.118E-01    0.545E-01
DAV:  36    -0.132561500889E+04    0.46921E-03   -0.44424E-04 13200   0.108E-01    0.305E-01
DAV:  37    -0.132561495360E+04    0.55284E-04   -0.18487E-04 13176   0.742E-02    0.296E-01
DAV:  38    -0.132561498318E+04   -0.29576E-04   -0.16803E-04 13280   0.619E-02    0.308E-01
DAV:  39    -0.132561500414E+04   -0.20965E-04   -0.18790E-04 13248   0.733E-02    0.279E-01
DAV:  40    -0.132561484277E+04    0.16137E-03   -0.12729E-04 13256   0.668E-02    0.134E-01
DAV:  41    -0.132561480402E+04    0.38747E-04   -0.40568E-05 12296   0.372E-02    0.749E-02
DAV:  42    -0.132561481737E+04   -0.13345E-04   -0.25974E-05 10144   0.286E-02    0.933E-02
DAV:  43    -0.132561481634E+04    0.10284E-05   -0.27639E-05 10064   0.302E-02
  14 F= -.14239769E+04 E0= -.14232850E+04  d E =-.581311E+00
 curvature:  -5.04 expect dE=-0.139E+01 dE for cont linesearch -0.442E-03
 trial: gam= 0.67001 g(F)=  0.276E+00 g(S)=  0.000E+00 ort = 0.798E-02 (trialstep = 0.200E+01)
 search vector abs. value=  0.612E+00
 bond charge predicted
       N       E                     dE             d eps       ncg     rms          rms(c)
DAV:   1    -0.132485111073E+04    0.76371E+00   -0.45564E+02 12152   0.218E+01    0.549E+00
DAV:   2    -0.133769317196E+04   -0.12842E+02   -0.11349E+01 13176   0.147E+01    0.590E+01
DAV:   3    -0.132973849221E+04    0.79547E+01   -0.58537E+00 13480   0.157E+01    0.418E+01
DAV:   4    -0.133323659959E+04   -0.34981E+01   -0.30279E+00 13104   0.104E+01    0.588E+01
DAV:   5    -0.132684185491E+04    0.63947E+01   -0.27440E+00 13184   0.936E+00    0.198E+01
DAV:   6    -0.132730064860E+04   -0.45879E+00   -0.13952E+00 13474   0.681E+00    0.247E+01
DAV:   7    -0.132802417325E+04   -0.72352E+00   -0.15085E+00 13304   0.752E+00    0.273E+01
DAV:   8    -0.132729500995E+04    0.72916E+00   -0.11013E+00 13248   0.678E+00    0.224E+01
DAV:   9    -0.132637428143E+04    0.92073E+00   -0.69898E-01 13320   0.489E+00    0.128E+01
DAV:  10    -0.132617936013E+04    0.19492E+00   -0.33824E-01 13234   0.330E+00    0.103E+01
DAV:  11    -0.132628627466E+04   -0.10691E+00   -0.32106E-01 13344   0.322E+00    0.127E+01
DAV:  12    -0.132610821628E+04    0.17806E+00   -0.30870E-01 13392   0.295E+00    0.920E+00
DAV:  13    -0.132601659635E+04    0.91620E-01   -0.19470E-01 13314   0.246E+00    0.759E+00
DAV:  14    -0.132604394612E+04   -0.27350E-01   -0.13964E-01 13282   0.195E+00    0.794E+00
DAV:  15    -0.132606884566E+04   -0.24900E-01   -0.14480E-01 13402   0.210E+00    0.829E+00
DAV:  16    -0.132600841889E+04    0.60427E-01   -0.12970E-01 13306   0.201E+00    0.728E+00
DAV:  17    -0.132594104945E+04    0.67369E-01   -0.73151E-02 13252   0.148E+00    0.452E+00
DAV:  18    -0.132595540955E+04   -0.14360E-01   -0.53063E-02 13236   0.124E+00    0.506E+00
DAV:  19    -0.132596778044E+04   -0.12371E-01   -0.66559E-02 13354   0.136E+00    0.533E+00
DAV:  20    -0.132592412511E+04    0.43655E-01   -0.52164E-02 13346   0.130E+00    0.350E+00
DAV:  21    -0.132590617197E+04    0.17953E-01   -0.25897E-02 13346   0.864E-01    0.261E+00
DAV:  22    -0.132589840982E+04    0.77622E-02   -0.14527E-02 13424   0.583E-01    0.183E+00
DAV:  23    -0.132590058266E+04   -0.21728E-02   -0.10916E-02 13312   0.551E-01    0.193E+00
DAV:  24    -0.132590156272E+04   -0.98005E-03   -0.11421E-02 13376   0.542E-01    0.208E+00
DAV:  25    -0.132589367026E+04    0.78925E-02   -0.78740E-03 13256   0.448E-01    0.113E+00
DAV:  26    -0.132589204768E+04    0.16226E-02   -0.22769E-03 13304   0.274E-01    0.900E-01
DAV:  27    -0.132589342932E+04   -0.13816E-02   -0.19820E-03 13368   0.227E-01    0.121E+00
DAV:  28    -0.132589329182E+04    0.13750E-03   -0.27712E-03 13328   0.270E-01    0.109E+00
DAV:  29    -0.132589113729E+04    0.21545E-02   -0.15990E-03 13312   0.229E-01    0.629E-01
DAV:  30    -0.132589068711E+04    0.45017E-03   -0.69603E-04 13232   0.138E-01    0.486E-01
DAV:  31    -0.132589061381E+04    0.73303E-04   -0.47924E-04 13280   0.113E-01    0.412E-01
DAV:  32    -0.132589093802E+04   -0.32421E-03   -0.57714E-04 13312   0.132E-01    0.545E-01
DAV:  33    -0.132589058439E+04    0.35364E-03   -0.58286E-04 13352   0.121E-01    0.417E-01
DAV:  34    -0.132589027386E+04    0.31053E-03   -0.24941E-04 13376   0.808E-02    0.208E-01
DAV:  35    -0.132589029021E+04   -0.16349E-04   -0.11338E-04 13296   0.569E-02    0.209E-01
DAV:  36    -0.132589040309E+04   -0.11288E-03   -0.16725E-04 13400   0.714E-02    0.281E-01
DAV:  37    -0.132589032175E+04    0.81338E-04   -0.17715E-04 13352   0.675E-02    0.245E-01
DAV:  38    -0.132589024797E+04    0.73781E-04   -0.75910E-05 12752   0.450E-02    0.174E-01
DAV:  39    -0.132589024798E+04   -0.39581E-08   -0.40691E-05 12112   0.353E-02
  15 F= -.14243520E+04 E0= -.14236639E+04  d E =-.375127E+00
 trial-energy change:   -0.375127  1 .order   -0.368538   -0.563508   -0.173568
 step:   2.7807(harm=  2.8906)  dis= 0.09491  next Energy= -1424.386269 (dE=-0.409E+00)
 bond charge predicted
       N       E                     dE             d eps       ncg     rms          rms(c)
DAV:   1    -0.132576212475E+04    0.12812E+00   -0.69042E+01 12152   0.842E+00    0.187E+00
DAV:   2    -0.132774081750E+04   -0.19787E+01   -0.17016E+00 13240   0.531E+00    0.267E+01
DAV:   3    -0.132659446740E+04    0.11464E+01   -0.11693E+00 13808   0.574E+00    0.196E+01
DAV:   4    -0.132642194237E+04    0.17253E+00   -0.43873E-01 13080   0.357E+00    0.168E+01
DAV:   5    -0.132597307128E+04    0.44887E+00   -0.32482E-01 13172   0.294E+00    0.586E+00
DAV:   6    -0.132614488533E+04   -0.17181E+00   -0.20519E-01 13340   0.247E+00    0.108E+01
DAV:   7    -0.132610068159E+04    0.44204E-01   -0.23789E-01 13156   0.262E+00    0.885E+00
DAV:   8    -0.132600493397E+04    0.95748E-01   -0.15668E-01 13156   0.222E+00    0.693E+00
DAV:   9    -0.132593054594E+04    0.74388E-01   -0.88448E-02 13286   0.148E+00    0.410E+00
DAV:  10    -0.132593103533E+04   -0.48939E-03   -0.46751E-02 13166   0.114E+00    0.398E+00
DAV:  11    -0.132596595156E+04   -0.34916E-01   -0.63663E-02 13204   0.134E+00    0.552E+00
DAV:  12    -0.132593192525E+04    0.34026E-01   -0.70184E-02 13236   0.127E+00    0.426E+00
DAV:  13    -0.132590257057E+04    0.29355E-01   -0.31099E-02 13230   0.945E-01    0.262E+00
DAV:  14    -0.132590487634E+04   -0.23058E-02   -0.15049E-02 13178   0.643E-01    0.273E+00
DAV:  15    -0.132591186945E+04   -0.69931E-02   -0.17496E-02 13392   0.722E-01    0.310E+00
DAV:  16    -0.132590442698E+04    0.74425E-02   -0.18813E-02 13280   0.720E-01    0.275E+00
DAV:  17    -0.132589090474E+04    0.13522E-01   -0.10479E-02 13224   0.535E-01    0.129E+00
DAV:  18    -0.132589008094E+04    0.82379E-03   -0.40486E-03 13280   0.353E-01    0.119E+00
DAV:  19    -0.132589407527E+04   -0.39943E-02   -0.61025E-03 13384   0.377E-01    0.176E+00
DAV:  20    -0.132588990990E+04    0.41654E-02   -0.56731E-03 13344   0.382E-01    0.106E+00
DAV:  21    -0.132588738299E+04    0.25269E-02   -0.19082E-03 13256   0.265E-01    0.589E-01
DAV:  22    -0.132588706195E+04    0.32104E-03   -0.78204E-04 13264   0.144E-01    0.518E-01
DAV:  23    -0.132588731539E+04   -0.25343E-03   -0.68731E-04 13344   0.129E-01    0.596E-01
DAV:  24    -0.132588726248E+04    0.52901E-04   -0.76652E-04 13328   0.144E-01    0.550E-01
