<?xml version="1.0" encoding="ISO-8859-1"?>
<modeling>
 <generator>
  <i name="program" type="string">vasp </i>
  <i name="version" type="string">6.2.1  </i>
  <i name="subversion" type="string">16May21 (build Jun 16 2021 03:23:30) complex                          parallel </i>
  <i name="platform" type="string">LinuxPGI </i>
  <i name="date" type="string">2022 04 25 </i>
  <i name="time" type="string">11:32:55 </i>
 </generator>
 <incar>
  <i type="string" name="SYSTEM">NiAl</i>
  <i type="int" name="ISTART">     0</i>
  <i type="int" name="NELMIN">     6</i>
  <i type="int" name="IBRION">     2</i>
  <i name="EDIFF">      0.00000500</i>
  <i type="int" name="NSW">    40</i>
  <i type="int" name="ISIF">     1</i>
  <i name="ENCUT">    360.00000000</i>
  <i name="POTIM">      0.20000000</i>
  <i type="string" name="LREAL">Auto</i>
  <i type="logical" name="LPLANE"> T  </i>
  <i type="int" name="ISMEAR">     0</i>
  <i name="SIGMA">      0.05000000</i>
  <i type="logical" name="LWAVE"> F  </i>
  <i type="logical" name="LCHARG"> F  </i>
  <i type="int" name="IVDW">    12</i>
 </incar>
 <primitive_cell>
  <structure name="primitive_cell" >
   <crystal>
    <varray name="basis" >
     <v>       0.00000000     -15.14622176       0.00000000 </v>
     <v>       0.00000000      -7.57311088     -13.11701281 </v>
     <v>      29.00000000       0.00000000       0.00000000 </v>
    </varray>
    <i name="volume">   5761.52236213 </i>
    <varray name="rec_basis" >
     <v>       0.00000000      -0.06602307       0.03811843 </v>
     <v>       0.00000000       0.00000000      -0.07623687 </v>
     <v>       0.03448276       0.00000000       0.00000000 </v>
    </varray>
   </crystal>
   <varray name="positions" >
    <v>       0.44611949       0.61278586       0.52320000 </v>
    <v>       0.61600733       0.44199621       0.51834138 </v>
    <v>       0.77899413       0.27671087       0.51854621 </v>
    <v>       0.94448875       0.11115564       0.51853138 </v>
    <v>       0.94482600       0.27758683       0.51870379 </v>
    <v>       0.94448866       0.44435574       0.51853138 </v>
    <v>       0.77828647       0.61130382       0.51848276 </v>
    <v>       0.61126115       0.77792788       0.51857310 </v>
    <v>       0.44463746       0.94495295       0.51848272 </v>
    <v>       0.61123128       0.94438423       0.51861517 </v>
    <v>       0.77771841       0.94438423       0.51861517 </v>
    <v>       0.94414420       0.77792781       0.51857310 </v>
    <v>       0.94374291       0.61130382       0.51848276 </v>
    <v>       0.83315088       0.66703144       0.44996379 </v>
    <v>       0.66664503       0.83331244       0.45007172 </v>
    <v>       0.72222210       0.88888912       0.38087241 </v>
    <v>       0.88901587       0.72225133       0.38084621 </v>
    <v>       0.94447693       0.77776161       0.31161828 </v>
    <v>       0.77777813       0.94444438       0.31165759 </v>
    <v>       0.94441857       0.94444133       0.31164069 </v>
    <v>       0.88901579       0.88873276       0.38084621 </v>
    <v>       0.83337582       0.83331237       0.45007172 </v>
    <v>       0.77771794       0.77789731       0.51861517 </v>
    <v>       0.77899471       0.44429476       0.51854621 </v>
    <v>       0.66696440       0.49998731       0.45010069 </v>
    <v>       0.83361047       0.33319476       0.45009897 </v>
    <v>       0.88883033       0.38894831       0.38086552 </v>
    <v>       0.72212232       0.55558610       0.38081138 </v>
    <v>       0.77777487       0.61113991       0.31164069 </v>
    <v>       0.61109468       0.77776169       0.31161828 </v>
    <v>       0.66667335       0.83333913       0.24266452 </v>
    <v>       0.83331173       0.66670972       0.24265279 </v>
    <v>       0.88898916       0.72215832       0.17349797 </v>
    <v>       0.72222210       0.88888912       0.17346107 </v>
    <v>       0.77779242       0.94445818       0.10453624 </v>
    <v>       0.94450322       0.77774865       0.10455107 </v>
    <v>       0.94445915       0.94448707       0.10454590 </v>
    <v>       0.88898860       0.88885329       0.17349797 </v>
    <v>       0.83332151       0.83333913       0.24266452 </v>
    <v>       0.77777775       0.77777770       0.31165759 </v>
    <v>       0.72206599       0.72225133       0.38084621 </v>
    <v>       0.66642546       0.66667084       0.44999445 </v>
    <v>       0.55544721       0.72211335       0.38088031 </v>
    <v>       0.50000397       0.83309212       0.44999445 </v>
    <v>       0.33332069       0.83363111       0.45010062 </v>
    <v>       0.27532967       0.78267370       0.51834131 </v>
    <v>       0.11004403       0.94566127       0.51854610 </v>
    <v>       0.27762774       0.94566127       0.51854614 </v>
    <v>       0.44443995       0.77893657       0.51861445 </v>
    <v>       0.49945027       0.66611668       0.45103997 </v>
    <v>       0.61226995       0.61110720       0.51861448 </v>
    <v>       0.61111138       0.94444445       0.31165759 </v>
    <v>       0.44447332       0.94444140       0.31164066 </v>
    <v>       0.38891953       0.88878925       0.38081134 </v>
    <v>       0.38893497       0.72210427       0.38127548 </v>
    <v>       0.22229407       0.72210427       0.38127545 </v>
    <v>       0.05562453       0.88878925       0.38081131 </v>
    <v>       0.00023705       0.83309220       0.44999441 </v>
    <v>       0.16776634       0.66611660       0.45103993 </v>
    <v>       0.27442779       0.61278594       0.52319993 </v>
    <v>       0.10995662       0.61110720       0.51861441 </v>
    <v>       0.27533025       0.44199629       0.51834131 </v>
    <v>       0.44444030       0.27662327       0.51861445 </v>
    <v>       0.61126102       0.11081113       0.51857307 </v>
    <v>       0.66642554       0.16690393       0.44999448 </v>
    <v>       0.83315103       0.99981787       0.44996383 </v>
    <v>       0.88883357       0.05550052       0.38080934 </v>
    <v>       0.72212283       0.22229154       0.38081138 </v>
    <v>       0.77776228       0.27779496       0.31165483 </v>
    <v>       0.61097293       0.44451356       0.31184859 </v>
    <v>       0.66660597       0.49997817       0.24273686 </v>
    <v>       0.49988321       0.66655039       0.24285407 </v>
    <v>       0.55546530       0.72213157       0.17355441 </v>
    <v>       0.38883213       0.88883492       0.17349334 </v>
    <v>       0.33331154       0.83327204       0.24273679 </v>
    <v>       0.27784676       0.77763978       0.31184848 </v>
    <v>       0.11112830       0.94442921       0.31165466 </v>
    <v>       0.27777642       0.94442928       0.31165469 </v>
    <v>       0.22223952       0.88885413       0.38089814 </v>
    <v>       0.16638123       0.83363127       0.45010052 </v>
    <v>       0.10995639       0.77893672       0.51861431 </v>
    <v>       0.94441841       0.61113991       0.31164072 </v>
    <v>       0.94442430       0.44448459       0.31166586 </v>
    <v>       0.94442201       0.27778886       0.31166517 </v>
    <v>       0.94442482       0.11109084       0.31166586 </v>
    <v>       0.83328658       0.16665380       0.24266966 </v>
    <v>       0.66660124       0.16676129       0.24270445 </v>
    <v>       0.49988367       0.33356596       0.24285410 </v>
    <v>       0.55552059       0.38894900       0.17356272 </v>
    <v>       0.38888896       0.55555553       0.17360786 </v>
    <v>       0.44444307       0.61110934       0.10461686 </v>
    <v>       0.61108465       0.44445783       0.10453548 </v>
    <v>       0.77779956       0.27776134       0.10449483 </v>
    <v>       0.72216907       0.22233256       0.17349345 </v>
    <v>       0.72218661       0.05565513       0.17349793 </v>
    <v>       0.88893115       0.05559719       0.17349000 </v>
    <v>       0.83331232       0.99997858       0.24265276 </v>
    <v>       0.77777512       0.11108467       0.31164069 </v>
    <v>       0.61109497       0.11114337       0.31161824 </v>
    <v>       0.55558477       0.05568265       0.38084617 </v>
    <v>       0.50036504       0.99981779       0.44996376 </v>
    <v>       0.33361232       0.16636029       0.44998514 </v>
    <v>       0.16652801       0.33319476       0.45009890 </v>
    <v>       0.99969368       0.50027930       0.44998510 </v>
    <v>       0.05562482       0.55558610       0.38081131 </v>
    <v>       0.22223957       0.38890638       0.38089821 </v>
    <v>       0.27784689       0.44451356       0.31184855 </v>
    <v>       0.11130246       0.61103546       0.31173717 </v>
    <v>       0.16689984       0.66655039       0.24285407 </v>
    <v>       0.00009437       0.83326823       0.24270441 </v>
    <v>       0.05566643       0.88883499       0.17349338 </v>
    <v>       0.22228234       0.72218729       0.17356269 </v>
    <v>       0.27779128       0.77775101       0.10453548 </v>
    <v>       0.11109495       0.94446580       0.10449476 </v>
    <v>       0.27777276       0.94446580       0.10449479 </v>
    <v>       0.44438720       0.94448715       0.10454586 </v>
    <v>       0.61108214       0.77774873       0.10455103 </v>
    <v>       0.77782065       0.61105376       0.10454586 </v>
    <v>       0.72216893       0.55549843       0.17349345 </v>
    <v>       0.83328663       0.50005974       0.24266966 </v>
    <v>       0.88888621       0.38885530       0.17348138 </v>
    <v>       0.83328062       0.33335944       0.24268207 </v>
    <v>       0.72219697       0.38890181       0.17347241 </v>
    <v>       0.66660581       0.33341669       0.24273690 </v>
    <v>       0.61099608       0.27796885       0.31173724 </v>
    <v>       0.55544693       0.22243944       0.38088034 </v>
    <v>       0.44436904       0.27796885       0.31173721 </v>
    <v>       0.38893517       0.38896059       0.38127548 </v>
    <v>       0.49945009       0.33443300       0.45103997 </v>
    <v>       0.33324705       0.49991428       0.45091510 </v>
    <v>       0.38888875       0.55555568       0.38187890 </v>
    <v>       0.44431699       0.61098370       0.31211821 </v>
    <v>       0.27803328       0.61098370       0.31211821 </v>
    <v>       0.33337430       0.50004152       0.24289407 </v>
    <v>       0.16674986       0.49997824       0.24273679 </v>
    <v>       0.99998763       0.50005981       0.24266955 </v>
    <v>       0.16669322       0.33335951       0.24268197 </v>
    <v>       0.22223466       0.38890181       0.17347234 </v>
    <v>       0.38883237       0.22233263       0.17349338 </v>
    <v>       0.55549154       0.05565520       0.17349790 </v>
    <v>       0.50004293       0.99997873       0.24265269 </v>
    <v>       0.33339290       0.16665387       0.24266959 </v>
    <v>       0.27777606       0.27779511       0.31165476 </v>
    <v>       0.11112296       0.27778901       0.31166507 </v>
    <v>       0.05555549       0.22222232       0.38087783 </v>
    <v>       0.99999574       0.16666249       0.45007748 </v>
    <v>       0.16652765       0.00027773       0.45009886 </v>
    <v>       0.22228221       0.05549678       0.38086545 </v>
    <v>       0.27781755       0.11109092       0.31166579 </v>
    <v>       0.38899981       0.05550052       0.38080924 </v>
    <v>       0.38891953       0.22229154       0.38081131 </v>
    <v>       0.50000371       0.16690393       0.44999441 </v>
    <v>       0.44463736       0.11040944       0.51848269 </v>
    <v>       0.27768861       0.11115587       0.51853131 </v>
    <v>       0.11092017       0.27758706       0.51870369 </v>
    <v>       0.27762803       0.27671102       0.51854610 </v>
    <v>       0.11004360       0.44429498       0.51854607 </v>
    <v>       0.16638212       0.49998747       0.45010055 </v>
    <v>       0.33332055       0.33304847       0.45010059 </v>
    <v>       0.49991746       0.50004144       0.24289407 </v>
    <v>       0.44431680       0.44469957       0.31211821 </v>
    <v>       0.72206593       0.05568257       0.38084621 </v>
    <v>       0.66664528       0.00004262       0.45007172 </v>
    <v>       0.83336093       0.50027930       0.44998517 </v>
    <v>       0.88883308       0.55566691       0.38080931 </v>
    <v>       0.44444281       0.77777465       0.10455652 </v>
    <v>       0.38886388       0.72218729       0.17356272 </v>
    <v>       0.33337444       0.66658470       0.24289410 </v>
    <v>       0.16674987       0.83327204       0.24273686 </v>
    <v>       0.11130222       0.77766258       0.31173721 </v>
    <v>       0.05577293       0.72211327       0.38088031 </v>
    <v>       0.00023707       0.66667084       0.44999441 </v>
    <v>       0.61110776       0.61110941       0.10455652 </v>
    <v>       0.55552061       0.55553045       0.17356272 </v>
    <v>       0.22223474       0.88886396       0.17347238 </v>
    <v>       0.77779877       0.44443961       0.10449479 </v>
    <v>       0.94445912       0.44441521       0.10452790 </v>
    <v>       0.94445898       0.61105376       0.10454583 </v>
    <v>       0.88893086       0.55547175       0.17348997 </v>
    <v>       0.72218650       0.72215832       0.17349790 </v>
    <v>       0.66660148       0.66663730       0.24270445 </v>
    <v>       0.61099616       0.61103539       0.31173721 </v>
    <v>       0.55543832       0.55560127       0.38127548 </v>
    <v>       0.50017210       0.49991405       0.45091514 </v>
    <v>       0.55543829       0.38896043       0.38127548 </v>
    <v>       0.72218742       0.38890638       0.38089824 </v>
    <v>       0.66696437       0.33304831       0.45010066 </v>
    <v>       0.61227048       0.27662312       0.51861445 </v>
    <v>       0.77828652       0.11040928       0.51848272 </v>
    <v>       0.83336081       0.16636021       0.44998514 </v>
    <v>       0.88883063       0.22222125       0.38086552 </v>
    <v>       0.94447405       0.27776294       0.10450828 </v>
    <v>       0.94445957       0.11112591       0.10452793 </v>
    <v>       0.88888648       0.22225876       0.17348138 </v>
    <v>       0.49997085       0.83326823       0.24270445 </v>
    <v>       0.44436875       0.77766250       0.31173721 </v>
    <v>       0.77779192       0.77774949       0.10453617 </v>
    <v>       0.61108345       0.94445818       0.10453621 </v>
    <v>       0.55549150       0.88885329       0.17349793 </v>
    <v>       0.77782063       0.11112583       0.10454586 </v>
    <v>       0.61108208       0.11116929       0.10455103 </v>
    <v>       0.44444305       0.27778268       0.10455655 </v>
    <v>       0.27779097       0.44445783       0.10453552 </v>
    <v>       0.11111637       0.61110934       0.10455655 </v>
    <v>       0.05566605       0.55549835       0.17349345 </v>
    <v>       0.05573724       0.72213157       0.17355448 </v>
    <v>       0.00009468       0.66663715       0.24270448 </v>
    <v>       0.61110771       0.27778268       0.10455655 </v>
    <v>       0.55546493       0.22240346       0.17355448 </v>
    <v>       0.49997088       0.16676122       0.24270448 </v>
    <v>       0.44447352       0.11108467       0.31164069 </v>
    <v>       0.38886385       0.38894900       0.17356276 </v>
    <v>       0.33331161       0.33341654       0.24273690 </v>
    <v>       0.44444314       0.44444715       0.10461690 </v>
    <v>       0.27778104       0.61110934       0.10461690 </v>
    <v>       0.22228242       0.55553037       0.17356276 </v>
    <v>       0.11111609       0.77777457       0.10455655 </v>
    <v>       0.66667286       0.99998773       0.24266448 </v>
    <v>       0.77776280       0.44444273       0.31165486 </v>
    <v>       0.11112833       0.44444281       0.31165469 </v>
    <v>       0.05555426       0.38894847       0.38086534 </v>
    <v>       0.99999525       0.33334213       0.45007738 </v>
    <v>       0.16667461       0.16666234       0.45007741 </v>
    <v>       0.11091963       0.11149284       0.51870359 </v>
    <v>       0.55558467       0.88873284       0.38084617 </v>
    <v>       0.22229354       0.55560150       0.38127541 </v>
    <v>       0.22228205       0.22222133       0.38086541 </v>
    <v>       0.33324716       0.66683872       0.45091510 </v>
    <v>       0.33361254       0.00002752       0.44998507 </v>
    <v>       0.44611953       0.44109426       0.52319997 </v>
    <v>       0.11109518       0.44443953       0.10449483 </v>
    <v>       0.11109645       0.27776294       0.10450828 </v>
    <v>       0.05555567       0.22222209       0.17351690 </v>
    <v>       0.99997275       0.16664008       0.24268279 </v>
    <v>       0.16669302       0.99994740       0.24268210 </v>
    <v>       0.22218885       0.05555304       0.17348138 </v>
    <v>       0.27774789       0.11112591       0.10452793 </v>
    <v>       0.38880500       0.05559726       0.17348997 </v>
    <v>       0.33339337       0.99995273       0.24266966 </v>
    <v>       0.16672063       0.16664015       0.24268276 </v>
    <v>       0.11112246       0.11108863       0.31166521 </v>
    <v>       0.05555509       0.05549678       0.38086559 </v>
    <v>       0.99969332       0.00002760       0.44998524 </v>
    <v>       0.27777314       0.27776134       0.10449483 </v>
    <v>       0.22218894       0.22225861       0.17348138 </v>
    <v>       0.05559193       0.38885530       0.17348138 </v>
    <v>       0.99997334       0.33338688       0.24268276 </v>
    <v>       0.44438691       0.11112583       0.10454586 </v>
    <v>       0.11109641       0.11114047       0.10450828 </v>
    <v>       0.05559145       0.05555320       0.17348141 </v>
    <v>       0.99998731       0.99995289       0.24266969 </v>
    <v>       0.94374282       0.94495288       0.51848279 </v>
    <v>       0.38888879       0.55555561       0.46391345 </v>
    <v>       0.32095219       0.56666012       0.48267324 </v>
   </varray>
  </structure>
  <varray name="primitive_index" >
   <v type="int" >        1 </v>
   <v type="int" >        2 </v>
   <v type="int" >        3 </v>
   <v type="int" >        4 </v>
   <v type="int" >        5 </v>
   <v type="int" >        6 </v>
   <v type="int" >        7 </v>
   <v type="int" >        8 </v>
   <v type="int" >        9 </v>
   <v type="int" >       10 </v>
   <v type="int" >       11 </v>
   <v type="int" >       12 </v>
   <v type="int" >       13 </v>
   <v type="int" >       14 </v>
   <v type="int" >       15 </v>
   <v type="int" >       16 </v>
   <v type="int" >       17 </v>
   <v type="int" >       18 </v>
   <v type="int" >       19 </v>
   <v type="int" >       20 </v>
   <v type="int" >       21 </v>
   <v type="int" >       22 </v>
   <v type="int" >       23 </v>
   <v type="int" >       24 </v>
   <v type="int" >       25 </v>
   <v type="int" >       26 </v>
   <v type="int" >       27 </v>
   <v type="int" >       28 </v>
   <v type="int" >       29 </v>
   <v type="int" >       30 </v>
   <v type="int" >       31 </v>
   <v type="int" >       32 </v>
   <v type="int" >       33 </v>
   <v type="int" >       34 </v>
   <v type="int" >       35 </v>
   <v type="int" >       36 </v>
   <v type="int" >       37 </v>
   <v type="int" >       38 </v>
   <v type="int" >       39 </v>
   <v type="int" >       40 </v>
   <v type="int" >       41 </v>
   <v type="int" >       42 </v>
   <v type="int" >       43 </v>
   <v type="int" >       44 </v>
   <v type="int" >       45 </v>
   <v type="int" >       46 </v>
   <v type="int" >       47 </v>
   <v type="int" >       48 </v>
   <v type="int" >       49 </v>
   <v type="int" >       50 </v>
   <v type="int" >       51 </v>
   <v type="int" >       52 </v>
   <v type="int" >       53 </v>
   <v type="int" >       54 </v>
   <v type="int" >       55 </v>
   <v type="int" >       56 </v>
   <v type="int" >       57 </v>
   <v type="int" >       58 </v>
   <v type="int" >       59 </v>
   <v type="int" >       60 </v>
   <v type="int" >       61 </v>
   <v type="int" >       62 </v>
   <v type="int" >       63 </v>
   <v type="int" >       64 </v>
   <v type="int" >       65 </v>
   <v type="int" >       66 </v>
   <v type="int" >       67 </v>
   <v type="int" >       68 </v>
   <v type="int" >       69 </v>
   <v type="int" >       70 </v>
   <v type="int" >       71 </v>
   <v type="int" >       72 </v>
   <v type="int" >       73 </v>
   <v type="int" >       74 </v>
   <v type="int" >       75 </v>
   <v type="int" >       76 </v>
   <v type="int" >       77 </v>
   <v type="int" >       78 </v>
   <v type="int" >       79 </v>
   <v type="int" >       80 </v>
   <v type="int" >       81 </v>
   <v type="int" >       82 </v>
   <v type="int" >       83 </v>
   <v type="int" >       84 </v>
   <v type="int" >       85 </v>
   <v type="int" >       86 </v>
   <v type="int" >       87 </v>
   <v type="int" >       88 </v>
   <v type="int" >       89 </v>
   <v type="int" >       90 </v>
   <v type="int" >       91 </v>
   <v type="int" >       92 </v>
   <v type="int" >       93 </v>
   <v type="int" >       94 </v>
   <v type="int" >       95 </v>
   <v type="int" >       96 </v>
   <v type="int" >       97 </v>
   <v type="int" >       98 </v>
   <v type="int" >       99 </v>
   <v type="int" >      100 </v>
   <v type="int" >      101 </v>
   <v type="int" >      102 </v>
   <v type="int" >      103 </v>
   <v type="int" >      104 </v>
   <v type="int" >      105 </v>
   <v type="int" >      106 </v>
   <v type="int" >      107 </v>
   <v type="int" >      108 </v>
   <v type="int" >      109 </v>
   <v type="int" >      110 </v>
   <v type="int" >      111 </v>
   <v type="int" >      112 </v>
   <v type="int" >      113 </v>
   <v type="int" >      114 </v>
   <v type="int" >      115 </v>
   <v type="int" >      116 </v>
   <v type="int" >      117 </v>
   <v type="int" >      118 </v>
   <v type="int" >      119 </v>
   <v type="int" >      120 </v>
   <v type="int" >      121 </v>
   <v type="int" >      122 </v>
   <v type="int" >      123 </v>
   <v type="int" >      124 </v>
   <v type="int" >      125 </v>
   <v type="int" >      126 </v>
   <v type="int" >      127 </v>
   <v type="int" >      128 </v>
   <v type="int" >      129 </v>
   <v type="int" >      130 </v>
   <v type="int" >      131 </v>
   <v type="int" >      132 </v>
   <v type="int" >      133 </v>
   <v type="int" >      134 </v>
   <v type="int" >      135 </v>
   <v type="int" >      136 </v>
   <v type="int" >      137 </v>
   <v type="int" >      138 </v>
   <v type="int" >      139 </v>
   <v type="int" >      140 </v>
   <v type="int" >      141 </v>
   <v type="int" >      142 </v>
   <v type="int" >      143 </v>
   <v type="int" >      144 </v>
   <v type="int" >      145 </v>
   <v type="int" >      146 </v>
   <v type="int" >      147 </v>
   <v type="int" >      148 </v>
   <v type="int" >      149 </v>
   <v type="int" >      150 </v>
   <v type="int" >      151 </v>
   <v type="int" >      152 </v>
   <v type="int" >      153 </v>
   <v type="int" >      154 </v>
   <v type="int" >      155 </v>
   <v type="int" >      156 </v>
   <v type="int" >      157 </v>
   <v type="int" >      158 </v>
   <v type="int" >      159 </v>
   <v type="int" >      160 </v>
   <v type="int" >      161 </v>
   <v type="int" >      162 </v>
   <v type="int" >      163 </v>
   <v type="int" >      164 </v>
   <v type="int" >      165 </v>
   <v type="int" >      166 </v>
   <v type="int" >      167 </v>
   <v type="int" >      168 </v>
   <v type="int" >      169 </v>
   <v type="int" >      170 </v>
   <v type="int" >      171 </v>
   <v type="int" >      172 </v>
   <v type="int" >      173 </v>
   <v type="int" >      174 </v>
   <v type="int" >      175 </v>
   <v type="int" >      176 </v>
   <v type="int" >      177 </v>
   <v type="int" >      178 </v>
   <v type="int" >      179 </v>
   <v type="int" >      180 </v>
   <v type="int" >      181 </v>
   <v type="int" >      182 </v>
   <v type="int" >      183 </v>
   <v type="int" >      184 </v>
   <v type="int" >      185 </v>
   <v type="int" >      186 </v>
   <v type="int" >      187 </v>
   <v type="int" >      188 </v>
   <v type="int" >      189 </v>
   <v type="int" >      190 </v>
   <v type="int" >      191 </v>
   <v type="int" >      192 </v>
   <v type="int" >      193 </v>
   <v type="int" >      194 </v>
   <v type="int" >      195 </v>
   <v type="int" >      196 </v>
   <v type="int" >      197 </v>
   <v type="int" >      198 </v>
   <v type="int" >      199 </v>
   <v type="int" >      200 </v>
   <v type="int" >      201 </v>
   <v type="int" >      202 </v>
   <v type="int" >      203 </v>
   <v type="int" >      204 </v>
   <v type="int" >      205 </v>
   <v type="int" >      206 </v>
   <v type="int" >      207 </v>
   <v type="int" >      208 </v>
   <v type="int" >      209 </v>
   <v type="int" >      210 </v>
   <v type="int" >      211 </v>
   <v type="int" >      212 </v>
   <v type="int" >      213 </v>
   <v type="int" >      214 </v>
   <v type="int" >      215 </v>
   <v type="int" >      216 </v>
   <v type="int" >      217 </v>
   <v type="int" >      218 </v>
   <v type="int" >      219 </v>
   <v type="int" >      220 </v>
   <v type="int" >      221 </v>
   <v type="int" >      222 </v>
   <v type="int" >      223 </v>
   <v type="int" >      224 </v>
   <v type="int" >      225 </v>
   <v type="int" >      226 </v>
   <v type="int" >      227 </v>
   <v type="int" >      228 </v>
   <v type="int" >      229 </v>
   <v type="int" >      230 </v>
   <v type="int" >      231 </v>
   <v type="int" >      232 </v>
   <v type="int" >      233 </v>
   <v type="int" >      234 </v>
   <v type="int" >      235 </v>
   <v type="int" >      236 </v>
   <v type="int" >      237 </v>
   <v type="int" >      238 </v>
   <v type="int" >      239 </v>
   <v type="int" >      240 </v>
   <v type="int" >      241 </v>
   <v type="int" >      242 </v>
   <v type="int" >      243 </v>
   <v type="int" >      244 </v>
   <v type="int" >      245 </v>
   <v type="int" >      246 </v>
   <v type="int" >      247 </v>
   <v type="int" >      248 </v>
   <v type="int" >      249 </v>
   <v type="int" >      250 </v>
   <v type="int" >      251 </v>
   <v type="int" >      252 </v>
   <v type="int" >      253 </v>
   <v type="int" >      254 </v>
  </varray>
 </primitive_cell>
 <kpoints>
  <generation param="Gamma">
   <v type="int" name="divisions">       2        2        1 </v>
   <v name="usershift">      0.00000000       0.00000000       0.00000000 </v>
   <v name="genvec1">      0.50000000      -0.00000000       0.00000000 </v>
   <v name="genvec2">      0.00000000       0.50000000       0.00000000 </v>
   <v name="genvec3">      0.00000000       0.00000000       1.00000000 </v>
   <v name="shift">      0.00000000       0.00000000       0.00000000 </v>
  </generation>
  <varray name="kpointlist" >
   <v>       0.00000000       0.00000000       0.00000000 </v>
   <v>       0.50000000       0.00000000       0.00000000 </v>
   <v>       0.50000000       0.50000000       0.00000000 </v>
   <v>       0.00000000       0.50000000       0.00000000 </v>
  </varray>
  <varray name="weights" >
   <v>       0.25000000 </v>
   <v>       0.25000000 </v>
   <v>       0.25000000 </v>
   <v>       0.25000000 </v>
  </varray>
 </kpoints>
 <parameters>
  <separator name="general" >
   <i type="string" name="SYSTEM">NiAl</i>
   <i type="logical" name="LCOMPAT"> F  </i>
  </separator>
  <separator name="electronic" >
   <i type="string" name="PREC">normal</i>
   <i name="ENMAX">    360.00000000</i>
   <i name="ENAUG">   1139.60900000</i>
   <i name="EDIFF">      0.00000500</i>
   <i type="int" name="IALGO">    38</i>
   <i type="int" name="IWAVPR">    11</i>
   <i type="int" name="NBANDS">  1519</i>
   <i type="int" name="NBANDSLOW">    -1</i>
   <i type="int" name="NBANDSHIGH">    -1</i>
   <i name="NELECT">   2532.00000000</i>
   <i type="int" name="TURBO">     0</i>
   <i type="int" name="IRESTART">     0</i>
   <i type="int" name="NREBOOT">     0</i>
   <i type="int" name="NMIN">     0</i>
   <i name="EREF">      0.00000000</i>
   <separator name="electronic smearing" >
    <i type="int" name="ISMEAR">     0</i>
    <i name="SIGMA">      0.05000000</i>
    <i name="KSPACING">      0.50000000</i>
    <i type="logical" name="KGAMMA"> T  </i>
    <i type="logical" name="KBLOWUP"> T  </i>
   </separator>
   <separator name="electronic projectors" >
    <i type="logical" name="LREAL"> T  </i>
    <v name="ROPT">     -0.00050000     -0.00050000</v>
    <i type="int" name="LMAXPAW">  -100</i>
    <i type="int" name="LMAXMIX">     2</i>
    <i type="logical" name="NLSPLINE"> F  </i>
   </separator>
   <separator name="electronic startup" >
    <i type="int" name="ISTART">     0</i>
    <i type="int" name="ICHARG">     2</i>
    <i type="int" name="INIWAV">     1</i>
   </separator>
   <separator name="electronic spin" >
    <i type="int" name="ISPIN">     1</i>
    <i type="logical" name="LNONCOLLINEAR"> F  </i>
    <v name="MAGMOM">      1.00000000      1.00000000      1.00000000      1.00000000      1.00000000      1.00000000      1.00000000      1.00000000      1.00000000      1.00000000      1.00000000      1.00000000      1.00000000      1.00000000      1.00000000      1.00000000      1.00000000      1.00000000      1.00000000      1.00000000
      1.00000000      1.00000000      1.00000000      1.00000000      1.00000000      1.00000000      1.00000000      1.00000000      1.00000000      1.00000000      1.00000000      1.00000000      1.00000000      1.00000000      1.00000000      1.00000000      1.00000000      1.00000000      1.00000000      1.00000000
      1.00000000      1.00000000      1.00000000      1.00000000      1.00000000      1.00000000      1.00000000      1.00000000      1.00000000      1.00000000      1.00000000      1.00000000      1.00000000      1.00000000      1.00000000      1.00000000      1.00000000      1.00000000      1.00000000      1.00000000
      1.00000000      1.00000000      1.00000000      1.00000000      1.00000000      1.00000000      1.00000000      1.00000000      1.00000000      1.00000000      1.00000000      1.00000000      1.00000000      1.00000000      1.00000000      1.00000000      1.00000000      1.00000000      1.00000000      1.00000000
      1.00000000      1.00000000      1.00000000      1.00000000      1.00000000      1.00000000      1.00000000      1.00000000      1.00000000      1.00000000      1.00000000      1.00000000      1.00000000      1.00000000      1.00000000      1.00000000      1.00000000      1.00000000      1.00000000      1.00000000
      1.00000000      1.00000000      1.00000000      1.00000000      1.00000000      1.00000000      1.00000000      1.00000000      1.00000000      1.00000000      1.00000000      1.00000000      1.00000000      1.00000000      1.00000000      1.00000000      1.00000000      1.00000000      1.00000000      1.00000000
      1.00000000      1.00000000      1.00000000      1.00000000      1.00000000      1.00000000      1.00000000      1.00000000      1.00000000      1.00000000      1.00000000      1.00000000      1.00000000      1.00000000      1.00000000      1.00000000      1.00000000      1.00000000      1.00000000      1.00000000
      1.00000000      1.00000000      1.00000000      1.00000000      1.00000000      1.00000000      1.00000000      1.00000000      1.00000000      1.00000000      1.00000000      1.00000000      1.00000000      1.00000000      1.00000000      1.00000000      1.00000000      1.00000000      1.00000000      1.00000000
      1.00000000      1.00000000      1.00000000      1.00000000      1.00000000      1.00000000      1.00000000      1.00000000      1.00000000      1.00000000      1.00000000      1.00000000      1.00000000      1.00000000      1.00000000      1.00000000      1.00000000      1.00000000      1.00000000      1.00000000
      1.00000000      1.00000000      1.00000000      1.00000000      1.00000000      1.00000000      1.00000000      1.00000000      1.00000000      1.00000000      1.00000000      1.00000000      1.00000000      1.00000000      1.00000000      1.00000000      1.00000000      1.00000000      1.00000000      1.00000000
      1.00000000      1.00000000      1.00000000      1.00000000      1.00000000      1.00000000      1.00000000      1.00000000      1.00000000      1.00000000      1.00000000      1.00000000      1.00000000      1.00000000      1.00000000      1.00000000      1.00000000      1.00000000      1.00000000      1.00000000
      1.00000000      1.00000000      1.00000000      1.00000000      1.00000000      1.00000000      1.00000000      1.00000000      1.00000000      1.00000000      1.00000000      1.00000000      1.00000000      1.00000000      1.00000000      1.00000000      1.00000000      1.00000000      1.00000000      1.00000000
      1.00000000      1.00000000      1.00000000      1.00000000      1.00000000      1.00000000      1.00000000      1.00000000      1.00000000      1.00000000      1.00000000      1.00000000      1.00000000      1.00000000</v>
    <i name="NUPDOWN">     -1.00000000</i>
    <i type="logical" name="LSORBIT"> F  </i>
    <v name="SAXIS">      0.00000000      0.00000000      1.00000000</v>
    <i type="logical" name="LSPIRAL"> F  </i>
    <v name="QSPIRAL">      0.00000000      0.00000000      0.00000000</v>
    <i type="logical" name="LZEROZ"> F  </i>
   </separator>
   <separator name="electronic exchange-correlation" >
    <i type="logical" name="LASPH"> F  </i>
    <i type="logical" name="LMETAGGA"> F  </i>
   </separator>
   <separator name="electronic convergence" >
    <i type="int" name="NELM">    60</i>
    <i type="int" name="NELMDL">    -5</i>
    <i type="int" name="NELMIN">     6</i>
    <i name="ENINI">    360.00000000</i>
    <separator name="electronic convergence detail" >
     <i type="logical" name="LDIAG"> T  </i>
     <i type="logical" name="LSUBROT"> F  </i>
     <i name="WEIMIN">      0.00100000</i>
     <i name="EBREAK">      0.00000000</i>
     <i name="DEPER">      0.30000000</i>
     <i type="int" name="NRMM">     4</i>
     <i name="TIME">      0.40000000</i>
    </separator>
   </separator>
   <separator name="electronic mixer" >
    <i name="AMIX">      0.40000000</i>
    <i name="BMIX">      1.00000000</i>
    <i name="AMIN">      0.10000000</i>
    <i name="AMIX_MAG">      1.60000000</i>
    <i name="BMIX_MAG">      1.00000000</i>
    <separator name="electronic mixer details" >
     <i type="int" name="IMIX">     4</i>
     <i type="logical" name="MIXFIRST"> F  </i>
     <i type="int" name="MAXMIX">   -45</i>
     <i name="WC">    100.00000000</i>
     <i type="int" name="INIMIX">     1</i>
     <i type="int" name="MIXPRE">     1</i>
     <i type="int" name="MREMOVE">     5</i>
    </separator>
   </separator>
   <separator name="electronic dipolcorrection" >
    <i type="logical" name="LDIPOL"> F  </i>
    <i type="logical" name="LMONO"> F  </i>
    <i type="int" name="IDIPOL">     0</i>
    <i name="EPSILON">      1.00000000</i>
    <v name="DIPOL">   -100.00000000   -100.00000000   -100.00000000</v>
    <i name="EFIELD">      0.00000000</i>
   </separator>
  </separator>
  <separator name="grids" >
   <i type="int" name="NGX">    70</i>
   <i type="int" name="NGY">    70</i>
   <i type="int" name="NGZ">   140</i>
   <i type="int" name="NGXF">   140</i>
   <i type="int" name="NGYF">   140</i>
   <i type="int" name="NGZF">   280</i>
   <i type="logical" name="ADDGRID"> F  </i>
  </separator>
  <separator name="ionic" >
   <i type="int" name="NSW">    40</i>
   <i type="int" name="IBRION">     2</i>
   <i type="int" name="MDALGO">     0</i>
   <i type="int" name="ISIF">     1</i>
   <i name="PSTRESS">      0.00000000</i>
   <i name="EDIFFG">      0.00005000</i>
   <i type="int" name="NFREE">     1</i>
   <i name="POTIM">      0.20000000</i>
   <i name="SMASS">     -3.00000000</i>
   <i name="SCALEE">      1.00000000</i>
  </separator>
  <separator name="ionic md" >
   <i name="TEBEG">      0.00010000</i>
   <i name="TEEND">      0.00010000</i>
   <i type="int" name="NBLOCK">     1</i>
   <i type="int" name="KBLOCK">    40</i>
   <i type="int" name="NPACO">   256</i>
   <i name="APACO">     16.00000000</i>
  </separator>
  <separator name="symmetry" >
   <i type="int" name="ISYM">     2</i>
   <i name="SYMPREC">      0.00001000</i>
  </separator>
  <separator name="dos" >
   <i type="int" name="LORBIT">     0</i>
   <v name="RWIGS">     -1.00000000     -1.00000000</v>
   <i type="int" name="NEDOS">   301</i>
   <i name="EMIN">     10.00000000</i>
   <i name="EMAX">    -10.00000000</i>
   <i name="EFERMI">      0.00000000</i>
  </separator>
  <separator name="writing" >
   <i type="int" name="NWRITE">     2</i>
   <i type="logical" name="LWAVE"> F  </i>
   <i type="logical" name="LDOWNSAMPLE"> F  </i>
   <i type="logical" name="LCHARG"> F  </i>
   <i type="logical" name="LPARD"> F  </i>
   <i type="logical" name="LVTOT"> F  </i>
   <i type="logical" name="LVHAR"> F  </i>
   <i type="logical" name="LELF"> F  </i>
   <i type="logical" name="LOPTICS"> F  </i>
   <v name="STM">      0.00000000      0.00000000      0.00000000      0.00000000      0.00000000      0.00000000      0.00000000</v>
  </separator>
  <separator name="performance" >
   <i type="int" name="NPAR">     1</i>
   <i type="int" name="NSIM">     4</i>
   <i type="int" name="NBLK">    -1</i>
   <i type="logical" name="LPLANE"> T  </i>
   <i type="logical" name="LSCALAPACK"> T  </i>
   <i type="logical" name="LSCAAWARE"> F  </i>
   <i type="logical" name="LSCALU"> F  </i>
   <i type="logical" name="LASYNC"> F  </i>
   <i type="logical" name="LORBITALREAL"> F  </i>
  </separator>
  <separator name="miscellaneous" >
   <i type="int" name="IDIOT">     3</i>
   <i type="int" name="PHON_NSTRUCT">    -1</i>
   <i type="logical" name="LMUSIC"> F  </i>
   <v name="POMASS">     58.69000000     16.00000000</v>
   <v name="DARWINR">      0.00000000      0.00000000</v>
   <v name="DARWINV">      1.00000000      1.00000000</v>
   <i type="logical" name="LCORR"> T  </i>
  </separator>
  <i type="logical" name="GGA_COMPAT"> T  </i>
  <i type="logical" name="LBERRY"> F  </i>
  <i type="int" name="ICORELEVEL">     0</i>
  <i type="logical" name="LDAU"> F  </i>
  <i type="int" name="I_CONSTRAINED_M">     0</i>
  <separator name="electronic exchange-correlation" >
   <i type="string" name="GGA">--</i>
   <i type="int" name="VOSKOWN">     0</i>
   <i type="logical" name="LHFCALC"> F  </i>
   <i type="string" name="PRECFOCK"></i>
   <i type="logical" name="LSYMGRAD"> F  </i>
   <i type="logical" name="LHFONE"> F  </i>
   <i type="logical" name="LRHFCALC"> F  </i>
   <i type="logical" name="LTHOMAS"> F  </i>
   <i type="logical" name="LMODELHF"> F  </i>
   <i type="logical" name="LFOCKACE"> F  </i>
   <i name="ENCUT4O">     -1.00000000</i>
   <i type="int" name="EXXOEP">     0</i>
   <i type="int" name="FOURORBIT">     0</i>
   <i name="AEXX">      0.00000000</i>
   <i name="HFALPHA">      0.00000000</i>
   <i name="MCALPHA">      0.00000000</i>
   <i name="ALDAX">      1.00000000</i>
   <i name="AGGAX">      1.00000000</i>
   <i name="ALDAC">      1.00000000</i>
   <i name="AGGAC">      1.00000000</i>
   <i type="int" name="NKREDX">     1</i>
   <i type="int" name="NKREDY">     1</i>
   <i type="int" name="NKREDZ">     1</i>
   <i type="logical" name="SHIFTRED"> F  </i>
   <i type="logical" name="ODDONLY"> F  </i>
   <i type="logical" name="EVENONLY"> F  </i>
   <i type="int" name="LMAXFOCK">     0</i>
   <i type="int" name="NMAXFOCKAE">     0</i>
   <i type="logical" name="LFOCKAEDFT"> F  </i>
   <i name="HFSCREEN">      0.00000000</i>
   <i name="HFSCREENC">      0.00000000</i>
   <i type="int" name="NBANDSGWLOW">     0</i>
  </separator>
  <separator name="vdW DFT" >
   <i type="logical" name="LUSE_VDW"> F  </i>
   <i name="Zab_VDW">     -0.84910000</i>
   <i name="PARAM1">      0.12340000</i>
   <i name="PARAM2">      1.00000000</i>
   <i name="PARAM3">      0.00000000</i>
  </separator>
  <separator name="model GW" >
   <i type="int" name="MODEL_GW">     0</i>
   <i name="MODEL_EPS0">     13.60989534</i>
   <i name="MODEL_ALPHA">      1.00000000</i>
  </separator>
  <separator name="linear response parameters" >
   <i type="logical" name="LEPSILON"> F  </i>
   <i type="logical" name="LRPA"> F  </i>
   <i type="logical" name="LNABLA"> F  </i>
   <i type="logical" name="LVEL"> F  </i>
   <i type="int" name="KINTER">     0</i>
   <i name="CSHIFT">      0.10000000</i>
   <i name="OMEGAMAX">     -1.00000000</i>
   <i name="DEG_THRESHOLD">      0.00200000</i>
   <i name="RTIME">     -0.10000000</i>
   <i name="WPLASMAI">      0.00000000</i>
   <v name="DFIELD">      0.00000000      0.00000000      0.00000000</v>
   <v name="WPLASMA">      0.00000000      0.00000000      0.00000000      0.00000000      0.00000000      0.00000000      0.00000000      0.00000000      0.00000000</v>
  </separator>
  <separator name="orbital magnetization" >
   <i type="logical" name="NUCIND"> F  </i>
   <v name="MAGPOS">      0.00000000      0.00000000      0.00000000</v>
   <i type="logical" name="LNICSALL"> T  </i>
   <i type="logical" name="ORBITALMAG"> F  </i>
   <i type="logical" name="LMAGBLOCH"> F  </i>
   <i type="logical" name="LCHIMAG"> F  </i>
   <i type="logical" name="LGAUGE"> T  </i>
   <i type="int" name="MAGATOM">     0</i>
   <v name="MAGDIPOL">      0.00000000      0.00000000      0.00000000</v>
   <v name="AVECCONST">      0.00000000      0.00000000      0.00000000</v>
  </separator>
  <separator name="response functions" >
   <i type="logical" name="LFINITE_TEMPERATURE"> F  </i>
   <i type="logical" name="LADDER"> F  </i>
   <i type="logical" name="LRPAFORCE"> F  </i>
   <i type="logical" name="LFXC"> F  </i>
   <i type="logical" name="LHARTREE"> T  </i>
   <i type="int" name="IBSE">     0</i>
   <v type="int" name="KPOINT">    -1     0     0     0</v>
   <i type="logical" name="LTCTC"> F  </i>
   <i type="logical" name="LTCTE"> F  </i>
   <i type="logical" name="LTETE"> F  </i>
   <i type="logical" name="LTRIPLET"> F  </i>
   <i type="logical" name="LFXCEPS"> F  </i>
   <i type="logical" name="LFXHEG"> F  </i>
   <i type="int" name="NATURALO">     2</i>
   <i type="logical" name="LHOLEGF"> F  </i>
   <i type="logical" name="L2ORDER"> F  </i>
   <i type="logical" name="LDMP1"> F  </i>
   <i type="logical" name="LMP2LT"> F  </i>
   <i type="logical" name="LSMP2LT"> F  </i>
   <i type="logical" name="LGWLF"> F  </i>
   <i name="ENCUTGW">     -2.00000000</i>
   <i name="ENCUTGWSOFT">     -2.00000000</i>
   <i name="ENCUTLF">     -1.00000000</i>
   <i type="logical" name="LESF_SPLINES"> F  </i>
   <i type="int" name="LMAXMP2">    -1</i>
   <i name="SCISSOR">      0.00000000</i>
   <i type="int" name="NOMEGA">     0</i>
   <i type="int" name="NOMEGAR">     0</i>
   <i type="int" name="NBANDSGW">    -1</i>
   <i type="int" name="NBANDSO">    -1</i>
   <i type="int" name="NBANDSV">    -1</i>
   <i type="int" name="NELM">     1</i>
   <i type="int" name="NELMHF">     1</i>
   <i type="int" name="DIM">     3</i>
   <i type="int" name="IESPILON">     4</i>
   <i type="int" name="ANTIRES">     0</i>
   <i name="OMEGAMAX">    -30.00000000</i>
   <i name="OMEGAMIN">    -30.00000000</i>
   <i name="OMEGATL">   -200.00000000</i>
   <i type="int" name="OMEGAGRID">     0</i>
   <i name="CSHIFT">     -0.10000000</i>
   <i type="logical" name="LSELFENERGY"> F  </i>
   <i type="logical" name="LSPECTRAL"> F  </i>
   <i type="logical" name="LSPECTRALGW"> F  </i>
   <i type="logical" name="LSINGLES"> F  </i>
   <i type="logical" name="LFERMIGW"> F  </i>
   <i type="logical" name="ODDONLYGW"> F  </i>
   <i type="logical" name="EVENONLYGW"> F  </i>
   <i type="int" name="NKREDLFX">     1</i>
   <i type="int" name="NKREDLFY">     1</i>
   <i type="int" name="NKREDLFZ">     1</i>
   <i type="int" name="MAXMEM">  2800</i>
   <i type="int" name="TELESCOPE">     0</i>
   <i type="int" name="NTAUPAR">    -1</i>
   <i type="int" name="NOMEGAPAR">    -1</i>
   <i name="DAMP_NEWTON">      0.80000001</i>
   <i name="LAMBDA">      1.00000000</i>
  </separator>
  <separator name="External order field" >
   <i name="OFIELD_KAPPA">      0.00000000</i>
   <v name="OFIELD_K">      0.00000000      0.00000000      0.00000000</v>
   <i name="OFIELD_Q6_NEAR">      0.00000000</i>
   <i name="OFIELD_Q6_FAR">      0.00000000</i>
   <i name="OFIELD_A">      0.00000000</i>
  </separator>
  <separator name="solvation model" >
   <i type="logical" name="LSOL"> F  </i>
  </separator>
 </parameters>
 <atominfo>
  <atoms>     254 </atoms>
  <types>       2 </types>
  <array name="atoms" >
   <dimension dim="1">ion</dimension>
   <field type="string">element</field>
   <field type="int">atomtype</field>
   <set>
    <rc><c>Ni</c><c>   1</c></rc>
    <rc><c>Ni</c><c>   1</c></rc>
    <rc><c>Ni</c><c>   1</c></rc>
    <rc><c>Ni</c><c>   1</c></rc>
    <rc><c>Ni</c><c>   1</c></rc>
    <rc><c>Ni</c><c>   1</c></rc>
    <rc><c>Ni</c><c>   1</c></rc>
    <rc><c>Ni</c><c>   1</c></rc>
    <rc><c>Ni</c><c>   1</c></rc>
    <rc><c>Ni</c><c>   1</c></rc>
    <rc><c>Ni</c><c>   1</c></rc>
    <rc><c>Ni</c><c>   1</c></rc>
    <rc><c>Ni</c><c>   1</c></rc>
    <rc><c>Ni</c><c>   1</c></rc>
    <rc><c>Ni</c><c>   1</c></rc>
    <rc><c>Ni</c><c>   1</c></rc>
    <rc><c>Ni</c><c>   1</c></rc>
    <rc><c>Ni</c><c>   1</c></rc>
    <rc><c>Ni</c><c>   1</c></rc>
    <rc><c>Ni</c><c>   1</c></rc>
    <rc><c>Ni</c><c>   1</c></rc>
    <rc><c>Ni</c><c>   1</c></rc>
    <rc><c>Ni</c><c>   1</c></rc>
    <rc><c>Ni</c><c>   1</c></rc>
    <rc><c>Ni</c><c>   1</c></rc>
    <rc><c>Ni</c><c>   1</c></rc>
    <rc><c>Ni</c><c>   1</c></rc>
    <rc><c>Ni</c><c>   1</c></rc>
    <rc><c>Ni</c><c>   1</c></rc>
    <rc><c>Ni</c><c>   1</c></rc>
    <rc><c>Ni</c><c>   1</c></rc>
    <rc><c>Ni</c><c>   1</c></rc>
    <rc><c>Ni</c><c>   1</c></rc>
    <rc><c>Ni</c><c>   1</c></rc>
    <rc><c>Ni</c><c>   1</c></rc>
    <rc><c>Ni</c><c>   1</c></rc>
    <rc><c>Ni</c><c>   1</c></rc>
    <rc><c>Ni</c><c>   1</c></rc>
    <rc><c>Ni</c><c>   1</c></rc>
    <rc><c>Ni</c><c>   1</c></rc>
    <rc><c>Ni</c><c>   1</c></rc>
    <rc><c>Ni</c><c>   1</c></rc>
    <rc><c>Ni</c><c>   1</c></rc>
    <rc><c>Ni</c><c>   1</c></rc>
    <rc><c>Ni</c><c>   1</c></rc>
    <rc><c>Ni</c><c>   1</c></rc>
    <rc><c>Ni</c><c>   1</c></rc>
    <rc><c>Ni</c><c>   1</c></rc>
    <rc><c>Ni</c><c>   1</c></rc>
    <rc><c>Ni</c><c>   1</c></rc>
    <rc><c>Ni</c><c>   1</c></rc>
    <rc><c>Ni</c><c>   1</c></rc>
    <rc><c>Ni</c><c>   1</c></rc>
    <rc><c>Ni</c><c>   1</c></rc>
    <rc><c>Ni</c><c>   1</c></rc>
    <rc><c>Ni</c><c>   1</c></rc>
    <rc><c>Ni</c><c>   1</c></rc>
    <rc><c>Ni</c><c>   1</c></rc>
    <rc><c>Ni</c><c>   1</c></rc>
    <rc><c>Ni</c><c>   1</c></rc>
    <rc><c>Ni</c><c>   1</c></rc>
    <rc><c>Ni</c><c>   1</c></rc>
    <rc><c>Ni</c><c>   1</c></rc>
    <rc><c>Ni</c><c>   1</c></rc>
    <rc><c>Ni</c><c>   1</c></rc>
    <rc><c>Ni</c><c>   1</c></rc>
    <rc><c>Ni</c><c>   1</c></rc>
    <rc><c>Ni</c><c>   1</c></rc>
    <rc><c>Ni</c><c>   1</c></rc>
    <rc><c>Ni</c><c>   1</c></rc>
    <rc><c>Ni</c><c>   1</c></rc>
    <rc><c>Ni</c><c>   1</c></rc>
    <rc><c>Ni</c><c>   1</c></rc>
    <rc><c>Ni</c><c>   1</c></rc>
    <rc><c>Ni</c><c>   1</c></rc>
    <rc><c>Ni</c><c>   1</c></rc>
    <rc><c>Ni</c><c>   1</c></rc>
    <rc><c>Ni</c><c>   1</c></rc>
    <rc><c>Ni</c><c>   1</c></rc>
    <rc><c>Ni</c><c>   1</c></rc>
    <rc><c>Ni</c><c>   1</c></rc>
    <rc><c>Ni</c><c>   1</c></rc>
    <rc><c>Ni</c><c>   1</c></rc>
    <rc><c>Ni</c><c>   1</c></rc>
    <rc><c>Ni</c><c>   1</c></rc>
    <rc><c>Ni</c><c>   1</c></rc>
    <rc><c>Ni</c><c>   1</c></rc>
    <rc><c>Ni</c><c>   1</c></rc>
    <rc><c>Ni</c><c>   1</c></rc>
    <rc><c>Ni</c><c>   1</c></rc>
    <rc><c>Ni</c><c>   1</c></rc>
    <rc><c>Ni</c><c>   1</c></rc>
    <rc><c>Ni</c><c>   1</c></rc>
    <rc><c>Ni</c><c>   1</c></rc>
    <rc><c>Ni</c><c>   1</c></rc>
    <rc><c>Ni</c><c>   1</c></rc>
    <rc><c>Ni</c><c>   1</c></rc>
    <rc><c>Ni</c><c>   1</c></rc>
    <rc><c>Ni</c><c>   1</c></rc>
    <rc><c>Ni</c><c>   1</c></rc>
    <rc><c>Ni</c><c>   1</c></rc>
    <rc><c>Ni</c><c>   1</c></rc>
    <rc><c>Ni</c><c>   1</c></rc>
    <rc><c>Ni</c><c>   1</c></rc>
    <rc><c>Ni</c><c>   1</c></rc>
    <rc><c>Ni</c><c>   1</c></rc>
    <rc><c>Ni</c><c>   1</c></rc>
    <rc><c>Ni</c><c>   1</c></rc>
    <rc><c>Ni</c><c>   1</c></rc>
    <rc><c>Ni</c><c>   1</c></rc>
    <rc><c>Ni</c><c>   1</c></rc>
    <rc><c>Ni</c><c>   1</c></rc>
    <rc><c>Ni</c><c>   1</c></rc>
    <rc><c>Ni</c><c>   1</c></rc>
    <rc><c>Ni</c><c>   1</c></rc>
    <rc><c>Ni</c><c>   1</c></rc>
    <rc><c>Ni</c><c>   1</c></rc>
    <rc><c>Ni</c><c>   1</c></rc>
    <rc><c>Ni</c><c>   1</c></rc>
    <rc><c>Ni</c><c>   1</c></rc>
    <rc><c>Ni</c><c>   1</c></rc>
    <rc><c>Ni</c><c>   1</c></rc>
    <rc><c>Ni</c><c>   1</c></rc>
    <rc><c>Ni</c><c>   1</c></rc>
    <rc><c>Ni</c><c>   1</c></rc>
    <rc><c>Ni</c><c>   1</c></rc>
    <rc><c>Ni</c><c>   1</c></rc>
    <rc><c>Ni</c><c>   1</c></rc>
    <rc><c>Ni</c><c>   1</c></rc>
    <rc><c>Ni</c><c>   1</c></rc>
    <rc><c>Ni</c><c>   1</c></rc>
    <rc><c>Ni</c><c>   1</c></rc>
    <rc><c>Ni</c><c>   1</c></rc>
    <rc><c>Ni</c><c>   1</c></rc>
    <rc><c>Ni</c><c>   1</c></rc>
    <rc><c>Ni</c><c>   1</c></rc>
    <rc><c>Ni</c><c>   1</c></rc>
    <rc><c>Ni</c><c>   1</c></rc>
    <rc><c>Ni</c><c>   1</c></rc>
    <rc><c>Ni</c><c>   1</c></rc>
    <rc><c>Ni</c><c>   1</c></rc>
    <rc><c>Ni</c><c>   1</c></rc>
    <rc><c>Ni</c><c>   1</c></rc>
    <rc><c>Ni</c><c>   1</c></rc>
    <rc><c>Ni</c><c>   1</c></rc>
    <rc><c>Ni</c><c>   1</c></rc>
    <rc><c>Ni</c><c>   1</c></rc>
    <rc><c>Ni</c><c>   1</c></rc>
    <rc><c>Ni</c><c>   1</c></rc>
    <rc><c>Ni</c><c>   1</c></rc>
    <rc><c>Ni</c><c>   1</c></rc>
    <rc><c>Ni</c><c>   1</c></rc>
    <rc><c>Ni</c><c>   1</c></rc>
    <rc><c>Ni</c><c>   1</c></rc>
    <rc><c>Ni</c><c>   1</c></rc>
    <rc><c>Ni</c><c>   1</c></rc>
    <rc><c>Ni</c><c>   1</c></rc>
    <rc><c>Ni</c><c>   1</c></rc>
    <rc><c>Ni</c><c>   1</c></rc>
    <rc><c>Ni</c><c>   1</c></rc>
    <rc><c>Ni</c><c>   1</c></rc>
    <rc><c>Ni</c><c>   1</c></rc>
    <rc><c>Ni</c><c>   1</c></rc>
    <rc><c>Ni</c><c>   1</c></rc>
    <rc><c>Ni</c><c>   1</c></rc>
    <rc><c>Ni</c><c>   1</c></rc>
    <rc><c>Ni</c><c>   1</c></rc>
    <rc><c>Ni</c><c>   1</c></rc>
    <rc><c>Ni</c><c>   1</c></rc>
    <rc><c>Ni</c><c>   1</c></rc>
    <rc><c>Ni</c><c>   1</c></rc>
    <rc><c>Ni</c><c>   1</c></rc>
    <rc><c>Ni</c><c>   1</c></rc>
    <rc><c>Ni</c><c>   1</c></rc>
    <rc><c>Ni</c><c>   1</c></rc>
    <rc><c>Ni</c><c>   1</c></rc>
    <rc><c>Ni</c><c>   1</c></rc>
    <rc><c>Ni</c><c>   1</c></rc>
    <rc><c>Ni</c><c>   1</c></rc>
    <rc><c>Ni</c><c>   1</c></rc>
    <rc><c>Ni</c><c>   1</c></rc>
    <rc><c>Ni</c><c>   1</c></rc>
    <rc><c>Ni</c><c>   1</c></rc>
    <rc><c>Ni</c><c>   1</c></rc>
    <rc><c>Ni</c><c>   1</c></rc>
    <rc><c>Ni</c><c>   1</c></rc>
    <rc><c>Ni</c><c>   1</c></rc>
    <rc><c>Ni</c><c>   1</c></rc>
    <rc><c>Ni</c><c>   1</c></rc>
    <rc><c>Ni</c><c>   1</c></rc>
    <rc><c>Ni</c><c>   1</c></rc>
    <rc><c>Ni</c><c>   1</c></rc>
    <rc><c>Ni</c><c>   1</c></rc>
    <rc><c>Ni</c><c>   1</c></rc>
    <rc><c>Ni</c><c>   1</c></rc>
    <rc><c>Ni</c><c>   1</c></rc>
    <rc><c>Ni</c><c>   1</c></rc>
    <rc><c>Ni</c><c>   1</c></rc>
    <rc><c>Ni</c><c>   1</c></rc>
    <rc><c>Ni</c><c>   1</c></rc>
    <rc><c>Ni</c><c>   1</c></rc>
    <rc><c>Ni</c><c>   1</c></rc>
    <rc><c>Ni</c><c>   1</c></rc>
    <rc><c>Ni</c><c>   1</c></rc>
    <rc><c>Ni</c><c>   1</c></rc>
    <rc><c>Ni</c><c>   1</c></rc>
    <rc><c>Ni</c><c>   1</c></rc>
    <rc><c>Ni</c><c>   1</c></rc>
    <rc><c>Ni</c><c>   1</c></rc>
    <rc><c>Ni</c><c>   1</c></rc>
    <rc><c>Ni</c><c>   1</c></rc>
    <rc><c>Ni</c><c>   1</c></rc>
    <rc><c>Ni</c><c>   1</c></rc>
    <rc><c>Ni</c><c>   1</c></rc>
    <rc><c>Ni</c><c>   1</c></rc>
    <rc><c>Ni</c><c>   1</c></rc>
    <rc><c>Ni</c><c>   1</c></rc>
    <rc><c>Ni</c><c>   1</c></rc>
    <rc><c>Ni</c><c>   1</c></rc>
    <rc><c>Ni</c><c>   1</c></rc>
    <rc><c>Ni</c><c>   1</c></rc>
    <rc><c>Ni</c><c>   1</c></rc>
    <rc><c>Ni</c><c>   1</c></rc>
    <rc><c>Ni</c><c>   1</c></rc>
    <rc><c>Ni</c><c>   1</c></rc>
    <rc><c>Ni</c><c>   1</c></rc>
    <rc><c>Ni</c><c>   1</c></rc>
    <rc><c>Ni</c><c>   1</c></rc>
    <rc><c>Ni</c><c>   1</c></rc>
    <rc><c>Ni</c><c>   1</c></rc>
    <rc><c>Ni</c><c>   1</c></rc>
    <rc><c>Ni</c><c>   1</c></rc>
    <rc><c>Ni</c><c>   1</c></rc>
    <rc><c>Ni</c><c>   1</c></rc>
    <rc><c>Ni</c><c>   1</c></rc>
    <rc><c>Ni</c><c>   1</c></rc>
    <rc><c>Ni</c><c>   1</c></rc>
    <rc><c>Ni</c><c>   1</c></rc>
    <rc><c>Ni</c><c>   1</c></rc>
    <rc><c>Ni</c><c>   1</c></rc>
    <rc><c>Ni</c><c>   1</c></rc>
    <rc><c>Ni</c><c>   1</c></rc>
    <rc><c>Ni</c><c>   1</c></rc>
    <rc><c>Ni</c><c>   1</c></rc>
    <rc><c>Ni</c><c>   1</c></rc>
    <rc><c>Ni</c><c>   1</c></rc>
    <rc><c>Ni</c><c>   1</c></rc>
    <rc><c>Ni</c><c>   1</c></rc>
    <rc><c>Ni</c><c>   1</c></rc>
    <rc><c>Ni</c><c>   1</c></rc>
    <rc><c>Ni</c><c>   1</c></rc>
    <rc><c>Ni</c><c>   1</c></rc>
    <rc><c>O </c><c>   2</c></rc>
    <rc><c>O </c><c>   2</c></rc>
   </set>
  </array>
  <array name="atomtypes" >
   <dimension dim="1">type</dimension>
   <field type="int">atomspertype</field>
   <field type="string">element</field>
   <field>mass</field>
   <field>valence</field>
   <field type="string">pseudopotential</field>
   <set>
    <rc><c> 252</c><c>Ni</c><c>     58.69000000</c><c>     10.00000000</c><c>  PAW Ni_GW 31Mar2010                   </c></rc>
    <rc><c>   2</c><c>O </c><c>     16.00000000</c><c>      6.00000000</c><c>  PAW O_GW 19Mar2012                    </c></rc>
   </set>
  </array>
 </atominfo>
 <structure name="initialpos" >
  <crystal>
   <varray name="basis" >
    <v>       0.00000000     -15.14622176       0.00000000 </v>
    <v>       0.00000000      -7.57311088     -13.11701281 </v>
    <v>      29.00000000       0.00000000       0.00000000 </v>
   </varray>
   <i name="volume">   5761.52236213 </i>
   <varray name="rec_basis" >
    <v>       0.00000000      -0.06602307       0.03811843 </v>
    <v>       0.00000000       0.00000000      -0.07623687 </v>
    <v>       0.03448276       0.00000000       0.00000000 </v>
   </varray>
  </crystal>
  <varray name="positions" >
   <v>       0.44611949       0.61278586       0.52320000 </v>
   <v>       0.61600733       0.44199621       0.51834138 </v>
   <v>       0.77899413       0.27671087       0.51854621 </v>
   <v>       0.94448875       0.11115564       0.51853138 </v>
   <v>       0.94482600       0.27758683       0.51870379 </v>
   <v>       0.94448866       0.44435574       0.51853138 </v>
   <v>       0.77828647       0.61130382       0.51848276 </v>
   <v>       0.61126115       0.77792788       0.51857310 </v>
   <v>       0.44463746       0.94495295       0.51848272 </v>
   <v>       0.61123128       0.94438423       0.51861517 </v>
   <v>       0.77771841       0.94438423       0.51861517 </v>
   <v>       0.94414420       0.77792781       0.51857310 </v>
   <v>       0.94374291       0.61130382       0.51848276 </v>
   <v>       0.83315088       0.66703144       0.44996379 </v>
   <v>       0.66664503       0.83331244       0.45007172 </v>
   <v>       0.72222210       0.88888912       0.38087241 </v>
   <v>       0.88901587       0.72225133       0.38084621 </v>
   <v>       0.94447693       0.77776161       0.31161828 </v>
   <v>       0.77777813       0.94444438       0.31165759 </v>
   <v>       0.94441857       0.94444133       0.31164069 </v>
   <v>       0.88901579       0.88873276       0.38084621 </v>
   <v>       0.83337582       0.83331237       0.45007172 </v>
   <v>       0.77771794       0.77789731       0.51861517 </v>
   <v>       0.77899471       0.44429476       0.51854621 </v>
   <v>       0.66696440       0.49998731       0.45010069 </v>
   <v>       0.83361047       0.33319476       0.45009897 </v>
   <v>       0.88883033       0.38894831       0.38086552 </v>
   <v>       0.72212232       0.55558610       0.38081138 </v>
   <v>       0.77777487       0.61113991       0.31164069 </v>
   <v>       0.61109468       0.77776169       0.31161828 </v>
   <v>       0.66667335       0.83333913       0.24266452 </v>
   <v>       0.83331173       0.66670972       0.24265279 </v>
   <v>       0.88898916       0.72215832       0.17349797 </v>
   <v>       0.72222210       0.88888912       0.17346107 </v>
   <v>       0.77779242       0.94445818       0.10453624 </v>
   <v>       0.94450322       0.77774865       0.10455107 </v>
   <v>       0.94445915       0.94448707       0.10454590 </v>
   <v>       0.88898860       0.88885329       0.17349797 </v>
   <v>       0.83332151       0.83333913       0.24266452 </v>
   <v>       0.77777775       0.77777770       0.31165759 </v>
   <v>       0.72206599       0.72225133       0.38084621 </v>
   <v>       0.66642546       0.66667084       0.44999445 </v>
   <v>       0.55544721       0.72211335       0.38088031 </v>
   <v>       0.50000397       0.83309212       0.44999445 </v>
   <v>       0.33332069       0.83363111       0.45010062 </v>
   <v>       0.27532967       0.78267370       0.51834131 </v>
   <v>       0.11004403       0.94566127       0.51854610 </v>
   <v>       0.27762774       0.94566127       0.51854614 </v>
   <v>       0.44443995       0.77893657       0.51861445 </v>
   <v>       0.49945027       0.66611668       0.45103997 </v>
   <v>       0.61226995       0.61110720       0.51861448 </v>
   <v>       0.61111138       0.94444445       0.31165759 </v>
   <v>       0.44447332       0.94444140       0.31164066 </v>
   <v>       0.38891953       0.88878925       0.38081134 </v>
   <v>       0.38893497       0.72210427       0.38127548 </v>
   <v>       0.22229407       0.72210427       0.38127545 </v>
   <v>       0.05562453       0.88878925       0.38081131 </v>
   <v>       0.00023705       0.83309220       0.44999441 </v>
   <v>       0.16776634       0.66611660       0.45103993 </v>
   <v>       0.27442779       0.61278594       0.52319993 </v>
   <v>       0.10995662       0.61110720       0.51861441 </v>
   <v>       0.27533025       0.44199629       0.51834131 </v>
   <v>       0.44444030       0.27662327       0.51861445 </v>
   <v>       0.61126102       0.11081113       0.51857307 </v>
   <v>       0.66642554       0.16690393       0.44999448 </v>
   <v>       0.83315103       0.99981787       0.44996383 </v>
   <v>       0.88883357       0.05550052       0.38080934 </v>
   <v>       0.72212283       0.22229154       0.38081138 </v>
   <v>       0.77776228       0.27779496       0.31165483 </v>
   <v>       0.61097293       0.44451356       0.31184859 </v>
   <v>       0.66660597       0.49997817       0.24273686 </v>
   <v>       0.49988321       0.66655039       0.24285407 </v>
   <v>       0.55546530       0.72213157       0.17355441 </v>
   <v>       0.38883213       0.88883492       0.17349334 </v>
   <v>       0.33331154       0.83327204       0.24273679 </v>
   <v>       0.27784676       0.77763978       0.31184848 </v>
   <v>       0.11112830       0.94442921       0.31165466 </v>
   <v>       0.27777642       0.94442928       0.31165469 </v>
   <v>       0.22223952       0.88885413       0.38089814 </v>
   <v>       0.16638123       0.83363127       0.45010052 </v>
   <v>       0.10995639       0.77893672       0.51861431 </v>
   <v>       0.94441841       0.61113991       0.31164072 </v>
   <v>       0.94442430       0.44448459       0.31166586 </v>
   <v>       0.94442201       0.27778886       0.31166517 </v>
   <v>       0.94442482       0.11109084       0.31166586 </v>
   <v>       0.83328658       0.16665380       0.24266966 </v>
   <v>       0.66660124       0.16676129       0.24270445 </v>
   <v>       0.49988367       0.33356596       0.24285410 </v>
   <v>       0.55552059       0.38894900       0.17356272 </v>
   <v>       0.38888896       0.55555553       0.17360786 </v>
   <v>       0.44444307       0.61110934       0.10461686 </v>
   <v>       0.61108465       0.44445783       0.10453548 </v>
   <v>       0.77779956       0.27776134       0.10449483 </v>
   <v>       0.72216907       0.22233256       0.17349345 </v>
   <v>       0.72218661       0.05565513       0.17349793 </v>
   <v>       0.88893115       0.05559719       0.17349000 </v>
   <v>       0.83331232       0.99997858       0.24265276 </v>
   <v>       0.77777512       0.11108467       0.31164069 </v>
   <v>       0.61109497       0.11114337       0.31161824 </v>
   <v>       0.55558477       0.05568265       0.38084617 </v>
   <v>       0.50036504       0.99981779       0.44996376 </v>
   <v>       0.33361232       0.16636029       0.44998514 </v>
   <v>       0.16652801       0.33319476       0.45009890 </v>
   <v>       0.99969368       0.50027930       0.44998510 </v>
   <v>       0.05562482       0.55558610       0.38081131 </v>
   <v>       0.22223957       0.38890638       0.38089821 </v>
   <v>       0.27784689       0.44451356       0.31184855 </v>
   <v>       0.11130246       0.61103546       0.31173717 </v>
   <v>       0.16689984       0.66655039       0.24285407 </v>
   <v>       0.00009437       0.83326823       0.24270441 </v>
   <v>       0.05566643       0.88883499       0.17349338 </v>
   <v>       0.22228234       0.72218729       0.17356269 </v>
   <v>       0.27779128       0.77775101       0.10453548 </v>
   <v>       0.11109495       0.94446580       0.10449476 </v>
   <v>       0.27777276       0.94446580       0.10449479 </v>
   <v>       0.44438720       0.94448715       0.10454586 </v>
   <v>       0.61108214       0.77774873       0.10455103 </v>
   <v>       0.77782065       0.61105376       0.10454586 </v>
   <v>       0.72216893       0.55549843       0.17349345 </v>
   <v>       0.83328663       0.50005974       0.24266966 </v>
   <v>       0.88888621       0.38885530       0.17348138 </v>
   <v>       0.83328062       0.33335944       0.24268207 </v>
   <v>       0.72219697       0.38890181       0.17347241 </v>
   <v>       0.66660581       0.33341669       0.24273690 </v>
   <v>       0.61099608       0.27796885       0.31173724 </v>
   <v>       0.55544693       0.22243944       0.38088034 </v>
   <v>       0.44436904       0.27796885       0.31173721 </v>
   <v>       0.38893517       0.38896059       0.38127548 </v>
   <v>       0.49945009       0.33443300       0.45103997 </v>
   <v>       0.33324705       0.49991428       0.45091510 </v>
   <v>       0.38888875       0.55555568       0.38187890 </v>
   <v>       0.44431699       0.61098370       0.31211821 </v>
   <v>       0.27803328       0.61098370       0.31211821 </v>
   <v>       0.33337430       0.50004152       0.24289407 </v>
   <v>       0.16674986       0.49997824       0.24273679 </v>
   <v>       0.99998763       0.50005981       0.24266955 </v>
   <v>       0.16669322       0.33335951       0.24268197 </v>
   <v>       0.22223466       0.38890181       0.17347234 </v>
   <v>       0.38883237       0.22233263       0.17349338 </v>
   <v>       0.55549154       0.05565520       0.17349790 </v>
   <v>       0.50004293       0.99997873       0.24265269 </v>
   <v>       0.33339290       0.16665387       0.24266959 </v>
   <v>       0.27777606       0.27779511       0.31165476 </v>
   <v>       0.11112296       0.27778901       0.31166507 </v>
   <v>       0.05555549       0.22222232       0.38087783 </v>
   <v>       0.99999574       0.16666249       0.45007748 </v>
   <v>       0.16652765       0.00027773       0.45009886 </v>
   <v>       0.22228221       0.05549678       0.38086545 </v>
   <v>       0.27781755       0.11109092       0.31166579 </v>
   <v>       0.38899981       0.05550052       0.38080924 </v>
   <v>       0.38891953       0.22229154       0.38081131 </v>
   <v>       0.50000371       0.16690393       0.44999441 </v>
   <v>       0.44463736       0.11040944       0.51848269 </v>
   <v>       0.27768861       0.11115587       0.51853131 </v>
   <v>       0.11092017       0.27758706       0.51870369 </v>
   <v>       0.27762803       0.27671102       0.51854610 </v>
   <v>       0.11004360       0.44429498       0.51854607 </v>
   <v>       0.16638212       0.49998747       0.45010055 </v>
   <v>       0.33332055       0.33304847       0.45010059 </v>
   <v>       0.49991746       0.50004144       0.24289407 </v>
   <v>       0.44431680       0.44469957       0.31211821 </v>
   <v>       0.72206593       0.05568257       0.38084621 </v>
   <v>       0.66664528       0.00004262       0.45007172 </v>
   <v>       0.83336093       0.50027930       0.44998517 </v>
   <v>       0.88883308       0.55566691       0.38080931 </v>
   <v>       0.44444281       0.77777465       0.10455652 </v>
   <v>       0.38886388       0.72218729       0.17356272 </v>
   <v>       0.33337444       0.66658470       0.24289410 </v>
   <v>       0.16674987       0.83327204       0.24273686 </v>
   <v>       0.11130222       0.77766258       0.31173721 </v>
   <v>       0.05577293       0.72211327       0.38088031 </v>
   <v>       0.00023707       0.66667084       0.44999441 </v>
   <v>       0.61110776       0.61110941       0.10455652 </v>
   <v>       0.55552061       0.55553045       0.17356272 </v>
   <v>       0.22223474       0.88886396       0.17347238 </v>
   <v>       0.77779877       0.44443961       0.10449479 </v>
   <v>       0.94445912       0.44441521       0.10452790 </v>
   <v>       0.94445898       0.61105376       0.10454583 </v>
   <v>       0.88893086       0.55547175       0.17348997 </v>
   <v>       0.72218650       0.72215832       0.17349790 </v>
   <v>       0.66660148       0.66663730       0.24270445 </v>
   <v>       0.61099616       0.61103539       0.31173721 </v>
   <v>       0.55543832       0.55560127       0.38127548 </v>
   <v>       0.50017210       0.49991405       0.45091514 </v>
   <v>       0.55543829       0.38896043       0.38127548 </v>
   <v>       0.72218742       0.38890638       0.38089824 </v>
   <v>       0.66696437       0.33304831       0.45010066 </v>
   <v>       0.61227048       0.27662312       0.51861445 </v>
   <v>       0.77828652       0.11040928       0.51848272 </v>
   <v>       0.83336081       0.16636021       0.44998514 </v>
   <v>       0.88883063       0.22222125       0.38086552 </v>
   <v>       0.94447405       0.27776294       0.10450828 </v>
   <v>       0.94445957       0.11112591       0.10452793 </v>
   <v>       0.88888648       0.22225876       0.17348138 </v>
   <v>       0.49997085       0.83326823       0.24270445 </v>
   <v>       0.44436875       0.77766250       0.31173721 </v>
   <v>       0.77779192       0.77774949       0.10453617 </v>
   <v>       0.61108345       0.94445818       0.10453621 </v>
   <v>       0.55549150       0.88885329       0.17349793 </v>
   <v>       0.77782063       0.11112583       0.10454586 </v>
   <v>       0.61108208       0.11116929       0.10455103 </v>
   <v>       0.44444305       0.27778268       0.10455655 </v>
   <v>       0.27779097       0.44445783       0.10453552 </v>
   <v>       0.11111637       0.61110934       0.10455655 </v>
   <v>       0.05566605       0.55549835       0.17349345 </v>
   <v>       0.05573724       0.72213157       0.17355448 </v>
   <v>       0.00009468       0.66663715       0.24270448 </v>
   <v>       0.61110771       0.27778268       0.10455655 </v>
   <v>       0.55546493       0.22240346       0.17355448 </v>
   <v>       0.49997088       0.16676122       0.24270448 </v>
   <v>       0.44447352       0.11108467       0.31164069 </v>
   <v>       0.38886385       0.38894900       0.17356276 </v>
   <v>       0.33331161       0.33341654       0.24273690 </v>
   <v>       0.44444314       0.44444715       0.10461690 </v>
   <v>       0.27778104       0.61110934       0.10461690 </v>
   <v>       0.22228242       0.55553037       0.17356276 </v>
   <v>       0.11111609       0.77777457       0.10455655 </v>
   <v>       0.66667286       0.99998773       0.24266448 </v>
   <v>       0.77776280       0.44444273       0.31165486 </v>
   <v>       0.11112833       0.44444281       0.31165469 </v>
   <v>       0.05555426       0.38894847       0.38086534 </v>
   <v>       0.99999525       0.33334213       0.45007738 </v>
   <v>       0.16667461       0.16666234       0.45007741 </v>
   <v>       0.11091963       0.11149284       0.51870359 </v>
   <v>       0.55558467       0.88873284       0.38084617 </v>
   <v>       0.22229354       0.55560150       0.38127541 </v>
   <v>       0.22228205       0.22222133       0.38086541 </v>
   <v>       0.33324716       0.66683872       0.45091510 </v>
   <v>       0.33361254       0.00002752       0.44998507 </v>
   <v>       0.44611953       0.44109426       0.52319997 </v>
   <v>       0.11109518       0.44443953       0.10449483 </v>
   <v>       0.11109645       0.27776294       0.10450828 </v>
   <v>       0.05555567       0.22222209       0.17351690 </v>
   <v>       0.99997275       0.16664008       0.24268279 </v>
   <v>       0.16669302       0.99994740       0.24268210 </v>
   <v>       0.22218885       0.05555304       0.17348138 </v>
   <v>       0.27774789       0.11112591       0.10452793 </v>
   <v>       0.38880500       0.05559726       0.17348997 </v>
   <v>       0.33339337       0.99995273       0.24266966 </v>
   <v>       0.16672063       0.16664015       0.24268276 </v>
   <v>       0.11112246       0.11108863       0.31166521 </v>
   <v>       0.05555509       0.05549678       0.38086559 </v>
   <v>       0.99969332       0.00002760       0.44998524 </v>
   <v>       0.27777314       0.27776134       0.10449483 </v>
   <v>       0.22218894       0.22225861       0.17348138 </v>
   <v>       0.05559193       0.38885530       0.17348138 </v>
   <v>       0.99997334       0.33338688       0.24268276 </v>
   <v>       0.44438691       0.11112583       0.10454586 </v>
   <v>       0.11109641       0.11114047       0.10450828 </v>
   <v>       0.05559145       0.05555320       0.17348141 </v>
   <v>       0.99998731       0.99995289       0.24266969 </v>
   <v>       0.94374282       0.94495288       0.51848279 </v>
   <v>       0.38888879       0.55555561       0.46391345 </v>
   <v>       0.32095219       0.56666012       0.48267324 </v>
  </varray>
 </structure>
 <calculation>
  <scstep>
   <time name="dav">   32.27   32.77</time>
   <time name="total">   32.87   33.39</time>
   <energy>
    <i name="alphaZ">  11989.56231627 </i>
    <i name="ewald">1678544.22945510 </i>
    <i name="hartreedc">**************** </i>
    <i name="XCdc">   2959.11064180 </i>
    <i name="pawpsdc"> 240645.55203634 </i>
    <i name="pawaedc">-260205.15184403 </i>
    <i name="eentropy">     -0.17979348 </i>
    <i name="bandstr">  18925.52184779 </i>
    <i name="atom"> 272423.81458302 </i>
    <i name="e_fr_energy">  22490.40395920 </i>
    <i name="e_wo_entrp">  22490.58375268 </i>
    <i name="e_0_energy">  22490.49385594 </i>
   </energy>
  </scstep>
  <scstep>
   <time name="dav">   32.15   32.57</time>
   <time name="total">   32.16   32.58</time>
   <energy>
    <i name="e_fr_energy">    160.60331456 </i>
    <i name="e_wo_entrp">    160.81080120 </i>
    <i name="e_0_energy">    160.70705788 </i>
   </energy>
  </scstep>
  <scstep>
   <time name="dav">   35.63   36.11</time>
   <time name="total">   35.64   36.12</time>
   <energy>
    <i name="e_fr_energy">  -1313.31042576 </i>
    <i name="e_wo_entrp">  -1312.51067351 </i>
    <i name="e_0_energy">  -1312.91054963 </i>
   </energy>
  </scstep>
  <scstep>
   <time name="dav">   51.84   52.42</time>
   <time name="total">   51.84   52.43</time>
   <energy>
    <i name="e_fr_energy">  -1532.44007251 </i>
    <i name="e_wo_entrp">  -1531.28439149 </i>
    <i name="e_0_energy">  -1531.86223200 </i>
   </energy>
  </scstep>
  <scstep>
   <time name="dav">   47.62   48.24</time>
   <time name="total">   49.34   50.02</time>
   <energy>
    <i name="e_fr_energy">  -1542.81016649 </i>
    <i name="e_wo_entrp">  -1541.63823135 </i>
    <i name="e_0_energy">  -1542.22419892 </i>
   </energy>
  </scstep>
  <scstep>
   <time name="dav">   40.35   40.95</time>
   <time name="total">   42.64   43.30</time>
   <energy>
    <i name="e_fr_energy">  -1936.34092143 </i>
    <i name="e_wo_entrp">  -1935.84417387 </i>
    <i name="e_0_energy">  -1936.09254765 </i>
   </energy>
  </scstep>
  <scstep>
   <time name="dav">   34.03   34.55</time>
   <time name="total">   36.31   36.90</time>
   <energy>
    <i name="e_fr_energy">  -1672.78822148 </i>
    <i name="e_wo_entrp">  -1672.32871456 </i>
    <i name="e_0_energy">  -1672.55846802 </i>
   </energy>
  </scstep>
  <scstep>
   <time name="dav">   41.03   41.62</time>
   <time name="total">   43.30   43.94</time>
   <energy>
    <i name="e_fr_energy">  -2257.56343369 </i>
    <i name="e_wo_entrp">  -2257.34616521 </i>
    <i name="e_0_energy">  -2257.45479945 </i>
   </energy>
  </scstep>
  <scstep>
   <time name="dav">   34.70   35.23</time>
   <time name="total">   36.97   37.54</time>
   <energy>
    <i name="e_fr_energy">  -2046.28815670 </i>
    <i name="e_wo_entrp">  -2045.88465669 </i>
    <i name="e_0_energy">  -2046.08640669 </i>
   </energy>
  </scstep>
  <scstep>
   <time name="dav">   41.37   42.06</time>
   <time name="total">   43.67   44.41</time>
   <energy>
    <i name="e_fr_energy">  -1772.87024185 </i>
    <i name="e_wo_entrp">  -1772.48633161 </i>
    <i name="e_0_energy">  -1772.67828673 </i>
   </energy>
  </scstep>
  <scstep>
   <time name="dav">   35.23   35.81</time>
   <time name="total">   37.52   38.12</time>
   <energy>
    <i name="e_fr_energy">  -1702.11275953 </i>
    <i name="e_wo_entrp">  -1701.83619850 </i>
    <i name="e_0_energy">  -1701.97447901 </i>
   </energy>
  </scstep>
  <scstep>
   <time name="dav">   35.28   35.83</time>
   <time name="total">   37.60   38.21</time>
   <energy>
    <i name="e_fr_energy">  -1588.02039451 </i>
    <i name="e_wo_entrp">  -1587.38910785 </i>
    <i name="e_0_energy">  -1587.70475118 </i>
   </energy>
  </scstep>
  <scstep>
   <time name="dav">   33.40   33.88</time>
   <time name="total">   35.72   36.31</time>
   <energy>
    <i name="e_fr_energy">  -1522.00375291 </i>
    <i name="e_wo_entrp">  -1521.45139710 </i>
    <i name="e_0_energy">  -1521.72757501 </i>
   </energy>
  </scstep>
  <scstep>
   <time name="dav">   33.23   33.71</time>
   <time name="total">   35.54   36.07</time>
   <energy>
    <i name="e_fr_energy">  -1590.21666071 </i>
    <i name="e_wo_entrp">  -1589.83381270 </i>
    <i name="e_0_energy">  -1590.02523670 </i>
   </energy>
  </scstep>
  <scstep>
   <time name="dav">   33.18   33.73</time>
   <time name="total">   35.52   36.11</time>
   <energy>
    <i name="e_fr_energy">  -1523.94686172 </i>
    <i name="e_wo_entrp">  -1523.39692102 </i>
    <i name="e_0_energy">  -1523.67189137 </i>
   </energy>
  </scstep>
  <scstep>
   <time name="dav">   33.24   33.78</time>
   <time name="total">   35.58   36.18</time>
   <energy>
    <i name="e_fr_energy">  -1490.44388717 </i>
    <i name="e_wo_entrp">  -1489.87547657 </i>
    <i name="e_0_energy">  -1490.15968187 </i>
   </energy>
  </scstep>
  <scstep>
   <time name="dav">   34.84   35.32</time>
   <time name="total">   37.18   37.76</time>
   <energy>
    <i name="e_fr_energy">  -1570.61839115 </i>
    <i name="e_wo_entrp">  -1570.23352444 </i>
    <i name="e_0_energy">  -1570.42595779 </i>
   </energy>
  </scstep>
  <scstep>
   <time name="dav">   33.28   33.78</time>
   <time name="total">   35.63   36.18</time>
   <energy>
    <i name="e_fr_energy">  -1519.63703652 </i>
    <i name="e_wo_entrp">  -1519.21976131 </i>
    <i name="e_0_energy">  -1519.42839891 </i>
   </energy>
  </scstep>
  <scstep>
   <time name="dav">   33.69   34.18</time>
   <time name="total">   36.06   36.61</time>
   <energy>
    <i name="e_fr_energy">  -1464.50476558 </i>
    <i name="e_wo_entrp">  -1464.04766670 </i>
    <i name="e_0_energy">  -1464.27621614 </i>
   </energy>
  </scstep>
  <scstep>
   <time name="dav">   33.23   33.73</time>
   <time name="total">   35.59   36.15</time>
   <energy>
    <i name="e_fr_energy">  -1401.57271913 </i>
    <i name="e_wo_entrp">  -1401.16545874 </i>
    <i name="e_0_energy">  -1401.36908894 </i>
   </energy>
  </scstep>
  <scstep>
   <time name="dav">   33.46   33.91</time>
   <time name="total">   35.85   36.39</time>
   <energy>
    <i name="e_fr_energy">  -1358.42961590 </i>
    <i name="e_wo_entrp">  -1357.87573897 </i>
    <i name="e_0_energy">  -1358.15267744 </i>
   </energy>
  </scstep>
  <scstep>
   <time name="dav">   33.62   34.11</time>
   <time name="total">   36.03   36.62</time>
   <energy>
    <i name="e_fr_energy">  -1341.09548078 </i>
    <i name="e_wo_entrp">  -1340.36907028 </i>
    <i name="e_0_energy">  -1340.73227553 </i>
   </energy>
  </scstep>
  <scstep>
   <time name="dav">   33.52   33.98</time>
   <time name="total">   35.95   36.46</time>
   <energy>
    <i name="e_fr_energy">  -1321.66235832 </i>
    <i name="e_wo_entrp">  -1320.77730165 </i>
    <i name="e_0_energy">  -1321.21982999 </i>
   </energy>
  </scstep>
  <scstep>
   <time name="dav">   34.14   34.65</time>
   <time name="total">   36.59   37.19</time>
   <energy>
    <i name="e_fr_energy">  -1311.25383621 </i>
    <i name="e_wo_entrp">  -1310.11997007 </i>
    <i name="e_0_energy">  -1310.68690314 </i>
   </energy>
  </scstep>
  <scstep>
   <time name="dav">   34.74   35.22</time>
   <time name="total">   37.20   37.74</time>
   <energy>
    <i name="e_fr_energy">  -1309.74464733 </i>
    <i name="e_wo_entrp">  -1308.62743355 </i>
    <i name="e_0_energy">  -1309.18604044 </i>
   </energy>
  </scstep>
  <scstep>
   <time name="dav">   34.19   34.68</time>
   <time name="total">   36.65   37.19</time>
   <energy>
    <i name="e_fr_energy">  -1314.37484160 </i>
    <i name="e_wo_entrp">  -1313.38494715 </i>
    <i name="e_0_energy">  -1313.87989437 </i>
   </energy>
  </scstep>
  <scstep>
   <time name="dav">   34.32   34.83</time>
   <time name="total">   36.80   37.37</time>
   <energy>
    <i name="e_fr_energy">  -1311.52218221 </i>
    <i name="e_wo_entrp">  -1310.46401321 </i>
    <i name="e_0_energy">  -1310.99309771 </i>
   </energy>
  </scstep>
  <scstep>
   <time name="dav">   34.13   34.62</time>
   <time name="total">   36.63   37.19</time>
   <energy>
    <i name="e_fr_energy">  -1308.71210244 </i>
    <i name="e_wo_entrp">  -1307.59771382 </i>
    <i name="e_0_energy">  -1308.15490813 </i>
   </energy>
  </scstep>
  <scstep>
   <time name="dav">   34.18   34.66</time>
   <time name="total">   36.71   37.25</time>
   <energy>
    <i name="e_fr_energy">  -1307.32701893 </i>
    <i name="e_wo_entrp">  -1306.17524859 </i>
    <i name="e_0_energy">  -1306.75113376 </i>
   </energy>
  </scstep>
  <scstep>
   <time name="dav">   34.29   34.83</time>
   <time name="total">   36.82   37.42</time>
   <energy>
    <i name="e_fr_energy">  -1306.14527891 </i>
    <i name="e_wo_entrp">  -1304.93689889 </i>
    <i name="e_0_energy">  -1305.54108890 </i>
   </energy>
  </scstep>
  <scstep>
   <time name="dav">   34.61   35.14</time>
   <time name="total">   37.17   37.77</time>
   <energy>
    <i name="e_fr_energy">  -1304.45701666 </i>
    <i name="e_wo_entrp">  -1303.19792227 </i>
    <i name="e_0_energy">  -1303.82746946 </i>
   </energy>
  </scstep>
  <scstep>
   <time name="dav">   34.63   35.11</time>
   <time name="total">   37.20   37.74</time>
   <energy>
[...]
    <v>       0.05549324       0.55561548       0.17501813 </v>
    <v>       0.05566914       0.72217461       0.17494723 </v>
    <v>      -0.00071314       0.66718601       0.24291225 </v>
    <v>       0.61116770       0.27783250       0.10674054 </v>
    <v>       0.55578358       0.22215301       0.17478078 </v>
    <v>       0.50104221       0.16460374       0.24220073 </v>
    <v>       0.44518148       0.10923887       0.31077234 </v>
    <v>       0.38875551       0.38886804       0.17487010 </v>
    <v>       0.33283101       0.33326800       0.24260174 </v>
    <v>       0.44444309       0.44451785       0.10678966 </v>
    <v>       0.27781667       0.61113318       0.10675018 </v>
    <v>       0.22213052       0.55571282       0.17495710 </v>
    <v>       0.11122017       0.77776638       0.10677915 </v>
    <v>       0.66700088      -0.00046347       0.24307325 </v>
    <v>       0.77771494       0.44426383       0.31165360 </v>
    <v>       0.11132356       0.44448932       0.31157306 </v>
    <v>       0.05580265       0.38906874       0.37995735 </v>
    <v>       0.00061511       0.33260967       0.44849599 </v>
    <v>       0.16570005       0.16709371       0.44844883 </v>
    <v>       0.11046271       0.11248991       0.51744715 </v>
    <v>       0.55654917       0.88920866       0.37961809 </v>
    <v>       0.22183364       0.55419494       0.37965191 </v>
    <v>       0.22242394       0.22223046       0.38007309 </v>
    <v>       0.31586088       0.69914404       0.44736869 </v>
    <v>       0.33298748       0.00315467       0.44845710 </v>
    <v>       0.45533782       0.43473268       0.51703638 </v>
    <v>       0.11109648       0.44438836       0.10674700 </v>
    <v>       0.11107716       0.27780104       0.10673221 </v>
    <v>       0.05567356       0.22216593       0.17500858 </v>
    <v>       0.00004866       0.16667903       0.24326032 </v>
    <v>       0.16673919       0.99995275       0.24327560 </v>
    <v>       0.22214342       0.05565937       0.17502218 </v>
    <v>       0.27768852       0.11114356       0.10672002 </v>
    <v>       0.38876725       0.05559014       0.17502175 </v>
    <v>       0.33328296       0.00003629       0.24321794 </v>
    <v>       0.16672777       0.16665007       0.24322821 </v>
    <v>       0.11117802       0.11118152       0.31157050 </v>
    <v>       0.05563138       0.05541243       0.37989168 </v>
    <v>       0.99857270       0.00147173       0.44835660 </v>
    <v>       0.27770269       0.27776134       0.10670429 </v>
    <v>       0.22213722       0.22219439       0.17505319 </v>
    <v>       0.05555644       0.38884021       0.17507522 </v>
    <v>       0.00002506       0.33326647       0.24325831 </v>
    <v>       0.44433965       0.11115785       0.10670343 </v>
    <v>       0.11108049       0.11111077       0.10672888 </v>
    <v>       0.05557829       0.05557636       0.17504043 </v>
    <v>      -0.00002906       0.00007426       0.24322066 </v>
    <v>       0.94199518       0.94689130       0.51667469 </v>
    <v>       0.39988276       0.56663894       0.45837334 </v>
    <v>       0.23779401       0.56958053       0.50558425 </v>
   </varray>
  </structure>
  <varray name="forces" >
   <v>      -0.02646668      -0.09944332      -0.08974148 </v>
   <v>      -0.18331154      -0.15223297       0.07088594 </v>
   <v>      -0.15878871       0.03818679      -0.00470287 </v>
   <v>      -0.00076744      -0.03509276      -0.00212477 </v>
   <v>       0.01226128      -0.05261588       0.01838704 </v>
   <v>      -0.00787328       0.00109298       0.01777400 </v>
   <v>      -0.04278785       0.04258008       0.02578296 </v>
   <v>      -0.04911943       0.04458244       0.01674896 </v>
   <v>      -0.02971791       0.02339212      -0.01650833 </v>
   <v>      -0.03446785       0.03630741      -0.01429943 </v>
   <v>      -0.03975702       0.01054501      -0.03682240 </v>
   <v>      -0.06510884       0.01483078      -0.00871811 </v>
   <v>      -0.06767146       0.06668724      -0.00746632 </v>
   <v>      -0.06684228      -0.04291501       0.00209642 </v>
   <v>      -0.05072817       0.00075715      -0.00143424 </v>
   <v>      -0.05707413      -0.02590033       0.02052893 </v>
   <v>      -0.02944327      -0.05336857      -0.00071831 </v>
   <v>       0.00774802      -0.03441619       0.03518376 </v>
   <v>      -0.03318949      -0.00344596       0.03682118 </v>
   <v>      -0.03110307      -0.00522534       0.03062343 </v>
   <v>      -0.02417637      -0.03807446       0.07605344 </v>
   <v>      -0.05682345      -0.02903001       0.02401418 </v>
   <v>      -0.03759597       0.01003565       0.01857142 </v>
   <v>      -0.15150702      -0.00076261      -0.04214556 </v>
   <v>      -0.07280597       0.19269019       0.04884766 </v>
   <v>      -0.00771566       0.15995132      -0.09143318 </v>
   <v>       0.01023129      -0.00871029      -0.00916775 </v>
   <v>       0.16091926       0.10939632       0.06654929 </v>
   <v>      -0.00077007       0.00550993      -0.00417163 </v>
   <v>      -0.05081777      -0.02155496      -0.00422217 </v>
   <v>      -0.03211519      -0.02423793       0.00178587 </v>
   <v>      -0.02954883      -0.00306892      -0.00630135 </v>
   <v>       0.01755866       0.00759085       0.00111232 </v>
   <v>       0.01922460       0.00846607       0.00660244 </v>
   <v>       0.05575560      -0.00130176       0.00402402 </v>
   <v>       0.04723263       0.00978315      -0.00450500 </v>
   <v>       0.04643467       0.00594360       0.00110401 </v>
   <v>       0.02431123      -0.00466370      -0.00446295 </v>
   <v>      -0.01420527      -0.00372842       0.00605227 </v>
   <v>      -0.03344977      -0.02026270      -0.00422660 </v>
   <v>      -0.04334211      -0.01375545       0.00163694 </v>
   <v>      -0.05039506       0.02818750       0.14770564 </v>
   <v>      -0.03620976       0.07177975       0.04487959 </v>
   <v>      -0.07759517       0.08618737      -0.02526045 </v>
   <v>      -0.06135282      -0.09498810      -0.08593703 </v>
   <v>      -0.14940147      -0.19321081      -0.39597646 </v>
   <v>      -0.05084258       0.03840896      -0.01078896 </v>
   <v>      -0.10690849      -0.03051441       0.01495111 </v>
   <v>      -0.15409494       0.01942287       0.05892711 </v>
   <v>      -0.02732381       0.01520913      -0.01447995 </v>
   <v>      -0.15343536       0.05800264      -0.03045074 </v>
   <v>      -0.05339223      -0.01768642       0.02427127 </v>
   <v>      -0.00430344       0.00702015       0.01831792 </v>
   <v>       0.09263033       0.09482195       0.08539304 </v>
   <v>       0.02132583      -0.04206024       0.11310021 </v>
   <v>      -0.07628289       0.01478041       0.05631084 </v>
   <v>       0.04673530      -0.04706252       0.09563045 </v>
   <v>      -0.01676497      -0.07626134       0.02781877 </v>
   <v>      -0.05386822       0.20752949      -0.13052836 </v>
   <v>      -0.49331858      -0.15791096       0.13701547 </v>
   <v>      -0.10762295       0.20839214      -0.01220731 </v>
   <v>      -0.05761711      -0.06286183      -0.09527174 </v>
   <v>      -0.14700747      -0.07590656       0.07154686 </v>
   <v>      -0.07869770       0.01499091       0.00078757 </v>
   <v>      -0.12347856      -0.05243255      -0.08960537 </v>
   <v>      -0.07963412      -0.00235726       0.02970039 </v>
   <v>      -0.01273717       0.00014912       0.03521222 </v>
   <v>       0.16095638       0.03404446      -0.12126843 </v>
   <v>       0.03380963       0.03002081       0.00300236 </v>
   <v>       0.10030266       0.06724282       0.00003014 </v>
   <v>       0.01505451      -0.01166357      -0.00465198 </v>
   <v>       0.04032550       0.01740047       0.00773470 </v>
   <v>       0.01390805       0.00132262      -0.00177585 </v>
   <v>       0.02346226      -0.00821077      -0.01347878 </v>
   <v>       0.01718504       0.00137604      -0.00232223 </v>
   <v>       0.10296541      -0.01307792       0.04235227 </v>
   <v>       0.01405091       0.00186618       0.02082086 </v>
   <v>       0.02224648      -0.01295161       0.01914695 </v>
   <v>      -0.03361338      -0.00136726      -0.07276108 </v>
   <v>      -0.05494270       0.15741566      -0.27180464 </v>
   <v>      -0.07716297      -0.06923476       0.01596735 </v>
   <v>      -0.02966307      -0.04494030      -0.01524007 </v>
   <v>       0.00255329       0.00146870       0.00685204 </v>
   <v>       0.00592729       0.00722212      -0.00534688 </v>
   <v>      -0.00835523      -0.00378278      -0.01506058 </v>
   <v>       0.01068378      -0.00828183      -0.01034040 </v>
   <v>      -0.02423891       0.00756894       0.02781722 </v>
   <v>       0.12646601       0.06127585       0.00806854 </v>
   <v>       0.01470340      -0.00430376       0.00558894 </v>
   <v>       0.02463782       0.00138669      -0.00446838 </v>
   <v>       0.02748679      -0.00631102      -0.00625195 </v>
   <v>       0.02712817      -0.00845334      -0.00027757 </v>
   <v>       0.05335764      -0.00313341      -0.00405307 </v>
   <v>       0.02583513      -0.01647919       0.00596735 </v>
   <v>       0.02073301      -0.00539909       0.01832453 </v>
   <v>       0.03179416       0.00391685      -0.00563252 </v>
   <v>      -0.02798974      -0.00066114       0.01487689 </v>
   <v>      -0.00526729       0.01345448       0.00695839 </v>
   <v>      -0.01911746       0.04465401      -0.06324941 </v>
   <v>      -0.01535585      -0.01332209      -0.05315133 </v>
   <v>      -0.06056756       0.03969913      -0.06177562 </v>
   <v>      -0.08068079      -0.15247464      -0.23090943 </v>
   <v>      -0.10105602      -0.12275500      -0.03959565 </v>
   <v>      -0.06741042      -0.19487160       0.02370926 </v>
   <v>       0.03404443      -0.10307655       0.04423057 </v>
   <v>      -0.09800570       0.16843732       0.07059663 </v>
   <v>       0.10122295      -0.02125081      -0.04055780 </v>
   <v>       0.11861914      -0.12849885       0.09955915 </v>
   <v>       0.06073669      -0.00202960       0.01694454 </v>
   <v>       0.00022840       0.00113696       0.00152136 </v>
   <v>       0.02235062       0.00769066       0.00010271 </v>
   <v>       0.02945566      -0.00771823      -0.00614652 </v>
   <v>       0.03973719      -0.00616008      -0.00705896 </v>
   <v>       0.04857323      -0.00305739       0.00433648 </v>
   <v>       0.05592944      -0.00113169       0.00846841 </v>
   <v>       0.04740952       0.00098432       0.00070737 </v>
   <v>       0.03475874      -0.00425903       0.00282223 </v>
   <v>       0.03207626       0.00368303      -0.00091729 </v>
   <v>       0.03072315      -0.01535269       0.00535348 </v>
   <v>       0.01447279       0.00146391       0.01097211 </v>
   <v>       0.04554617      -0.01450135      -0.00293191 </v>
   <v>       0.01462907      -0.01063865       0.00126382 </v>
   <v>       0.02923916      -0.00363658      -0.00169508 </v>
   <v>       0.00555944      -0.00275569      -0.00025328 </v>
   <v>       0.09121821      -0.02241455      -0.02243576 </v>
   <v>      -0.00008309       0.00899388      -0.10437453 </v>
   <v>       0.16840114       0.01548025      -0.15560380 </v>
   <v>      -0.53886730      -0.18680400       0.15974972 </v>
   <v>      -0.02436728      -0.07149735       0.22164769 </v>
   <v>       0.11018619       0.79912810       0.28181352 </v>
   <v>      -0.39653266      -0.14885493      -0.12053258 </v>
   <v>       0.13061109      -0.04389610      -0.00535745 </v>
   <v>       0.11928449       0.04930990      -0.00875730 </v>
   <v>       0.10139046      -0.01562671       0.00203751 </v>
   <v>       0.08047380      -0.02530072      -0.00496094 </v>
   <v>       0.01383840       0.00710579       0.00196578 </v>
   <v>       0.01113890       0.00478709      -0.00294755 </v>
   <v>       0.03483540       0.02332204      -0.00706453 </v>
   <v>       0.02730164       0.00219682       0.01354422 </v>
   <v>      -0.00571063      -0.00781823       0.02149311 </v>
   <v>      -0.02986885      -0.00813902       0.00747003 </v>
   <v>       0.00536412      -0.00257665       0.00854208 </v>
   <v>      -0.04577729      -0.02467758       0.07393542 </v>
   <v>       0.00664391      -0.00893478      -0.00380460 </v>
   <v>      -0.04185006       0.00254033      -0.00760221 </v>
   <v>      -0.03531968       0.00114082       0.01314189 </v>
   <v>      -0.02235683      -0.06279822       0.13081420 </v>
   <v>      -0.01236390      -0.00745415       0.00371030 </v>
   <v>       0.00025692       0.00475158       0.00458940 </v>
   <v>       0.06067710      -0.02070019      -0.07413610 </v>
   <v>       0.09968059      -0.01308528      -0.15427661 </v>
   <v>      -0.09447748       0.03110642      -0.07513767 </v>
   <v>      -0.03354952       0.02753725       0.05921757 </v>
   <v>      -0.06995139      -0.02288151      -0.03198071 </v>
   <v>      -0.00366627      -0.02549109       0.00875910 </v>
   <v>      -0.20455852       0.00469661       0.21380804 </v>
   <v>      -0.17916754       0.05639014      -0.04612729 </v>
   <v>       0.13563645      -0.20443449      -0.10060524 </v>
   <v>      -0.02651998       0.10473162       0.22158037 </v>
   <v>       0.11984124       0.05661134       0.02282398 </v>
   <v>       0.15330260      -0.00622319       0.06349976 </v>
   <v>      -0.05573558       0.02583940      -0.00663528 </v>
   <v>      -0.06473224       0.03073663      -0.02810569 </v>
   <v>      -0.03215873       0.36314551       0.01112667 </v>
   <v>      -0.00499879      -0.02379488      -0.00722628 </v>
   <v>       0.04084927       0.00264796      -0.00647528 </v>
   <v>       0.02229505      -0.00286177       0.00020019 </v>
   <v>       0.06670189       0.00753200       0.01731668 </v>
   <v>       0.02212334       0.01081391      -0.00217253 </v>
   <v>       0.08195817      -0.05408128       0.02146436 </v>
   <v>      -0.09357761      -0.05329546       0.05937714 </v>
   <v>      -0.04848026      -0.01202837       0.08001138 </v>
   <v>       0.02709491      -0.01242817      -0.00374271 </v>
   <v>       0.01157557      -0.01588775      -0.00547581 </v>
   <v>       0.03331585       0.01123320      -0.01395430 </v>
   <v>       0.05402654       0.00265181       0.00413298 </v>
   <v>       0.05540556       0.00366839      -0.00010225 </v>
   <v>       0.04608253       0.00282812      -0.00502237 </v>
   <v>       0.03115408       0.00888090      -0.00174017 </v>
   <v>       0.02062115      -0.01144343      -0.00413595 </v>
   <v>      -0.01280583      -0.00917331       0.00154090 </v>
   <v>       0.10769525       0.05062710       0.04178876 </v>
   <v>       0.09359822       0.09878044      -0.03846087 </v>
   <v>      -0.03897469       0.48240316      -0.63268672 </v>
   <v>       0.10361622      -0.03133658      -0.08466781 </v>
   <v>      -0.06360442      -0.09813012       0.07521594 </v>
   <v>      -0.09623147       0.00372609      -0.14316729 </v>
   <v>      -0.10330251      -0.07335955       0.11698891 </v>
   <v>      -0.05515891      -0.03743858      -0.00386384 </v>
   <v>      -0.02857484       0.24885975      -0.41747024 </v>
   <v>       0.00355644       0.00362114       0.00899366 </v>
   <v>       0.06132830       0.00759844      -0.00526038 </v>
   <v>       0.05728184       0.00243425      -0.00296193 </v>
   <v>       0.04146726      -0.00458264       0.01178124 </v>
   <v>      -0.02365741      -0.01051151       0.00139636 </v>
   <v>       0.13050508       0.07970231       0.03227791 </v>
   <v>       0.04635665      -0.00692916       0.00124881 </v>
   <v>       0.03528017       0.00111074       0.01071915 </v>
   <v>       0.00553084      -0.00444881       0.01827985 </v>
   <v>       0.03246847       0.00439347      -0.00148178 </v>
   <v>       0.01939018      -0.00933720       0.00134559 </v>
   <v>       0.02357216       0.00454283       0.00224444 </v>
   <v>       0.02897099       0.00477834       0.00814292 </v>
   <v>       0.02064497      -0.00099086      -0.00776252 </v>
   <v>       0.01727509       0.00677213      -0.00988209 </v>
   <v>       0.03160120       0.00863561      -0.00671368 </v>
   <v>       0.04227257      -0.02550270       0.00953150 </v>
   <v>       0.02020503      -0.00524739       0.00730906 </v>
   <v>       0.02294857       0.01218198       0.00021879 </v>
   <v>       0.18907012      -0.00447477      -0.14198186 </v>
   <v>       0.03470705      -0.06451053      -0.11489337 </v>
   <v>       0.02218576      -0.00454313      -0.00462711 </v>
   <v>       0.11583327      -0.06651037       0.04131526 </v>
   <v>       0.01866232       0.00024294       0.00636759 </v>
   <v>       0.02463584       0.00825460      -0.00343267 </v>
   <v>       0.02183589       0.01181017       0.00380987 </v>
   <v>       0.03033789      -0.00049688       0.00225575 </v>
   <v>      -0.02975717      -0.00314900       0.03660901 </v>
   <v>       0.03470971       0.01810057      -0.01903627 </v>
   <v>      -0.03230083      -0.01622435      -0.01847068 </v>
   <v>       0.02442101      -0.00324292      -0.01378369 </v>
   <v>      -0.02926112      -0.05274269      -0.01381760 </v>
   <v>      -0.02861339      -0.07937826       0.00906620 </v>
   <v>       0.01730915      -0.03071398      -0.01029553 </v>
   <v>      -0.03886999      -0.00982529       0.00507156 </v>
   <v>      -0.04514767      -0.04095769      -0.12655461 </v>
   <v>      -0.03218687       0.00078569       0.05979974 </v>
   <v>      -0.10636904      -0.16967131       0.46692656 </v>
   <v>      -0.03628550       0.09256667       0.14522463 </v>
   <v>       0.11370995      -0.01542833       0.19806735 </v>
   <v>       0.03673530       0.00005960      -0.00260999 </v>
   <v>       0.03861458      -0.00009051       0.00671684 </v>
   <v>       0.05220159       0.00559104      -0.00190157 </v>
   <v>       0.01700239      -0.00276990      -0.00016609 </v>
   <v>       0.01664061       0.00313302      -0.00715233 </v>
   <v>       0.05136918       0.00593510       0.00490299 </v>
   <v>       0.03947551       0.00294344      -0.00036432 </v>
   <v>       0.02984729       0.00938291      -0.00405733 </v>
   <v>       0.01134732       0.00938675      -0.00977234 </v>
   <v>       0.01864565       0.00613568      -0.00283336 </v>
   <v>      -0.00544420      -0.00263819      -0.00275534 </v>
   <v>      -0.00191023       0.00503389      -0.00274732 </v>
   <v>      -0.02765006      -0.10294458       0.15097368 </v>
   <v>       0.04248422      -0.00615730      -0.00533392 </v>
   <v>       0.04710226       0.00127486      -0.00542079 </v>
   <v>       0.03765633       0.00401885       0.00539518 </v>
   <v>       0.02269557       0.00300958       0.00438053 </v>
   <v>       0.03567156       0.00499705      -0.00376924 </v>
   <v>       0.03893159      -0.00788951      -0.00398226 </v>
   <v>       0.04445830      -0.00577916      -0.00320288 </v>
   <v>       0.01574546      -0.00342908      -0.00424323 </v>
   <v>      -0.04591164      -0.02702592      -0.02075245 </v>
   <v>       0.28142813      -0.20451112       0.21392119 </v>
   <v>       0.65391615      -0.30025554      -0.20496619 </v>
  </varray>
  <varray name="stress" >
   <v>     -28.52824210      -0.67315472      -0.49840197 </v>
   <v>      -0.67315472     -83.14015486       0.19552233 </v>
   <v>      -0.49840197       0.19552233     -81.85918853 </v>
  </varray>
  <energy>
   <i name="e_fr_energy">  -1424.35202055 </i>
   <i name="e_wo_entrp">  -1422.97579058 </i>
   <i name="e_0_energy">  -1423.66390557 </i>
  </energy>
  <time name="totalsc"> 1472.01 1485.39</time>
 </calculation>
 <calculation>
  <scstep>
   <time name="dav">   32.18   32.49</time>
   <time name="total">   34.45   34.78</time>
   <energy>
    <i name="alphaZ">  11989.56231627 </i>
    <i name="ewald">1708576.71745322 </i>
    <i name="hartreedc"