NiAl                                    
            1
     0.000000  -15.146222    0.000000
     0.000000   -7.573111  -13.117013
    29.000000    0.000000    0.000000
   Ni   O 
   252     2
Direct configuration=     1
   0.44611949  0.61278586  0.52320000
   0.61600733  0.44199621  0.51834138
   0.77899413  0.27671087  0.51854621
   0.94448875  0.11115564  0.51853138
   0.94482600  0.27758683  0.51870379
   0.94448866  0.44435574  0.51853138
   0.77828647  0.61130382  0.51848276
   0.61126115  0.77792788  0.51857310
   0.44463746  0.94495295  0.51848272
   0.61123128  0.94438423  0.51861517
   0.77771841  0.94438423  0.51861517
   0.94414420  0.77792781  0.51857310
   0.94374291  0.61130382  0.51848276
   0.83315088  0.66703144  0.44996379
   0.66664503  0.83331244  0.45007172
   0.72222210  0.88888912  0.38087241
   0.88901587  0.72225133  0.38084621
   0.94447693  0.77776161  0.31161828
   0.77777813  0.94444438  0.31165759
   0.94441857  0.94444133  0.31164069
   0.88901579  0.88873276  0.38084621
   0.83337582  0.83331237  0.45007172
   0.77771794  0.77789731  0.51861517
   0.77899471  0.44429476  0.51854621
   0.66696440  0.49998731  0.45010069
   0.83361047  0.33319476  0.45009897
   0.88883033  0.38894831  0.38086552
   0.72212232  0.55558610  0.38081138
   0.77777487  0.61113991  0.31164069
   0.61109468  0.77776169  0.31161828
   0.66667335  0.83333913  0.24266452
   0.83331173  0.66670972  0.24265279
   0.88898916  0.72215832  0.17349797
   0.72222210  0.88888912  0.17346107
   0.77779242  0.94445818  0.10453624
   0.94450322  0.77774865  0.10455107
   0.94445915  0.94448707  0.10454590
   0.88898860  0.88885329  0.17349797
   0.83332151  0.83333913  0.24266452
   0.77777775  0.77777770  0.31165759
   0.72206599  0.72225133  0.38084621
   0.66642546  0.66667084  0.44999445
   0.55544721  0.72211335  0.38088031
   0.50000397  0.83309212  0.44999445
   0.33332069  0.83363111  0.45010062
   0.27532967  0.78267370  0.51834131
   0.11004403  0.94566127  0.51854610
   0.27762774  0.94566127  0.51854614
   0.44443995  0.77893657  0.51861445
   0.49945027  0.66611668  0.45103997
   0.61226995  0.61110720  0.51861448
   0.61111138  0.94444445  0.31165759
   0.44447332  0.94444140  0.31164066
   0.38891953  0.88878925  0.38081134
   0.38893497  0.72210427  0.38127548
   0.22229407  0.72210427  0.38127545
   0.05562453  0.88878925  0.38081131
   0.00023705  0.83309220  0.44999441
   0.16776634  0.66611660  0.45103993
   0.27442779  0.61278594  0.52319993
   0.10995662  0.61110720  0.51861441
   0.27533025  0.44199629  0.51834131
   0.44444030  0.27662327  0.51861445
   0.61126102  0.11081113  0.51857307
   0.66642554  0.16690393  0.44999448
   0.83315103  0.99981787  0.44996383
   0.88883357  0.05550052  0.38080934
   0.72212283  0.22229154  0.38081138
   0.77776228  0.27779496  0.31165483
   0.61097293  0.44451356  0.31184859
   0.66660597  0.49997817  0.24273686
   0.49988321  0.66655039  0.24285407
   0.55546530  0.72213157  0.17355441
   0.38883213  0.88883492  0.17349334
   0.33331154  0.83327204  0.24273679
   0.27784676  0.77763978  0.31184848
   0.11112830  0.94442921  0.31165466
   0.27777642  0.94442928  0.31165469
   0.22223952  0.88885413  0.38089814
   0.16638123  0.83363127  0.45010052
   0.10995639  0.77893672  0.51861431
   0.94441841  0.61113991  0.31164072
   0.94442430  0.44448459  0.31166586
   0.94442201  0.27778886  0.31166517
   0.94442482  0.11109084  0.31166586
   0.83328658  0.16665380  0.24266966
   0.66660124  0.16676129  0.24270445
   0.49988367  0.33356596  0.24285410
   0.55552059  0.38894900  0.17356272
   0.38888896  0.55555553  0.17360786
   0.44444307  0.61110934  0.10461686
   0.61108465  0.44445783  0.10453548
   0.77779956  0.27776134  0.10449483
   0.72216907  0.22233256  0.17349345
   0.72218661  0.05565513  0.17349793
   0.88893115  0.05559719  0.17349000
   0.83331232  0.99997858  0.24265276
   0.77777512  0.11108467  0.31164069
   0.61109497  0.11114337  0.31161824
   0.55558477  0.05568265  0.38084617
   0.50036504  0.99981779  0.44996376
   0.33361232  0.16636029  0.44998514
   0.16652801  0.33319476  0.45009890
   0.99969368  0.50027930  0.44998510
   0.05562482  0.55558610  0.38081131
   0.22223957  0.38890638  0.38089821
   0.27784689  0.44451356  0.31184855
   0.11130246  0.61103546  0.31173717
   0.16689984  0.66655039  0.24285407
   0.00009437  0.83326823  0.24270441
   0.05566643  0.88883499  0.17349338
   0.22228234  0.72218729  0.17356269
   0.27779128  0.77775101  0.10453548
   0.11109495  0.94446580  0.10449476
   0.27777276  0.94446580  0.10449479
   0.44438720  0.94448715  0.10454586
   0.61108214  0.77774873  0.10455103
   0.77782065  0.61105376  0.10454586
   0.72216893  0.55549843  0.17349345
   0.83328663  0.50005974  0.24266966
   0.88888621  0.38885530  0.17348138
   0.83328062  0.33335944  0.24268207
   0.72219697  0.38890181  0.17347241
   0.66660581  0.33341669  0.24273690
   0.61099608  0.27796885  0.31173724
   0.55544693  0.22243944  0.38088034
   0.44436904  0.27796885  0.31173721
   0.38893517  0.38896059  0.38127548
   0.49945009  0.33443300  0.45103997
   0.33324705  0.49991428  0.45091510
   0.38888875  0.55555568  0.38187890
   0.44431699  0.61098370  0.31211821
   0.27803328  0.61098370  0.31211821
   0.33337430  0.50004152  0.24289407
   0.16674986  0.49997824  0.24273679
   0.99998763  0.50005981  0.24266955
   0.16669322  0.33335951  0.24268197
   0.22223466  0.38890181  0.17347234
   0.38883237  0.22233263  0.17349338
   0.55549154  0.05565520  0.17349790
   0.50004293  0.99997873  0.24265269
   0.33339290  0.16665387  0.24266959
   0.27777606  0.27779511  0.31165476
   0.11112296  0.27778901  0.31166507
   0.05555549  0.22222232  0.38087783
   0.99999574  0.16666249  0.45007748
   0.16652765  0.00027773  0.45009886
   0.22228221  0.05549678  0.38086545
   0.27781755  0.11109092  0.31166579
   0.38899981  0.05550052  0.38080924
   0.38891953  0.22229154  0.38081131
   0.50000371  0.16690393  0.44999441
   0.44463736  0.11040944  0.51848269
   0.27768861  0.11115587  0.51853131
   0.11092017  0.27758706  0.51870369
   0.27762803  0.27671102  0.51854610
   0.11004360  0.44429498  0.51854607
   0.16638212  0.49998747  0.45010055
   0.33332055  0.33304847  0.45010059
   0.49991746  0.50004144  0.24289407
   0.44431680  0.44469957  0.31211821
   0.72206593  0.05568257  0.38084621
   0.66664528  0.00004262  0.45007172
   0.83336093  0.50027930  0.44998517
   0.88883308  0.55566691  0.38080931
   0.44444281  0.77777465  0.10455652
   0.38886388  0.72218729  0.17356272
   0.33337444  0.66658470  0.24289410
   0.16674987  0.83327204  0.24273686
   0.11130222  0.77766258  0.31173721
   0.05577293  0.72211327  0.38088031
   0.00023707  0.66667084  0.44999441
   0.61110776  0.61110941  0.10455652
   0.55552061  0.55553045  0.17356272
   0.22223474  0.88886396  0.17347238
   0.77779877  0.44443961  0.10449479
   0.94445912  0.44441521  0.10452790
   0.94445898  0.61105376  0.10454583
   0.88893086  0.55547175  0.17348997
   0.72218650  0.72215832  0.17349790
   0.66660148  0.66663730  0.24270445
   0.61099616  0.61103539  0.31173721
   0.55543832  0.55560127  0.38127548
   0.50017210  0.49991405  0.45091514
   0.55543829  0.38896043  0.38127548
   0.72218742  0.38890638  0.38089824
   0.66696437  0.33304831  0.45010066
   0.61227048  0.27662312  0.51861445
   0.77828652  0.11040928  0.51848272
   0.83336081  0.16636021  0.44998514
   0.88883063  0.22222125  0.38086552
   0.94447405  0.27776294  0.10450828
   0.94445957  0.11112591  0.10452793
   0.88888648  0.22225876  0.17348138
   0.49997085  0.83326823  0.24270445
   0.44436875  0.77766250  0.31173721
   0.77779192  0.77774949  0.10453617
   0.61108345  0.94445818  0.10453621
   0.55549150  0.88885329  0.17349793
   0.77782063  0.11112583  0.10454586
   0.61108208  0.11116929  0.10455103
   0.44444305  0.27778268  0.10455655
   0.27779097  0.44445783  0.10453552
   0.11111637  0.61110934  0.10455655
   0.05566605  0.55549835  0.17349345
   0.05573724  0.72213157  0.17355448
   0.00009468  0.66663715  0.24270448
   0.61110771  0.27778268  0.10455655
   0.55546493  0.22240346  0.17355448
   0.49997088  0.16676122  0.24270448
   0.44447352  0.11108467  0.31164069
   0.38886385  0.38894900  0.17356276
   0.33331161  0.33341654  0.24273690
   0.44444314  0.44444715  0.10461690
   0.27778104  0.61110934  0.10461690
   0.22228242  0.55553037  0.17356276
   0.11111609  0.77777457  0.10455655
   0.66667286  0.99998773  0.24266448
   0.77776280  0.44444273  0.31165486
   0.11112833  0.44444281  0.31165469
   0.05555426  0.38894847  0.38086534
   0.99999525  0.33334213  0.45007738
   0.16667461  0.16666234  0.45007741
   0.11091963  0.11149284  0.51870359
   0.55558467  0.88873284  0.38084617
   0.22229354  0.55560150  0.38127541
   0.22228205  0.22222133  0.38086541
   0.33324716  0.66683872  0.45091510
   0.33361254  0.00002752  0.44998507
   0.44611953  0.44109426  0.52319997
   0.11109518  0.44443953  0.10449483
   0.11109645  0.27776294  0.10450828
   0.05555567  0.22222209  0.17351690
   0.99997275  0.16664008  0.24268279
   0.16669302  0.99994740  0.24268210
   0.22218885  0.05555304  0.17348138
   0.27774789  0.11112591  0.10452793
   0.38880500  0.05559726  0.17348997
   0.33339337  0.99995273  0.24266966
   0.16672063  0.16664015  0.24268276
   0.11112246  0.11108863  0.31166521
   0.05555509  0.05549678  0.38086559
   0.99969332  0.00002760  0.44998524
   0.27777314  0.27776134  0.10449483
   0.22218894  0.22225861  0.17348138
   0.05559193  0.38885530  0.17348138
   0.99997334  0.33338688  0.24268276
   0.44438691  0.11112583  0.10454586
   0.11109641  0.11114047  0.10450828
   0.05559145  0.05555320  0.17348141
   0.99998731  0.99995289  0.24266969
   0.94374282  0.94495288  0.51848279
   0.38888879  0.55555561  0.46391345
   0.32095219  0.56666012  0.48267324
Direct configuration=     2
   0.44718764  0.61365290  0.52372273
   0.61577364  0.44211628  0.51846671
   0.77902431  0.27668507  0.51850557
   0.94443990  0.11119445  0.51848986
   0.94480208  0.27758713  0.51868715
   0.94446407  0.44434272  0.51848519
   0.77821463  0.61133655  0.51846131
   0.61129010  0.77790682  0.51855493
   0.44464119  0.94491359  0.51844300
   0.61128308  0.94436015  0.51859948
   0.77769831  0.94436697  0.51860472
   0.94411218  0.77796122  0.51851612
   0.94371733  0.61132784  0.51844120
   0.83305731  0.66710936  0.44986831
   0.66665765  0.83335169  0.44996610
   0.72217581  0.88891137  0.38088888
   0.88893179  0.72231394  0.38084912
   0.94446229  0.77779627  0.31164094
   0.77775243  0.94443722  0.31168905
   0.94444237  0.94444570  0.31165989
   0.88895082  0.88878174  0.38084561
   0.83327273  0.83338769  0.44997382
   0.77768856  0.77794611  0.51862568
   0.77901011  0.44428501  0.51848571
   0.66711671  0.49991197  0.44996833
   0.83365944  0.33314501  0.44999179
   0.88885512  0.38889428  0.38086929
   0.72211419  0.55559317  0.38081589
   0.77769980  0.61116491  0.31166981
   0.61107418  0.77775506  0.31166033
   0.66663393  0.83338097  0.24263562
   0.83328456  0.66673456  0.24263579
   0.88896605  0.72220030  0.17353936
   0.72219527  0.88891609  0.17351770
   0.77780271  0.94446341  0.10462636
   0.94448017  0.77778786  0.10461672
   0.94443849  0.94450161  0.10460405
   0.88897903  0.88888050  0.17353086
   0.83327118  0.83337364  0.24263459
   0.77772451  0.77781724  0.31169646
   0.72201790  0.72230365  0.38084921
   0.66645429  0.66671610  0.44989803
   0.55541188  0.72211820  0.38089883
   0.50001983  0.83310695  0.44988475
   0.33332389  0.83382902  0.44993756
   0.27540605  0.78268634  0.51845826
   0.11002111  0.94567341  0.51847279
   0.27766774  0.94567637  0.51849409
   0.44442656  0.77890554  0.51863157
   0.49977719  0.66647888  0.45090206
   0.61225894  0.61109087  0.51860522
   0.61111458  0.94442253  0.31168374
   0.44448578  0.94441261  0.31166106
   0.38894583  0.88878947  0.38080636
   0.38898235  0.72232658  0.38116756
   0.22205374  0.72229873  0.38112429
   0.05559330  0.88884501  0.38081321
   0.00010496  0.83319761  0.44989922
   0.16508829  0.66774716  0.45048176
   0.25717588  0.62968775  0.53827366
   0.10941824  0.61117831  0.51868318
   0.27514075  0.44127202  0.51866251
   0.44445532  0.27658476  0.51865593
   0.61130044  0.11079358  0.51852011
   0.66650122  0.16681377  0.44992037
   0.83311857  0.99983014  0.44986131
   0.88885199  0.05550277  0.38082902
   0.72215870  0.22227173  0.38083338
   0.77775903  0.27781978  0.31169005
   0.61096881  0.44453543  0.31185156
   0.66657742  0.49998613  0.24271751
   0.49987817  0.66655621  0.24285883
   0.55547015  0.72217842  0.17361442
   0.38880074  0.88888822  0.17354309
   0.33330625  0.83327434  0.24272845
   0.27787629  0.77764555  0.31186018
   0.11114597  0.94441331  0.31167445
   0.27779337  0.94439726  0.31167897
   0.22224202  0.88889497  0.38087368
   0.16632981  0.83380422  0.44998689
   0.10971720  0.77919659  0.51871444
   0.94439793  0.61114208  0.31164560
   0.94441149  0.44443982  0.31168933
   0.94442940  0.27779065  0.31172673
   0.94445939  0.11108637  0.31170422
   0.83326442  0.16665794  0.24263523
   0.66657097  0.16677222  0.24266491
   0.49987521  0.33357200  0.24282851
   0.55554680  0.38890167  0.17363635
   0.38889157  0.55551760  0.17368187
   0.44446045  0.61111088  0.10475679
   0.61114888  0.44440195  0.10460630
   0.77779619  0.27774700  0.10460128
   0.72216649  0.22230922  0.17353946
   0.72220160  0.05564466  0.17354290
   0.88890591  0.05555823  0.17351234
   0.83331022  0.99998071  0.24261739
   0.77775057  0.11109728  0.31166567
   0.61108649  0.11115921  0.31165115
   0.55559438  0.05563121  0.38086231
   0.50039273  0.99981059  0.44984557
   0.33364059  0.16631057  0.44988689
   0.16654397  0.33310531  0.45000207
   0.99960029  0.50024894  0.44989936
   0.05558191  0.55558248  0.38081682
   0.22227213  0.38882586  0.38089685
   0.27791753  0.44447328  0.31184698
   0.11128166  0.61108971  0.31170355
   0.16691126  0.66656226  0.24283768
   0.00009542  0.83328785  0.24266877
   0.05565450  0.88886347  0.17354127
   0.22223407  0.72226616  0.17363491
   0.27773491  0.77784929  0.10462342
   0.11108854  0.94446650  0.10456550
   0.27777447  0.94448230  0.10459870
   0.44438094  0.94450792  0.10461955
   0.61108642  0.77778122  0.10461779
   0.77780590  0.61107049  0.10463286
   0.72216708  0.55550113  0.17355297
   0.83326631  0.50006042  0.24264975
   0.88882532  0.38892077  0.17351403
   0.83323934  0.33337376  0.24267014
   0.72216746  0.38890056  0.17352053
   0.66656339  0.33343935  0.24270551
   0.61099942  0.27794648  0.31172904
   0.55539082  0.22249743  0.38092685
   0.44438987  0.27792444  0.31171017
   0.38900273  0.38868756  0.38115664
   0.49992558  0.33358252  0.45089912
   0.32895513  0.45191894  0.43100202
   0.38896003  0.55571122  0.38067218
   0.44433371  0.61104362  0.31210980
   0.27803618  0.61102873  0.31212599
   0.33340003  0.50001399  0.24288492
   0.16677598  0.49995983  0.24269421
   0.99999965  0.50004804  0.24264790
   0.16671883  0.33335032  0.24264782
   0.22229562  0.38885888  0.17351945
   0.38881315  0.22234669  0.17354293
   0.55549211  0.05563782  0.17354733
   0.50005919  0.99995600  0.24263574
   0.33341116  0.16664371  0.24263739
   0.27779897  0.27777943  0.31167106
   0.11112926  0.27773563  0.31171077
   0.05553112  0.22221141  0.38088442
   0.99996075  0.16670322  0.44996760
   0.16650662  0.00034065  0.44998110
   0.22226520  0.05551821  0.38085694
   0.27778660  0.11108418  0.31169900
   0.38902585  0.05546739  0.38081642
   0.38894309  0.22225588  0.38082985
   0.50001893  0.16686097  0.44989981
   0.44463493  0.11046176  0.51844422
   0.27766884  0.11118739  0.51848594
   0.11092509  0.27753325  0.51865095
   0.27765941  0.27668405  0.51853525
   0.11004744  0.44430018  0.51845972
   0.16616247  0.49983942  0.44999511
   0.33338546  0.33266534  0.44993282
   0.49993778  0.50002057  0.24288346
   0.44432147  0.44467459  0.31211863
   0.72209460  0.05562085  0.38085860
   0.66665311 -0.00001064  0.44997318
   0.83336728  0.50025033  0.44989043
   0.88879337  0.55565915  0.38081931
   0.44440581  0.77786165  0.10465736
   0.38882463  0.72226341  0.17363630
   0.33336617  0.66660164  0.24290240
   0.16675850  0.83328038  0.24271132
   0.11130963  0.77768110  0.31172414
   0.05577912  0.72215949  0.38088122
   0.00010397  0.66675292  0.44991169
   0.61116301  0.61110958  0.10467792
   0.55557074  0.55548496  0.17364434
   0.22222616  0.88888566  0.17352542
   0.77780891  0.44442491  0.10458989
   0.94445353  0.44441692  0.10460321
   0.94444990  0.61106217  0.10464649
   0.88890441  0.55551291  0.17352505
   0.72215594  0.72220260  0.17355243
   0.66657388  0.66666032  0.24269352
   0.61098564  0.61108038  0.31174508
   0.55561239  0.55565679  0.38116824
   0.51897939  0.49042756  0.44934555
   0.55561249  0.38874931  0.38116032
   0.72225136  0.38888861  0.38089885
   0.66710312  0.33298994  0.44997922
   0.61222486  0.27667993  0.51865593
   0.77821503  0.11046873  0.51846176
   0.83340708  0.16635171  0.44989407
   0.88888590  0.22221308  0.38088080
   0.94444730  0.27777022  0.10460812
   0.94445393  0.11110156  0.10464287
   0.88883114  0.22222757  0.17350927
   0.49997871  0.83328598  0.24268502
   0.44436724  0.77767346  0.31175380
   0.77778171  0.77777831  0.10461088
   0.61108180  0.94444299  0.10460642
   0.55548495  0.88888086  0.17354591
   0.77781827  0.11110632  0.10461294
   0.61111541  0.11114848  0.10461228
   0.44441969  0.27776201  0.10464359
   0.27778652  0.44440306  0.10462141
   0.11108735  0.61111965  0.10464010
   0.05568034  0.55549054  0.17353978
   0.05570535  0.72217353  0.17359928
   0.00009396  0.66665890  0.24267091
   0.61116137  0.27773712  0.10467053
   0.55545692  0.22240697  0.17361106
   0.49999874  0.16672608  0.24266302
   0.44446869  0.11108315  0.31166041
   0.38885935  0.38890446  0.17363039
   0.33333945  0.33342119  0.24270750
   0.44445449  0.44439605  0.10471664
   0.27773060  0.61111877  0.10476342
   0.22228720  0.55548526  0.17362969
   0.11107233  0.77781673  0.10465225
   0.66664765  0.99997902  0.24263007
   0.77775547  0.44443791  0.31168279
   0.11114355  0.44441279  0.31165506
   0.05552406  0.38888816  0.38086697
   0.99996995  0.33328387  0.44997453
   0.16664235  0.16667102  0.44996515
   0.11091208  0.11154064  0.51865848
   0.55559439  0.88874306  0.38085136
   0.22197265  0.55567712  0.38102434
   0.22227504  0.22217828  0.38086674
   0.32500596  0.69027239  0.44730804
   0.33362044  0.00006706  0.44987935
   0.44855725  0.43799975  0.52416606
   0.11111340  0.44442996  0.10457146
   0.11114355  0.27773659  0.10459719
   0.05559699  0.22218416  0.17354427
   0.99999040  0.16660948  0.24267953
   0.16670851  0.99990925  0.24265406
   0.22227637  0.05548897  0.17351544
   0.27775086  0.11111086  0.10461614
   0.38882527  0.05556884  0.17352549
   0.33340730  0.99992870  0.24264358
   0.16675026  0.16662324  0.24267439
   0.11113980  0.11109587  0.31171965
   0.05552439  0.05554773  0.38087220
   0.99960955  0.00013737  0.44987581
   0.27777907  0.27775637  0.10456471
   0.22227733  0.22222493  0.17352130
   0.05562039  0.38888283  0.17351854
   0.99998316  0.33339377  0.24268163
   0.44437413  0.11110786  0.10461197
   0.11115119  0.11110065  0.10459110
   0.05561282  0.05546966  0.17351400
   0.00002631  0.99990943  0.24264632
   0.94370598  0.94495551  0.51843083
   0.42241055  0.55265618  0.45990579
   0.29880624  0.58776443  0.49639440
Direct configuration=     3
   0.44666009  0.61322468  0.52346456
   0.61588906  0.44205698  0.51840481
   0.77900941  0.27669781  0.51852564
   0.94446402  0.11117528  0.51851037
   0.94481390  0.27758698  0.51869537
   0.94447622  0.44434915  0.51850800
   0.77825011  0.61132039  0.51847190
   0.61127580  0.77791722  0.51856390
   0.44463934  0.94493303  0.51846262
   0.61125750  0.94437204  0.51860723
   0.77770824  0.94437549  0.51860988
   0.94412800  0.77794472  0.51854426
   0.94372997  0.61131598  0.51846173
   0.83310352  0.66707088  0.44991547
   0.66665142  0.83333230  0.45001827
   0.72219867  0.88890038  0.38088075
   0.88897332  0.72228302  0.38084768
   0.94446952  0.77777915  0.31162975
   0.77776512  0.94444076  0.31167351
   0.94443062  0.94444354  0.31165041
   0.88898291  0.88875755  0.38084590
   0.83332365  0.83335049  0.45002217
   0.77770307  0.77792201  0.51862049
   0.77900250  0.44428982  0.51851559
   0.66704148  0.49994918  0.45003370
   0.83363525  0.33316958  0.45004472
   0.88884288  0.38892097  0.38086742
   0.72211821  0.55558968  0.38081366
   0.77773688  0.61115256  0.31165543
   0.61108431  0.77775833  0.31163956
   0.66665340  0.83336030  0.24264989
   0.83329798  0.66672229  0.24264419
   0.88897746  0.72217957  0.17351892
   0.72220852  0.88890277  0.17348973
   0.77779763  0.94446082  0.10458185
   0.94449156  0.77776850  0.10458430
   0.94444869  0.94449443  0.10457533
   0.88898375  0.88886706  0.17351462
   0.83329604  0.83335659  0.24264937
   0.77775080  0.77779771  0.31167726
   0.72204165  0.72227781  0.38084772
   0.66644005  0.66669375  0.44994565
   0.55542933  0.72211580  0.38088968
   0.50001200  0.83309963  0.44993893
   0.33332231  0.83373128  0.45001809
   0.27536833  0.78268010  0.51840050
   0.11003243  0.94566741  0.51850900
   0.27764799  0.94566891  0.51851980
   0.44443317  0.77892087  0.51862312
   0.49961573  0.66629999  0.45097017
   0.61226438  0.61109893  0.51860979
   0.61111300  0.94443336  0.31167082
   0.44447963  0.94442683  0.31165098
   0.38893284  0.88878936  0.38080882
   0.38895895  0.72221679  0.38122086
   0.22217244  0.72220269  0.38119894
   0.05560872  0.88881747  0.38081227
   0.00017020  0.83314554  0.44994624
   0.16641095  0.66694184  0.45075744
   0.26569644  0.62134010  0.53082888
   0.10968414  0.61114319  0.51864922
   0.27523434  0.44162973  0.51850387
   0.44444790  0.27660378  0.51863544
   0.61128097  0.11080225  0.51854627
   0.66646384  0.16685830  0.44995697
   0.83313460  0.99982408  0.44991194
   0.88884289  0.05550166  0.38081930
   0.72214098  0.22228152  0.38082252
   0.77776064  0.27780752  0.31167265
   0.61097085  0.44452462  0.31185009
   0.66659152  0.49998220  0.24272707
   0.49988066  0.66655333  0.24285648
   0.55546775  0.72215528  0.17358478
   0.38881624  0.88886189  0.17351852
   0.33330886  0.83327320  0.24273257
   0.27786171  0.77764270  0.31185441
   0.11113725  0.94442116  0.31166467
   0.27778500  0.94441308  0.31166698
   0.22224079  0.88887480  0.38088576
   0.16635520  0.83371880  0.45004301
   0.10983533  0.77906824  0.51866498
   0.94440805  0.61114101  0.31164319
   0.94441782  0.44446193  0.31167774
   0.94442575  0.27778977  0.31169633
   0.94444231  0.11108858  0.31168528
   0.83327537  0.16665590  0.24265223
   0.66658592  0.16676683  0.24268444
   0.49987939  0.33356902  0.24284115
   0.55553386  0.38892505  0.17359999
   0.38889028  0.55553633  0.17364532
   0.44445187  0.61111012  0.10468768
   0.61111716  0.44442955  0.10457132
   0.77779785  0.27775408  0.10454870
   0.72216776  0.22232075  0.17351674
   0.72219420  0.05564983  0.17352069
   0.88891838  0.05557747  0.17350131
   0.83331126  0.99997966  0.24263486
   0.77776270  0.11109105  0.31165333
   0.61109068  0.11115139  0.31163490
   0.55558963  0.05565662  0.38085434
   0.50037905  0.99981415  0.44990394
   0.33362663  0.16633512  0.44993541
   0.16653609  0.33314949  0.45004989
   0.99964641  0.50026394  0.44994171
   0.05560310  0.55558427  0.38081410
   0.22225605  0.38886563  0.38089752
   0.27788264  0.44449317  0.31184775
   0.11129193  0.61106292  0.31172016
   0.16690562  0.66655639  0.24284577
   0.00009490  0.83327816  0.24268637
   0.05566039  0.88884941  0.17351762
   0.22225791  0.72222721  0.17359924
   0.27776275  0.77780075  0.10457999
   0.11109171  0.94446616  0.10453056
   0.27777363  0.94447415  0.10454738
   0.44438403  0.94449766  0.10458315
   0.61108431  0.77776517  0.10458482
   0.77781319  0.61106223  0.10458989
   0.72216799  0.55549979  0.17352357
   0.83327635  0.50006008  0.24265958
   0.88885539  0.38888844  0.17349790
   0.83325973  0.33336668  0.24267603
   0.72218204  0.38890118  0.17349676
   0.66658434  0.33342816  0.24272101
   0.61099777  0.27795753  0.31173309
   0.55541854  0.22246879  0.38090388
   0.44437958  0.27794638  0.31172352
   0.38896936  0.38882240  0.38121534
   0.49969074  0.33400257  0.45096868
   0.33107487  0.47562341  0.44083691
   0.38892482  0.55563440  0.38126817
   0.44432545  0.61101402  0.31211395
   0.27803475  0.61100649  0.31212214
   0.33338733  0.50002759  0.24288944
   0.16676308  0.49996892  0.24271524
   0.99999371  0.50005386  0.24265859
   0.16670618  0.33335486  0.24266468
   0.22226552  0.38888008  0.17349619
   0.38882264  0.22233975  0.17351846
   0.55549183  0.05564641  0.17352291
   0.50005116  0.99996723  0.24264411
   0.33340214  0.16664873  0.24265329
   0.27778766  0.27778717  0.31166301
   0.11112615  0.27776200  0.31168820
   0.05554316  0.22221680  0.38088116
   0.99997803  0.16668310  0.45002187
   0.16651701  0.00030957  0.45003926
   0.22227360  0.05550763  0.38086114
   0.27780188  0.11108751  0.31168260
   0.38901299  0.05548375  0.38081288
   0.38893145  0.22227349  0.38082069
   0.50001141  0.16688219  0.44994653
   0.44463613  0.11043592  0.51846322
   0.27767861  0.11117182  0.51850835
   0.11092266  0.27755982  0.51867700
   0.27764391  0.27669737  0.51854061
   0.11004554  0.44429761  0.51850237
   0.16627095  0.49991254  0.45004719
   0.33335341  0.33285456  0.45001568
   0.49992775  0.50003088  0.24288870
   0.44431917  0.44468693  0.31211842
   0.72208044  0.05565133  0.38085248
   0.66664924  0.00001566  0.45002185
   0.83336414  0.50026464  0.44993722
   0.88881298  0.55566299  0.38081437
   0.44442408  0.77781868  0.10460756
   0.38884401  0.72222582  0.17359996
   0.33337025  0.66659327  0.24289830
   0.16675424  0.83327626  0.24272393
   0.11130597  0.77767195  0.31173059
   0.05577606  0.72213666  0.38088077
   0.00016971  0.66671238  0.44995254
   0.61113572  0.61110950  0.10461796
   0.55554598  0.55550743  0.17360403
   0.22223040  0.88887495  0.17349922
   0.77780390  0.44443217  0.10454292
   0.94445629  0.44441607  0.10456601
   0.94445438  0.61105802  0.10459677
   0.88891747  0.55549258  0.17350772
   0.72217104  0.72218073  0.17352550
   0.66658751  0.66664895  0.24269892
   0.61099083  0.61105816  0.31174119
   0.55552642  0.55562937  0.38122121
   0.50969063  0.49511285  0.45012076
   0.55552645  0.38885358  0.38121720
   0.72221978  0.38889739  0.38089855
   0.66703459  0.33301877  0.45003920
   0.61224739  0.27665187  0.51863544
   0.77825034  0.11043937  0.51847211
   0.83338423  0.16635591  0.44993905
   0.88885860  0.22221712  0.38087325
   0.94446051  0.27776662  0.10455881
   0.94445672  0.11111359  0.10458610
   0.88885847  0.22224297  0.17349549
   0.49997483  0.83327721  0.24269462
   0.44436798  0.77766805  0.31174560
   0.77778675  0.77776408  0.10457398
   0.61108262  0.94445049  0.10457174
   0.55548819  0.88886724  0.17352221
   0.77781943  0.11111596  0.10457981
   0.61109895  0.11115876  0.10458203
   0.44443123  0.27777222  0.10460060
   0.27778872  0.44443011  0.10457899
   0.11110168  0.61111456  0.10459884
   0.05567328  0.55549440  0.17351690
   0.05572110  0.72215281  0.17357715
   0.00009431  0.66664816  0.24268749
   0.61113487  0.27775962  0.10461424
   0.55546087  0.22240523  0.17358312
   0.49998498  0.16674343  0.24268350
   0.44447108  0.11108390  0.31165067
   0.38886157  0.38892646  0.17359699
   0.33332570  0.33341889  0.24272202
   0.44444888  0.44442129  0.10466738
   0.27775551  0.61111411  0.10469105
   0.22228484  0.55550754  0.17359663
   0.11109394  0.77779591  0.10460498
   0.66666010  0.99998332  0.24264707
   0.77775909  0.44444029  0.31166900
   0.11113603  0.44442762  0.31165488
   0.05553898  0.38891795  0.38086617
   0.99998244  0.33331264  0.45002533
   0.16665829  0.16666673  0.45002060
   0.11091581  0.11151703  0.51868076
   0.55558959  0.88873801  0.38084880
   0.22213113  0.55563977  0.38114834
   0.22227850  0.22219954  0.38086609
   0.32907622  0.67869871  0.44908953
   0.33361654  0.00004753  0.44993156
   0.44735328  0.43952810  0.52368891
   0.11110440  0.44443469  0.10453361
   0.11112029  0.27774960  0.10455328
   0.05557658  0.22220289  0.17353075
   0.99998168  0.16662459  0.24268114
   0.16670086  0.99992809  0.24266791
   0.22223315  0.05552062  0.17349862
   0.27774940  0.11111829  0.10457257
   0.38881526  0.05558288  0.17350794
   0.33340042  0.99994057  0.24265646
   0.16673563  0.16663159  0.24267853
   0.11113124  0.11109229  0.31169276
   0.05553955  0.05552257  0.38086893
   0.99965092  0.00008316  0.44992986
   0.27777614  0.27775882  0.10453020
   0.22223368  0.22224157  0.17350158
   0.05560633  0.38886924  0.17350019
   0.99997831  0.33339037  0.24268219
   0.44438044  0.11111674  0.10457932
   0.11112413  0.11112032  0.10455019
   0.05560227  0.05551092  0.17349790
   0.00000705  0.99993089  0.24265786
   0.94372418  0.94495421  0.51845649
   0.40585445  0.55408818  0.46188514
   0.30974393  0.57734120  0.48961764
Direct configuration=     4
   0.44733350  0.61371751  0.52360914
   0.61587628  0.44204122  0.51857641
   0.77906197  0.27667134  0.51846703
   0.94445541  0.11118225  0.51845248
   0.94481034  0.27758939  0.51864059
   0.94448200  0.44432993  0.51845160
   0.77819974  0.61133728  0.51841179
   0.61129275  0.77791302  0.51851636
   0.44463425  0.94489942  0.51840704
   0.61127605  0.94435453  0.51856027
   0.77769211  0.94436743  0.51855729
   0.94410119  0.77798215  0.51847408
   0.94375057  0.61131996  0.51839075
   0.83308224  0.66708778  0.44980238
   0.66663930  0.83335337  0.44991577
   0.72219689  0.88890287  0.38087589
   0.88893304  0.72230086  0.38083592
   0.94446095  0.77778889  0.31165334
   0.77778136  0.94442699  0.31170736