 252 252   0   0
  0.1089963E+02  0.1054150E-08  0.1054150E-08  0.2854150E-08  0.2000000E-15
   1.0000000000000000E-004
  CAR 
 NiAl                                    
     11.32556174    -27.88081831  301      3.48654595      1.00000000
    -27.881  0.0000E+00  0.0000E+00
    -27.750  0.0000E+00  0.0000E+00
    -27.619  0.0000E+00  0.0000E+00
    -27.489  0.0000E+00  0.0000E+00
    -27.358  0.0000E+00  0.0000E+00
    -27.227  0.0000E+00  0.0000E+00
    -27.097  0.0000E+00  0.0000E+00
    -26.966  0.0000E+00  0.0000E+00
    -26.835  0.0000E+00  0.0000E+00
    -26.705  0.0000E+00  0.0000E+00
    -26.574  0.0000E+00  0.0000E+00
    -26.443  0.0000E+00  0.0000E+00
    -26.313  0.2735E-09  0.3574E-10
    -26.182  0.3536E-02  0.4621E-03
    -26.051  0.3446E+00  0.4550E-01
    -25.920  0.3444E-01  0.5000E-01
    -25.790  0.9048E-07  0.5000E-01
    -25.659  0.0000E+00  0.5000E-01
    -25.528  0.0000E+00  0.5000E-01
    -25.398  0.0000E+00  0.5000E-01
    -25.267  0.0000E+00  0.5000E-01
    -25.136  0.4779E-16  0.5000E-01
    -25.006  0.1353E-05  0.5000E-01
    -24.875  0.8159E-01  0.6066E-01
    -24.744  0.3003E+00  0.9991E-01
    -24.614  0.7111E-03  0.1000E+00
    -24.483  0.7995E-11  0.1000E+00
    -24.352  0.0000E+00  0.1000E+00
    -24.222  0.0000E+00  0.1000E+00
    -24.091  0.0000E+00  0.1000E+00
    -23.960  0.9629E-08  0.1000E+00
    -23.829  0.1520E-01  0.1020E+00
    -23.699  0.3574E+00  0.1487E+00
    -23.568  0.9904E-01  0.1616E+00
    -23.437  0.2929E+00  0.1999E+00
    -23.307  0.5756E-03  0.2000E+00
    -23.176  0.5124E-11  0.2000E+00
    -23.045  0.0000E+00  0.2000E+00
    -22.915  0.0000E+00  0.2000E+00
    -22.784  0.0000E+00  0.2000E+00
    -22.653  0.0000E+00  0.2000E+00
    -22.523  0.0000E+00  0.2000E+00
    -22.392  0.0000E+00  0.2000E+00
    -22.261  0.0000E+00  0.2000E+00
    -22.131  0.0000E+00  0.2000E+00
    -22.000  0.0000E+00  0.2000E+00
    -21.869  0.0000E+00  0.2000E+00
    -21.738  0.0000E+00  0.2000E+00
    -21.608  0.0000E+00  0.2000E+00
    -21.477  0.0000E+00  0.2000E+00
    -21.346  0.1970E-14  0.2000E+00
    -21.216  0.1027E-04  0.2000E+00
    -21.085  0.1400E+00  0.2183E+00
    -20.954  0.2424E+00  0.2500E+00
    -20.824  0.1525E-03  0.2500E+00
    -20.693  0.3421E-12  0.2500E+00
    -20.562  0.0000E+00  0.2500E+00
    -20.432  0.1062E-16  0.2500E+00
    -20.301  0.3132E-06  0.2500E+00
    -20.170  0.2275E-01  0.2530E+00
    -20.040  0.5373E+00  0.3232E+00
    -19.909  0.2385E+00  0.3544E+00
    -19.778  0.6271E+00  0.4363E+00
    -19.647  0.3401E+00  0.4808E+00
    -19.517  0.4029E+00  0.5334E+00
    -19.386  0.3904E+00  0.5844E+00
    -19.255  0.5266E+00  0.6533E+00
    -19.125  0.9727E+00  0.7804E+00
    -18.994  0.1044E+01  0.9168E+00
    -18.863  0.8509E+00  0.1028E+01
    -18.733  0.7765E+00  0.1129E+01
    -18.602  0.6948E+00  0.1220E+01
    -18.471  0.1105E+01  0.1365E+01
    -18.341  0.1032E+01  0.1500E+01
    -18.210  0.1026E+01  0.1634E+01
    -18.079  0.8119E+00  0.1740E+01
    -17.949  0.9288E+00  0.1861E+01
    -17.818  0.1295E+01  0.2031E+01
    -17.687  0.1182E+01  0.2185E+01
    -17.556  0.1025E+01  0.2319E+01
    -17.426  0.1226E+01  0.2479E+01
    -17.295  0.1467E+01  0.2671E+01
    -17.164  0.1173E+01  0.2824E+01
    -17.034  0.1111E+01  0.2969E+01
    -16.903  0.1013E+01  0.3102E+01
    -16.772  0.9661E+00  0.3228E+01
    -16.642  0.1115E+01  0.3374E+01
    -16.511  0.1470E+01  0.3566E+01
    -16.380  0.1225E+01  0.3726E+01
    -16.250  0.1060E+01  0.3864E+01
    -16.119  0.1363E+01  0.4042E+01
    -15.988  0.1545E+01  0.4244E+01
    -15.858  0.1353E+01  0.4421E+01
    -15.727  0.1538E+01  0.4622E+01
    -15.596  0.1205E+01  0.4780E+01
    -15.465  0.1271E+01  0.4946E+01
    -15.335  0.7742E+00  0.5047E+01
    -15.204  0.1265E+01  0.5212E+01
    -15.073  0.1384E+01  0.5393E+01
    -14.943  0.7029E+00  0.5485E+01
    -14.812  0.7135E+00  0.5578E+01
    -14.681  0.1136E+01  0.5727E+01
    -14.551  0.8796E+00  0.5842E+01
    -14.420  0.6420E-01  0.5850E+01
    -14.289  0.4168E-06  0.5850E+01
    -14.159  0.1634E-02  0.5850E+01
    -14.028  0.2969E+00  0.5889E+01
    -13.897  0.8431E-01  0.5900E+01
    -13.767  0.1997E+00  0.5926E+01
    -13.636  0.1825E+00  0.5950E+01
    -13.505  0.1639E-03  0.5950E+01
    -13.374  0.1122E-11  0.5950E+01
    -13.244  0.1259E-03  0.5950E+01
    -13.113  0.2839E+00  0.5987E+01
    -12.982  0.4779E+00  0.6050E+01
    -12.852  0.3292E-02  0.6050E+01
    -12.721  0.3221E-03  0.6050E+01
    -12.590  0.2053E+00  0.6077E+01
    -12.460  0.1767E+00  0.6100E+01
    -12.329  0.7996E-02  0.6101E+01
    -12.198  0.3424E+00  0.6146E+01
    -12.068  0.3239E-01  0.6150E+01
    -11.937  0.1983E-05  0.6150E+01
    -11.806  0.3425E-01  0.6154E+01
    -11.676  0.1617E+00  0.6176E+01
    -11.545  0.1676E+00  0.6198E+01
    -11.414  0.1905E-01  0.6200E+01
    -11.283  0.1139E+00  0.6215E+01
    -11.153  0.2683E+00  0.6250E+01
    -11.022  0.3605E-02  0.6250E+01
    -10.891  0.1775E+00  0.6274E+01
    -10.761  0.1938E+00  0.6299E+01
    -10.630  0.7928E-02  0.6300E+01
    -10.499  0.9127E-01  0.6312E+01
    -10.369  0.2908E+00  0.6350E+01
    -10.238  0.5472E-03  0.6350E+01
    -10.107  0.4703E-11  0.6350E+01
     -9.977  0.0000E+00  0.6350E+01
     -9.846  0.0000E+00  0.6350E+01
     -9.715  0.0000E+00  0.6350E+01
     -9.585  0.0000E+00  0.6350E+01
     -9.454  0.0000E+00  0.6350E+01
     -9.323  0.0000E+00  0.6350E+01
     -9.192  0.0000E+00  0.6350E+01
     -9.062  0.0000E+00  0.6350E+01
     -8.931  0.0000E+00  0.6350E+01
     -8.800  0.0000E+00  0.6350E+01
     -8.670  0.0000E+00  0.6350E+01
     -8.539  0.0000E+00  0.6350E+01
     -8.408  0.0000E+00  0.6350E+01
     -8.278  0.0000E+00  0.6350E+01
     -8.147  0.0000E+00  0.6350E+01
     -8.016  0.0000E+00  0.6350E+01
     -7.886  0.0000E+00  0.6350E+01
     -7.755  0.0000E+00  0.6350E+01
     -7.624  0.0000E+00  0.6350E+01
     -7.494  0.3536E-14  0.6350E+01
     -7.363  0.1017E-04  0.6350E+01
     -7.232  0.1162E+00  0.6365E+01
     -7.101  0.4346E+00  0.6422E+01
     -6.971  0.4520E+00  0.6481E+01
     -6.840  0.6407E+00  0.6565E+01
     -6.709  0.1047E+01  0.6702E+01
     -6.579  0.1178E+01  0.6856E+01
     -6.448  0.1209E+01  0.7013E+01
     -6.317  0.1618E+01  0.7225E+01
     -6.187  0.2112E+01  0.7501E+01
     -6.056  0.2026E+01  0.7766E+01
     -5.925  0.2136E+01  0.8045E+01
     -5.795  0.2282E+01  0.8343E+01
     -5.664  0.2586E+01  0.8681E+01
     -5.533  0.2523E+01  0.9011E+01
     -5.402  0.2676E+01  0.9361E+01
     -5.272  0.2698E+01  0.9713E+01
     -5.141  0.2632E+01  0.1006E+02
     -5.010  0.2698E+01  0.1041E+02
     -4.880  0.2915E+01  0.1079E+02
     -4.749  0.2791E+01  0.1116E+02
     -4.618  0.2944E+01  0.1154E+02
     -4.488  0.2837E+01  0.1191E+02
     -4.357  0.2719E+01  0.1227E+02
     -4.226  0.2696E+01  0.1262E+02
     -4.096  0.2671E+01  0.1297E+02
     -3.965  0.2430E+01  0.1329E+02
     -3.834  0.2840E+01  0.1366E+02
     -3.704  0.3102E+01  0.1406E+02
     -3.573  0.2758E+01  0.1442E+02
     -3.442  0.2716E+01  0.1478E+02
     -3.311  0.2536E+01  0.1511E+02
     -3.181  0.2818E+01  0.1548E+02
     -3.050  0.2301E+01  0.1578E+02
     -2.919  0.2886E+01  0.1615E+02
     -2.789  0.2634E+01  0.1650E+02
     -2.658  0.2554E+01  0.1683E+02
     -2.527  0.3032E+01  0.1723E+02
     -2.397  0.2697E+01  0.1758E+02
     -2.266  0.3204E+01  0.1800E+02
     -2.135  0.3356E+01  0.1844E+02
     -2.005  0.3206E+01  0.1886E+02
     -1.874  0.3400E+01  0.1930E+02
     -1.743  0.3336E+01  0.1974E+02
     -1.613  0.3234E+01  0.2016E+02
     -1.482  0.3588E+01  0.2063E+02
     -1.351  0.3712E+01  0.2111E+02
     -1.220  0.3782E+01  0.2161E+02
     -1.090  0.4062E+01  0.2214E+02
     -0.959  0.4272E+01  0.2270E+02
     -0.828  0.4511E+01  0.2329E+02
     -0.698  0.4582E+01  0.2389E+02
     -0.567  0.4716E+01  0.2450E+02
     -0.436  0.4840E+01  0.2514E+02
     -0.306  0.5199E+01  0.2581E+02
     -0.175  0.4977E+01  0.2647E+02
     -0.044  0.5273E+01  0.2715E+02
      0.086  0.5087E+01  0.2782E+02
      0.217  0.5313E+01  0.2851E+02
      0.348  0.5454E+01  0.2923E+02
      0.478  0.5489E+01  0.2994E+02
      0.609  0.5739E+01  0.3069E+02
      0.740  0.5711E+01  0.3144E+02
      0.871  0.5512E+01  0.3216E+02
      1.001  0.5825E+01  0.3292E+02
      1.132  0.6036E+01  0.3371E+02
      1.263  0.6017E+01  0.3450E+02
      1.393  0.6121E+01  0.3530E+02
      1.524  0.6581E+01  0.3616E+02
      1.655  0.6624E+01  0.3702E+02
      1.785  0.6880E+01  0.3792E+02
      1.916  0.6736E+01  0.3880E+02
      2.047  0.7159E+01  0.3974E+02
      2.177  0.7219E+01  0.4068E+02
      2.308  0.7362E+01  0.4164E+02
      2.439  0.7532E+01  0.4263E+02
      2.569  0.7447E+01  0.4360E+02
      2.700  0.7482E+01  0.4458E+02
      2.831  0.7602E+01  0.4557E+02
      2.962  0.7462E+01  0.4655E+02
      3.092  0.7564E+01  0.4754E+02
      3.223  0.7263E+01  0.4848E+02
      3.354  0.6921E+01  0.4939E+02
      3.484  0.6859E+01  0.5029E+02
      3.615  0.5942E+01  0.5106E+02
      3.746  0.5530E+01  0.5178E+02
      3.876  0.5286E+01  0.5248E+02
      4.007  0.4600E+01  0.5308E+02
      4.138  0.4189E+01  0.5362E+02
      4.268  0.3755E+01  0.5412E+02
      4.399  0.3659E+01  0.5459E+02
      4.530  0.3224E+01  0.5501E+02
      4.660  0.3001E+01  0.5541E+02
      4.791  0.2474E+01  0.5573E+02
      4.922  0.2270E+01  0.5603E+02
      5.053  0.2020E+01  0.5629E+02
      5.183  0.1572E+01  0.5650E+02
      5.314  0.8776E+00  0.5661E+02
      5.445  0.6360E+00  0.5669E+02
      5.575  0.6447E+00  0.5678E+02
      5.706  0.7393E+00  0.5687E+02
      5.837  0.7492E+00  0.5697E+02
      5.967  0.8210E+00  0.5708E+02
      6.098  0.7459E+00  0.5718E+02
      6.229  0.5751E+00  0.5725E+02
      6.359  0.6515E+00  0.5734E+02
      6.490  0.7436E+00  0.5744E+02
      6.621  0.5927E+00  0.5751E+02
      6.751  0.6192E+00  0.5759E+02
      6.882  0.5329E+00  0.5766E+02
      7.013  0.8737E+00  0.5778E+02
      7.144  0.7779E+00  0.5788E+02
      7.274  0.5754E+00  0.5795E+02
      7.405  0.6174E+00  0.5803E+02
      7.536  0.6958E+00  0.5813E+02
      7.666  0.6221E+00  0.5821E+02
      7.797  0.1061E+01  0.5835E+02
      7.928  0.9127E+00  0.5847E+02
      8.058  0.9052E+00  0.5858E+02
      8.189  0.1131E+01  0.5873E+02
      8.320  0.1041E+01  0.5887E+02
      8.450  0.9512E+00  0.5899E+02
      8.581  0.1112E+01  0.5914E+02
      8.712  0.1433E+01  0.5932E+02
      8.842  0.1203E+01  0.5948E+02
      8.973  0.1099E+01  0.5963E+02
      9.104  0.1216E+01  0.5978E+02
      9.235  0.1447E+01  0.5997E+02
      9.365  0.1211E+01  0.6013E+02
      9.496  0.1383E+01  0.6031E+02
      9.627  0.2889E+00  0.6035E+02
      9.757  0.9220E-03  0.6035E+02
      9.888  0.6987E-10  0.6035E+02
     10.019  0.0000E+00  0.6035E+02
     10.149  0.0000E+00  0.6035E+02
     10.280  0.0000E+00  0.6035E+02
     10.411  0.0000E+00  0.6035E+02
     10.541  0.0000E+00  0.6035E+02
     10.672  0.0000E+00  0.6035E+02
     10.803  0.0000E+00  0.6035E+02
     10.933  0.0000E+00  0.6035E+02
     11.064  0.0000E+00  0.6035E+02
     11.195  0.0000E+00  0.6035E+02
     11.326  0.0000E+00  0.6035E+02
