 252 252   0   0
  0.1089963E+02  0.1054150E-08  0.1054150E-08  0.2854150E-08  0.2000000E-15
   1.0000000000000000E-004
  CAR 
 NiAl                                    
     10.58062740    -26.11146611  301      3.27888518      1.00000000
    -26.111  0.0000E+00  0.0000E+00
    -25.989  0.0000E+00  0.0000E+00
    -25.867  0.0000E+00  0.0000E+00
    -25.745  0.0000E+00  0.0000E+00
    -25.622  0.0000E+00  0.0000E+00
    -25.500  0.0000E+00  0.0000E+00
    -25.378  0.0000E+00  0.0000E+00
    -25.255  0.0000E+00  0.0000E+00
    -25.133  0.0000E+00  0.0000E+00
    -25.011  0.0000E+00  0.0000E+00
    -24.888  0.0000E+00  0.0000E+00
    -24.766  0.0000E+00  0.0000E+00
    -24.644  0.3036E-08  0.3713E-09
    -24.521  0.5628E-02  0.6883E-03
    -24.399  0.3604E+00  0.4477E-01
    -24.277  0.4278E-01  0.5000E-01
    -24.155  0.4945E-06  0.5000E-01
    -24.032  0.0000E+00  0.5000E-01
    -23.910  0.1446E-10  0.5000E-01
    -23.788  0.4527E-03  0.5006E-01
    -23.665  0.2674E+00  0.8276E-01
    -23.543  0.1409E+00  0.1000E+00
    -23.421  0.2328E-04  0.1000E+00
    -23.298  0.5136E-13  0.1000E+00
    -23.176  0.2062E-12  0.1000E+00
    -23.054  0.4959E-04  0.1000E+00
    -22.931  0.1703E+00  0.1208E+00
    -22.809  0.2383E+00  0.1500E+00
    -22.687  0.2369E-03  0.1500E+00
    -22.565  0.4030E-11  0.1500E+00
    -22.442  0.0000E+00  0.1500E+00
    -22.320  0.0000E+00  0.1500E+00
    -22.198  0.0000E+00  0.1500E+00
    -22.075  0.1725E-14  0.1500E+00
    -21.953  0.3467E-05  0.1500E+00
    -21.831  0.8169E-01  0.1600E+00
    -21.708  0.3253E+00  0.1998E+00
    -21.586  0.1812E-02  0.2000E+00
    -21.464  0.1045E-08  0.2000E+00
    -21.341  0.3446E-02  0.2004E+00
    -21.219  0.6023E+00  0.2741E+00
    -21.097  0.2118E+00  0.3000E+00
    -20.975  0.3104E-04  0.3000E+00
    -20.852  0.8012E-13  0.3000E+00
    -20.730  0.0000E+00  0.3000E+00
    -20.608  0.0000E+00  0.3000E+00
    -20.485  0.0000E+00  0.3000E+00
    -20.363  0.9985E-14  0.3000E+00
    -20.241  0.5069E-05  0.3000E+00
    -20.118  0.3453E-01  0.3042E+00
    -19.996  0.2445E+00  0.3341E+00
    -19.874  0.4442E+00  0.3885E+00
    -19.752  0.1359E+00  0.4051E+00
    -19.629  0.3141E+00  0.4435E+00
    -19.507  0.2482E+00  0.4739E+00
    -19.385  0.5102E+00  0.5363E+00
    -19.262  0.2292E-01  0.5391E+00
    -19.140  0.2737E+00  0.5725E+00
    -19.018  0.6542E+00  0.6525E+00
    -18.895  0.6035E+00  0.7264E+00
    -18.773  0.8695E+00  0.8327E+00
    -18.651  0.5805E+00  0.9037E+00
    -18.528  0.9156E+00  0.1016E+01
    -18.406  0.3316E+00  0.1056E+01
    -18.284  0.1065E+01  0.1187E+01
    -18.162  0.1521E+01  0.1373E+01
    -18.039  0.8033E+00  0.1471E+01
    -17.917  0.5880E+00  0.1543E+01
    -17.795  0.1256E+01  0.1696E+01
    -17.672  0.1041E+01  0.1824E+01
    -17.550  0.7482E+00  0.1915E+01
    -17.428  0.9563E+00  0.2032E+01
    -17.305  0.1073E+01  0.2163E+01
    -17.183  0.1221E+01  0.2313E+01
    -17.061  0.1163E+01  0.2455E+01
    -16.938  0.1037E+01  0.2582E+01
    -16.816  0.1085E+01  0.2715E+01
    -16.694  0.1188E+01  0.2860E+01
    -16.572  0.1404E+01  0.3031E+01
    -16.449  0.1091E+01  0.3165E+01
    -16.327  0.9178E+00  0.3277E+01
    -16.205  0.1049E+01  0.3405E+01
    -16.082  0.9328E+00  0.3520E+01
    -15.960  0.1505E+01  0.3704E+01
    -15.838  0.1472E+01  0.3884E+01
    -15.715  0.1601E+01  0.4079E+01
    -15.593  0.1263E+01  0.4234E+01
    -15.471  0.1125E+01  0.4372E+01
    -15.348  0.7516E+00  0.4463E+01
    -15.226  0.7604E+00  0.4556E+01
    -15.104  0.1180E+01  0.4701E+01
    -14.982  0.1335E+01  0.4864E+01
    -14.859  0.9697E+00  0.4983E+01
    -14.737  0.9163E+00  0.5095E+01
    -14.615  0.1326E+01  0.5257E+01
    -14.492  0.1578E+01  0.5450E+01
    -14.370  0.9190E+00  0.5562E+01
    -14.248  0.7213E+00  0.5651E+01
    -14.125  0.5479E+00  0.5718E+01
    -14.003  0.7581E+00  0.5810E+01
    -13.881  0.4505E+00  0.5865E+01
    -13.758  0.2797E+00  0.5900E+01
    -13.636  0.4905E-02  0.5900E+01
    -13.514  0.3252E+00  0.5940E+01
    -13.392  0.4056E+00  0.5990E+01
    -13.269  0.8464E-01  0.6000E+01
    -13.147  0.1412E-02  0.6000E+01
    -13.025  0.2246E+00  0.6028E+01
    -12.902  0.1825E+00  0.6050E+01
    -12.780  0.2889E-03  0.6050E+01
    -12.658  0.6236E-02  0.6051E+01
    -12.535  0.3587E+00  0.6095E+01
    -12.413  0.4386E-01  0.6100E+01
    -12.291  0.1164E+00  0.6114E+01
    -12.168  0.3243E+00  0.6154E+01
    -12.046  0.3668E+00  0.6199E+01
    -11.924  0.1009E-01  0.6200E+01
    -11.802  0.7769E-02  0.6201E+01
    -11.679  0.2929E+00  0.6237E+01
    -11.557  0.1470E+00  0.6255E+01
    -11.435  0.3595E+00  0.6299E+01
    -11.312  0.1060E-01  0.6300E+01
    -11.190  0.1668E+00  0.6320E+01
    -11.068  0.2417E+00  0.6350E+01
    -10.945  0.2570E-03  0.6350E+01
    -10.823  0.4766E-11  0.6350E+01
    -10.701  0.0000E+00  0.6350E+01
    -10.578  0.0000E+00  0.6350E+01
    -10.456  0.0000E+00  0.6350E+01
    -10.334  0.0000E+00  0.6350E+01
    -10.212  0.0000E+00  0.6350E+01
    -10.089  0.0000E+00  0.6350E+01
     -9.967  0.0000E+00  0.6350E+01
     -9.845  0.0000E+00  0.6350E+01
     -9.722  0.0000E+00  0.6350E+01
     -9.600  0.0000E+00  0.6350E+01
     -9.478  0.0000E+00  0.6350E+01
     -9.355  0.0000E+00  0.6350E+01
     -9.233  0.0000E+00  0.6350E+01
     -9.111  0.0000E+00  0.6350E+01
     -8.988  0.0000E+00  0.6350E+01
     -8.866  0.0000E+00  0.6350E+01
     -8.744  0.0000E+00  0.6350E+01
     -8.622  0.0000E+00  0.6350E+01
     -8.499  0.0000E+00  0.6350E+01
     -8.377  0.0000E+00  0.6350E+01
     -8.255  0.0000E+00  0.6350E+01
     -8.132  0.0000E+00  0.6350E+01
     -8.010  0.0000E+00  0.6350E+01
     -7.888  0.0000E+00  0.6350E+01
     -7.765  0.0000E+00  0.6350E+01
     -7.643  0.8721E-13  0.6350E+01
     -7.521  0.1644E-04  0.6350E+01
     -7.398  0.4561E-01  0.6356E+01
     -7.276  0.2208E+00  0.6383E+01
     -7.154  0.7322E+00  0.6472E+01
     -7.032  0.5225E+00  0.6536E+01
     -6.909  0.5460E+00  0.6603E+01
     -6.787  0.6143E+00  0.6678E+01
     -6.665  0.5203E+00  0.6742E+01
     -6.542  0.7169E+00  0.6829E+01
     -6.420  0.7257E+00  0.6918E+01
     -6.298  0.1178E+01  0.7062E+01
     -6.175  0.1305E+01  0.7222E+01
     -6.053  0.1481E+01  0.7403E+01
     -5.931  0.1377E+01  0.7571E+01
     -5.809  0.1778E+01  0.7789E+01
     -5.686  0.1753E+01  0.8003E+01
     -5.564  0.1827E+01  0.8227E+01
     -5.442  0.2140E+01  0.8488E+01
     -5.319  0.2317E+01  0.8772E+01
     -5.197  0.2368E+01  0.9061E+01
     -5.075  0.2228E+01  0.9334E+01
     -4.952  0.2642E+01  0.9657E+01
     -4.830  0.2597E+01  0.9975E+01
     -4.708  0.2548E+01  0.1029E+02
     -4.585  0.3004E+01  0.1065E+02
     -4.463  0.2762E+01  0.1099E+02
     -4.341  0.2690E+01  0.1132E+02
     -4.219  0.2688E+01  0.1165E+02
     -4.096  0.2656E+01  0.1197E+02
     -3.974  0.2924E+01  0.1233E+02
     -3.852  0.2789E+01  0.1267E+02
     -3.729  0.2905E+01  0.1303E+02
     -3.607  0.2879E+01  0.1338E+02
     -3.485  0.3165E+01  0.1377E+02
     -3.362  0.3012E+01  0.1414E+02
     -3.240  0.3040E+01  0.1451E+02
     -3.118  0.3389E+01  0.1492E+02
     -2.995  0.3093E+01  0.1530E+02
     -2.873  0.3331E+01  0.1571E+02
     -2.751  0.3541E+01  0.1614E+02
     -2.629  0.3668E+01  0.1659E+02
     -2.506  0.3691E+01  0.1704E+02
     -2.384  0.3962E+01  0.1753E+02
     -2.262  0.3881E+01  0.1800E+02
     -2.139  0.4014E+01  0.1849E+02
     -2.017  0.3808E+01  0.1896E+02
     -1.895  0.4347E+01  0.1949E+02
     -1.772  0.4151E+01  0.2000E+02
     -1.650  0.4183E+01  0.2051E+02
     -1.528  0.4003E+01  0.2100E+02
     -1.405  0.4087E+01  0.2150E+02
     -1.283  0.4188E+01  0.2201E+02
     -1.161  0.3991E+01  0.2250E+02
     -1.039  0.4192E+01  0.2301E+02
     -0.916  0.4309E+01  0.2354E+02
     -0.794  0.4206E+01  0.2405E+02
     -0.672  0.4007E+01  0.2454E+02
     -0.549  0.4205E+01  0.2506E+02
     -0.427  0.5002E+01  0.2567E+02
     -0.305  0.5328E+01  0.2632E+02
     -0.182  0.5013E+01  0.2693E+02
     -0.060  0.5001E+01  0.2754E+02
      0.062  0.5627E+01  0.2823E+02
      0.185  0.5966E+01  0.2896E+02
      0.307  0.5598E+01  0.2965E+02
      0.429  0.5638E+01  0.3034E+02
      0.551  0.5276E+01  0.3098E+02
      0.674  0.5855E+01  0.3170E+02
      0.796  0.5492E+01  0.3237E+02
      0.918  0.5779E+01  0.3308E+02
      1.041  0.5890E+01  0.3380E+02
      1.163  0.5936E+01  0.3452E+02
      1.285  0.6685E+01  0.3534E+02
      1.408  0.6975E+01  0.3619E+02
      1.530  0.6652E+01  0.3701E+02
      1.652  0.6597E+01  0.3781E+02
      1.775  0.6732E+01  0.3864E+02
      1.897  0.6954E+01  0.3949E+02
      2.019  0.7399E+01  0.4039E+02
      2.141  0.8082E+01  0.4138E+02
      2.264  0.8607E+01  0.4243E+02
      2.386  0.8661E+01  0.4349E+02
      2.508  0.8950E+01  0.4459E+02
      2.631  0.8398E+01  0.4562E+02
      2.753  0.8000E+01  0.4659E+02
      2.875  0.7224E+01  0.4748E+02
      2.998  0.7115E+01  0.4835E+02
      3.120  0.6778E+01  0.4918E+02
      3.242  0.7038E+01  0.5004E+02
      3.365  0.7057E+01  0.5090E+02
      3.487  0.6790E+01  0.5173E+02
      3.609  0.6403E+01  0.5251E+02
      3.731  0.5455E+01  0.5318E+02
      3.854  0.4811E+01  0.5377E+02
      3.976  0.3873E+01  0.5424E+02
      4.098  0.3544E+01  0.5468E+02
      4.221  0.3630E+01  0.5512E+02
      4.343  0.3026E+01  0.5549E+02
      4.465  0.2490E+01  0.5580E+02
      4.588  0.2182E+01  0.5606E+02
      4.710  0.1949E+01  0.5630E+02
      4.832  0.1657E+01  0.5650E+02
      4.955  0.1035E+01  0.5663E+02
      5.077  0.1503E+01  0.5681E+02
      5.199  0.9123E+00  0.5692E+02
      5.321  0.9189E+00  0.5704E+02
      5.444  0.8777E+00  0.5714E+02
      5.566  0.1131E+01  0.5728E+02
      5.688  0.1289E+01  0.5744E+02
      5.811  0.1014E+01  0.5756E+02
      5.933  0.7982E+00  0.5766E+02
      6.055  0.8826E+00  0.5777E+02
      6.178  0.7424E+00  0.5786E+02
      6.300  0.7303E+00  0.5795E+02
      6.422  0.8483E+00  0.5805E+02
      6.544  0.8379E+00  0.5816E+02
      6.667  0.8150E+00  0.5826E+02
      6.789  0.5278E+00  0.5832E+02
      6.911  0.6257E+00  0.5840E+02
      7.034  0.7107E+00  0.5848E+02
      7.156  0.7447E+00  0.5858E+02
      7.278  0.8655E+00  0.5868E+02
      7.401  0.8651E+00  0.5879E+02
      7.523  0.9379E+00  0.5890E+02
      7.645  0.8896E+00  0.5901E+02
      7.768  0.1130E+01  0.5915E+02
      7.890  0.9457E+00  0.5926E+02
      8.012  0.9430E+00  0.5938E+02
      8.134  0.7702E+00  0.5947E+02
      8.257  0.1113E+01  0.5961E+02
      8.379  0.1069E+01  0.5974E+02
      8.501  0.1297E+01  0.5990E+02
      8.624  0.1346E+01  0.6006E+02
      8.746  0.1176E+01  0.6021E+02
      8.868  0.8354E+00  0.6031E+02
      8.991  0.3236E+00  0.6035E+02
      9.113  0.1816E-02  0.6035E+02
      9.235  0.8095E-09  0.6035E+02
      9.358  0.0000E+00  0.6035E+02
      9.480  0.0000E+00  0.6035E+02
      9.602  0.0000E+00  0.6035E+02
      9.724  0.0000E+00  0.6035E+02
      9.847  0.0000E+00  0.6035E+02
      9.969  0.0000E+00  0.6035E+02
     10.091  0.0000E+00  0.6035E+02
     10.214  0.0000E+00  0.6035E+02
     10.336  0.0000E+00  0.6035E+02
     10.458  0.0000E+00  0.6035E+02
     10.581  0.0000E+00  0.6035E+02
