         260
 Energy:   568.79348649999997     
 X   0.00000000       0.00000000       0.00000000    
 X   10.5415001       0.00000000       0.00000000    
 X   5.27075005       9.12920666       0.00000000    
 X   0.00000000       0.00000000       28.5415001    
 X   15.8122501       9.12920666       0.00000000    
 X   10.5415001       0.00000000       28.5415001    
 X   5.27075005       9.12920666       28.5415001    
 X   15.8122501       9.12920666       28.5415001    
 Ni   0.00000000       0.00000000       0.00000000    
 Ni   0.00000000       0.00000000       2.10829997    
 Ni   0.00000000       0.00000000       4.21659994    
 Ni   0.00000000       0.00000000       6.32490015    
 Ni   0.00000000       0.00000000       8.43319988    
 Ni   1.05414999       1.82584000       0.00000000    
 Ni   1.05414999       1.82584000       2.10829997    
 Ni   1.05414999       1.82584000       4.21659994    
 Ni   1.05414999       1.82584000       6.32490015    
 Ni   1.05414999       1.82584000       8.43319988    
 Ni   2.10829997       3.65167999       0.00000000    
 Ni   2.10829997       3.65167999       2.10829997    
 Ni   2.10829997       3.65167999       4.21659994    
 Ni   2.10829997       3.65167999       6.32490015    
 Ni   2.10829997       3.65167999       8.43319988    
 Ni   3.16245008       5.47751999       0.00000000    
 Ni   3.16245008       5.47751999       2.10829997    
 Ni   3.16245008       5.47751999       4.21659994    
 Ni   3.16245008       5.47751999       6.32490015    
 Ni   3.16245008       5.47751999       8.43319988    
 Ni   4.21659994       7.30337000       0.00000000    
 Ni   4.21659994       7.30337000       2.10829997    
 Ni   4.21659994       7.30337000       4.21659994    
 Ni   4.21659994       7.30337000       6.32490015    
 Ni   4.21659994       7.30337000       8.43319988    
 Ni   2.10829997       0.00000000       0.00000000    
 Ni   2.10829997       0.00000000       2.10829997    
 Ni   2.10829997       0.00000000       4.21659994    
 Ni   2.10829997       0.00000000       6.32490015    
 Ni   2.10829997       0.00000000       8.43319988    
 Ni   3.16245008       1.82584000       0.00000000    
 Ni   3.16245008       1.82584000       2.10829997    
 Ni   3.16245008       1.82584000       4.21659994    
 Ni   3.16245008       1.82584000       6.32490015    
 Ni   3.16245008       1.82584000       8.43319988    
 Ni   4.21659994       3.65167999       0.00000000    
 Ni   4.21659994       3.65167999       2.10829997    
 Ni   4.21659994       3.65167999       4.21659994    
 Ni   4.21659994       3.65167999       6.32490015    
 Ni   4.21659994       3.65167999       8.43319988    
 Ni   5.27075005       5.47751999       0.00000000    
 Ni   5.27075005       5.47751999       2.10829997    
 Ni   5.27075005       5.47751999       4.21659994    
 Ni   5.27075005       5.47751999       6.32490015    
 Ni   5.27075005       5.47751999       8.43319988    
 Ni   6.32490015       7.30337000       0.00000000    
 Ni   6.32490015       7.30337000       2.10829997    
 Ni   6.32490015       7.30337000       4.21659994    
 Ni   6.32490015       7.30337000       6.32490015    
 Ni   6.32490015       7.30337000       8.43319988    
 Ni   4.21659994       0.00000000       0.00000000    
 Ni   4.21659994       0.00000000       2.10829997    
 Ni   4.21659994       0.00000000       4.21659994    
 Ni   4.21659994       0.00000000       6.32490015    
 Ni   4.21659994       0.00000000       8.43319988    
 Ni   5.27075005       1.82584000       0.00000000    
 Ni   5.27075005       1.82584000       2.10829997    
 Ni   5.27075005       1.82584000       4.21659994    
 Ni   5.27075005       1.82584000       6.32490015    
 Ni   5.27075005       1.82584000       8.43319988    
 Ni   6.32490015       3.65167999       0.00000000    
 Ni   6.32490015       3.65167999       2.10829997    
 Ni   6.32490015       3.65167999       4.21659994    
 Ni   6.32490015       3.65167999       6.32490015    
 Ni   6.32490015       3.65167999       8.43319988    
 Ni   7.37904978       5.47751999       0.00000000    
 Ni   7.37904978       5.47751999       2.10829997    
 Ni   7.37904978       5.47751999       4.21659994    
 Ni   7.37904978       5.47751999       6.32490015    
 Ni   7.37904978       5.47751999       8.43319988    
 Ni   8.43319988       7.30337000       0.00000000    
 Ni   8.43319988       7.30337000       2.10829997    
 Ni   8.43319988       7.30337000       4.21659994    
 Ni   8.43319988       7.30337000       6.32490015    
 Ni   8.43319988       7.30337000       8.43319988    
 Ni   6.32490015       0.00000000       0.00000000    
 Ni   6.32490015       0.00000000       2.10829997    
 Ni   6.32490015       0.00000000       4.21659994    
 Ni   6.32490015       0.00000000       6.32490015    
 Ni   6.32490015       0.00000000       8.43319988    
 Ni   7.37904978       1.82584000       0.00000000    
 Ni   7.37904978       1.82584000       2.10829997    
 Ni   7.37904978       1.82584000       4.21659994    
 Ni   7.37904978       1.82584000       6.32490015    
 Ni   7.37904978       1.82584000       8.43319988    
 Ni   8.43319988       3.65167999       0.00000000    
 Ni   8.43319988       3.65167999       2.10829997    
 Ni   8.43319988       3.65167999       4.21659994    
 Ni   8.43319988       3.65167999       6.32490015    
 Ni   8.43319988       3.65167999       8.43319988    
 Ni   9.48735046       5.47751999       0.00000000    
 Ni   9.48735046       5.47751999       2.10829997    
 Ni   9.48735046       5.47751999       4.21659994    
 Ni   9.48735046       5.47751999       6.32490015    
 Ni   9.48735046       5.47751999       8.43319988    
 Ni   10.5415001       7.30337000       0.00000000    
 Ni   10.5415001       7.30337000       2.10829997    
 Ni   10.5415001       7.30337000       4.21659994    
 Ni   10.5415001       7.30337000       6.32490015    
 Ni   10.5415001       7.30337000       8.43319988    
 Ni   8.43319988       0.00000000       0.00000000    
 Ni   8.43319988       0.00000000       2.10829997    
 Ni   8.43319988       0.00000000       4.21659994    
 Ni   8.43319988       0.00000000       6.32490015    
 Ni   8.43319988       0.00000000       8.43319988    
 Ni   9.48735046       1.82584000       0.00000000    
 Ni   9.48735046       1.82584000       2.10829997    
 Ni   9.48735046       1.82584000       4.21659994    
 Ni   9.48735046       1.82584000       6.32490015    
 Ni   9.48735046       1.82584000       8.43319988    
 Ni   10.5415001       3.65167999       0.00000000    
 Ni   10.5415001       3.65167999       2.10829997    
 Ni   10.5415001       3.65167999       4.21659994    
 Ni   10.5415001       3.65167999       6.32490015    
 Ni   10.5415001       3.65167999       8.43319988    
 Ni   11.5956497       5.47751999       0.00000000    
 Ni   11.5956497       5.47751999       2.10829997    
 Ni   11.5956497       5.47751999       4.21659994    
 Ni   11.5956497       5.47751999       6.32490015    
 Ni   11.5956497       5.47751999       8.43319988    
 Ni   12.6498003       7.30337000       0.00000000    
 Ni   12.6498003       7.30337000       2.10829997    
 Ni   12.6498003       7.30337000       4.21659994    
 Ni   12.6498003       7.30337000       6.32490015    
 Ni   12.6498003       7.30337000       8.43319988    
 O    1.58123004      0.912919998       1.05414999    
 O    1.58123004      0.912919998       3.16245008    
 O    1.58123004      0.912919998       5.27075005    
 O    1.58123004      0.912919998       7.37904978    
 O    1.58123004      0.912919998       9.48735046    
 O    2.63538003       2.73875999       1.05414999    
 O    2.63538003       2.73875999       3.16245008    
 O    2.63538003       2.73875999       5.27075005    
 O    2.63538003       2.73875999       7.37904978    
 O    2.63538003       2.73875999       9.48735046    
 O    3.68952990       4.56459999       1.05414999    
 O    3.68952990       4.56459999       3.16245008    
 O    3.68952990       4.56459999       5.27075005    
 O    3.68952990       4.56459999       7.37904978    
 O    3.68952990       4.56459999       9.48735046    
 O    4.74366999       6.39043999       1.05414999    
 O    4.74366999       6.39043999       3.16245008    
 O    4.74366999       6.39043999       5.27075005    
 O    4.74366999       6.39043999       7.37904978    
 O    4.74366999       6.39043999       9.48735046    
 O    5.79782009       8.21629047       1.05414999    
 O    5.79782009       8.21629047       3.16245008    
 O    5.79782009       8.21629047       5.27075005    
 O    5.79782009       8.21629047       7.37904978    
 O    5.79782009       8.21629047       9.48735046    
 O    3.68952990      0.912919998       1.05414999    
 O    3.68952990      0.912919998       3.16245008    
 O    3.68952990      0.912919998       5.27075005    
 O    3.68952990      0.912919998       7.37904978    
 O    3.68952990      0.912919998       9.48735046    
 O    4.74368000       2.73875999       1.05414999    
 O    4.74368000       2.73875999       3.16245008    
 O    4.74368000       2.73875999       5.27075005    
 O    4.74368000       2.73875999       7.37904978    
 O    4.74368000       2.73875999       9.48735046    
 O    5.79783010       4.56459999       1.05414999    
 O    5.79783010       4.56459999       3.16245008    
 O    5.79783010       4.56459999       5.27075005    
 O    5.79783010       4.56459999       7.37904978    
 O    5.79783010       4.56459999       9.48735046    
 O    6.85198021       6.39043999       1.05414999    
 O    6.85198021       6.39043999       3.16245008    
 O    6.85198021       6.39043999       5.27075005    
 O    6.85198021       6.39043999       7.37904978    
 O    6.85198021       6.39043999       9.48735046    
 O    7.90612984       8.21629047       1.05414999    
 O    7.90612984       8.21629047       3.16245008    
 O    7.90612984       8.21629047       5.27075005    
 O    7.90612984       8.21629047       7.37904978    
 O    7.90612984       8.21629047       9.48735046    
 O    5.79783010      0.912919998       1.05414999    
 O    5.79783010      0.912919998       3.16245008    
 O    5.79783010      0.912919998       5.27075005    
 O    5.79783010      0.912919998       7.37904978    
 O    5.79783010      0.912919998       9.48735046    
 O    6.85198021       2.73875999       1.05414999    
 O    6.85198021       2.73875999       3.16245008    
 O    6.85198021       2.73875999       5.27075005    
 O    6.85198021       2.73875999       7.37904978    
 O    6.85198021       2.73875999       9.48735046    
 O    7.90612984       4.56459999       1.05414999    
 O    7.90612984       4.56459999       3.16245008    
 O    7.90612984       4.56459999       5.27075005    
 O    7.90612984       4.56459999       7.37904978    
 O    7.90612984       4.56459999       9.48735046    
 O    8.96028042       6.39043999       1.05414999    
 O    8.96028042       6.39043999       3.16245008    
 O    8.96028042       6.39043999       5.27075005    
 O    8.96028042       6.39043999       7.37904978    
 O    8.96028042       6.39043999       9.48735046    
 O    10.0144196       8.21629047       1.05414999    
 O    10.0144196       8.21629047       3.16245008    
 O    10.0144196       8.21629047       5.27075005    
 O    10.0144196       8.21629047       7.37904978    
 O    10.0144196       8.21629047       9.48735046    
 O    7.90611982      0.912919998       1.05414999    
 O    7.90611982      0.912919998       3.16245008    
 O    7.90611982      0.912919998       5.27075005    
 O    7.90611982      0.912919998       7.37904978    
 O    7.90611982      0.912919998       9.48735046    
 O    8.96028042       2.73875999       1.05414999    
 O    8.96028042       2.73875999       3.16245008    
 O    8.96028042       2.73875999       5.27075005    
 O    8.96028042       2.73875999       7.37904978    
 O    8.96028042       2.73875999       9.48735046    
 O    10.0144196       4.56459999       1.05414999    
 O    10.0144196       4.56459999       3.16245008    
 O    10.0144196       4.56459999       5.27075005    
 O    10.0144196       4.56459999       7.37904978    
 O    10.0144196       4.56459999       9.48735046    
 O    11.0685701       6.39043999       1.05414999    
 O    11.0685701       6.39043999       3.16245008    
 O    11.0685701       6.39043999       5.27075005    
 O    11.0685701       6.39043999       7.37904978    
 O    11.0685701       6.39043999       9.48735046    
 O    12.1227198       8.21629047       1.05414999    
 O    12.1227198       8.21629047       3.16245008    
 O    12.1227198       8.21629047       5.27075005    
 O    12.1227198       8.21629047       7.37904978    
 O    12.1227198       8.21629047       9.48735046    
 O    10.0144196      0.912919998       1.05414999    
 O    10.0144196      0.912919998       3.16245008    
 O    10.0144196      0.912919998       5.27075005    
 O    10.0144196      0.912919998       7.37904978    
 O    10.0144196      0.912919998       9.48735046    
 O    11.0685701       2.73875999       1.05414999    
 O    11.0685701       2.73875999       3.16245008    
 O    11.0685701       2.73875999       5.27075005    
 O    11.0685701       2.73875999       7.37904978    
 O    11.0685701       2.73875999       9.48735046    
 O    12.1227198       4.56459999       1.05414999    
 O    12.1227198       4.56459999       3.16245008    
 O    12.1227198       4.56459999       5.27075005    
 O    12.1227198       4.56459999       7.37904978    
 O    12.1227198       4.56459999       9.48735046    
 O    13.1768703       6.39043999       1.05414999    
 O    13.1768703       6.39043999       3.16245008    
 O    13.1768703       6.39043999       5.27075005    
 O    13.1768703       6.39043999       7.37904978    
 O    13.1768703       6.39043999       9.48735046    
 O    14.2310200       8.21629047       1.05414999    
 O    14.2310200       8.21629047       3.16245008    
 O    14.2310200       8.21629047       5.27075005    
 O    14.2310200       8.21629047       7.37904978    
 O    14.2310200       8.21629047       9.48735046    
 O    6.66359997       3.84722996       10.4873505    
 O    6.66359997       5.04722977       10.4873505    
         260
 Energy:   113.62926139999999     
 X   0.00000000       0.00000000       0.00000000    
 X   10.5415001       0.00000000       0.00000000    
 X   5.27075005       9.12920666       0.00000000    
 X   0.00000000       0.00000000       28.5415001    
 X   15.8122501       9.12920666       0.00000000    
 X   10.5415001       0.00000000       28.5415001    
 X   5.27075005       9.12920666       28.5415001    
 X   15.8122501       9.12920666       28.5415001    
 Ni  -8.56999960E-03   5.79999993E-03 -0.538240016    
 Ni  -6.81000017E-03   1.68999995E-03   2.07799006    
 Ni  -3.30000010E-04  -1.01999997E-03   4.22922993    
 Ni   4.45999997E-03   3.10000003E-04   6.31989002    
 Ni   1.50699997E-02   1.74499992E-02   8.61194992    
 Ni   1.05225003       1.82524002     -0.546190023    
 Ni   1.05148005       1.82615995       2.07622004    
 Ni   1.05309999       1.82663000       4.23192978    
 Ni   1.05578995       1.81715000       6.32985020    
 Ni   1.05272996       1.79987001       8.57635975    
 Ni   2.10293007       3.64438009     -0.548709989    
 Ni   2.11018991       3.65197992       2.08370996    
 Ni   2.10899997       3.65277004       4.22472000    
 Ni   2.10980010       3.64846992       6.30834007    
 Ni   2.09586000       3.63688993       8.64395046    
 Ni   3.16220999       5.47790003     -0.555769980    
 Ni   3.16104007       5.48253012       2.09464002    
 Ni   3.16413999       5.47687006       4.22378016    
 Ni   3.16876006       5.47938013       6.30414009    
 Ni   3.17055988       5.48321009       8.64099979    
 Ni   4.21360016       7.31905985     -0.551890016    
 Ni   4.21017981       7.30663013       2.08699989    
 Ni   4.21707010       7.29996014       4.22657013    
 Ni   4.22349024       7.29701996       6.31542015    
 Ni   4.22236013       7.30591011       8.59751034    
 Ni   2.10840988       5.00000024E-04 -0.549969971    
 Ni   2.10536003       1.09000003E-03   2.07647991    
 Ni   2.10748005      -5.90000011E-04   4.23494005    
 Ni   2.10607004      -1.24999997E-03   6.31713009    
 Ni   2.09555006       1.66100003E-02   8.61410999    
 Ni   3.15696001       1.82298994     -0.550130010    
 Ni   3.16263008       1.82903004       2.08240008    
 Ni   3.16420007       1.82684004       4.22969007    
 Ni   3.16525006       1.81879997       6.31362009    
 Ni   3.15487003       1.80800998       8.62421989    
 Ni   4.22107983       3.65113997     -0.559750021    
 Ni   4.21720982       3.65547991       2.09568000    
 Ni   4.21926022       3.65429997       4.22670984    
 Ni   4.22211981       3.65174007       6.30644989    
 Ni   4.21155977       3.63822007       8.62977982    
 Ni   5.27182007       5.47984982     -0.557820022    
 Ni   5.26735020       5.47645998       2.09527993    
 Ni   5.27159023       5.47466993       4.23118019    
 Ni   5.27241993       5.47821999       6.31743002    
 Ni   5.27872992       5.49302006       8.58652020    
 Ni   6.33025980       7.30580997     -0.546239972    
 Ni   6.32184982       7.30251980       2.08221006    
 Ni   6.32439995       7.29969978       4.23387003    
 Ni   6.32471991       7.30073977       6.31577015    
 Ni   6.32712984       7.30276012       8.60770988    
 Ni   4.20906019      -2.50000012E-04 -0.551670015    
 Ni   4.21903992       2.88999989E-03   2.08141994    
 Ni   4.21782017       7.60000024E-04   4.23310995    
 Ni   4.21670008       2.45000003E-03   6.32248020    
 Ni   4.22268009       1.45699997E-02   8.60149002    
 Ni   5.27004004       1.82597005     -0.553240001    
 Ni   5.27326012       1.82774997       2.09060001    
 Ni   5.27340984       1.82875001       4.22996998    
 Ni   5.27247000       1.82282996       6.31518984    
 Ni   5.26612997       1.80418003       8.62683964    
 Ni   6.32362986       3.65048003     -0.562720001    
 Ni   6.32391024       3.64979005       2.09983993    
 Ni   6.32500982       3.65262008       4.23056984    
 Ni   6.32372999       3.65498996       6.30409002    
 Ni   6.33198977       3.62245989       8.54407024    
 Ni   7.37959003       5.48112011     -0.546980023    
 Ni   7.37630987       5.47475004       2.08327007    
 Ni   7.37753010       5.47558022       4.23311996    
 Ni   7.37277985       5.48255014       6.30212021    
 Ni   7.38278008       5.49184990       8.59636021    
 Ni   8.43155956       7.30660009     -0.550230026    
 Ni   8.43266964       7.30305004       2.07856989    
 Ni   8.43210030       7.30185986       4.23381996    
 Ni   8.42741966       7.31002998       6.31262016    
 Ni   8.42310047       7.31941986       8.60461998    
 Ni   6.33421993      -1.87000004E-03 -0.547119975    
 Ni   6.33366013      -3.19000008E-03   2.08282995    
 Ni   6.32519007       1.29000004E-03   4.22908020    
 Ni   6.32284021       2.33000005E-03   6.32215023    
 Ni   6.31799984       5.37999999E-03   8.59502029    
 Ni   7.39039993       1.81419003     -0.551150024    
 Ni   7.38208008       1.82175004       2.09198999    
 Ni   7.37759018       1.82906997       4.22623014    
 Ni   7.37337017       1.82719004       6.31215000    
 Ni   7.37782001       1.82442999       8.59374046    
 Ni   8.43531036       3.65102005     -0.547110021    
 Ni   8.43243980       3.64771008       2.08809996    
 Ni   8.43132973       3.65241003       4.22778988    
 Ni   8.43035984       3.65270996       6.31267023    
 Ni   8.43004990       3.65911007       8.64587975    
 Ni   9.48491001       5.47797012     -0.547999978    
 Ni   9.48748970       5.47654009       2.08269000    
 Ni   9.48579979       5.47695017       4.23071003    
 Ni   9.48184013       5.47949982       6.30081987    
 Ni   9.48814964       5.48194981       8.63603973    
 Ni   10.5365400       7.30518007     -0.550530016    
 Ni   10.5480404       7.30561018       2.08199000    
 Ni   10.5418901       7.30350018       4.23060989    
 Ni   10.5412397       7.30939007       6.30810022    
 Ni   10.5545702       7.32004976       8.61783028    
 Ni   8.43879986       1.76999997E-03 -0.545679986    
 Ni   8.43122959      -1.79000001E-03   2.07056999    
 Ni   8.43161964       1.78000005E-03   4.22428989    
 Ni   8.43089962       1.44000002E-03   6.31718016    
 Ni   8.42547989      -8.39000009E-03   8.60464001    
 Ni   9.48651028       1.81488001     -0.539330006    
 Ni   9.48441982       1.82213998       2.07974005    
 Ni   9.48560047       1.82723999       4.22494984    
 Ni   9.48723030       1.82286000       6.31813002    
 Ni   9.50590992       1.82256997       8.61291981    
 Ni   10.5442801       3.64702010     -0.545740008    
 Ni   10.5414305       3.64896011       2.07999992    
 Ni   10.5396795       3.65140009       4.22638988    
 Ni   10.5400295       3.64602995       6.30696011    
 Ni   10.5447598       3.62913990       8.61544991    
 Ni   11.5944300       5.47278976     -0.548479974    
 Ni   11.6016197       5.47933006       2.08512998    
 Ni   11.5968599       5.47786999       4.22515011    
 Ni   11.5973101       5.48266983       6.31210995    
 Ni   11.6011600       5.48624992       8.60394001    
 Ni   12.6522102       7.31595993     -0.543449998    
 Ni   12.6547003       7.30570984       2.07924008    
 Ni   12.6499300       7.30216980       4.22620010    
 Ni   12.6490602       7.30827999       6.31718016    
 Ni   12.6452999       7.31823015       8.59385014    
 O    1.57726002      0.919300020       1.02656996    
 O    1.58065999      0.914409995       3.18032002    
 O    1.58125997      0.912739992       5.27452993    
 O    1.57070005      0.922150016       7.38244009    
 O    1.57194996      0.930069983       9.89459038    
 O    2.63740993       2.74202991       1.01427996    
 O    2.63612008       2.74026990       3.18221998    
 O    2.63632989       2.73880005       5.27220011    
 O    2.63080001       2.73381996       7.35356998    
 O    2.63301992       2.73359990       9.91458035    
 O    3.69165993       4.56233978       1.00267994    
 O    3.69034004       4.56562996       3.18628001    
 O    3.69245005       4.56579018       5.27164984    
 O    3.69061995       4.56927013       7.34592009    
 O    3.69032001       4.55922985       9.91230965    
 O    4.74627018       6.38494015       1.00709999    
 O    4.74398994       6.38923979       3.18700004    
 O    4.74443007       6.38995981       5.26822996    
 O    4.74453020       6.39002991       7.35025978    
 O    4.74921989       6.38529015       9.91018963    
 O    5.79337978       8.22010040       1.01350999    
 O    5.79647017       8.21627998       3.18447995    
 O    5.79848003       8.21656990       5.27194977    
 O    5.79651022       8.22945976       7.35850000    
 O    5.80156994       8.23093987       9.90756035    
 O    3.68877006      0.920870006       1.02486002    
 O    3.69056010      0.914780021       3.17999005    
 O    3.69040990      0.912570000       5.27630997    
 O    3.69784999      0.903270006       7.36317015    
 O    3.69958997      0.908420026       9.90415955    
 O    4.74525023       2.74001002       1.00492001    
 O    4.74545002       2.73926997       3.18643999    
 O    4.74727011       2.73957992       5.27448988    
 O    4.75284004       2.72638011       7.35307980    
 O    4.74684000       2.72749996       9.89935970    
 O    5.79698992       4.56577015      0.996770024    
 O    5.79802990       4.56418991       3.19203997    
 O    5.79951000       4.56361008       5.26962996    
 O    5.79607010       4.56790018       7.36190987    
 O    5.62129021       4.59774017       9.75841045    
 O    6.85027981       6.38281012       1.01104999    
 O    6.85025978       6.38880014       3.18781996    
 O    6.85192013       6.38720989       5.27186012    
 O    6.84703016       6.39427996       7.35621977    
 O    6.85899019       6.46380997       9.84479046    
 O    7.90289021       8.21664047       1.03154004    
 O    7.90500021       8.21675014       3.18322992    
 O    7.90544987       8.21625996       5.27389002    
 O    7.90310001       8.22502995       7.36272001    
 O    7.91189003       8.23198032       9.91633987    
 O    5.79823017      0.921289980       1.01769996    
 O    5.79856014      0.915669978       3.18274999    
 O    5.79720020      0.915019989       5.27519989    
 O    5.79478979      0.909229994       7.37180996    
 O    5.79251003      0.907209992       9.89204979    
 O    6.85266018       2.74005008      0.998920023    
 O    6.85192013       2.73970008       3.18856001    
 O    6.84990978       2.74180007       5.26979017    
 O    6.84719992       2.74144006       7.36499023    
 O    6.82381010       2.67412996       9.85120964    
 O    7.90050983       4.56410980       1.00678003    
 O    7.90444994       4.56251001       3.18957996    
 O    7.90477991       4.56188011       5.27278996    
 O    7.91089010       4.54899979       7.35771990    
 O    8.05764961       4.55638981       9.79660034    
 O    8.95625973       6.38335991       1.02433002    
 O    8.95878983       6.38931990       3.18824005    
 O    8.95973015       6.38696003       5.27095985    
 O    8.96006012       6.39218998       7.34497023    
 O    8.96362019       6.39034986       9.91930008    
 O    10.0131702       8.22198963       1.03474998    
 O    10.0142899       8.21757030       3.18294001    
 O    10.0140800       8.21699047       5.27437019    
 O    10.0122900       8.23132038       7.36384010    
 O    10.0155296       8.23221970       9.92101955    
 O    7.91246986      0.912140012       1.00837004    
 O    7.90679979      0.913420022       3.18329000    
 O    7.90738010      0.911679983       5.26854992    
 O    7.90667009      0.900399983       7.35302019    
 O    7.90628004      0.911390007       9.92471981    
 O    8.95998955       2.73374009       1.00521004    
 O    8.95786953       2.73900008       3.18750000    
 O    8.95757961       2.74033999       5.27026987    
 O    8.95950985       2.73519993       7.35665989    
 O    8.95516014       2.74217010       9.89136028    
 O    10.0129604       4.55881023       1.01718998    
 O    10.0135098       4.56219006       3.18883991    
 O    10.0110798       4.56585979       5.26944017    
 O    10.0106401       4.56158018       7.35043001    
 O    10.0105896       4.56478977       9.92193985    
 O    11.0767899       6.38246012       1.02778995    
 O    11.0698795       6.39063978       3.18600011    
 O    11.0677004       6.39039993       5.27161980    
 O    11.0733900       6.39021015       7.35486984    
 O    11.0748501       6.39228010       9.93420029    
 O    12.1299295       8.22416973       1.02867997    
 O    12.1254997       8.21654034       3.18200994    
 O    12.1234903       8.21562958       5.27414989    
 O    12.1210499       8.21835995       7.37294006    
 O    12.1146002       8.21669006       9.91571045    
 O    10.0086203      0.912050009       1.00395000    
 O    10.0121603      0.914569974       3.18420005    
 O    10.0152903      0.913659990       5.27251005    
 O    10.0241804      0.912790000       7.36949015    
 O    10.0206099      0.909669995       9.91030979    
 O    11.0678701       2.73748994       1.01955998    
 O    11.0682402       2.73826003       3.18295002    
 O    11.0680504       2.73834991       5.27170992    
 O    11.0782700       2.71835995       7.37102985    
 O    11.0872602       2.71613002       9.91415024    
 O    12.1259203       4.56245995       1.01499999    
 O    12.1250401       4.56402016       3.18528008    
 O    12.1235399       4.56569004       5.26959991    
 O    12.1237698       4.56871986       7.35513020    
 O    12.1243095       4.56478024       9.91397953    
 O    13.1820803       6.38327980       1.02446997    
 O    13.1785202       6.39070988       3.18351007    
 O    13.1772900       6.39189005       5.27193022    
 O    13.1675396       6.39903021       7.35467005    
 O    13.1555500       6.39805984       9.91254997    
 O    14.2273798       8.22480011       1.01163995    
 O    14.2290497       8.21745968       3.18339992    
 O    14.2309904       8.21702003       5.26788998    
 O    14.2293797       8.22270966       7.35532999    
 O    14.2256699       8.22589016       9.92508984    
 O    6.74624014       3.55967999       10.8330097    
 O    6.60574007       5.26079988       10.7133999    
         260
 Energy:   117.58203570000001     
 X   0.00000000       0.00000000       0.00000000    
 X   10.5415001       0.00000000       0.00000000    
 X   5.27075005       9.12920666       0.00000000    
 X   0.00000000       0.00000000       28.5415001    
 X   15.8122501       9.12920666       0.00000000    
 X   10.5415001       0.00000000       28.5415001    
 X   5.27075005       9.12920666       28.5415001    
 X   15.8122501       9.12920666       28.5415001    
 Ni  -1.26000000E-02   8.53999984E-03 -0.791909993    
 Ni  -1.00100003E-02   2.49000010E-03   2.06370997    
 Ni  -4.90000006E-04  -1.49000005E-03   4.23518991    
 Ni   6.56000013E-03   4.49999992E-04   6.31753016    
 Ni   2.21800003E-02   2.56800000E-02   8.69620037    
 Ni   1.05136001       1.82494998     -0.803600013    
 Ni   1.05023003       1.82630002       2.06110001    
 Ni   1.05261004       1.82700002       4.23915005    
 Ni   1.05656004       1.81305003       6.33218002    
 Ni   1.05206001       1.78762996       8.64383030    
 Ni   2.10039997       3.64093995     -0.807319999    
 Ni   2.11107993       3.65212011       2.07211995    
 Ni   2.10931993       3.65328002       4.22854996    
 Ni   2.11050010       3.64696002       6.30053997    
 Ni   2.08999991       3.62992001       8.74328041    