       N       E                     dE             d eps       ncg     rms          rms(c)
DAV:   1     0.312280163090E+05    0.31228E+05   -0.90444E+05  9744   0.156E+03
DAV:   2     0.517042797652E+04   -0.26058E+05   -0.24152E+05 10060   0.569E+02
DAV:   3     0.534653592336E+03   -0.46358E+04   -0.42535E+04 11848   0.280E+02
DAV:   4     0.122610009545E+02   -0.52239E+03   -0.50068E+03 13896   0.983E+01
DAV:   5    -0.488580427505E+01   -0.17147E+02   -0.16994E+02 13216   0.192E+01    0.744E+02
DAV:   6    -0.382511333445E+03   -0.37763E+03   -0.11194E+03 16448   0.227E+02    0.677E+02
DAV:   7    -0.106127790181E+05   -0.10230E+05   -0.54287E+04 15343   0.799E+02    0.354E+03
DAV:   8    -0.118886111173E+05   -0.12758E+04   -0.23369E+04 15720   0.248E+02    0.299E+03
DAV:   9    -0.842555375518E+04    0.34631E+04   -0.33327E+03 14424   0.882E+01    0.233E+03
DAV:  10    -0.393195062581E+04    0.44936E+04   -0.52549E+02 16416   0.837E+01    0.174E+03
DAV:  11    -0.259564494441E+04    0.13363E+04   -0.13256E+03 14280   0.120E+02    0.141E+03
DAV:  12    -0.482997960495E+02    0.25473E+04   -0.47100E+04 17304   0.594E+02    0.228E+03
DAV:  13    -0.153805287392E+04   -0.14898E+04   -0.16447E+04 11248   0.197E+02    0.142E+03
DAV:  14    -0.749984918221E+03    0.78807E+03   -0.12575E+03 10800   0.170E+02    0.934E+02
DAV:  15    -0.191149225296E+04   -0.11615E+04   -0.49670E+03 11552   0.369E+02    0.118E+03
DAV:  16    -0.245421403621E+04   -0.54272E+03   -0.49676E+03 15016   0.949E+01    0.106E+03
DAV:  17    -0.297253732400E+03    0.21570E+04   -0.67631E+02 14648   0.150E+02    0.625E+02
DAV:  18     0.143573198430E+02    0.31161E+03   -0.12873E+03 13640   0.241E+02    0.622E+02
DAV:  19     0.101169954577E+03    0.86813E+02   -0.94166E+02 12144   0.123E+02    0.554E+02
DAV:  20     0.316805284125E+03    0.21564E+03   -0.54794E+02 10320   0.124E+02    0.351E+02
DAV:  21     0.336140136420E+03    0.19335E+02   -0.17457E+02 10608   0.866E+01    0.348E+02
DAV:  22     0.368934916874E+03    0.32795E+02   -0.15634E+02 10232   0.480E+01    0.309E+02
DAV:  23     0.356341378054E+03   -0.12594E+02   -0.58915E+01 10752   0.455E+01    0.324E+02
DAV:  24     0.379121479726E+03    0.22780E+02   -0.32853E+01 10784   0.323E+01    0.315E+02
DAV:  25     0.393943996117E+03    0.14823E+02   -0.28673E+01 10176   0.283E+01    0.311E+02
DAV:  26     0.403493537473E+03    0.95495E+01   -0.17835E+01 10216   0.215E+01    0.310E+02
DAV:  27     0.406492486739E+03    0.29989E+01   -0.16964E+01 10288   0.248E+01    0.312E+02
DAV:  28     0.416347878931E+03    0.98554E+01   -0.20374E+01 10896   0.241E+01    0.312E+02
DAV:  29     0.424635795136E+03    0.82879E+01   -0.26655E+01 10400   0.259E+01    0.309E+02
DAV:  30     0.428613581807E+03    0.39778E+01   -0.17925E+01 10272   0.198E+01    0.308E+02
DAV:  31     0.431770503063E+03    0.31569E+01   -0.10993E+01 10288   0.142E+01    0.305E+02
DAV:  32     0.433183046892E+03    0.14125E+01   -0.49150E+00 10160   0.921E+00    0.302E+02
DAV:  33     0.434391043606E+03    0.12080E+01   -0.40386E+00 10176   0.808E+00    0.300E+02
DAV:  34     0.437746874111E+03    0.33558E+01   -0.26578E+00 10344   0.775E+00    0.294E+02
DAV:  35     0.440356409609E+03    0.26095E+01   -0.31259E+00 10632   0.825E+00    0.290E+02
DAV:  36     0.443030218235E+03    0.26738E+01   -0.38781E+00 10680   0.957E+00    0.286E+02
DAV:  37     0.445814242933E+03    0.27840E+01   -0.42829E+00 10560   0.956E+00    0.282E+02
DAV:  38     0.446591645991E+03    0.77740E+00   -0.33010E+00 10656   0.668E+00    0.281E+02
DAV:  39     0.447235283330E+03    0.64364E+00   -0.20466E+00 10944   0.455E+00    0.281E+02
DAV:  40     0.447842944256E+03    0.60766E+00   -0.85897E-01 10232   0.333E+00    0.281E+02
DAV:  41     0.447743034905E+03   -0.99909E-01   -0.10107E+00 12168   0.394E+00    0.283E+02
DAV:  42     0.447324713686E+03   -0.41832E+00   -0.12073E+00 11664   0.391E+00    0.289E+02
DAV:  43     0.446479631841E+03   -0.84508E+00   -0.98645E-01 11368   0.378E+00    0.297E+02
DAV:  44     0.446273166879E+03   -0.20646E+00   -0.62696E-01 10632   0.223E+00    0.302E+02
DAV:  45     0.445269225528E+03   -0.10039E+01   -0.25246E-01 10616   0.181E+00    0.309E+02
DAV:  46     0.444875149650E+03   -0.39408E+00   -0.12320E-01 13056   0.707E-01    0.311E+02
DAV:  47     0.445013822355E+03    0.13867E+00   -0.16186E-02 10898   0.306E-01    0.310E+02
DAV:  48     0.444955293412E+03   -0.58529E-01   -0.16130E-02 15288   0.642E-01    0.311E+02
DAV:  49     0.444641317614E+03   -0.31398E+00   -0.30651E-02 11736   0.989E-01    0.313E+02
DAV:  50     0.444660259177E+03    0.18942E-01   -0.12422E-02 10408   0.214E-01    0.312E+02
DAV:  51     0.393903139681E+03   -0.50757E+02   -0.94298E+01 16729   0.563E+01    0.127E+02
DAV:  52     0.417805175210E+03    0.23902E+02   -0.56743E+01 10784   0.425E+01    0.109E+02
DAV:  53     0.426967621301E+03    0.91624E+01   -0.35362E+01 10384   0.395E+01    0.111E+02
DAV:  54     0.432795265474E+03    0.58276E+01   -0.12387E+01 10656   0.203E+01    0.107E+02
DAV:  55     0.436509304172E+03    0.37140E+01   -0.10020E+01 10368   0.166E+01    0.101E+02
DAV:  56     0.433074165935E+03   -0.34351E+01   -0.68619E+01 15064   0.414E+01    0.925E+01
DAV:  57     0.443818043230E+03    0.10744E+02   -0.76992E+01 10344   0.406E+01    0.738E+01
DAV:  58     0.444625782718E+03    0.80774E+00   -0.37796E+01 10272   0.322E+01    0.623E+01
DAV:  59     0.449828223687E+03    0.52024E+01   -0.17801E+01 10128   0.212E+01    0.537E+01
DAV:  60     0.452803266546E+03    0.29750E+01   -0.10713E+01 10208   0.193E+01
   1 F= 0.33681305E+03 E0= 0.33688573E+03  d E =0.336813E+03
       N       E                     dE             d eps       ncg     rms          rms(c)
DAV:   1     0.172510320538E+04    0.12753E+04   -0.85296E+04 13190   0.496E+02    0.894E+02
DAV:   2    -0.150638614677E+05   -0.16789E+05   -0.10666E+05 16725   0.107E+03    0.558E+03
DAV:   3    -0.162761243204E+05   -0.12123E+04   -0.47745E+04 16152   0.381E+02    0.331E+03
DAV:   4    -0.293533203028E+05   -0.13077E+05   -0.82692E+05 16784   0.114E+03    0.807E+03
DAV:   5    -0.294840499217E+05   -0.13073E+03   -0.96448E+04 14624   0.552E+02    0.356E+03
DAV:   6    -0.314244207336E+04    0.26342E+05   -0.20698E+04 12644   0.395E+02    0.153E+03
DAV:   7    -0.413520438606E+04   -0.99276E+03   -0.12946E+04 12608   0.164E+02    0.115E+03
DAV:   8    -0.168150544151E+04    0.24537E+04   -0.12812E+04 13640   0.115E+02    0.117E+03
DAV:   9    -0.227535248755E+03    0.14540E+04   -0.95887E+03 12280   0.326E+02    0.751E+02
DAV:  10    -0.185991364367E+04   -0.16324E+04   -0.60386E+03 13928   0.225E+02    0.767E+02
DAV:  11    -0.142221366849E+04    0.43770E+03   -0.91996E+02 10768   0.117E+02    0.666E+02
DAV:  12    -0.135025037958E+04    0.71963E+02   -0.39099E+02 10400   0.632E+01    0.533E+02
DAV:  13    -0.163086390717E+04   -0.28061E+03   -0.54543E+02 12104   0.143E+02    0.421E+02
DAV:  14    -0.633871286838E+03    0.99699E+03   -0.42263E+02 11232   0.113E+02    0.346E+02
DAV:  15    -0.485323495958E+03    0.14855E+03   -0.54125E+02 12464   0.852E+01    0.289E+02
DAV:  16    -0.448541841449E+03    0.36782E+02   -0.13907E+02 10368   0.826E+01    0.288E+02
DAV:  17    -0.342238382685E+03    0.10630E+03   -0.19581E+02 13040   0.560E+01    0.286E+02
DAV:  18    -0.334051047890E+03    0.81873E+01   -0.83407E+01 10784   0.468E+01    0.275E+02
DAV:  19    -0.290945410708E+03    0.43106E+02   -0.53202E+01 10320   0.369E+01    0.271E+02
DAV:  20    -0.295923276689E+03   -0.49779E+01   -0.49316E+01 11968   0.324E+01    0.267E+02
DAV:  21    -0.227379521066E+03    0.68544E+02   -0.40143E+01 11256   0.318E+01    0.257E+02
DAV:  22    -0.160071300320E+03    0.67308E+02   -0.38566E+01 10928   0.380E+01    0.253E+02
DAV:  23    -0.997767001633E+02    0.60295E+02   -0.59839E+01 11464   0.420E+01    0.250E+02
DAV:  24    -0.539698703540E+02    0.45807E+02   -0.49118E+01 11248   0.268E+01    0.248E+02
DAV:  25    -0.159849703615E+02    0.37985E+02   -0.34465E+01 11352   0.262E+01    0.247E+02
DAV:  26    -0.262594049377E+01    0.13359E+02   -0.20363E+01 11408   0.144E+01    0.246E+02
DAV:  27    -0.259811365698E+01    0.27827E-01   -0.86066E+00 11480   0.501E+00    0.245E+02
DAV:  28     0.215873791552E+02    0.24185E+02   -0.73577E+00 12776   0.125E+01    0.241E+02
DAV:  29     0.431079962752E+02    0.21521E+02   -0.46682E+01 15472   0.385E+01    0.231E+02
DAV:  30     0.666302114516E+02    0.23522E+02   -0.33633E+01 13520   0.281E+01    0.228E+02
DAV:  31     0.709123731107E+02    0.42822E+01   -0.17022E+01 11760   0.156E+01    0.228E+02
DAV:  32     0.693433889607E+02   -0.15690E+01   -0.14253E+01 11424   0.184E+01    0.226E+02
DAV:  33     0.720531912842E+02    0.27098E+01   -0.83152E+00 10968   0.158E+01    0.223E+02
DAV:  34     0.685467766342E+02   -0.35064E+01   -0.18995E+01 12208   0.224E+01    0.219E+02
DAV:  35     0.693346073977E+02    0.78783E+00   -0.15151E+01 11200   0.205E+01    0.213E+02
DAV:  36     0.723168715611E+02    0.29823E+01   -0.11815E+01 10824   0.163E+01    0.210E+02
DAV:  37     0.752450506268E+02    0.29282E+01   -0.78732E+00 10656   0.142E+01    0.206E+02
DAV:  38     0.745503902445E+02   -0.69466E+00   -0.70370E+00 10704   0.130E+01    0.204E+02
DAV:  39     0.754538648739E+02    0.90347E+00   -0.50172E+00 10736   0.106E+01    0.202E+02
DAV:  40     0.764454174740E+02    0.99155E+00   -0.32816E+00 10616   0.794E+00    0.201E+02
DAV:  41     0.773805410517E+02    0.93512E+00   -0.34285E+00 10944   0.779E+00    0.201E+02
DAV:  42     0.781712981057E+02    0.79076E+00   -0.38830E+00 10728   0.892E+00    0.199E+02
DAV:  43     0.774752248107E+02   -0.69607E+00   -0.36417E+00 11424   0.103E+01    0.199E+02
DAV:  44     0.788991508135E+02    0.14239E+01   -0.23356E+00 11104   0.716E+00    0.199E+02
DAV:  45     0.806195816230E+02    0.17204E+01   -0.17464E+00 10600   0.493E+00    0.199E+02
DAV:  46     0.809281247719E+02    0.30854E+00   -0.14743E+00 10840   0.464E+00    0.198E+02
DAV:  47    -0.441185984684E+03   -0.52211E+03   -0.21649E+02 18376   0.156E+02    0.341E+02
DAV:  48    -0.121932121385E+03    0.31925E+03   -0.15854E+02 17912   0.931E+01    0.215E+02
DAV:  49    -0.859106722060E+02    0.36021E+02   -0.10054E+02 16040   0.651E+01    0.206E+02
DAV:  50    -0.737162559396E+02    0.12194E+02   -0.11927E+02 13016   0.781E+01    0.201E+02
DAV:  51    -0.302932296502E+02    0.43423E+02   -0.87233E+01 11808   0.664E+01    0.181E+02
DAV:  52    -0.282526158737E+03   -0.25223E+03   -0.23992E+02 12832   0.139E+02    0.238E+02
DAV:  53    -0.677585554202E+02    0.21477E+03   -0.19866E+02 10458   0.108E+02    0.172E+02
DAV:  54    -0.150602895683E+02    0.52698E+02   -0.91196E+01 10112   0.589E+01    0.163E+02
DAV:  55    -0.477159569585E+02   -0.32656E+02   -0.91598E+01 10440   0.541E+01    0.175E+02
DAV:  56    -0.277561272411E+02    0.19960E+02   -0.60860E+01 10056   0.466E+01    0.172E+02
DAV:  57    -0.105888520556E+03   -0.78132E+02   -0.93386E+01 12800   0.770E+01    0.218E+02
DAV:  58    -0.125061760852E+02    0.93382E+02   -0.36168E+01 10256   0.322E+01    0.182E+02
DAV:  59     0.206458814582E+01    0.14571E+02   -0.23811E+01 10176   0.237E+01    0.171E+02
DAV:  60     0.294899140485E+01    0.88440E+00   -0.29579E+01 10256   0.284E+01
   2 F= -.10773128E+03 E0= -.10766276E+03  d E =-.444544E+03
       N       E                     dE             d eps       ncg     rms          rms(c)
DAV:   1     0.219874912431E+03    0.21781E+03   -0.32340E+04  9814   0.238E+02    0.435E+02
DAV:   2    -0.703402814177E+04   -0.72539E+04   -0.28726E+04 15372   0.681E+02    0.360E+03
DAV:   3    -0.455571019184E+04    0.24783E+04   -0.16035E+04 14256   0.265E+02    0.147E+03
DAV:   4    -0.702667982226E+04   -0.24710E+04   -0.14562E+05 18064   0.801E+02    0.384E+03
DAV:   5    -0.113963651252E+05   -0.43697E+04   -0.42434E+04 14652   0.330E+02    0.245E+03
DAV:   6    -0.647217426513E+04    0.49242E+04   -0.37928E+03 12022   0.143E+02    0.144E+03
DAV:   7    -0.477168703127E+04    0.17005E+04   -0.13589E+03 12152   0.871E+01    0.119E+03
DAV:   8    -0.235691695546E+04    0.24148E+04   -0.55329E+03 15696   0.164E+02    0.688E+02
DAV:   9    -0.688184267282E+03    0.16687E+04   -0.27842E+03 17552   0.144E+02    0.499E+02
DAV:  10    -0.430859952248E+03    0.25732E+03   -0.17926E+03 13248   0.120E+02    0.317E+02
DAV:  11    -0.256779029743E+03    0.17408E+03   -0.73022E+02 12504   0.643E+01    0.205E+02
DAV:  12    -0.243095233227E+03    0.13684E+02   -0.43186E+02 11144   0.982E+01    0.230E+02
DAV:  13    -0.152345040239E+03    0.90750E+02   -0.27352E+02 10392   0.557E+01    0.197E+02
DAV:  14    -0.124114738361E+03    0.28230E+02   -0.18866E+02 10288   0.710E+01    0.206E+02
DAV:  15    -0.803205234413E+02    0.43794E+02   -0.10468E+02 10880   0.540E+01    0.188E+02
DAV:  16    -0.332838801076E+02    0.47037E+02   -0.72390E+01 11320   0.424E+01    0.184E+02
DAV:  17    -0.257561589847E+02    0.75277E+01   -0.33147E+01 10464   0.348E+01    0.178E+02
DAV:  18    -0.504805806284E+02   -0.24724E+02   -0.49632E+01 12456   0.385E+01    0.181E+02
DAV:  19    -0.155572464359E+02    0.34923E+02   -0.39183E+01 11248   0.325E+01    0.173E+02
DAV:  20    -0.157448702753E+02   -0.18762E+00   -0.36867E+01 10768   0.345E+01    0.170E+02
DAV:  21    -0.207941121561E+01    0.13665E+02   -0.33465E+01 10664   0.306E+01    0.160E+02
DAV:  22     0.804407407623E+01    0.10123E+02   -0.41671E+01 10624   0.335E+01    0.162E+02
DAV:  23     0.364506342541E+01   -0.43990E+01   -0.31422E+01 11064   0.296E+01    0.152E+02
DAV:  24     0.147573501742E+02    0.11112E+02   -0.32297E+01 10864   0.310E+01    0.148E+02
DAV:  25     0.216658495925E+02    0.69085E+01   -0.22438E+01 10624   0.203E+01    0.144E+02
DAV:  26     0.190735021317E+02   -0.25923E+01   -0.21661E+01 11664   0.224E+01    0.148E+02
DAV:  27     0.119810086810E+02   -0.70925E+01   -0.17466E+01 11024   0.189E+01    0.150E+02
DAV:  28     0.232720705746E+02    0.11291E+02   -0.12485E+01 11080   0.174E+01    0.140E+02
DAV:  29     0.261580968853E+02    0.28860E+01   -0.86169E+00 10728   0.138E+01    0.138E+02
DAV:  30     0.253524166546E+02   -0.80568E+00   -0.50647E+00 10920   0.121E+01    0.139E+02
DAV:  31     0.255091600367E+02    0.15674E+00   -0.61209E+00 11256   0.985E+00    0.137E+02
DAV:  32     0.268561718133E+02    0.13470E+01   -0.39475E+00 10344   0.754E+00    0.135E+02
DAV:  33     0.277856043116E+02    0.92943E+00   -0.18267E+00 10536   0.522E+00    0.133E+02
DAV:  34     0.277073603654E+02   -0.78244E-01   -0.11089E+00 10496   0.429E+00    0.132E+02
DAV:  35     0.280769819352E+02    0.36962E+00   -0.25449E+00 10688   0.611E+00    0.129E+02
DAV:  36     0.275556532922E+02   -0.52133E+00   -0.41061E+00 10984   0.850E+00    0.125E+02
DAV:  37     0.285754262130E+02    0.10198E+01   -0.22110E+00 10872   0.623E+00    0.123E+02
DAV:  38     0.294018871682E+02    0.82646E+00   -0.12319E+00 10560   0.490E+00    0.120E+02
DAV:  39     0.293598024985E+02   -0.42085E-01   -0.99123E-01 11704   0.431E+00    0.119E+02
DAV:  40     0.299332042774E+02    0.57340E+00   -0.91682E-01 10376   0.284E+00    0.118E+02
DAV:  41     0.303004244757E+02    0.36722E+00   -0.28049E-01 10264   0.249E+00    0.117E+02
DAV:  42     0.310623985738E+02    0.76197E+00   -0.47428E-01 12056   0.344E+00    0.115E+02
DAV:  43     0.314217234696E+02    0.35932E+00   -0.43819E-01 10520   0.254E+00    0.113E+02
DAV:  44     0.319227055530E+02    0.50098E+00   -0.31891E-01 10864   0.243E+00    0.112E+02
DAV:  45     0.322042723587E+02    0.28157E+00   -0.40596E-01 11296   0.253E+00    0.110E+02
DAV:  46     0.325875319121E+02    0.38326E+00   -0.19475E-01 10560   0.168E+00    0.108E+02
DAV:  47    -0.164798408396E+03   -0.19739E+03   -0.97169E+01 17032   0.837E+01    0.208E+02
DAV:  48    -0.102795103627E+03    0.62003E+02   -0.41300E+01 17840   0.324E+01    0.146E+02
DAV:  49    -0.867914804136E+02    0.16004E+02   -0.37337E+01 14248   0.397E+01    0.135E+02
DAV:  50    -0.403972330708E+02    0.46394E+02   -0.29510E+01 13224   0.411E+01    0.113E+02
DAV:  51    -0.821001024684E+01    0.32187E+02   -0.26188E+01 13736   0.389E+01    0.914E+01
DAV:  52    -0.129412644573E+03   -0.12120E+03   -0.73445E+01 12432   0.723E+01    0.136E+02
DAV:  53    -0.980296601555E+02    0.31383E+02   -0.40386E+01 12872   0.407E+01    0.117E+02
DAV:  54    -0.620514406534E+02    0.35978E+02   -0.28655E+01 11552   0.361E+01    0.976E+01
DAV:  55    -0.447722927304E+02    0.17279E+02   -0.22049E+01 11296   0.300E+01    0.899E+01
DAV:  56    -0.340062705749E+02    0.10766E+02   -0.21245E+01 11296   0.271E+01    0.864E+01
DAV:  57    -0.217613973729E+02    0.12245E+02   -0.36608E+01 13296   0.372E+01    0.848E+01
DAV:  58    -0.607919774763E+01    0.15682E+02   -0.33291E+01 11648   0.318E+01    0.753E+01
DAV:  59    -0.247186738625E+01    0.36073E+01   -0.27056E+01 11184   0.265E+01    0.645E+01
DAV:  60     0.921154573327E+01    0.11683E+02   -0.13507E+01 10696   0.217E+01
   3 F= -.99158945E+02 E0= -.99068266E+02  d E =-.435972E+03
       N       E                     dE             d eps       ncg     rms          rms(c)
DAV:   1     0.148341608387E+04    0.14859E+04   -0.96585E+04 13078   0.474E+02    0.807E+02
DAV:   2    -0.851515533006E+04   -0.99986E+04   -0.48230E+04 16028   0.839E+02    0.408E+03
DAV:   3    -0.125227173029E+05   -0.40076E+04   -0.36133E+04 16416   0.313E+02    0.257E+03
DAV:   4    -0.335550055256E+05   -0.21032E+05   -0.72791E+05 16888   0.119E+03    0.762E+03
DAV:   5    -0.345844872423E+05   -0.10295E+04   -0.87703E+04 15023   0.559E+02    0.381E+03
DAV:   6    -0.584712753216E+04    0.28737E+05   -0.27843E+04 12325   0.474E+02    0.173E+03
DAV:   7    -0.736419661057E+04   -0.15171E+04   -0.15950E+04 12960   0.186E+02    0.124E+03
DAV:   8    -0.104240872843E+04    0.63218E+04   -0.13394E+04 14256   0.147E+02    0.153E+03
DAV:   9    -0.422556346592E+03    0.61985E+03   -0.78262E+03 12440   0.272E+02    0.615E+02
DAV:  10    -0.810232510012E+03   -0.38768E+03   -0.34824E+03 12040   0.161E+02    0.509E+02
DAV:  11    -0.613883708793E+03    0.19635E+03   -0.13521E+03 10144   0.118E+02    0.328E+02
DAV:  12    -0.874019398325E+03   -0.26014E+03   -0.60713E+02 10904   0.167E+02    0.331E+02
DAV:  13    -0.475638283159E+03    0.39838E+03   -0.41190E+02 11720   0.766E+01    0.255E+02
DAV:  14    -0.298827926642E+03    0.17681E+03   -0.34899E+02 10776   0.932E+01    0.191E+02
DAV:  15    -0.213707011759E+03    0.85121E+02   -0.18233E+02 10504   0.911E+01    0.158E+02
DAV:  16    -0.186228713545E+03    0.27478E+02   -0.15533E+02 11072   0.627E+01    0.174E+02
DAV:  17    -0.168734011385E+03    0.17495E+02   -0.11064E+02 10472   0.490E+01    0.160E+02
DAV:  18    -0.137264935786E+03    0.31469E+02   -0.59211E+01 11696   0.336E+01    0.155E+02
DAV:  19    -0.127271138471E+03    0.99938E+01   -0.37793E+01 10504   0.345E+01    0.147E+02
DAV:  20    -0.113600735868E+03    0.13670E+02   -0.28414E+01 12376   0.207E+01    0.140E+02
DAV:  21    -0.102284534428E+03    0.11316E+02   -0.17873E+01 10424   0.216E+01    0.136E+02
DAV:  22    -0.889386122194E+02    0.13346E+02   -0.18208E+01 11216   0.243E+01    0.134E+02
DAV:  23    -0.714552121842E+02    0.17483E+02   -0.28111E+01 11104   0.229E+01    0.124E+02
DAV:  24    -0.507137463619E+02    0.20741E+02   -0.26876E+01 11480   0.251E+01    0.115E+02
DAV:  25    -0.362970015239E+02    0.14417E+02   -0.25466E+01 10872   0.213E+01    0.107E+02
DAV:  26    -0.456056229975E+02   -0.93086E+01   -0.69654E+01 14464   0.333E+01    0.115E+02
DAV:  27    -0.257021683226E+02    0.19903E+02   -0.22909E+01 11528   0.196E+01    0.890E+01
DAV:  28    -0.258637167565E+02   -0.16155E+00   -0.15004E+01 10856   0.160E+01    0.873E+01
DAV:  29    -0.219556984412E+02    0.39080E+01   -0.85518E+00 10464   0.975E+00    0.836E+01
DAV:  30    -0.276028458746E+02   -0.56471E+01   -0.70029E+00 11800   0.129E+01    0.928E+01
DAV:  31    -0.296959283114E+02   -0.20931E+01   -0.74119E+00 12104   0.134E+01    0.939E+01
DAV:  32    -0.291303879386E+02    0.56554E+00   -0.72770E+00 11888   0.115E+01    0.908E+01
DAV:  33    -0.281863083905E+02    0.94408E+00   -0.78850E+00 11208   0.125E+01    0.876E+01
DAV:  34    -0.223906672066E+02    0.57956E+01   -0.67095E+00 10968   0.109E+01    0.757E+01
DAV:  35    -0.220528634530E+02    0.33780E+00   -0.75919E+00 10920   0.120E+01    0.742E+01
DAV:  36    -0.210136932391E+02    0.10392E+01   -0.88019E+00 10944   0.125E+01    0.679E+01
DAV:  37    -0.230068858853E+02   -0.19932E+01   -0.80536E+00 11416   0.121E+01    0.673E+01
DAV:  38    -0.207747467849E+02    0.22321E+01   -0.58610E+00 11768   0.954E+00    0.592E+01
DAV:  39    -0.210470799124E+02   -0.27233E+00   -0.28321E+00 11352   0.755E+00    0.601E+01
DAV:  40    -0.207764722761E+02    0.27061E+00   -0.22843E+00 10664   0.588E+00    0.602E+01
DAV:  41    -0.191039627460E+02    0.16725E+01   -0.19871E+00 10497   0.403E+00    0.563E+01
DAV:  42    -0.188332035271E+02    0.27076E+00   -0.68081E-01 10640   0.301E+00    0.555E+01
DAV:  43    -0.185796981570E+02    0.25351E+00   -0.55110E-01 11545   0.317E+00    0.547E+01
DAV:  44    -0.183910067566E+02    0.18869E+00   -0.10636E+00 10992   0.378E+00    0.539E+01
DAV:  45    -0.183172665616E+02    0.73740E-01   -0.10045E+00 10792   0.360E+00    0.527E+01
DAV:  46    -0.185179664041E+02   -0.20070E+00   -0.12300E+00 10840   0.400E+00    0.523E+01
DAV:  47    -0.846349546923E+02   -0.66117E+02   -0.37588E+01 15680   0.435E+01    0.101E+02
DAV:  48    -0.658392720786E+02    0.18796E+02   -0.28661E+01 15648   0.404E+01    0.103E+02
DAV:  49    -0.562833345258E+02    0.95559E+01   -0.36453E+01 13472   0.324E+01    0.930E+01
DAV:  50    -0.361882503699E+02    0.20095E+02   -0.28263E+01 12456   0.251E+01    0.619E+01
DAV:  51    -0.331083714818E+02    0.30799E+01   -0.23377E+01 12192   0.259E+01    0.685E+01
DAV:  52    -0.399333173623E+02   -0.68249E+01   -0.28492E+01 13032   0.258E+01    0.732E+01
DAV:  53    -0.367794343387E+02    0.31539E+01   -0.20414E+01 11152   0.213E+01    0.638E+01
DAV:  54    -0.321194065847E+02    0.46600E+01   -0.91381E+00 11224   0.167E+01    0.598E+01
DAV:  55    -0.299694132470E+02    0.21500E+01   -0.87394E+00 11112   0.152E+01    0.549E+01
DAV:  56    -0.276424678899E+02    0.23269E+01   -0.52192E+00 11008   0.123E+01    0.468E+01
DAV:  57    -0.241288304073E+02    0.35136E+01   -0.67035E+00 11872   0.169E+01    0.547E+01
DAV:  58    -0.225571999797E+02    0.15716E+01   -0.10773E+01 11832   0.147E+01    0.455E+01
DAV:  59    -0.214310746929E+02    0.11261E+01   -0.65914E+00 12200   0.137E+01    0.392E+01
DAV:  60    -0.202109220130E+02    0.12202E+01   -0.99325E+00 11712   0.142E+01
   4 F= -.12463132E+03 E0= -.12450895E+03  d E =-.461444E+03
       N       E                     dE             d eps       ncg     rms          rms(c)
DAV:   1     0.165132452209E+04    0.16728E+04   -0.13815E+05 10168   0.644E+02    0.912E+02
DAV:   2    -0.117906691269E+05   -0.13442E+05   -0.75030E+04 14808   0.929E+02    0.468E+03
DAV:   3    -0.149919197968E+05   -0.32013E+04   -0.45681E+04 16600   0.347E+02    0.277E+03
DAV:   4    -0.439304133745E+05   -0.28938E+05   -0.10210E+06 16736   0.121E+03    0.840E+03
DAV:   5    -0.423994828305E+05    0.15309E+04   -0.97874E+04 15392   0.596E+02    0.408E+03
DAV:   6    -0.115667669067E+05    0.30833E+05   -0.10124E+04 12036   0.416E+02    0.210E+03
DAV:   7    -0.888141036773E+04    0.26854E+04   -0.11100E+04 12720   0.146E+02    0.103E+03
DAV:   8    -0.516163563495E+04    0.37198E+04   -0.95066E+03 13008   0.148E+02    0.860E+02
DAV:   9    -0.140257073556E+04    0.37591E+04   -0.45877E+04 15672   0.186E+02    0.210E+03
DAV:  10    -0.171761758716E+04   -0.31505E+03   -0.13665E+04 11384   0.306E+02    0.696E+02
DAV:  11    -0.157203351648E+04    0.14558E+03   -0.39626E+03 10288   0.211E+02    0.488E+02
DAV:  12    -0.145588770039E+04    0.11615E+03   -0.98198E+02 10248   0.208E+02    0.376E+02
DAV:  13    -0.945960967467E+03    0.50993E+03   -0.78724E+02 10848   0.134E+02    0.326E+02
DAV:  14    -0.693672076988E+03    0.25229E+03   -0.29879E+02 10000   0.101E+02    0.271E+02
DAV:  15    -0.562405648606E+03    0.13127E+03   -0.36238E+02 12352   0.576E+01    0.256E+02
DAV:  16    -0.504598509502E+03    0.57807E+02   -0.15473E+02 10584   0.553E+01    0.244E+02
DAV:  17    -0.457264467178E+03    0.47334E+02   -0.98270E+01 10952   0.363E+01    0.233E+02
DAV:  18    -0.445199766021E+03    0.12065E+02   -0.64683E+01 10776   0.338E+01    0.234E+02
DAV:  19    -0.425958421294E+03    0.19241E+02   -0.44772E+01 10496   0.281E+01    0.232E+02
DAV:  20    -0.402736335635E+03    0.23222E+02   -0.51384E+01 11648   0.289E+01    0.221E+02
DAV:  21    -0.420540093698E+03   -0.17804E+02   -0.62850E+01 11216   0.393E+01    0.224E+02
DAV:  22    -0.375953698800E+03    0.44586E+02   -0.49600E+01 11088   0.289E+01    0.212E+02
DAV:  23    -0.359240156929E+03    0.16714E+02   -0.49384E+01 10664   0.284E+01    0.202E+02
DAV:  24    -0.352672187793E+03    0.65680E+01   -0.45916E+01 11368   0.257E+01    0.196E+02
DAV:  25    -0.357205490503E+03   -0.45333E+01   -0.44228E+01 11760   0.239E+01    0.189E+02
DAV:  26    -0.351053848807E+03    0.61516E+01   -0.25541E+01 11096   0.193E+01    0.183E+02
DAV:  27    -0.349157903077E+03    0.18959E+01   -0.16848E+01 10600   0.171E+01    0.181E+02
DAV:  28    -0.345575706397E+03    0.35822E+01   -0.13122E+01 10704   0.158E+01    0.177E+02
DAV:  29    -0.342663707844E+03    0.29120E+01   -0.17637E+01 10736   0.167E+01    0.173E+02
DAV:  30    -0.343770562329E+03   -0.11069E+01   -0.16168E+01 11136   0.176E+01    0.168E+02
DAV:  31    -0.339533336561E+03    0.42372E+01   -0.15523E+01 10800   0.163E+01    0.159E+02
DAV:  32    -0.339556386181E+03   -0.23050E-01   -0.11574E+01 11240   0.125E+01    0.155E+02
DAV:  33    -0.339214048526E+03    0.34234E+00   -0.96343E+00 11376   0.129E+01    0.151E+02
DAV:  34    -0.338824637431E+03    0.38941E+00   -0.12526E+01 11368   0.143E+01    0.144E+02
DAV:  35    -0.337469433808E+03    0.13552E+01   -0.10829E+01 11264   0.139E+01    0.137E+02
DAV:  36    -0.335605380021E+03    0.18641E+01   -0.39624E+00 11144   0.945E+00    0.133E+02
DAV:  37    -0.335003062739E+03    0.60232E+00   -0.30025E+00 10320   0.740E+00    0.130E+02
DAV:  38    -0.333859859439E+03    0.11432E+01   -0.35380E+00 10496   0.739E+00    0.127E+02
DAV:  39    -0.332343900574E+03    0.15160E+01   -0.28031E+00 10424   0.766E+00    0.124E+02
DAV:  40    -0.330068740390E+03    0.22752E+01   -0.34434E+00 10560   0.749E+00    0.121E+02
DAV:  41    -0.328432163645E+03    0.16366E+01   -0.49440E+00 10912   0.872E+00    0.118E+02
DAV:  42    -0.325890729170E+03    0.25414E+01   -0.29560E+00 10792   0.847E+00    0.113E+02
DAV:  43    -0.324488069196E+03    0.14027E+01   -0.24637E+00 10768   0.555E+00    0.112E+02
DAV:  44    -0.323470085029E+03    0.10180E+01   -0.19317E+00 11528   0.454E+00    0.110E+02
DAV:  45    -0.322556963363E+03    0.91312E+00   -0.11410E+00 10784   0.369E+00    0.108E+02
DAV:  46    -0.322145411595E+03    0.41155E+00   -0.66158E-01 10608   0.361E+00    0.107E+02
DAV:  47    -0.510648925149E+03   -0.18850E+03   -0.10037E+02 14472   0.741E+01    0.199E+02
DAV:  48    -0.360657420457E+03    0.14999E+03   -0.54540E+01 12912   0.645E+01    0.112E+02
DAV:  49    -0.342737033047E+03    0.17920E+02   -0.23386E+01 11832   0.382E+01    0.104E+02
DAV:  50    -0.357840655429E+03   -0.15104E+02   -0.37538E+01 11865   0.394E+01    0.108E+02
DAV:  51    -0.354442055987E+03    0.33986E+01   -0.26027E+01 10960   0.339E+01    0.980E+01
DAV:  52    -0.408970211104E+03   -0.54528E+02   -0.85674E+01 11042   0.784E+01    0.144E+02
DAV:  53    -0.417326651989E+03   -0.83564E+01   -0.60829E+01 11880   0.566E+01    0.141E+02
DAV:  54    -0.403948611499E+03    0.13378E+02   -0.48615E+01 11224   0.449E+01    0.125E+02
DAV:  55    -0.397528393126E+03    0.64202E+01   -0.34172E+01 10384   0.372E+01    0.120E+02
DAV:  56    -0.396502957804E+03    0.10254E+01   -0.25375E+01 10760   0.265E+01    0.115E+02
DAV:  57    -0.426234301989E+03   -0.29731E+02   -0.30285E+01 10968   0.341E+01    0.137E+02
DAV:  58    -0.409187135750E+03    0.17047E+02   -0.23932E+01 11211   0.241E+01    0.128E+02
DAV:  59    -0.405980237164E+03    0.32069E+01   -0.25014E+01 10672   0.336E+01    0.122E+02
DAV:  60    -0.408475064055E+03   -0.24948E+01   -0.28761E+01 11064   0.382E+01
   5 F= -.50787449E+03 E0= -.50776661E+03  d E =-.383243E+03
       N       E                     dE             d eps       ncg     rms          rms(c)
DAV:   1    -0.384589147025E+03    0.21391E+02   -0.51374E+03  9808   0.100E+02    0.106E+02
DAV:   2    -0.454732715684E+04   -0.41627E+04   -0.32517E+03 13466   0.518E+02    0.972E+02
DAV:   3    -0.136505310246E+04    0.31823E+04   -0.27170E+03 13040   0.171E+02    0.496E+02
DAV:   4    -0.866911890674E+03    0.49814E+03   -0.68406E+02 13480   0.117E+02    0.321E+02
DAV:   5    -0.688889630478E+03    0.17802E+03   -0.45428E+02 11232   0.101E+02    0.241E+02
DAV:   6    -0.614458179643E+03    0.74431E+02   -0.13673E+02 10736   0.126E+02    0.203E+02
DAV:   7    -0.451466225907E+03    0.16299E+03   -0.20683E+02 10408   0.706E+01    0.142E+02
DAV:   8    -0.418186943028E+03    0.33279E+02   -0.12292E+02 10400   0.490E+01    0.114E+02
DAV:   9    -0.406269563552E+03    0.11917E+02   -0.93970E+01 11568   0.434E+01    0.913E+01
DAV:  10    -0.376671330575E+03    0.29598E+02   -0.64395E+01 11200   0.457E+01    0.757E+01
DAV:  11    -0.380200619672E+03   -0.35293E+01   -0.51548E+01 10856   0.382E+01    0.874E+01
DAV:  12    -0.373971814827E+03    0.62288E+01   -0.43857E+01 10800   0.332E+01    0.716E+01
DAV:  13    -0.358582865356E+03    0.15389E+02   -0.25173E+01 10360   0.238E+01    0.483E+01
DAV:  14    -0.354637141723E+03    0.39457E+01   -0.15306E+01 10680   0.164E+01    0.467E+01
DAV:  15    -0.355313781800E+03   -0.67664E+00   -0.14384E+01 10720   0.137E+01    0.499E+01
DAV:  16    -0.354367861143E+03    0.94592E+00   -0.12742E+01 11184   0.141E+01    0.461E+01
DAV:  17    -0.351903081612E+03    0.24648E+01   -0.84912E+00 10616   0.122E+01    0.447E+01
DAV:  18    -0.349132103658E+03    0.27710E+01   -0.63743E+00 10640   0.902E+00    0.335E+01
DAV:  19    -0.350875474955E+03   -0.17434E+01   -0.60528E+00 11392   0.105E+01    0.451E+01
DAV:  20    -0.349701924983E+03    0.11735E+01   -0.56528E+00 10976   0.904E+00    0.382E+01
DAV:  21    -0.349076644143E+03    0.62528E+00   -0.39485E+00 11064   0.881E+00    0.362E+01
DAV:  22    -0.350280386241E+03   -0.12037E+01   -0.51045E+00 11528   0.886E+00    0.389E+01
DAV:  23    -0.353159116334E+03   -0.28787E+01   -0.57690E+00 11328   0.984E+00    0.532E+01
DAV:  24    -0.349400777802E+03    0.37583E+01   -0.31998E+00 11432   0.699E+00    0.357E+01
DAV:  25    -0.349377114588E+03    0.23663E-01   -0.18981E+00 10736   0.684E+00    0.381E+01
DAV:  26    -0.353698094942E+03   -0.43210E+01   -0.39318E+00 11488   0.111E+01    0.571E+01
DAV:  27    -0.353487480310E+03    0.21061E+00   -0.54637E+00 11288   0.101E+01    0.541E+01
DAV:  28    -0.352006125175E+03    0.14814E+01   -0.52488E+00 12032   0.936E+00    0.491E+01
DAV:  29    -0.349140673472E+03    0.28655E+01   -0.28879E+00 11416   0.709E+00    0.347E+01
DAV:  30    -0.348569263043E+03    0.57141E+00   -0.31588E+00 11256   0.810E+00    0.319E+01
DAV:  31    -0.347396452340E+03    0.11728E+01   -0.32483E+00 11600   0.686E+00    0.283E+01
DAV:  32    -0.346724924664E+03    0.67153E+00   -0.12707E+00 11056   0.558E+00    0.247E+01
DAV:  33    -0.346402205900E+03    0.32272E+00   -0.70581E-01 10976   0.411E+00    0.225E+01
DAV:  34    -0.346292836205E+03    0.10937E+00   -0.24911E-01 11016   0.261E+00    0.225E+01
DAV:  35    -0.346589109849E+03   -0.29627E+00   -0.39323E-01 11040   0.333E+00    0.251E+01
DAV:  36    -0.346255303036E+03    0.33381E+00   -0.48126E-01 10800   0.264E+00    0.223E+01
DAV:  37    -0.346081687777E+03    0.17362E+00   -0.16587E-01 10856   0.183E+00    0.214E+01
DAV:  38    -0.346001504393E+03    0.80183E-01   -0.64785E-02 10632   0.101E+00    0.210E+01
DAV:  39    -0.346092106367E+03   -0.90602E-01   -0.12678E-01 10808   0.155E+00    0.217E+01
DAV:  40    -0.346189590222E+03   -0.97484E-01   -0.39338E-01 10776   0.230E+00    0.224E+01
DAV:  41    -0.345714403987E+03    0.47519E+00   -0.37620E-01 10816   0.218E+00    0.192E+01
DAV:  42    -0.345589994041E+03    0.12441E+00   -0.26370E-01 11360   0.239E+00    0.190E+01
DAV:  43    -0.345370568444E+03    0.21943E+00   -0.24930E-01 10864   0.165E+00    0.168E+01
DAV:  44    -0.345243223347E+03    0.12735E+00   -0.76108E-02 10992   0.101E+00    0.157E+01
DAV:  45    -0.345204845585E+03    0.38378E-01   -0.27966E-02 10152   0.537E-01    0.153E+01
DAV:  46    -0.345196734350E+03    0.81112E-02   -0.13709E-02 10112   0.501E-01    0.150E+01
DAV:  47    -0.347542636525E+03   -0.23459E+01   -0.47506E+00 13312   0.111E+01    0.265E+01
DAV:  48    -0.346880170067E+03    0.66247E+00   -0.33758E+00 11992   0.107E+01    0.257E+01
DAV:  49    -0.345769100603E+03    0.11111E+01   -0.11732E+00 11768   0.623E+00    0.211E+01
DAV:  50    -0.345741920411E+03    0.27180E-01   -0.82467E-01 11568   0.452E+00    0.204E+01
DAV:  51    -0.345464905514E+03    0.27701E+00   -0.44653E-01 11272   0.372E+00    0.177E+01
DAV:  52    -0.345632551216E+03   -0.16765E+00   -0.11449E+00 11626   0.587E+00    0.190E+01
DAV:  53    -0.344957553475E+03    0.67500E+00   -0.10288E+00 11144   0.525E+00    0.113E+01
DAV:  54    -0.344634252917E+03    0.32330E+00   -0.51763E-01 10776   0.340E+00    0.763E+00
DAV:  55    -0.344560558956E+03    0.73694E-01   -0.23938E-01 10752   0.245E+00    0.600E+00
DAV:  56    -0.344498249262E+03    0.62310E-01   -0.14087E-01 10584   0.164E+00    0.483E+00
DAV:  57    -0.344535239239E+03   -0.36990E-01   -0.15360E-01 10872   0.176E+00    0.589E+00
DAV:  58    -0.344509301424E+03    0.25938E-01   -0.16982E-01 10696   0.189E+00    0.564E+00
DAV:  59    -0.344489790723E+03    0.19511E-01   -0.11613E-01 10784   0.165E+00    0.508E+00
DAV:  60    -0.344453100199E+03    0.36691E-01   -0.97140E-02 10688   0.158E+00
   6 F= -.44291027E+03 E0= -.44274876E+03  d E =-.318279E+03
       N       E                     dE             d eps       ncg     rms          rms(c)
DAV:   1    -0.264470977676E+03    0.80019E+02   -0.20909E+04  9656   0.200E+02    0.930E+01
DAV:   2    -0.828852812404E+03   -0.56438E+03   -0.10014E+03 10344   0.145E+02    0.258E+02
DAV:   3    -0.525737765864E+03    0.30312E+03   -0.54692E+02 10232   0.163E+02    0.180E+02
DAV:   4    -0.883995732709E+03   -0.35826E+03   -0.15123E+02 10832   0.171E+02    0.288E+02
DAV:   5    -0.520527024239E+03    0.36347E+03   -0.18194E+02 12000   0.841E+01    0.184E+02
DAV:   6    -0.529838086438E+03   -0.93111E+01   -0.10137E+02 10200   0.552E+01    0.171E+02
DAV:   7    -0.502261935655E+03    0.27576E+02   -0.75457E+01 11168   0.632E+01    0.172E+02
DAV:   8    -0.487710970931E+03    0.14551E+02   -0.45433E+01 11584   0.453E+01    0.134E+02
DAV:   9    -0.421321912555E+03    0.66389E+02   -0.41807E+01 11816   0.532E+01    0.109E+02
DAV:  10    -0.407221484378E+03    0.14100E+02   -0.28474E+01 12408   0.283E+01    0.985E+01
DAV:  11    -0.402513808927E+03    0.47077E+01   -0.24795E+01 11656   0.253E+01    0.947E+01
DAV:  12    -0.407589836493E+03   -0.50760E+01   -0.23128E+01 11672   0.199E+01    0.973E+01
DAV:  13    -0.406387035680E+03    0.12028E+01   -0.13007E+01 10680   0.178E+01    0.961E+01
DAV:  14    -0.401641831233E+03    0.47452E+01   -0.18321E+01 10224   0.167E+01    0.828E+01
DAV:  15    -0.419335360804E+03   -0.17694E+02   -0.13617E+01 11672   0.272E+01    0.110E+02
DAV:  16    -0.400968952221E+03    0.18366E+02   -0.23047E+01 11752   0.238E+01    0.799E+01
DAV:  17    -0.406924480645E+03   -0.59555E+01   -0.29167E+01 11336   0.305E+01    0.830E+01
DAV:  18    -0.399732928246E+03    0.71916E+01   -0.20687E+01 11512   0.227E+01    0.648E+01
DAV:  19    -0.387156125680E+03    0.12577E+02   -0.18014E+01 11752   0.227E+01    0.518E+01
DAV:  20    -0.384263136448E+03    0.28930E+01   -0.14577E+01 11840   0.172E+01    0.484E+01
DAV:  21    -0.379888896715E+03    0.43742E+01   -0.60138E+00 11528   0.111E+01    0.418E+01
DAV:  22    -0.378879039075E+03    0.10099E+01   -0.67124E+00 10544   0.876E+00    0.420E+01
DAV:  23    -0.377485497779E+03    0.13935E+01   -0.21221E+00 10552   0.565E+00    0.370E+01
DAV:  24    -0.376803037391E+03    0.68246E+00   -0.37055E+00 11928   0.781E+00    0.366E+01
DAV:  25    -0.375588004087E+03    0.12150E+01   -0.18434E+00 12208   0.754E+00    0.316E+01
DAV:  26    -0.375159394715E+03    0.42861E+00   -0.32966E+00 11312   0.586E+00    0.306E+01
DAV:  27    -0.374641376400E+03    0.51802E+00   -0.14050E+00 10560   0.447E+00    0.283E+01
DAV:  28    -0.374656439012E+03   -0.15063E-01   -0.21511E+00 10856   0.582E+00    0.275E+01
DAV:  29    -0.374283225697E+03    0.37321E+00   -0.15869E+00 10768   0.526E+00    0.264E+01
DAV:  30    -0.373736703092E+03    0.54652E+00   -0.11303E+00 10680   0.492E+00    0.243E+01
DAV:  31    -0.373869365138E+03   -0.13266E+00   -0.12971E+00 11344   0.563E+00    0.246E+01
DAV:  32    -0.373202254084E+03    0.66711E+00   -0.19602E+00 10720   0.491E+00    0.192E+01
DAV:  33    -0.372775355934E+03    0.42690E+00   -0.51427E-01 10760   0.354E+00    0.167E+01
DAV:  34    -0.372758982569E+03    0.16373E-01   -0.69130E-01 11144   0.364E+00    0.158E+01
DAV:  35    -0.372329371610E+03    0.42961E+00   -0.56958E-01 10728   0.329E+00    0.123E+01
DAV:  36    -0.372188154907E+03    0.14122E+00   -0.34073E-01 10696   0.244E+00    0.104E+01
DAV:  37    -0.372093244474E+03    0.94910E-01   -0.14261E-01 11136   0.157E+00    0.954E+00
DAV:  38    -0.372006279576E+03    0.86965E-01   -0.18239E-01 12016   0.206E+00    0.967E+00
DAV:  39    -0.371908305837E+03    0.97974E-01   -0.10866E-01 10696   0.133E+00    0.822E+00
DAV:  40    -0.371877351610E+03    0.30954E-01   -0.10466E-01 11976   0.125E+00    0.750E+00
DAV:  41    -0.371839129067E+03    0.38223E-01   -0.72463E-02 12600   0.110E+00    0.680E+00
DAV:  42    -0.371809971288E+03    0.29158E-01   -0.40647E-02 11352   0.752E-01    0.636E+00
DAV:  43    -0.371803754190E+03    0.62171E-02   -0.33422E-02 10768   0.724E-01    0.607E+00
DAV:  44    -0.371794987790E+03    0.87664E-02   -0.34617E-02 12040   0.834E-01    0.547E+00
DAV:  45    -0.371801177143E+03   -0.61894E-02   -0.62594E-02 13096   0.119E+00    0.605E+00
DAV:  46    -0.371804329777E+03   -0.31526E-02   -0.41984E-02 11008   0.112E+00    0.589E+00
DAV:  47    -0.371857273725E+03   -0.52944E-01   -0.20248E-01 11072   0.268E+00    0.617E+00
DAV:  48    -0.371804906053E+03    0.52368E-01   -0.12977E-01 10856   0.218E+00    0.511E+00
DAV:  49    -0.371757720910E+03    0.47185E-01   -0.57687E-02 10544   0.120E+00    0.407E+00
DAV:  50    -0.371756629436E+03    0.10915E-02   -0.25271E-02 10632   0.714E-01    0.398E+00
DAV:  51    -0.371746703692E+03    0.99257E-02   -0.25645E-02 10568   0.764E-01    0.351E+00
DAV:  52    -0.371833601512E+03   -0.86898E-01   -0.16594E-01 13792   0.205E+00    0.582E+00
DAV:  53    -0.371754708573E+03    0.78893E-01   -0.74645E-02 12440   0.157E+00    0.401E+00
DAV:  54    -0.371733594644E+03    0.21114E-01   -0.51851E-02 11448   0.106E+00    0.317E+00
DAV:  55    -0.371721394645E+03    0.12200E-01   -0.26626E-02 10880   0.865E-01    0.254E+00
DAV:  56    -0.371714095642E+03    0.72990E-02   -0.26301E-02 10784   0.915E-01    0.212E+00
DAV:  57    -0.371733821057E+03   -0.19725E-01   -0.46706E-02 11064   0.111E+00    0.322E+00
DAV:  58    -0.371714762115E+03    0.19059E-01   -0.18696E-02 10760   0.800E-01    0.220E+00
DAV:  59    -0.371705022733E+03    0.97394E-02   -0.19556E-02 10728   0.512E-01    0.132E+00
DAV:  60    -0.371702876444E+03    0.21463E-02   -0.66882E-03 10864   0.462E-01
   7 F= -.46835012E+03 E0= -.46821331E+03  d E =-.343719E+03
       N       E                     dE             d eps       ncg     rms          rms(c)
DAV:   1     0.113661347164E+03    0.48537E+03   -0.69512E+04  9784   0.424E+02    0.321E+02
DAV:   2    -0.196491124144E+04   -0.20786E+04   -0.58485E+03 10104   0.338E+02    0.531E+02
DAV:   3    -0.227299117452E+04   -0.30808E+03   -0.44974E+03 11096   0.401E+02    0.368E+02
DAV:   4    -0.407198219494E+04   -0.17990E+04   -0.71845E+03 14728   0.369E+02    0.605E+02
DAV:   5    -0.307615884478E+04    0.99582E+03   -0.36640E+03 14208   0.114E+02    0.533E+02
DAV:   6    -0.345647291630E+04   -0.38031E+03   -0.78126E+02 12080   0.167E+02    0.501E+02
DAV:   7    -0.102561223631E+04    0.24309E+04   -0.58002E+02 11456   0.134E+02    0.257E+02
DAV:   8    -0.805657052571E+03    0.21996E+03   -0.73276E+02 12552   0.168E+02    0.259E+02
DAV:   9    -0.815219708792E+03   -0.95627E+01   -0.52550E+02 12000   0.135E+02    0.234E+02
DAV:  10    -0.721740344083E+03    0.93479E+02   -0.42598E+02 11552   0.876E+01    0.212E+02
DAV:  11    -0.624419438857E+03    0.97321E+02   -0.15781E+02 10416   0.792E+01    0.170E+02
DAV:  12    -0.621350871118E+03    0.30686E+01   -0.12845E+02 10816   0.657E+01    0.175E+02
DAV:  13    -0.598069791415E+03    0.23281E+02   -0.67038E+01 10816   0.418E+01    0.153E+02
DAV:  14    -0.588446782479E+03    0.96230E+01   -0.43244E+01 10832   0.267E+01    0.151E+02
DAV:  15    -0.587538652087E+03    0.90813E+00   -0.19705E+01 11976   0.127E+01    0.150E+02
DAV:  16    -0.588182731806E+03   -0.64408E+00   -0.52547E+00 10864   0.718E+00    0.147E+02
DAV:  17    -0.588184449725E+03   -0.17179E-02   -0.21814E+00 10544   0.533E+00    0.145E+02
DAV:  18    -0.586376630434E+03    0.18078E+01   -0.68490E+00 10808   0.142E+01    0.141E+02
DAV:  19    -0.584924951394E+03    0.14517E+01   -0.13534E+01 11288   0.177E+01    0.131E+02
DAV:  20    -0.583340276604E+03    0.15847E+01   -0.73651E+00 11056   0.136E+01    0.122E+02
DAV:  21    -0.580714793393E+03    0.26255E+01   -0.76829E+00 11776   0.183E+01    0.104E+02
DAV:  22    -0.589670101638E+03   -0.89553E+01   -0.18402E+01 12448   0.303E+01    0.897E+01
DAV:  23    -0.590369332122E+03   -0.69923E+00   -0.12902E+01 11000   0.226E+01    0.855E+01
DAV:  24    -0.587342118201E+03    0.30272E+01   -0.95075E+00 10616   0.127E+01    0.801E+01
DAV:  25    -0.585407116816E+03    0.19350E+01   -0.57801E+00 10504   0.902E+00    0.725E+01
DAV:  26    -0.592412422554E+03   -0.70053E+01   -0.56601E+00 10488   0.105E+01    0.867E+01
DAV:  27    -0.596259345054E+03   -0.38469E+01   -0.44916E+00 10496   0.991E+00    0.920E+01
DAV:  28    -0.592667830694E+03    0.35915E+01   -0.21395E+00 10480   0.516E+00    0.820E+01
DAV:  29    -0.591842776180E+03    0.82505E+00   -0.93013E-01 10584   0.272E+00    0.804E+01
DAV:  30    -0.592031143468E+03   -0.18837E+00   -0.40928E-01 13920   0.850E-01    0.811E+01
DAV:  31    -0.592432052035E+03   -0.40091E+00   -0.30457E-01 13888   0.209E+00    0.820E+01
DAV:  32    -0.593379222026E+03   -0.94717E+00   -0.18728E+00 12752   0.505E+00    0.836E+01
DAV:  33    -0.595067659014E+03   -0.16884E+01   -0.41266E+00 14152   0.831E+00    0.865E+01
DAV:  34    -0.595402146466E+03   -0.33449E+00   -0.49753E+00 12688   0.980E+00    0.876E+01
DAV:  35    -0.593952566637E+03    0.14496E+01   -0.48201E+00 12480   0.105E+01    0.833E+01
DAV:  36    -0.590843380417E+03    0.31092E+01   -0.48784E+00 12152   0.113E+01    0.767E+01
DAV:  37    -0.591859130402E+03   -0.10157E+01   -0.57409E+00 12192   0.119E+01    0.795E+01
DAV:  38    -0.585650061036E+03    0.62091E+01   -0.43706E+00 11184   0.111E+01    0.693E+01
DAV:  39    -0.583125858116E+03    0.25242E+01   -0.32911E+00 11144   0.767E+00    0.654E+01
DAV:  40    -0.581231796098E+03    0.18941E+01   -0.27217E+00 11360   0.807E+00    0.632E+01
DAV:  41    -0.579285815725E+03    0.19460E+01   -0.18578E+00 10344   0.475E+00    0.561E+01
DAV:  42    -0.578332475469E+03    0.95334E+00   -0.98830E-01 10424   0.289E+00    0.535E+01
DAV:  43    -0.578208485431E+03    0.12399E+00   -0.60084E-01 10672   0.251E+00    0.536E+01
DAV:  44    -0.578419237404E+03   -0.21075E+00   -0.63739E-01 11616   0.310E+00    0.557E+01
DAV:  45    -0.576782807928E+03    0.16364E+01   -0.13936E+00 11320   0.418E+00    0.500E+01
DAV:  46    -0.575135391661E+03    0.16474E+01   -0.12156E+00 11616   0.449E+00    0.443E+01
DAV:  47    -0.581052693515E+03   -0.59173E+01   -0.15510E+01 16336   0.297E+01    0.678E+01
DAV:  48    -0.579106897364E+03    0.19458E+01   -0.50980E+00 13224   0.869E+00    0.632E+01
DAV:  49    -0.581000923834E+03   -0.18940E+01   -0.32133E+00 11872   0.685E+00    0.639E+01
DAV:  50    -0.581364602387E+03   -0.36368E+00   -0.14821E+00 11472   0.661E+00    0.611E+01
DAV:  51    -0.583814423026E+03   -0.24498E+01   -0.25917E+00 11912   0.102E+01    0.616E+01
DAV:  52    -0.614898689516E+03   -0.31084E+02   -0.20747E+01 13824   0.326E+01    0.940E+01
DAV:  53    -0.593843797805E+03    0.21055E+02   -0.16907E+01 12080   0.307E+01    0.710E+01
DAV:  54    -0.590285146650E+03    0.35587E+01   -0.47084E+00 11224   0.127E+01    0.615E+01
DAV:  55    -0.593827702700E+03   -0.35426E+01   -0.40350E+00 11192   0.118E+01    0.578E+01
DAV:  56    -0.596662758540E+03   -0.28351E+01   -0.21892E+00 10432   0.746E+00    0.631E+01
DAV:  57    -0.605087616533E+03   -0.84249E+01   -0.10218E+01 12400   0.240E+01    0.734E+01
DAV:  58    -0.606085053850E+03   -0.99744E+00   -0.71456E+00 11952   0.213E+01    0.678E+01
DAV:  59    -0.605816511721E+03    0.26854E+00   -0.43683E+00 11616   0.123E+01    0.622E+01
DAV:  60    -0.606475882878E+03   -0.65937E+00   -0.36753E+00 11528   0.125E+01
   8 F= -.69984429E+03 E0= -.69971019E+03  d E =-.231494E+03
       N       E                     dE             d eps       ncg     rms          rms(c)
DAV:   1    -0.618619878651E+03   -0.12803E+02   -0.53900E+03  9696   0.935E+01    0.639E+01
DAV:   2    -0.457861161796E+04   -0.39600E+04   -0.56841E+02 11833   0.412E+02    0.525E+02
DAV:   3    -0.744494201623E+03    0.38341E+04   -0.40541E+02 11859   0.146E+02    0.176E+02
DAV:   4    -0.681197295358E+03    0.63297E+02   -0.15720E+02 14776   0.694E+01    0.126E+02
DAV:   5    -0.670543149957E+03    0.10654E+02   -0.11223E+02 10256   0.746E+01    0.118E+02
DAV:   6    -0.628467954481E+03    0.42075E+02   -0.48571E+01 10544   0.370E+01    0.836E+01
DAV:   7    -0.638015283836E+03   -0.95473E+01   -0.59296E+01 10640   0.365E+01    0.853E+01
DAV:   8    -0.614479908393E+03    0.23535E+02   -0.33248E+01 10296   0.342E+01    0.604E+01
DAV:   9    -0.614563236647E+03   -0.83328E-01   -0.22875E+01 11472   0.218E+01    0.593E+01
DAV:  10    -0.611674313467E+03    0.28889E+01   -0.80396E+00 10400   0.148E+01    0.583E+01
DAV:  11    -0.612697616804E+03   -0.10233E+01   -0.51824E+00 10448   0.147E+01    0.591E+01
DAV:  12    -0.611754764932E+03    0.94285E+00   -0.43322E+00 10320   0.992E+00    0.573E+01
DAV:  13    -0.609991421279E+03    0.17633E+01   -0.25583E+00 10560   0.102E+01    0.525E+01
DAV:  14    -0.608669889804E+03    0.13215E+01   -0.54897E+00 11368   0.140E+01    0.519E+01
DAV:  15    -0.606825613708E+03    0.18443E+01   -0.53787E+00 10688   0.127E+01    0.499E+01
DAV:  16    -0.602921644426E+03    0.39040E+01   -0.63708E+00 10872   0.101E+01    0.342E+01
DAV:  17    -0.601385295655E+03    0.15363E+01   -0.34702E+00 10528   0.112E+01    0.294E+01
DAV:  18    -0.600295789287E+03    0.10895E+01   -0.21717E+00 10392   0.631E+00    0.251E+01
DAV:  19    -0.600446140515E+03   -0.15035E+00   -0.26991E+00 10760   0.769E+00    0.284E+01
DAV:  20    -0.599856054166E+03    0.59009E+00   -0.64446E-01 10640   0.185E+00    0.241E+01
DAV:  21    -0.601122677238E+03   -0.12666E+01   -0.78323E-01 11088   0.385E+00    0.340E+01
DAV:  22    -0.600865914685E+03    0.25676E+00   -0.19568E-01 11512   0.896E-01    0.326E+01
DAV:  23    -0.600919412183E+03   -0.53497E-01   -0.15202E-01 11520   0.171E+00    0.334E+01
DAV:  24    -0.601093731803E+03   -0.17432E+00   -0.12718E-01 10840   0.169E+00    0.337E+01
DAV:  25    -0.600883593523E+03    0.21014E+00   -0.61684E-02 10392   0.100E+00    0.325E+01
DAV:  26    -0.601515790716E+03   -0.63220E+00   -0.75766E-01 12192   0.378E+00    0.366E+01
DAV:  27    -0.600128774538E+03    0.13870E+01   -0.11879E+00 12320   0.435E+00    0.288E+01
DAV:  28    -0.599424001036E+03    0.70477E+00   -0.56307E-01 12000   0.446E+00    0.245E+01
DAV:  29    -0.599025773219E+03    0.39823E+00   -0.42658E-01 11944   0.339E+00    0.217E+01
DAV:  30    -0.598676272742E+03    0.34950E+00   -0.24991E-01 11928   0.174E+00    0.177E+01
DAV:  31    -0.598612749693E+03    0.63523E-01   -0.85403E-02 11056   0.951E-01    0.171E+01
DAV:  32    -0.598529095932E+03    0.83654E-01   -0.50130E-02 10432   0.713E-01    0.159E+01
DAV:  33    -0.598499500195E+03    0.29596E-01   -0.34278E-02 10704   0.773E-01    0.156E+01
DAV:  34    -0.598439853310E+03    0.59647E-01   -0.35929E-02 11000   0.866E-01    0.146E+01
DAV:  35    -0.598434152310E+03    0.57010E-02   -0.37871E-02 10672   0.979E-01    0.144E+01
DAV:  36    -0.598285447936E+03    0.14870E+00   -0.94007E-02 10752   0.112E+00    0.122E+01
DAV:  37    -0.598214665708E+03    0.70782E-01   -0.99445E-02 11096   0.159E+00    0.111E+01
DAV:  38    -0.598105734960E+03    0.10893E+00   -0.10569E-01 11128   0.130E+00    0.920E+00
DAV:  39    -0.598052730850E+03    0.53004E-01   -0.69248E-02 10952   0.115E+00    0.794E+00
DAV:  40    -0.597995893117E+03    0.56838E-01   -0.37478E-02 10816   0.579E-01    0.666E+00
DAV:  41    -0.597962426247E+03    0.33467E-01   -0.20711E-02 12304   0.336E-01    0.582E+00
DAV:  42    -0.597956630342E+03    0.57959E-02   -0.16584E-02 11272   0.561E-01    0.585E+00
DAV:  43    -0.597929589615E+03    0.27041E-01   -0.85901E-03 11248   0.343E-01    0.508E+00
DAV:  44    -0.597903021786E+03    0.26568E-01   -0.13728E-02 11568   0.573E-01    0.431E+00
DAV:  45    -0.597872733763E+03    0.30288E-01   -0.29616E-02 11192   0.700E-01    0.307E+00
DAV:  46    -0.597870230628E+03    0.25031E-02   -0.17548E-02 11152   0.555E-01    0.307E+00
DAV:  47    -0.597881194392E+03   -0.10964E-01   -0.81863E-02 14832   0.122E+00    0.328E+00
DAV:  48    -0.597865489325E+03    0.15705E-01   -0.35386E-02 11432   0.730E-01    0.261E+00
DAV:  49    -0.597861941381E+03    0.35479E-02   -0.13426E-02 10904   0.518E-01    0.243E+00
DAV:  50    -0.597858884544E+03    0.30568E-02   -0.10926E-02 10808   0.472E-01    0.217E+00
DAV:  51    -0.597858287089E+03    0.59745E-03   -0.11913E-02 11136   0.543E-01    0.211E+00
DAV:  52    -0.597859850387E+03   -0.15633E-02   -0.32878E-02 11664   0.826E-01    0.203E+00
DAV:  53    -0.597849157415E+03    0.10693E-01   -0.16582E-02 11544   0.705E-01    0.135E+00
DAV:  54    -0.597846269029E+03    0.28884E-02   -0.79790E-03 11168   0.422E-01    0.108E+00
DAV:  55    -0.597845516198E+03    0.75283E-03   -0.34361E-03 11096   0.288E-01    0.932E-01
DAV:  56    -0.597845077535E+03    0.43866E-03   -0.20646E-03 10928   0.224E-01    0.880E-01
DAV:  57    -0.597847260808E+03   -0.21833E-02   -0.50920E-03 12408   0.388E-01    0.104E+00
DAV:  58    -0.597845432917E+03    0.18279E-02   -0.57901E-03 11488   0.377E-01    0.832E-01
DAV:  59    -0.597844567795E+03    0.86512E-03   -0.34287E-03 12304   0.271E-01    0.594E-01
DAV:  60    -0.597843814986E+03    0.75281E-03   -0.12882E-03 11072   0.204E-01
   9 F= -.69029713E+03 E0= -.69013574E+03  d E =-.221947E+03
       N       E                     dE             d eps       ncg     rms          rms(c)
DAV:   1    -0.523134786069E+03    0.74710E+02   -0.22087E+04  9768   0.205E+02    0.784E+01
DAV:   2    -0.767343866610E+03   -0.24421E+03   -0.13273E+03 10184   0.952E+01    0.161E+02
DAV:   3    -0.157913573643E+04   -0.81179E+03   -0.28686E+02 10696   0.202E+02    0.301E+02
DAV:   4    -0.892536471425E+03    0.68660E+03   -0.17790E+02 10960   0.881E+01    0.179E+02
DAV:   5    -0.871216947926E+03    0.21320E+02   -0.12943E+02 11000   0.101E+02    0.177E+02
DAV:   6    -0.716125627215E+03    0.15509E+03   -0.92903E+01 10321   0.701E+01    0.101E+02
DAV:   7    -0.679799285364E+03    0.36326E+02   -0.54251E+01 10608   0.531E+01    0.855E+01
DAV:   8    -0.667691537816E+03    0.12108E+02   -0.49090E+01 11328   0.484E+01    0.832E+01
DAV:   9    -0.660052659687E+03    0.76389E+01   -0.29391E+01 10920   0.291E+01    0.747E+01
DAV:  10    -0.654705636253E+03    0.53470E+01   -0.18923E+01 10944   0.183E+01    0.650E+01
DAV:  11    -0.646136923189E+03    0.85687E+01   -0.90480E+00 11464   0.150E+01    0.499E+01
DAV:  12    -0.643937848138E+03    0.21991E+01   -0.62221E+00 11464   0.102E+01    0.423E+01
DAV:  13    -0.644351689536E+03   -0.41384E+00   -0.53597E+00 10312   0.109E+01    0.448E+01
DAV:  14    -0.646237751639E+03   -0.18861E+01   -0.34945E+00 10800   0.945E+00    0.458E+01
DAV:  15    -0.644565711542E+03    0.16720E+01   -0.41483E+00 10784   0.983E+00    0.400E+01
DAV:  16    -0.643980505211E+03    0.58521E+00   -0.55334E+00 11944   0.110E+01    0.353E+01
DAV:  17    -0.645514862576E+03   -0.15344E+01   -0.68931E+00 11992   0.130E+01    0.344E+01
DAV:  18    -0.645700522392E+03   -0.18566E+00   -0.70333E+00 11624   0.112E+01    0.328E+01
DAV:  19    -0.644433058453E+03    0.12675E+01   -0.27791E+00 12000   0.102E+01    0.306E+01
DAV:  20    -0.643008462066E+03    0.14246E+01   -0.17800E+00 10848   0.764E+00    0.257E+01
DAV:  21    -0.642194622454E+03    0.81384E+00   -0.16991E+00 10704   0.718E+00    0.216E+01
DAV:  22    -0.641716046320E+03    0.47858E+00   -0.90619E-01 10672   0.546E+00    0.182E+01
DAV:  23    -0.641907325603E+03   -0.19128E+00   -0.90130E-01 10872   0.484E+00    0.196E+01
DAV:  24    -0.641276559803E+03    0.63077E+00   -0.55446E-01 10944   0.367E+00    0.144E+01
DAV:  25    -0.641045182002E+03    0.23138E+00   -0.34631E-01 10728   0.288E+00    0.127E+01
DAV:  26    -0.641031995615E+03    0.13186E-01   -0.35995E-01 10904   0.301E+00    0.125E+01
DAV:  27    -0.640879757132E+03    0.15224E+00   -0.33824E-01 10816   0.265E+00    0.108E+01
DAV:  28    -0.640738019371E+03    0.14174E+00   -0.22413E-01 11128   0.231E+00    0.911E+00
DAV:  29    -0.640659445459E+03    0.78574E-01   -0.24524E-01 10872   0.252E+00    0.836E+00
DAV:  30    -0.640581534834E+03    0.77911E-01   -0.15842E-01 10600   0.200E+00    0.742E+00
DAV:  31    -0.640539498712E+03    0.42036E-01   -0.11319E-01 10568   0.163E+00    0.663E+00
DAV:  32    -0.640502085084E+03    0.37414E-01   -0.68482E-02 10536   0.131E+00    0.575E+00
DAV:  33    -0.640475719252E+03    0.26366E-01   -0.44460E-02 10768   0.100E+00    0.493E+00
DAV:  34    -0.640461982339E+03    0.13737E-01   -0.56835E-02 11664   0.107E+00    0.418E+00
DAV:  35    -0.640446684881E+03    0.15297E-01   -0.61512E-02 12216   0.116E+00    0.331E+00
DAV:  36    -0.640427366038E+03    0.19319E-01   -0.42927E-02 11376   0.872E-01    0.243E+00
DAV:  37    -0.640431803200E+03   -0.44372E-02   -0.28117E-02 10640   0.721E-01    0.251E+00
DAV:  38    -0.640420353991E+03    0.11449E-01   -0.17618E-02 10536   0.524E-01    0.179E+00
DAV:  39    -0.640422116261E+03   -0.17623E-02   -0.15055E-02 10424   0.572E-01    0.177E+00
DAV:  40    -0.640425729878E+03   -0.36136E-02   -0.16448E-02 10448   0.557E-01    0.194E+00
DAV:  41    -0.640420606205E+03    0.51237E-02   -0.11739E-02 10392   0.473E-01    0.154E+00
DAV:  42    -0.640419234263E+03    0.13719E-02   -0.82998E-03 10424   0.414E-01    0.143E+00
DAV:  43    -0.640418012090E+03    0.12222E-02   -0.56557E-03 10608   0.363E-01    0.138E+00
DAV:  44    -0.640415112378E+03    0.28997E-02   -0.46102E-03 10432   0.281E-01    0.105E+00
DAV:  45    -0.640414335609E+03    0.77677E-03   -0.21804E-03 10480   0.242E-01    0.953E-01
DAV:  46    -0.640413058043E+03    0.12776E-02   -0.11269E-03 10616   0.164E-01    0.782E-01
DAV:  47    -0.640412942938E+03    0.11511E-03   -0.55939E-03 11616   0.336E-01    0.678E-01
DAV:  48    -0.640411983973E+03    0.95896E-03   -0.20997E-03 11688   0.237E-01    0.474E-01
DAV:  49    -0.640411740544E+03    0.24343E-03   -0.14650E-03 11160   0.193E-01    0.385E-01
DAV:  50    -0.640411468569E+03    0.27198E-03   -0.82373E-04 10816   0.149E-01    0.290E-01
DAV:  51    -0.640411337161E+03    0.13141E-03   -0.48137E-04 11072   0.113E-01    0.223E-01
DAV:  52    -0.640411426140E+03   -0.88979E-04   -0.44638E-04 11288   0.114E-01    0.272E-01
DAV:  53    -0.640411371608E+03    0.54532E-04   -0.29155E-04 10952   0.983E-02    0.241E-01
DAV:  54    -0.640411294694E+03    0.76915E-04   -0.15617E-04 10312   0.683E-02    0.193E-01
DAV:  55    -0.640411258589E+03    0.36104E-04   -0.13589E-04  9968   0.641E-02    0.160E-01
DAV:  56    -0.640411199011E+03    0.59579E-04   -0.98119E-05  9128   0.549E-02    0.102E-01
DAV:  57    -0.640411299899E+03   -0.10089E-03   -0.17096E-04 11344   0.874E-02    0.177E-01
DAV:  58    -0.640411210362E+03    0.89537E-04   -0.13870E-04 10472   0.745E-02    0.110E-01
DAV:  59    -0.640411169014E+03    0.41348E-04   -0.55598E-05  8016   0.350E-02    0.513E-02
DAV:  60    -0.640411169870E+03   -0.85589E-06   -0.20916E-05  7472   0.206E-02
  10 F= -.73111760E+03 E0= -.73095884E+03  d E =-.262767E+03
       N       E                     dE             d eps       ncg     rms          rms(c)
DAV:   1     0.504751917767E+03    0.11452E+04   -0.10083E+05  9832   0.544E+02    0.590E+02
DAV:   2    -0.275893725292E+04   -0.32637E+04   -0.10283E+04 10104   0.460E+02    0.774E+02
DAV:   3    -0.574012603484E+04   -0.29812E+04   -0.17337E+04 12055   0.601E+02    0.685E+02
DAV:   4    -0.696329914281E+04   -0.12232E+04   -0.40487E+04 16424   0.386E+02    0.174E+03
DAV:   5    -0.113693341845E+05   -0.44060E+04   -0.13817E+04 13784   0.241E+02    0.141E+03
DAV:   6    -0.100447643868E+05    0.13246E+04   -0.28588E+03 13768   0.824E+01    0.111E+03
DAV:   7    -0.287623157701E+03    0.97571E+04   -0.61154E+04 17608   0.319E+02    0.118E+03
DAV:   8    -0.203985353315E+04   -0.17522E+04   -0.17998E+04 13680   0.210E+02    0.468E+02
DAV:   9    -0.143229003552E+04    0.60756E+03   -0.14756E+03 10752   0.238E+02    0.450E+02
DAV:  10    -0.101875623674E+04    0.41353E+03   -0.28970E+03 13544   0.136E+02    0.252E+02
DAV:  11    -0.114375297455E+04   -0.12500E+03   -0.68367E+02 10632   0.207E+02    0.292E+02
DAV:  12    -0.867940449462E+03    0.27581E+03   -0.38900E+02 13432   0.102E+02    0.196E+02
DAV:  13    -0.786495237780E+03    0.81445E+02   -0.26082E+02 10520   0.807E+01    0.202E+02
DAV:  14    -0.721991588941E+03    0.64504E+02   -0.16462E+02 10304   0.706E+01    0.181E+02
DAV:  15    -0.696213307388E+03    0.25778E+02   -0.96002E+01 10312   0.456E+01    0.169E+02
DAV:  16    -0.692472975893E+03    0.37403E+01   -0.64838E+01 11136   0.318E+01    0.157E+02
DAV:  17    -0.684231234249E+03    0.82417E+01   -0.36265E+01 10360   0.245E+01    0.149E+02
DAV:  18    -0.679875900152E+03    0.43553E+01   -0.17407E+01 11504   0.166E+01    0.142E+02
DAV:  19    -0.676095861287E+03    0.37800E+01   -0.77073E+00 10920   0.122E+01    0.136E+02
DAV:  20    -0.677432404957E+03   -0.13365E+01   -0.12624E+01 10680   0.226E+01    0.121E+02
DAV:  21    -0.672400286837E+03    0.50321E+01   -0.10430E+01 10760   0.206E+01    0.106E+02
DAV:  22    -0.675825410331E+03   -0.34251E+01   -0.15501E+01 11096   0.195E+01    0.999E+01
DAV:  23    -0.680618031940E+03   -0.47926E+01   -0.18568E+01 11232   0.211E+01    0.932E+01
DAV:  24    -0.686594211498E+03   -0.59762E+01   -0.17863E+01 11784   0.232E+01    0.859E+01
DAV:  25    -0.679414834354E+03    0.71794E+01   -0.11960E+01 10720   0.208E+01    0.772E+01
DAV:  26    -0.674679792928E+03    0.47350E+01   -0.94100E+00 10688   0.147E+01    0.657E+01
DAV:  27    -0.675241712990E+03   -0.56192E+00   -0.64705E+00 11632   0.126E+01    0.632E+01
DAV:  28    -0.673036338924E+03    0.22054E+01   -0.52708E+00 11048   0.992E+00    0.544E+01
DAV:  29    -0.671827734307E+03    0.12086E+01   -0.34303E+00 10560   0.104E+01    0.513E+01
DAV:  30    -0.670943393216E+03    0.88434E+00   -0.38796E+00 10608   0.810E+00    0.473E+01
DAV:  31    -0.671030272314E+03   -0.86879E-01   -0.28005E+00 11272   0.764E+00    0.478E+01
DAV:  32    -0.669424392248E+03    0.16059E+01   -0.26579E+00 10656   0.738E+00    0.407E+01
DAV:  33    -0.667979161465E+03    0.14452E+01   -0.15621E+00 10688   0.597E+00    0.363E+01
DAV:  34    -0.666713517445E+03    0.12656E+01   -0.13876E+00 10896   0.534E+00    0.317E+01
DAV:  35    -0.665779625580E+03    0.93389E+00   -0.12459E+00 10864   0.566E+00    0.296E+01
DAV:  36    -0.664923241667E+03    0.85638E+00   -0.74462E-01 10552   0.338E+00    0.249E+01
DAV:  37    -0.664635890566E+03    0.28735E+00   -0.41589E-01 10696   0.303E+00    0.238E+01
DAV:  38    -0.664353961714E+03    0.28193E+00   -0.31559E-01 10768   0.239E+00    0.221E+01
DAV:  39    -0.664210311083E+03    0.14365E+00   -0.32856E-01 10576   0.272E+00    0.213E+01
DAV:  40    -0.663991126537E+03    0.21918E+00   -0.36306E-01 10608   0.275E+00    0.201E+01
DAV:  41    -0.663665009163E+03    0.32612E+00   -0.39034E-01 10640   0.304E+00    0.178E+01
DAV:  42    -0.663278150143E+03    0.38686E+00   -0.43939E-01 10808   0.317E+00    0.148E+01
DAV:  43    -0.663139577506E+03    0.13857E+00   -0.33001E-01 10648   0.257E+00    0.138E+01
DAV:  44    -0.663013460567E+03    0.12612E+00   -0.30320E-01 10768   0.244E+00    0.118E+01
DAV:  45    -0.662981094362E+03    0.32366E-01   -0.19826E-01 10584   0.189E+00    0.115E+01
DAV:  46    -0.662915915719E+03    0.65179E-01   -0.11256E-01 10760   0.137E+00    0.107E+01
DAV:  47    -0.664732285243E+03   -0.18164E+01   -0.16972E+00 15464   0.781E+00    0.263E+01
DAV:  48    -0.663771927497E+03    0.96036E+00   -0.10501E+00 13328   0.499E+00    0.197E+01
DAV:  49    -0.663669733735E+03    0.10219E+00   -0.86174E-01 12800   0.531E+00    0.173E+01
DAV:  50    -0.663683073134E+03   -0.13339E-01   -0.11189E+00 12528   0.579E+00    0.185E+01
DAV:  51    -0.663427966067E+03    0.25511E+00   -0.66226E-01 12560   0.478E+00    0.173E+01
DAV:  52    -0.668418984236E+03   -0.49910E+01   -0.22732E+00 13784   0.114E+01    0.384E+01
DAV:  53    -0.668132588635E+03    0.28640E+00   -0.73627E-01 10792   0.148E+00    0.371E+01
DAV:  54    -0.666575824453E+03    0.15568E+01   -0.71679E-01 11376   0.429E+00    0.342E+01
DAV:  55    -0.666145306469E+03    0.43052E+00   -0.52115E-01 11776   0.363E+00    0.315E+01
DAV:  56    -0.665488901927E+03    0.65640E+00   -0.37616E-01 11656   0.352E+00    0.284E+01
DAV:  57    -0.664959521096E+03    0.52938E+00   -0.11771E+00 12640   0.586E+00    0.266E+01
DAV:  58    -0.664213859830E+03    0.74566E+00   -0.17557E+00 12320   0.726E+00    0.220E+01
DAV:  59    -0.663689578212E+03    0.52428E+00   -0.11154E+00 11096   0.615E+00    0.181E+01
DAV:  60    -0.663362566160E+03    0.32701E+00   -0.67504E-01 11096   0.448E+00
  11 F= -.75083729E+03 E0= -.75066850E+03  d E =-.282487E+03
       N       E                     dE             d eps       ncg     rms          rms(c)
DAV:   1    -0.745828907746E+02    0.58911E+03   -0.73058E+04  9824   0.439E+02    0.354E+02
DAV:   2    -0.198652942211E+04   -0.19119E+04   -0.66686E+03 10072   0.317E+02    0.522E+02
DAV:   3    -0.434619479081E+04   -0.23597E+04   -0.55150E+03 11858   0.463E+02    0.429E+02
DAV:   4    -0.578152316785E+04   -0.14353E+04   -0.19374E+04 15552   0.305E+02    0.142E+03
DAV:   5    -0.678947731296E+04   -0.10080E+04   -0.82273E+03 15776   0.136E+02    0.101E+03
DAV:   6    -0.233248133386E+04    0.44570E+04   -0.19378E+04 17140   0.228E+02    0.826E+02
DAV:   7    -0.232013433199E+04    0.12347E+02   -0.11488E+04 14896   0.161E+02    0.431E+02
DAV:   8    -0.145545413466E+04    0.86468E+03   -0.42097E+03 14760   0.217E+02    0.268E+02
DAV:   9    -0.120677115884E+04    0.24868E+03   -0.15632E+03 11552   0.155E+02    0.255E+02
DAV:  10    -0.865803475449E+03    0.34097E+03   -0.67629E+02 10048   0.149E+02    0.197E+02
DAV:  11    -0.822178612550E+03    0.43625E+02   -0.39569E+02 10312   0.104E+02    0.165E+02
DAV:  12    -0.815509010044E+03    0.66696E+01   -0.34118E+02 14264   0.421E+01    0.146E+02
DAV:  13    -0.814728226314E+03    0.78078E+00   -0.55069E+01 12984   0.209E+01    0.134E+02
DAV:  14    -0.813133567646E+03    0.15947E+01   -0.20209E+01 10632   0.242E+01    0.134E+02
DAV:  15    -0.812206724097E+03    0.92684E+00   -0.93718E+00 10384   0.155E+01    0.135E+02
DAV:  16    -0.810655573842E+03    0.15512E+01   -0.44995E+00 11264   0.102E+01    0.134E+02
DAV:  17    -0.810216978103E+03    0.43860E+00   -0.45019E+00 10816   0.115E+01    0.130E+02
DAV:  18    -0.810789742640E+03   -0.57276E+00   -0.81572E+00 11168   0.203E+01    0.119E+02
DAV:  19    -0.813145996889E+03   -0.23563E+01   -0.22742E+01 13392   0.330E+01    0.104E+02
DAV:  20    -0.811237309881E+03    0.19087E+01   -0.26914E+01 12592   0.313E+01    0.886E+01
DAV:  21    -0.800385715594E+03    0.10852E+02   -0.21292E+01 10504   0.217E+01    0.718E+01
DAV:  22    -0.795729068821E+03    0.46566E+01   -0.14285E+01 10632   0.218E+01    0.630E+01
DAV:  23    -0.797867186533E+03   -0.21381E+01   -0.14778E+01 10904   0.208E+01    0.720E+01
DAV:  24    -0.795802838067E+03    0.20643E+01   -0.12771E+01 10768   0.194E+01    0.692E+01
DAV:  25    -0.790712179041E+03    0.50907E+01   -0.97472E+00 10624   0.141E+01    0.608E+01
DAV:  26    -0.793248837230E+03   -0.25367E+01   -0.75180E+00 10976   0.153E+01    0.709E+01
DAV:  27    -0.789492233732E+03    0.37566E+01   -0.71260E+00 10800   0.126E+01    0.646E+01
DAV:  28    -0.787106120268E+03    0.23861E+01   -0.47507E+00 10496   0.933E+00    0.590E+01
DAV:  29    -0.786361331559E+03    0.74479E+00   -0.40598E+00 10528   0.923E+00    0.586E+01
DAV:  30    -0.785543023451E+03    0.81831E+00   -0.32731E+00 10928   0.807E+00    0.563E+01
DAV:  31    -0.786199041765E+03   -0.65602E+00   -0.36688E+00 11896   0.895E+00    0.581E+01
DAV:  32    -0.785669955083E+03    0.52909E+00   -0.50904E+00 10480   0.109E+01    0.567E+01
DAV:  33    -0.785871846408E+03   -0.20189E+00   -0.55026E+00 10888   0.120E+01    0.579E+01
DAV:  34    -0.783156482570E+03    0.27154E+01   -0.47460E+00 10688   0.902E+00    0.455E+01
DAV:  35    -0.781231702036E+03    0.19248E+01   -0.24259E+00 10640   0.656E+00    0.394E+01
DAV:  36    -0.782054831932E+03   -0.82313E+00   -0.21502E+00 10752   0.712E+00    0.429E+01
DAV:  37    -0.781489850618E+03    0.56498E+00   -0.16457E+00 10536   0.548E+00    0.401E+01
DAV:  38    -0.780905004998E+03    0.58485E+00   -0.81937E-01 10600   0.369E+00    0.381E+01
DAV:  39    -0.780985284436E+03   -0.80279E-01   -0.82701E-01 10552   0.422E+00    0.380E+01
DAV:  40    -0.780574533117E+03    0.41075E+00   -0.34713E-01 10592   0.230E+00    0.349E+01
DAV:  41    -0.780714683084E+03   -0.14015E+00   -0.49556E-01 10776   0.298E+00    0.354E+01
DAV:  42    -0.780515278513E+03    0.19940E+00   -0.29765E-01 10760   0.220E+00    0.333E+01
DAV:  43    -0.780649948477E+03   -0.13467E+00   -0.46821E-01 11408   0.314E+00    0.330E+01
DAV:  44    -0.780519666966E+03    0.13028E+00   -0.49701E-01 11096   0.284E+00    0.315E+01
DAV:  45    -0.780568099939E+03   -0.48433E-01   -0.35182E-01 10896   0.267E+00    0.307E+01
DAV:  46    -0.780626588492E+03   -0.58489E-01   -0.27516E-01 11016   0.231E+00    0.299E+01
DAV:  47    -0.803689364374E+03   -0.23063E+02   -0.13434E+01 17400   0.227E+01    0.610E+01
DAV:  48    -0.794012214673E+03    0.96771E+01   -0.63128E+00 13368   0.136E+01    0.473E+01
DAV:  49    -0.796541419339E+03   -0.25292E+01   -0.67749E+00 12768   0.183E+01    0.582E+01
DAV:  50    -0.794000118696E+03    0.25413E+01   -0.71852E+00 11712   0.194E+01    0.516E+01
DAV:  51    -0.792820993654E+03    0.11791E+01   -0.61983E+00 12200   0.164E+01    0.566E+01
DAV:  52    -0.796528605859E+03   -0.37076E+01   -0.10512E+01 12032   0.245E+01    0.603E+01
DAV:  53    -0.789459723548E+03    0.70689E+01   -0.43018E+00 12024   0.124E+01    0.457E+01
DAV:  54    -0.787303961529E+03    0.21558E+01   -0.48874E+00 11416   0.116E+01    0.450E+01
DAV:  55    -0.788651742408E+03   -0.13478E+01   -0.45479E+00 11792   0.124E+01    0.466E+01
DAV:  56    -0.784384317726E+03    0.42674E+01   -0.51757E+00 11568   0.122E+01    0.307E+01
DAV:  57    -0.784712065140E+03   -0.32775E+00   -0.49037E+00 12032   0.158E+01    0.383E+01
DAV:  58    -0.782664935014E+03    0.20471E+01   -0.51793E+00 10848   0.133E+01    0.279E+01
DAV:  59    -0.781191368018E+03    0.14736E+01   -0.33797E+00 10736   0.974E+00    0.210E+01
DAV:  60    -0.780608559554E+03    0.58281E+00   -0.11959E+00 10632   0.575E+00
  12 F= -.86554339E+03 E0= -.86537879E+03  d E =-.114706E+03
       N       E                     dE             d eps       ncg     rms          rms(c)
DAV:   1    -0.737433352659E+03    0.43758E+02   -0.15452E+04  9784   0.167E+02    0.554E+01
DAV:   2    -0.141236229123E+04   -0.67493E+03   -0.52906E+02 10080   0.152E+02    0.271E+02
DAV:   3    -0.892688269782E+03    0.51967E+03   -0.45718E+02 10112   0.126E+02    0.141E+02
DAV:   4    -0.864476318196E+03    0.28212E+02   -0.13126E+02 10232   0.754E+01    0.946E+01
DAV:   5    -0.907555547103E+03   -0.43079E+02   -0.93250E+01 10144   0.761E+01    0.141E+02
DAV:   6    -0.874962789315E+03    0.32593E+02   -0.73822E+01 10088   0.563E+01    0.933E+01
DAV:   7    -0.823398873057E+03    0.51564E+02   -0.34154E+01 10112   0.376E+01    0.513E+01
DAV:   8    -0.839037912412E+03   -0.15639E+02   -0.24602E+01 11520   0.360E+01    0.861E+01
DAV:   9    -0.820290210197E+03    0.18748E+02   -0.23385E+01 11760   0.304E+01    0.624E+01
DAV:  10    -0.812038314203E+03    0.82519E+01   -0.10354E+01 11360   0.164E+01    0.471E+01
DAV:  11    -0.813426571292E+03   -0.13883E+01   -0.62037E+00 10968   0.119E+01    0.525E+01
DAV:  12    -0.815277460377E+03   -0.18509E+01   -0.48811E+00 10448   0.627E+00    0.548E+01
DAV:  13    -0.814935893091E+03    0.34157E+00   -0.34734E+00 10608   0.692E+00    0.534E+01
DAV:  14    -0.814768324669E+03    0.16757E+00   -0.23924E+00 10704   0.600E+00    0.531E+01
DAV:  15    -0.814470071488E+03    0.29825E+00   -0.24950E+00 11992   0.719E+00    0.517E+01
DAV:  16    -0.813850767137E+03    0.61930E+00   -0.43960E+00 11344   0.100E+01    0.491E+01
DAV:  17    -0.813099962555E+03    0.75080E+00   -0.35688E+00 11448   0.920E+00    0.442E+01
DAV:  18    -0.809994566525E+03    0.31054E+01   -0.49323E+00 11952   0.970E+00    0.361E+01
DAV:  19    -0.809894790530E+03    0.99776E-01   -0.37444E+00 11560   0.121E+01    0.419E+01
DAV:  20    -0.807726398447E+03    0.21684E+01   -0.24735E+00 10976   0.776E+00    0.308E+01
DAV:  21    -0.807043586818E+03    0.68281E+00   -0.21337E+00 11184   0.756E+00    0.244E+01
DAV:  22    -0.806098497819E+03    0.94509E+00   -0.11527E+00 10912   0.535E+00    0.184E+01
DAV:  23    -0.805835372867E+03    0.26312E+00   -0.56995E-01 11768   0.395E+00    0.171E+01
DAV:  24    -0.805661046467E+03    0.17433E+00   -0.39413E-01 11216   0.306E+00    0.162E+01
DAV:  25    -0.805583482199E+03    0.77564E-01   -0.22461E-01 11344   0.223E+00    0.165E+01
DAV:  26    -0.805586908546E+03   -0.34263E-02   -0.23414E-01 11728   0.200E+00    0.167E+01
DAV:  27    -0.805372506233E+03    0.21440E+00   -0.20685E-01 11864   0.231E+00    0.142E+01
DAV:  28    -0.805313172117E+03    0.59334E-01   -0.23440E-01 11568   0.263E+00    0.141E+01
DAV:  29    -0.805155665636E+03    0.15751E+00   -0.21768E-01 11264   0.234E+00    0.121E+01
DAV:  30    -0.805201356788E+03   -0.45691E-01   -0.29672E-01 11168   0.294E+00    0.129E+01
DAV:  31    -0.805052676816E+03    0.14868E+00   -0.24524E-01 10760   0.227E+00    0.109E+01
DAV:  32    -0.804968869479E+03    0.83807E-01   -0.98263E-02 10576   0.145E+00    0.102E+01
DAV:  33    -0.804992403559E+03   -0.23534E-01   -0.91098E-02 10928   0.151E+00    0.107E+01
DAV:  34    -0.804917792239E+03    0.74611E-01   -0.56357E-02 10800   0.114E+00    0.970E+00
DAV:  35    -0.804892085918E+03    0.25706E-01   -0.46578E-02 10992   0.113E+00    0.961E+00
DAV:  36    -0.804831610702E+03    0.60475E-01   -0.42717E-02 10904   0.973E-01    0.857E+00
DAV:  37    -0.804772325577E+03    0.59285E-01   -0.42740E-02 10816   0.996E-01    0.766E+00
DAV:  38    -0.804722710175E+03    0.49615E-01   -0.42479E-02 10912   0.987E-01    0.664E+00
DAV:  39    -0.804677855543E+03    0.44855E-01   -0.27081E-02 11000   0.650E-01    0.573E+00
DAV:  40    -0.804661405458E+03    0.16450E-01   -0.20762E-02 10528   0.590E-01    0.546E+00
DAV:  41    -0.804641354537E+03    0.20051E-01   -0.10644E-02 10616   0.431E-01    0.497E+00
DAV:  42    -0.804624630338E+03    0.16724E-01   -0.75851E-03 10800   0.387E-01    0.458E+00
DAV:  43    -0.804605277286E+03    0.19353E-01   -0.10694E-02 11000   0.486E-01    0.399E+00
DAV:  44    -0.804579602369E+03    0.25675E-01   -0.15029E-02 12160   0.541E-01    0.307E+00
DAV:  45    -0.804559660777E+03    0.19942E-01   -0.13786E-02 11800   0.533E-01    0.198E+00
DAV:  46    -0.804553115728E+03    0.65450E-02   -0.96733E-03 11688   0.398E-01    0.138E+00
DAV:  47    -0.804553194317E+03   -0.78589E-04   -0.19592E-02 15152   0.539E-01    0.118E+00
DAV:  48    -0.804551810782E+03    0.13835E-02   -0.69881E-03 12304   0.316E-01    0.972E-01
DAV:  49    -0.804550778396E+03    0.10324E-02   -0.38072E-03 10928   0.266E-01    0.829E-01
DAV:  50    -0.804551343359E+03   -0.56496E-03   -0.46779E-03 10728   0.323E-01    0.855E-01
DAV:  51    -0.804550730296E+03    0.61306E-03   -0.44561E-03 10824   0.341E-01    0.725E-01
DAV:  52    -0.804555777109E+03   -0.50468E-02   -0.10638E-02 12696   0.605E-01    0.128E+00
DAV:  53    -0.804550492443E+03    0.52847E-02   -0.80593E-03 11896   0.525E-01    0.641E-01
DAV:  54    -0.804549749356E+03    0.74309E-03   -0.26676E-03 11744   0.302E-01    0.552E-01
DAV:  55    -0.804549225713E+03    0.52364E-03   -0.12771E-03 11832   0.192E-01    0.361E-01
DAV:  56    -0.804549068561E+03    0.15715E-03   -0.87732E-04 11352   0.148E-01    0.293E-01
DAV:  57    -0.804549293963E+03   -0.22540E-03   -0.58449E-04 11688   0.138E-01    0.353E-01
DAV:  58    -0.804549057246E+03    0.23672E-03   -0.63653E-04 11072   0.112E-01    0.223E-01
DAV:  59    -0.804549050725E+03    0.65211E-05   -0.17638E-04 10368   0.658E-02    0.169E-01
DAV:  60    -0.804549047383E+03    0.33421E-05   -0.14640E-04 10168   0.647E-02
  13 F= -.88831511E+03 E0= -.88814079E+03  d E =-.137478E+03
       N       E                     dE             d eps       ncg     rms          rms(c)
DAV:   1    -0.184060842693E+03    0.62049E+03   -0.68439E+04  9880   0.421E+02    0.342E+02
DAV:   2    -0.208783868860E+04   -0.19038E+04   -0.64750E+03 10128   0.299E+02    0.467E+02
DAV:   3    -0.443987517727E+04   -0.23520E+04   -0.46952E+03 10936   0.464E+02    0.420E+02
DAV:   4    -0.933502196713E+04   -0.48951E+04   -0.36357E+04 13792   0.378E+02    0.169E+03
DAV:   5    -0.100924954193E+05   -0.75747E+03   -0.10418E+04 15408   0.147E+02    0.129E+03
DAV:   6    -0.278424493217E+04    0.73083E+04   -0.38812E+04 17231   0.330E+02    0.805E+02
DAV:   7    -0.296627691501E+04   -0.18203E+03   -0.15952E+04 13856   0.187E+02    0.446E+02
DAV:   8    -0.141729731713E+04    0.15490E+04   -0.53705E+03 14304   0.193E+02    0.258E+02
DAV:   9    -0.108698891708E+04    0.33031E+03   -0.26199E+03 14800   0.124E+02    0.210E+02
DAV:  10    -0.115467328187E+04   -0.67684E+02   -0.68826E+02 10880   0.131E+02    0.235E+02
DAV:  11    -0.946608356075E+03    0.20806E+03   -0.39682E+02 10728   0.927E+01    0.178E+02
DAV:  12    -0.879411441380E+03    0.67197E+02   -0.19645E+02 10872   0.669E+01    0.159E+02
DAV:  13    -0.857966945006E+03    0.21444E+02   -0.14561E+02 12104   0.453E+01    0.141E+02
DAV:  14    -0.860674201316E+03   -0.27073E+01   -0.74170E+01 10264   0.495E+01    0.135E+02
DAV:  15    -0.843401549744E+03    0.17273E+02   -0.44879E+01 12296   0.253E+01    0.117E+02
DAV:  16    -0.840417729369E+03    0.29838E+01   -0.16460E+01 10792   0.168E+01    0.112E+02
DAV:  17    -0.837814359457E+03    0.26034E+01   -0.80909E+00 11792   0.143E+01    0.107E+02
DAV:  18    -0.836736083082E+03    0.10783E+01   -0.10897E+01 10872   0.143E+01    0.103E+02
DAV:  19    -0.833693877633E+03    0.30422E+01   -0.82589E+00 10248   0.143E+01    0.936E+01
DAV:  20    -0.836217992278E+03   -0.25241E+01   -0.80195E+00 10448   0.167E+01    0.852E+01
DAV:  21    -0.836206187265E+03    0.11805E-01   -0.94812E+00 10520   0.150E+01    0.774E+01
DAV:  22    -0.835980577096E+03    0.22561E+00   -0.83255E+00 10560   0.137E+01    0.674E+01
DAV:  23    -0.833770659037E+03    0.22099E+01   -0.74764E+00 11816   0.144E+01    0.578E+01
DAV:  24    -0.835436955034E+03   -0.16663E+01   -0.93512E+00 10984   0.130E+01    0.519E+01
DAV:  25    -0.834747866217E+03    0.68909E+00   -0.66775E+00 10568   0.113E+01    0.488E+01
DAV:  26    -0.835772033104E+03   -0.10242E+01   -0.59566E+00 10440   0.956E+00    0.483E+01
DAV:  27    -0.834353572156E+03    0.14185E+01   -0.28108E+00 10416   0.770E+00    0.440E+01
DAV:  28    -0.833320708626E+03    0.10329E+01   -0.16424E+00 10672   0.485E+00    0.411E+01
DAV:  29    -0.832502400230E+03    0.81831E+00   -0.10558E+00 10456   0.488E+00    0.384E+01
DAV:  30    -0.832500144177E+03    0.22561E-02   -0.16952E+00 10504   0.570E+00    0.389E+01
DAV:  31    -0.832006527635E+03    0.49362E+00   -0.22590E+00 10992   0.716E+00    0.385E+01
DAV:  32    -0.830565683947E+03    0.14408E+01   -0.24409E+00 10840   0.754E+00    0.341E+01
DAV:  33    -0.829378073138E+03    0.11876E+01   -0.15333E+00 11744   0.579E+00    0.283E+01
DAV:  34    -0.828569398482E+03    0.80867E+00   -0.98566E-01 10752   0.486E+00    0.245E+01
DAV:  35    -0.828224025758E+03    0.34537E+00   -0.62244E-01 10832   0.380E+00    0.225E+01
DAV:  36    -0.828024054483E+03    0.19997E+00   -0.67706E-01 11288   0.369E+00    0.215E+01
DAV:  37    -0.827706680624E+03    0.31737E+00   -0.55497E-01 10616   0.383E+00    0.193E+01
DAV:  38    -0.827379124860E+03    0.32756E+00   -0.47160E-01 10664   0.318E+00    0.162E+01
DAV:  39    -0.827138470274E+03    0.24065E+00   -0.39228E-01 11144   0.291E+00    0.131E+01
DAV:  40    -0.827043731011E+03    0.94739E-01   -0.41955E-01 12008   0.264E+00    0.115E+01
DAV:  41    -0.826989238404E+03    0.54493E-01   -0.31560E-01 11352   0.231E+00    0.101E+01
DAV:  42    -0.826975003550E+03    0.14235E-01   -0.22981E-01 10912   0.198E+00    0.897E+00
DAV:  43    -0.826951066356E+03    0.23937E-01   -0.17907E-01 10904   0.191E+00    0.788E+00
DAV:  44    -0.826932599710E+03    0.18467E-01   -0.13366E-01 10872   0.183E+00    0.693E+00
DAV:  45    -0.826915594107E+03    0.17006E-01   -0.10506E-01 10984   0.141E+00    0.657E+00
DAV:  46    -0.826925961105E+03   -0.10367E-01   -0.68755E-02 11000   0.119E+00    0.626E+00
DAV:  47    -0.827253976741E+03   -0.32802E+00   -0.80563E-01 16432   0.318E+00    0.116E+01
DAV:  48    -0.826949394252E+03    0.30458E+00   -0.10129E+00 11584   0.315E+00    0.636E+00
DAV:  49    -0.826953217235E+03   -0.38230E-02   -0.29617E-01 11456   0.309E+00    0.664E+00
DAV:  50    -0.826866860854E+03    0.86356E-01   -0.19208E-01 11096   0.255E+00    0.449E+00
DAV:  51    -0.826859122264E+03    0.77386E-02   -0.16851E-01 11096   0.213E+00    0.420E+00
DAV:  52    -0.827197576467E+03   -0.33845E+00   -0.66850E-01 11384   0.280E+00    0.107E+01
DAV:  53    -0.826854976791E+03    0.34260E+00   -0.37838E-01 10808   0.233E+00    0.449E+00
DAV:  54    -0.826837279404E+03    0.17697E-01   -0.94730E-02 11288   0.176E+00    0.365E+00
DAV:  55    -0.826821783399E+03    0.15496E-01   -0.73201E-02 10944   0.169E+00    0.304E+00
DAV:  56    -0.826806943610E+03    0.14840E-01   -0.54519E-02 11096   0.126E+00    0.249E+00
DAV:  57    -0.826836186618E+03   -0.29243E-01   -0.89060E-02 12400   0.135E+00    0.390E+00
DAV:  58    -0.826788497886E+03    0.47689E-01   -0.10468E-01 10960   0.113E+00    0.133E+00
DAV:  59    -0.826789175592E+03   -0.67771E-03   -0.15156E-02 10880   0.647E-01    0.120E+00
DAV:  60    -0.826787168727E+03    0.20069E-02   -0.94297E-03 10992   0.522E-01
[...]
DAV:  56    -0.962966644857E+03    0.28704E-01   -0.61652E-02 11280   0.156E+00    0.328E+00
DAV:  57    -0.963000200875E+03   -0.33556E-01   -0.90041E-02 11488   0.184E+00    0.427E+00
DAV:  58    -0.962941818895E+03    0.58382E-01   -0.89900E-02 11288   0.161E+00    0.225E+00
DAV:  59    -0.962937052456E+03    0.47664E-02   -0.26377E-02 11432   0.109E+00    0.197E+00
DAV:  60    -0.962929876372E+03    0.71761E-02   -0.18876E-02 11272   0.863E-01
  36 F= -.10386901E+04 E0= -.10385278E+04  d E =-.153984E+02
       N       E                     dE             d eps       ncg     rms          rms(c)
DAV:   1    -0.800083352875E+03    0.16285E+03   -0.26862E+04  9656   0.234E+02    0.126E+02
DAV:   2    -0.137888099282E+04   -0.57880E+03   -0.18706E+03 10056   0.175E+02    0.409E+02
DAV:   3    -0.138141370633E+04   -0.25327E+01   -0.93509E+02 10096   0.167E+02    0.240E+02
DAV:   4    -0.250635647751E+04   -0.11249E+04   -0.31003E+02 10144   0.245E+02    0.297E+02
DAV:   5    -0.231227630169E+04    0.19408E+03   -0.36934E+02 11224   0.174E+02    0.334E+02
DAV:   6    -0.132927324863E+04    0.98300E+03   -0.32609E+02 12888   0.110E+02    0.204E+02
DAV:   7    -0.122644806926E+04    0.10283E+03   -0.20139E+02 10296   0.100E+02    0.171E+02
DAV:   8    -0.113994143704E+04    0.86507E+02   -0.18147E+02 10080   0.755E+01    0.146E+02
DAV:   9    -0.109581701388E+04    0.44124E+02   -0.11913E+02 10384   0.699E+01    0.140E+02
DAV:  10    -0.103024061070E+04    0.65576E+02   -0.67257E+01 10072   0.486E+01    0.929E+01
DAV:  11    -0.994479194127E+03    0.35761E+02   -0.48943E+01 10568   0.392E+01    0.691E+01
DAV:  12    -0.987054492260E+03    0.74247E+01   -0.37066E+01 10352   0.328E+01    0.642E+01
DAV:  13    -0.980552519659E+03    0.65020E+01   -0.28928E+01 10120   0.256E+01    0.521E+01
DAV:  14    -0.981431079927E+03   -0.87856E+00   -0.15925E+01 10064   0.189E+01    0.518E+01
DAV:  15    -0.980592599868E+03    0.83848E+00   -0.79816E+00 10400   0.151E+01    0.479E+01
DAV:  16    -0.980422015330E+03    0.17058E+00   -0.65310E+00 10185   0.128E+01    0.455E+01
DAV:  17    -0.979652107213E+03    0.76991E+00   -0.41091E+00 10256   0.118E+01    0.415E+01
DAV:  18    -0.981122699791E+03   -0.14706E+01   -0.51727E+00 10368   0.146E+01    0.412E+01
DAV:  19    -0.990135260826E+03   -0.90126E+01   -0.10259E+01 10928   0.222E+01    0.576E+01
DAV:  20    -0.988319707965E+03    0.18156E+01   -0.85751E+00 11096   0.194E+01    0.542E+01
DAV:  21    -0.985754199862E+03    0.25655E+01   -0.81440E+00 10648   0.162E+01    0.464E+01
DAV:  22    -0.982378585139E+03    0.33756E+01   -0.71762E+00 10440   0.131E+01    0.336E+01
DAV:  23    -0.980907272412E+03    0.14713E+01   -0.45220E+00 10328   0.122E+01    0.307E+01
DAV:  24    -0.980904214879E+03    0.30575E-02   -0.36887E+00 10336   0.112E+01    0.322E+01
DAV:  25    -0.979870014722E+03    0.10342E+01   -0.21131E+00 10352   0.778E+00    0.252E+01
DAV:  26    -0.979815780646E+03    0.54234E-01   -0.11759E+00 10320   0.684E+00    0.258E+01
DAV:  27    -0.979905806833E+03   -0.90026E-01   -0.11759E+00 10432   0.613E+00    0.264E+01
DAV:  28    -0.979094856044E+03    0.81095E+00   -0.22310E+00 10616   0.506E+00    0.200E+01
DAV:  29    -0.978298400476E+03    0.79646E+00   -0.12714E+00 10528   0.686E+00    0.167E+01
DAV:  30    -0.977998401493E+03    0.30000E+00   -0.13275E+00 10416   0.602E+00    0.145E+01
DAV:  31    -0.977441533328E+03    0.55687E+00   -0.77603E-01 10440   0.491E+00    0.990E+00
DAV:  32    -0.977242648954E+03    0.19888E+00   -0.31708E-01 10224   0.301E+00    0.781E+00
DAV:  33    -0.977257012466E+03   -0.14364E-01   -0.18025E-01 10416   0.222E+00    0.799E+00
DAV:  34    -0.977246968478E+03    0.10044E-01   -0.12109E-01 10472   0.178E+00    0.771E+00
DAV:  35    -0.977226239084E+03    0.20729E-01   -0.80814E-02 10648   0.151E+00    0.737E+00
DAV:  36    -0.977198759971E+03    0.27479E-01   -0.76720E-02 10656   0.161E+00    0.700E+00
DAV:  37    -0.977138830467E+03    0.59930E-01   -0.77672E-02 10544   0.158E+00    0.609E+00
DAV:  38    -0.977085290822E+03    0.53540E-01   -0.10390E-01 11376   0.176E+00    0.524E+00
DAV:  39    -0.977043280695E+03    0.42010E-01   -0.78006E-02 10768   0.140E+00    0.427E+00
DAV:  40    -0.977027454805E+03    0.15826E-01   -0.50350E-02 10584   0.916E-01    0.376E+00
DAV:  41    -0.977027180021E+03    0.27478E-03   -0.30725E-02 10472   0.776E-01    0.375E+00
DAV:  42    -0.977019353752E+03    0.78263E-02   -0.14519E-02 11128   0.518E-01    0.342E+00
DAV:  43    -0.977019703787E+03   -0.35003E-03   -0.12740E-02 10968   0.602E-01    0.342E+00
DAV:  44    -0.977016318888E+03    0.33849E-02   -0.12664E-02 11056   0.647E-01    0.325E+00
DAV:  45    -0.977008537335E+03    0.77816E-02   -0.14790E-02 11112   0.666E-01    0.290E+00
DAV:  46    -0.977007280456E+03    0.12569E-02   -0.17895E-02 10824   0.811E-01    0.261E+00
DAV:  47    -0.977043114022E+03   -0.35834E-01   -0.12032E-01 14784   0.176E+00    0.374E+00
DAV:  48    -0.977025193934E+03    0.17920E-01   -0.63970E-02 12904   0.148E+00    0.318E+00
DAV:  49    -0.977019119556E+03    0.60744E-02   -0.45396E-02 12576   0.126E+00    0.292E+00
DAV:  50    -0.977014514263E+03    0.46053E-02   -0.40306E-02 11768   0.132E+00    0.263E+00
DAV:  51    -0.977012123141E+03    0.23911E-02   -0.38251E-02 11920   0.128E+00    0.237E+00
DAV:  52    -0.977014065237E+03   -0.19421E-02   -0.45158E-02 11800   0.145E+00    0.249E+00
DAV:  53    -0.976996279474E+03    0.17786E-01   -0.25580E-02 11280   0.104E+00    0.165E+00
DAV:  54    -0.976991137202E+03    0.51423E-02   -0.95397E-03 11920   0.635E-01    0.124E+00
DAV:  55    -0.976987441419E+03    0.36958E-02   -0.59451E-03 11240   0.442E-01    0.842E-01
DAV:  56    -0.976986019403E+03    0.14220E-02   -0.33474E-03 11248   0.335E-01    0.673E-01
DAV:  57    -0.976995248991E+03   -0.92296E-02   -0.17598E-02 12208   0.587E-01    0.146E+00
DAV:  58    -0.976985954864E+03    0.92941E-02   -0.15584E-02 11520   0.569E-01    0.665E-01
DAV:  59    -0.976985043646E+03    0.91122E-03   -0.17245E-03 11184   0.253E-01    0.453E-01
DAV:  60    -0.976984994973E+03    0.48673E-04   -0.12678E-03 11224   0.199E-01
  37 F= -.10533924E+04 E0= -.10532283E+04  d E =-.301007E+02
       N       E                     dE             d eps       ncg     rms          rms(c)
DAV:   1    -0.981611554289E+03   -0.46265E+01   -0.44109E+03  9656   0.849E+01    0.257E+01
DAV:   2    -0.102290547760E+04   -0.41294E+02   -0.12467E+02 10488   0.349E+01    0.925E+01
DAV:   3    -0.104256037447E+04   -0.19655E+02   -0.60915E+01 10144   0.519E+01    0.987E+01
DAV:   4    -0.101088982416E+04    0.31671E+02   -0.35528E+01  9904   0.481E+01    0.612E+01
DAV:   5    -0.101676619370E+04   -0.58764E+01   -0.25500E+01 10304   0.369E+01    0.671E+01
DAV:   6    -0.103754447228E+04   -0.20778E+02   -0.20747E+01 10168   0.397E+01    0.101E+02
DAV:   7    -0.100877510044E+04    0.28769E+02   -0.13951E+01 10144   0.311E+01    0.503E+01
DAV:   8    -0.998300614153E+03    0.10474E+02   -0.85592E+00 10336   0.226E+01    0.292E+01
DAV:   9    -0.996829448711E+03    0.14712E+01   -0.63485E+00 10240   0.164E+01    0.240E+01
DAV:  10    -0.997447437645E+03   -0.61799E+00   -0.57224E+00 10200   0.153E+01    0.256E+01
DAV:  11    -0.995749569012E+03    0.16979E+01   -0.33043E+00 10192   0.116E+01    0.175E+01
DAV:  12    -0.995207258285E+03    0.54231E+00   -0.17811E+00 10184   0.873E+00    0.147E+01
DAV:  13    -0.995872247851E+03   -0.66499E+00   -0.17842E+00 10304   0.844E+00    0.226E+01
DAV:  14    -0.995732175632E+03    0.14007E+00   -0.34630E+00 10624   0.786E+00    0.157E+01
DAV:  15    -0.995520093799E+03    0.21208E+00   -0.14020E+00 10576   0.772E+00    0.159E+01
DAV:  16    -0.994894048008E+03    0.62605E+00   -0.12476E+00 10488   0.548E+00    0.105E+01
DAV:  17    -0.994788370109E+03    0.10568E+00   -0.52996E-01 10576   0.454E+00    0.946E+00
DAV:  18    -0.994654220983E+03    0.13415E+00   -0.48091E-01 10592   0.412E+00    0.726E+00
DAV:  19    -0.994524544077E+03    0.12968E+00   -0.28246E-01 10528   0.318E+00    0.529E+00
DAV:  20    -0.994463186220E+03    0.61358E-01   -0.17245E-01 10456   0.228E+00    0.394E+00
DAV:  21    -0.994434274757E+03    0.28911E-01   -0.11149E-01 10544   0.170E+00    0.302E+00
DAV:  22    -0.994426774256E+03    0.75005E-02   -0.68755E-02 10552   0.137E+00    0.252E+00
DAV:  23    -0.994415101937E+03    0.11672E-01   -0.53172E-02 10584   0.121E+00    0.191E+00
DAV:  24    -0.994411623079E+03    0.34789E-02   -0.25256E-02 10568   0.856E-01    0.160E+00
DAV:  25    -0.994409813024E+03    0.18101E-02   -0.19491E-02 10576   0.716E-01    0.140E+00
DAV:  26    -0.994407029761E+03    0.27833E-02   -0.14830E-02 10776   0.603E-01    0.106E+00
DAV:  27    -0.994407950194E+03   -0.92043E-03   -0.11554E-02 10792   0.556E-01    0.111E+00
DAV:  28    -0.994405810152E+03    0.21400E-02   -0.85327E-03 10816   0.489E-01    0.860E-01
DAV:  29    -0.994404841202E+03    0.96895E-03   -0.39338E-03 10896   0.326E-01    0.696E-01
DAV:  30    -0.994404108592E+03    0.73261E-03   -0.24921E-03 10944   0.227E-01    0.503E-01
DAV:  31    -0.994403644826E+03    0.46377E-03   -0.19502E-03 11248   0.186E-01    0.336E-01
DAV:  32    -0.994403515023E+03    0.12980E-03   -0.12007E-03 10888   0.168E-01    0.266E-01
DAV:  33    -0.994403534168E+03   -0.19145E-04   -0.97282E-04 10800   0.140E-01    0.266E-01
DAV:  34    -0.994403494250E+03    0.39918E-04   -0.66153E-04 10736   0.122E-01    0.221E-01
DAV:  35    -0.994403448373E+03    0.45877E-04   -0.43548E-04 10512   0.102E-01    0.168E-01
DAV:  36    -0.994403443098E+03    0.52752E-05   -0.30508E-04 10456   0.863E-02    0.149E-01
DAV:  37    -0.994403421674E+03    0.21424E-04   -0.20044E-04 10176   0.662E-02    0.116E-01
DAV:  38    -0.994403418830E+03    0.28440E-05   -0.15913E-04 10176   0.492E-02    0.932E-02
DAV:  39    -0.994403416740E+03    0.20904E-05   -0.86126E-05  9320   0.402E-02    0.746E-02
DAV:  40    -0.994403411282E+03    0.54576E-05   -0.51041E-05  8792   0.326E-02    0.526E-02
DAV:  41    -0.994403413666E+03   -0.23842E-05   -0.46114E-05  9160   0.234E-02
  38 F= -.10704945E+04 E0= -.10703319E+04  d E =-.171021E+02
       N       E                     dE             d eps       ncg     rms          rms(c)
DAV:   1    -0.667475641961E+03    0.32693E+03   -0.43172E+04  9704   0.314E+02    0.239E+02
DAV:   2    -0.189081234463E+04   -0.12233E+04   -0.36459E+03 10248   0.251E+02    0.755E+02
DAV:   3    -0.142145204134E+04    0.46936E+03   -0.19840E+03  9880   0.170E+02    0.265E+02
DAV:   4    -0.617783210731E+04   -0.47564E+04   -0.12995E+04 16256   0.545E+02    0.159E+03
DAV:   5    -0.714768701499E+04   -0.96985E+03   -0.12672E+04 16744   0.155E+02    0.110E+03
DAV:   6    -0.284004491932E+04    0.43076E+04   -0.35369E+03 14560   0.141E+02    0.519E+02
DAV:   7    -0.280781813943E+04    0.32227E+02   -0.34252E+03 15984   0.186E+02    0.446E+02
DAV:   8    -0.143260596696E+04    0.13752E+04   -0.20631E+03 17128   0.138E+02    0.264E+02
DAV:   9    -0.122454124284E+04    0.20806E+03   -0.12297E+03 13208   0.136E+02    0.214E+02
DAV:  10    -0.114802221694E+04    0.76519E+02   -0.77976E+02 10928   0.984E+01    0.165E+02
DAV:  11    -0.110317280440E+04    0.44849E+02   -0.37475E+02 10152   0.103E+02    0.153E+02
DAV:  12    -0.106271206542E+04    0.40461E+02   -0.20807E+02 10992   0.543E+01    0.124E+02
DAV:  13    -0.104324395184E+04    0.19468E+02   -0.11196E+02 10216   0.415E+01    0.856E+01
DAV:  14    -0.104411473851E+04   -0.87079E+00   -0.58982E+01 11040   0.443E+01    0.100E+02
DAV:  15    -0.103810635460E+04    0.60084E+01   -0.40544E+01 10208   0.302E+01    0.848E+01
DAV:  16    -0.102698911096E+04    0.11117E+02   -0.27771E+01 10192   0.246E+01    0.685E+01
DAV:  17    -0.102360461962E+04    0.33845E+01   -0.17425E+01 10272   0.233E+01    0.653E+01
DAV:  18    -0.102186969222E+04    0.17349E+01   -0.13207E+01 10368   0.236E+01    0.613E+01
DAV:  19    -0.102372126737E+04   -0.18516E+01   -0.14890E+01 10232   0.240E+01    0.616E+01
DAV:  20    -0.102512717387E+04   -0.14059E+01   -0.14211E+01 10240   0.266E+01    0.656E+01
DAV:  21    -0.102505402123E+04    0.73153E-01   -0.14698E+01 10192   0.233E+01    0.626E+01
DAV:  22    -0.102757676826E+04   -0.25227E+01   -0.14360E+01 10312   0.221E+01    0.559E+01
DAV:  23    -0.102763912803E+04   -0.62360E-01   -0.18099E+01 10232   0.260E+01    0.595E+01
DAV:  24    -0.102522817653E+04    0.24110E+01   -0.10435E+01 10320   0.171E+01    0.538E+01
DAV:  25    -0.101969749176E+04    0.55307E+01   -0.83555E+00 10560   0.177E+01    0.351E+01
DAV:  26    -0.101956814011E+04    0.12935E+00   -0.86633E+00 10464   0.176E+01    0.343E+01
DAV:  27    -0.101730931682E+04    0.22588E+01   -0.55530E+00 10376   0.131E+01    0.265E+01
DAV:  28    -0.101675994119E+04    0.54938E+00   -0.29354E+00 10304   0.872E+00    0.249E+01
DAV:  29    -0.101597454321E+04    0.78540E+00   -0.13046E+00 10328   0.501E+00    0.195E+01
DAV:  30    -0.101627321510E+04   -0.29867E+00   -0.12241E+00 10632   0.531E+00    0.235E+01
DAV:  31    -0.101579879767E+04    0.47442E+00   -0.98035E-01 10576   0.478E+00    0.187E+01
DAV:  32    -0.101645371056E+04   -0.65491E+00   -0.13801E+00 10632   0.664E+00    0.244E+01
DAV:  33    -0.101550930236E+04    0.94441E+00   -0.13229E+00 10528   0.543E+00    0.160E+01
DAV:  34    -0.101534963491E+04    0.15967E+00   -0.73466E-01 10656   0.529E+00    0.149E+01
DAV:  35    -0.101517267329E+04    0.17696E+00   -0.40069E-01 10528   0.372E+00    0.133E+01
DAV:  36    -0.101508022380E+04    0.92449E-01   -0.30068E-01 10552   0.306E+00    0.126E+01
DAV:  37    -0.101499807918E+04    0.82145E-01   -0.24576E-01 10520   0.283E+00    0.121E+01
DAV:  38    -0.101492736206E+04    0.70717E-01   -0.19334E-01 10544   0.255E+00    0.112E+01
DAV:  39    -0.101482059497E+04    0.10677E+00   -0.14753E-01 10640   0.206E+00    0.969E+00
DAV:  40    -0.101477403056E+04    0.46564E-01   -0.77032E-02 10672   0.138E+00    0.915E+00
DAV:  41    -0.101475922652E+04    0.14804E-01   -0.84874E-02 10904   0.121E+00    0.860E+00
DAV:  42    -0.101473615212E+04    0.23074E-01   -0.45183E-02 10792   0.102E+00    0.824E+00
DAV:  43    -0.101471814934E+04    0.18003E-01   -0.36010E-02 11392   0.874E-01    0.791E+00
DAV:  44    -0.101470773636E+04    0.10413E-01   -0.26027E-02 11504   0.792E-01    0.768E+00
DAV:  45    -0.101469454010E+04    0.13196E-01   -0.37018E-02 11280   0.104E+00    0.744E+00
DAV:  46    -0.101468428395E+04    0.10256E-01   -0.32441E-02 11416   0.957E-01    0.717E+00
DAV:  47    -0.101595320868E+04   -0.12689E+01   -0.11396E+00 17840   0.456E+00    0.235E+01
DAV:  48    -0.101532707790E+04    0.62613E+00   -0.15579E+00 11672   0.413E+00    0.127E+01
DAV:  49    -0.101528039466E+04    0.46683E-01   -0.39333E-01 11800   0.381E+00    0.120E+01
DAV:  50    -0.101534286680E+04   -0.62472E-01   -0.53803E-01 12784   0.370E+00    0.129E+01
DAV:  51    -0.101536002282E+04   -0.17156E-01   -0.50465E-01 12752   0.365E+00    0.122E+01
DAV:  52    -0.101529155946E+04    0.68463E-01   -0.15813E+00 12352   0.660E+00    0.121E+01
DAV:  53    -0.101499512137E+04    0.29644E+00   -0.86614E-01 11728   0.522E+00    0.822E+00
DAV:  54    -0.101508925680E+04   -0.94135E-01   -0.70573E-01 11360   0.473E+00    0.947E+00
DAV:  55    -0.101489656287E+04    0.19269E+00   -0.32918E-01 11584   0.371E+00    0.715E+00
DAV:  56    -0.101482656302E+04    0.70000E-01   -0.16802E-01 11256   0.243E+00    0.610E+00
DAV:  57    -0.101476342028E+04    0.63143E-01   -0.16604E-01 11584   0.272E+00    0.524E+00
DAV:  58    -0.101475589582E+04    0.75245E-02   -0.10493E-01 11296   0.227E+00    0.511E+00
DAV:  59    -0.101471449313E+04    0.41403E-01   -0.12224E-01 11464   0.233E+00    0.417E+00
DAV:  60    -0.101467920552E+04    0.35288E-01   -0.98138E-02 11376   0.204E+00
  39 F= -.10898514E+04 E0= -.10896885E+04  d E =-.364589E+02
       N       E                     dE             d eps       ncg     rms          rms(c)
DAV:   1    -0.101585865259E+04   -0.11442E+01   -0.36408E+03  9656   0.769E+01    0.201E+01
DAV:   2    -0.104275187830E+04   -0.26893E+02   -0.99836E+01 11208   0.266E+01    0.796E+01
DAV:   3    -0.104144408264E+04    0.13078E+01   -0.38825E+01 10392   0.283E+01    0.519E+01
DAV:   4    -0.105992697674E+04   -0.18483E+02   -0.22307E+01 10264   0.410E+01    0.919E+01
DAV:   5    -0.105635720420E+04    0.35698E+01   -0.26909E+01 10656   0.385E+01    0.786E+01
DAV:   6    -0.102947638695E+04    0.26881E+02   -0.16852E+01 11120   0.275E+01    0.307E+01
DAV:   7    -0.102925832335E+04    0.21806E+00   -0.85291E+00 10776   0.180E+01    0.308E+01
DAV:   8    -0.102892458117E+04    0.33374E+00   -0.63156E+00 11008   0.153E+01    0.282E+01
DAV:   9    -0.102706101495E+04    0.18636E+01   -0.46220E+00 11128   0.137E+01    0.225E+01
DAV:  10    -0.102728300493E+04   -0.22199E+00   -0.40784E+00 11016   0.107E+01    0.225E+01
DAV:  11    -0.102666776904E+04    0.61524E+00   -0.31659E+00 10880   0.904E+00    0.212E+01
DAV:  12    -0.102637383249E+04    0.29394E+00   -0.45331E+00 11048   0.810E+00    0.178E+01
DAV:  13    -0.102664111508E+04   -0.26728E+00   -0.27144E+00 11200   0.788E+00    0.171E+01
DAV:  14    -0.102650508740E+04    0.13603E+00   -0.22293E+00 11184   0.778E+00    0.152E+01
DAV:  15    -0.102624056213E+04    0.26453E+00   -0.10946E+00 11224   0.662E+00    0.140E+01
DAV:  16    -0.102589418911E+04    0.34637E+00   -0.72812E-01 11216   0.506E+00    0.106E+01
DAV:  17    -0.102573758699E+04    0.15660E+00   -0.66719E-01 11232   0.499E+00    0.966E+00
DAV:  18    -0.102546879528E+04    0.26879E+00   -0.34094E-01 11072   0.340E+00    0.527E+00
DAV:  19    -0.102542970721E+04    0.39088E-01   -0.19441E-01 10984   0.253E+00    0.508E+00
DAV:  20    -0.102539127120E+04    0.38436E-01   -0.10716E-01 11072   0.182E+00    0.385E+00
DAV:  21    -0.102536894892E+04    0.22322E-01   -0.71573E-02 11016   0.147E+00    0.312E+00
DAV:  22    -0.102535071963E+04    0.18229E-01   -0.43359E-02 11152   0.104E+00    0.204E+00
DAV:  23    -0.102535289907E+04   -0.21794E-02   -0.26985E-02 11264   0.925E-01    0.215E+00
DAV:  24    -0.102534553867E+04    0.73604E-02   -0.24198E-02 11288   0.859E-01    0.162E+00
DAV:  25    -0.102534557664E+04   -0.37969E-04   -0.21580E-02 12064   0.779E-01    0.161E+00
DAV:  26    -0.102533836341E+04    0.72132E-02   -0.13854E-02 11888   0.632E-01    0.872E-01
DAV:  27    -0.102533769664E+04    0.66677E-03   -0.68849E-03 12112   0.463E-01    0.783E-01
DAV:  28    -0.102533675663E+04    0.94001E-03   -0.47027E-03 11728   0.384E-01    0.570E-01
DAV:  29    -0.102533653095E+04    0.22569E-03   -0.26998E-03 11808   0.299E-01    0.498E-01
DAV:  30    -0.102533647724E+04    0.53701E-04   -0.21995E-03 11536   0.265E-01    0.451E-01
DAV:  31    -0.102533617073E+04    0.30652E-03   -0.14883E-03 11536   0.215E-01    0.358E-01
DAV:  32    -0.102533606230E+04    0.10843E-03   -0.92086E-04 11560   0.164E-01    0.299E-01
DAV:  33    -0.102533599738E+04    0.64915E-04   -0.66055E-04 11624   0.134E-01    0.249E-01
DAV:  34    -0.102533593780E+04    0.59584E-04   -0.49251E-04 11632   0.115E-01    0.195E-01
DAV:  35    -0.102533590219E+04    0.35613E-04   -0.34005E-04 11000   0.939E-02    0.147E-01
DAV:  36    -0.102533587811E+04    0.24073E-04   -0.20439E-04 10696   0.704E-02    0.105E-01
DAV:  37    -0.102533589557E+04   -0.17456E-04   -0.17354E-04 11432   0.446E-02    0.938E-02
DAV:  38    -0.102533589863E+04   -0.30622E-05   -0.63156E-05  9104   0.333E-02    0.746E-02
DAV:  39    -0.102533591484E+04   -0.16207E-04   -0.43743E-05  8880   0.252E-02    0.699E-02
DAV:  40    -0.102533592749E+04   -0.12655E-04   -0.23081E-05  7952   0.244E-02    0.591E-02
DAV:  41    -0.102533595229E+04   -0.24797E-04   -0.28542E-05  8688   0.325E-02    0.666E-02
DAV:  42    -0.102533595418E+04   -0.18857E-05   -0.27901E-05  8520   0.335E-02
  40 F= -.11002146E+04 E0= -.11000559E+04  d E =-.103633E+02
