<?xml version="1.0" encoding="ISO-8859-1"?>
<modeling>
 <generator>
  <i name="program" type="string">vasp </i>
  <i name="version" type="string">6.2.1  </i>
  <i name="subversion" type="string">16May21 (build May 12 2022 08:28:04) complex                          parallel </i>
  <i name="platform" type="string">LinuxPGI </i>
  <i name="date" type="string">2022 07 20 </i>
  <i name="time" type="string">02:20:14 </i>
 </generator>
 <incar>
  <i type="string" name="SYSTEM">NiAl</i>
  <i type="int" name="ISTART">     0</i>
  <i type="int" name="NELMIN">     6</i>
  <i type="int" name="IBRION">     2</i>
  <i name="EDIFF">      0.00000500</i>
  <i type="int" name="NSW">    40</i>
  <i type="int" name="ISIF">     0</i>
  <i name="ENCUT">    360.00000000</i>
  <i name="POTIM">      0.20000000</i>
  <i type="string" name="LREAL">Auto</i>
  <i type="logical" name="LPLANE"> T  </i>
  <i type="int" name="ISMEAR">     0</i>
  <i name="SIGMA">      0.05000000</i>
  <i type="logical" name="LWAVE"> F  </i>
  <i type="logical" name="LCHARG"> F  </i>
  <i type="int" name="IVDW">    12</i>
 </incar>
 <primitive_cell>
  <structure name="primitive_cell" >
   <crystal>
    <varray name="basis" >
     <v>      10.54150009       0.00000000       0.00000000 </v>
     <v>       5.27075005       9.12920687       0.00000000 </v>
     <v>       0.00000000       0.00000000      28.54150009 </v>
    </varray>
    <i name="volume">   2746.70653362 </i>
    <varray name="rec_basis" >
     <v>       0.09486316      -0.05476927       0.00000000 </v>
     <v>       0.00000000       0.10953854       0.00000000 </v>
     <v>       0.00000000       0.00000000       0.03503670 </v>
    </varray>
   </crystal>
   <varray name="positions" >
    <v>       0.00000000       0.00000000       0.00000000 </v>
    <v>       0.00000000       0.00000000       0.07386788 </v>
    <v>       0.00000000       0.00000000       0.14773576 </v>
    <v>       0.00000000       0.00000000       0.22160364 </v>
    <v>       0.00000000       0.00000000       0.29547151 </v>
    <v>       1.00000000       0.20000000       0.00000000 </v>
    <v>       1.00000000       0.20000000       0.07386788 </v>
    <v>       1.00000000       0.20000000       0.14773576 </v>
    <v>       1.00000000       0.20000000       0.22160364 </v>
    <v>       1.00000000       0.20000000       0.29547151 </v>
    <v>       1.00000000       0.40000001       0.00000000 </v>
    <v>       1.00000000       0.40000001       0.07386788 </v>
    <v>       1.00000000       0.40000001       0.14773576 </v>
    <v>       1.00000000       0.40000001       0.22160364 </v>
    <v>       1.00000000       0.40000001       0.29547151 </v>
    <v>       1.00000000       0.60000002       0.00000000 </v>
    <v>       1.00000000       0.60000002       0.07386788 </v>
    <v>       1.00000000       0.60000002       0.14773576 </v>
    <v>       1.00000000       0.60000002       0.22160364 </v>
    <v>       1.00000000       0.60000002       0.29547151 </v>
    <v>       1.00000000       0.80000001       0.00000000 </v>
    <v>       1.00000000       0.80000001       0.07386788 </v>
    <v>       1.00000000       0.80000001       0.14773576 </v>
    <v>       1.00000000       0.80000001       0.22160364 </v>
    <v>       1.00000000       0.80000001       0.29547151 </v>
    <v>       0.20000000       0.00000000       0.00000000 </v>
    <v>       0.20000000       0.00000000       0.07386788 </v>
    <v>       0.20000000       0.00000000       0.14773576 </v>
    <v>       0.20000000       0.00000000       0.22160364 </v>
    <v>       0.20000000       0.00000000       0.29547151 </v>
    <v>       0.20000000       0.20000000       0.00000000 </v>
    <v>       0.20000000       0.20000000       0.07386788 </v>
    <v>       0.20000000       0.20000000       0.14773576 </v>
    <v>       0.20000000       0.20000000       0.22160364 </v>
    <v>       0.20000000       0.20000000       0.29547151 </v>
    <v>       0.20000000       0.40000001       0.00000000 </v>
    <v>       0.20000000       0.40000001       0.07386788 </v>
    <v>       0.20000000       0.40000001       0.14773576 </v>
    <v>       0.20000000       0.40000001       0.22160364 </v>
    <v>       0.20000000       0.40000001       0.29547151 </v>
    <v>       0.20000000       0.60000002       0.00000000 </v>
    <v>       0.20000000       0.60000002       0.07386788 </v>
    <v>       0.20000000       0.60000002       0.14773576 </v>
    <v>       0.20000000       0.60000002       0.22160364 </v>
    <v>       0.20000000       0.60000002       0.29547151 </v>
    <v>       0.20000000       0.80000001       0.00000000 </v>
    <v>       0.20000000       0.80000001       0.07386788 </v>
    <v>       0.20000000       0.80000001       0.14773576 </v>
    <v>       0.20000000       0.80000001       0.22160364 </v>
    <v>       0.20000000       0.80000001       0.29547151 </v>
    <v>       0.40000001       0.00000000       0.00000000 </v>
    <v>       0.40000001       0.00000000       0.07386788 </v>
    <v>       0.40000001       0.00000000       0.14773576 </v>
    <v>       0.40000001       0.00000000       0.22160364 </v>
    <v>       0.40000001       0.00000000       0.29547151 </v>
    <v>       0.40000001       0.20000000       0.00000000 </v>
    <v>       0.40000001       0.20000000       0.07386788 </v>
    <v>       0.40000001       0.20000000       0.14773576 </v>
    <v>       0.40000001       0.20000000       0.22160364 </v>
    <v>       0.40000001       0.20000000       0.29547151 </v>
    <v>       0.40000001       0.40000001       0.00000000 </v>
    <v>       0.40000001       0.40000001       0.07386788 </v>
    <v>       0.40000001       0.40000001       0.14773576 </v>
    <v>       0.40000001       0.40000001       0.22160364 </v>
    <v>       0.40000001       0.40000001       0.29547151 </v>
    <v>       0.40000001       0.60000002       0.00000000 </v>
    <v>       0.40000001       0.60000002       0.07386788 </v>
    <v>       0.40000001       0.60000002       0.14773576 </v>
    <v>       0.40000001       0.60000002       0.22160364 </v>
    <v>       0.40000001       0.60000002       0.29547151 </v>
    <v>       0.40000001       0.80000001       0.00000000 </v>
    <v>       0.40000001       0.80000001       0.07386788 </v>
    <v>       0.40000001       0.80000001       0.14773576 </v>
    <v>       0.40000001       0.80000001       0.22160364 </v>
    <v>       0.40000001       0.80000001       0.29547151 </v>
    <v>       0.60000002       0.00000000       0.00000000 </v>
    <v>       0.60000002       0.00000000       0.07386788 </v>
    <v>       0.60000002       0.00000000       0.14773576 </v>
    <v>       0.60000002       0.00000000       0.22160364 </v>
    <v>       0.60000002       0.00000000       0.29547151 </v>
    <v>       0.60000002       0.20000000       0.00000000 </v>
    <v>       0.60000002       0.20000000       0.07386788 </v>
    <v>       0.60000002       0.20000000       0.14773576 </v>
    <v>       0.60000002       0.20000000       0.22160364 </v>
    <v>       0.60000002       0.20000000       0.29547151 </v>
    <v>       0.60000002       0.40000001       0.00000000 </v>
    <v>       0.60000002       0.40000001       0.07386788 </v>
    <v>       0.60000002       0.40000001       0.14773576 </v>
    <v>       0.60000002       0.40000001       0.22160364 </v>
    <v>       0.60000002       0.40000001       0.29547151 </v>
    <v>       0.60000002       0.60000002       0.00000000 </v>
    <v>       0.60000002       0.60000002       0.07386788 </v>
    <v>       0.60000002       0.60000002       0.14773576 </v>
    <v>       0.60000002       0.60000002       0.22160364 </v>
    <v>       0.60000002       0.60000002       0.29547151 </v>
    <v>       0.60000002       0.80000001       0.00000000 </v>
    <v>       0.60000002       0.80000001       0.07386788 </v>
    <v>       0.60000002       0.80000001       0.14773576 </v>
    <v>       0.60000002       0.80000001       0.22160364 </v>
    <v>       0.60000002       0.80000001       0.29547151 </v>
    <v>       0.80000001       0.00000000       0.00000000 </v>
    <v>       0.80000001       0.00000000       0.07386788 </v>
    <v>       0.80000001       0.00000000       0.14773576 </v>
    <v>       0.80000001       0.00000000       0.22160364 </v>
    <v>       0.80000001       0.00000000       0.29547151 </v>
    <v>       0.80000001       0.20000000       0.00000000 </v>
    <v>       0.80000001       0.20000000       0.07386788 </v>
    <v>       0.80000001       0.20000000       0.14773576 </v>
    <v>       0.80000001       0.20000000       0.22160364 </v>
    <v>       0.80000001       0.20000000       0.29547151 </v>
    <v>       0.80000001       0.40000001       0.00000000 </v>
    <v>       0.80000001       0.40000001       0.07386788 </v>
    <v>       0.80000001       0.40000001       0.14773576 </v>
    <v>       0.80000001       0.40000001       0.22160364 </v>
    <v>       0.80000001       0.40000001       0.29547151 </v>
    <v>       0.80000001       0.60000002       0.00000000 </v>
    <v>       0.80000001       0.60000002       0.07386788 </v>
    <v>       0.80000001       0.60000002       0.14773576 </v>
    <v>       0.80000001       0.60000002       0.22160364 </v>
    <v>       0.80000001       0.60000002       0.29547151 </v>
    <v>       0.80000001       0.80000001       0.00000000 </v>
    <v>       0.80000001       0.80000001       0.07386788 </v>
    <v>       0.80000001       0.80000001       0.14773576 </v>
    <v>       0.80000001       0.80000001       0.22160364 </v>
    <v>       0.80000001       0.80000001       0.29547151 </v>
    <v>       0.10000000       0.10000000       0.03693394 </v>
    <v>       0.10000000       0.10000000       0.11080182 </v>
    <v>       0.10000000       0.10000000       0.18466969 </v>
    <v>       0.10000000       0.10000000       0.25853757 </v>
    <v>       0.10000000       0.10000000       0.33240544 </v>
    <v>       0.10000000       0.30000001       0.03693394 </v>
    <v>       0.10000000       0.30000001       0.11080182 </v>
    <v>       0.10000000       0.30000001       0.18466969 </v>
    <v>       0.10000000       0.30000001       0.25853757 </v>
    <v>       0.10000000       0.30000001       0.33240544 </v>
    <v>       0.10000000       0.50000000       0.03693394 </v>
    <v>       0.10000000       0.50000000       0.11080182 </v>
    <v>       0.10000000       0.50000000       0.18466969 </v>
    <v>       0.10000000       0.50000000       0.25853757 </v>
    <v>       0.10000000       0.50000000       0.33240544 </v>
    <v>       0.10000000       0.69999999       0.03693394 </v>
    <v>       0.10000000       0.69999999       0.11080182 </v>
    <v>       0.10000000       0.69999999       0.18466969 </v>
    <v>       0.10000000       0.69999999       0.25853757 </v>
    <v>       0.10000000       0.69999999       0.33240544 </v>
    <v>       0.10000000       0.89999998       0.03693394 </v>
    <v>       0.10000000       0.89999998       0.11080182 </v>
    <v>       0.10000000       0.89999998       0.18466969 </v>
    <v>       0.10000000       0.89999998       0.25853757 </v>
    <v>       0.10000000       0.89999998       0.33240544 </v>
    <v>       0.30000001       0.10000000       0.03693394 </v>
    <v>       0.30000001       0.10000000       0.11080182 </v>
    <v>       0.30000001       0.10000000       0.18466969 </v>
    <v>       0.30000001       0.10000000       0.25853757 </v>
    <v>       0.30000001       0.10000000       0.33240544 </v>
    <v>       0.30000001       0.30000001       0.03693394 </v>
    <v>       0.30000001       0.30000001       0.11080182 </v>
    <v>       0.30000001       0.30000001       0.18466969 </v>
    <v>       0.30000001       0.30000001       0.25853757 </v>
    <v>       0.30000001       0.30000001       0.33240544 </v>
    <v>       0.30000001       0.50000000       0.03693394 </v>
    <v>       0.30000001       0.50000000       0.11080182 </v>
    <v>       0.30000001       0.50000000       0.18466969 </v>
    <v>       0.30000001       0.50000000       0.25853757 </v>
    <v>       0.30000001       0.50000000       0.33240544 </v>
    <v>       0.30000001       0.69999999       0.03693394 </v>
    <v>       0.30000001       0.69999999       0.11080182 </v>
    <v>       0.30000001       0.69999999       0.18466969 </v>
    <v>       0.30000001       0.69999999       0.25853757 </v>
    <v>       0.30000001       0.69999999       0.33240544 </v>
    <v>       0.30000001       0.89999998       0.03693394 </v>
    <v>       0.30000001       0.89999998       0.11080182 </v>
    <v>       0.30000001       0.89999998       0.18466969 </v>
    <v>       0.30000001       0.89999998       0.25853757 </v>
    <v>       0.30000001       0.89999998       0.33240544 </v>
    <v>       0.50000000       0.10000000       0.03693394 </v>
    <v>       0.50000000       0.10000000       0.11080182 </v>
    <v>       0.50000000       0.10000000       0.18466969 </v>
    <v>       0.50000000       0.10000000       0.25853757 </v>
    <v>       0.50000000       0.10000000       0.33240544 </v>
    <v>       0.50000000       0.30000001       0.03693394 </v>
    <v>       0.50000000       0.30000001       0.11080182 </v>
    <v>       0.50000000       0.30000001       0.18466969 </v>
    <v>       0.50000000       0.30000001       0.25853757 </v>
    <v>       0.50000000       0.30000001       0.33240544 </v>
    <v>       0.50000000       0.50000000       0.03693394 </v>
    <v>       0.50000000       0.50000000       0.11080182 </v>
    <v>       0.50000000       0.50000000       0.18466969 </v>
    <v>       0.50000000       0.50000000       0.25853757 </v>
    <v>       0.50000000       0.50000000       0.33240544 </v>
    <v>       0.50000000       0.69999999       0.03693394 </v>
    <v>       0.50000000       0.69999999       0.11080182 </v>
    <v>       0.50000000       0.69999999       0.18466969 </v>
    <v>       0.50000000       0.69999999       0.25853757 </v>
    <v>       0.50000000       0.69999999       0.33240544 </v>
    <v>       0.50000000       0.89999998       0.03693394 </v>
    <v>       0.50000000       0.89999998       0.11080182 </v>
    <v>       0.50000000       0.89999998       0.18466969 </v>
    <v>       0.50000000       0.89999998       0.25853757 </v>
    <v>       0.50000000       0.89999998       0.33240544 </v>
    <v>       0.69999999       0.10000000       0.03693394 </v>
    <v>       0.69999999       0.10000000       0.11080182 </v>
    <v>       0.69999999       0.10000000       0.18466969 </v>
    <v>       0.69999999       0.10000000       0.25853757 </v>
    <v>       0.69999999       0.10000000       0.33240544 </v>
    <v>       0.69999999       0.30000001       0.03693394 </v>
    <v>       0.69999999       0.30000001       0.11080182 </v>
    <v>       0.69999999       0.30000001       0.18466969 </v>
    <v>       0.69999999       0.30000001       0.25853757 </v>
    <v>       0.69999999       0.30000001       0.33240544 </v>
    <v>       0.69999999       0.50000000       0.03693394 </v>
    <v>       0.69999999       0.50000000       0.11080182 </v>
    <v>       0.69999999       0.50000000       0.18466969 </v>
    <v>       0.69999999       0.50000000       0.25853757 </v>
    <v>       0.69999999       0.50000000       0.33240544 </v>
    <v>       0.69999999       0.69999999       0.03693394 </v>
    <v>       0.69999999       0.69999999       0.11080182 </v>
    <v>       0.69999999       0.69999999       0.18466969 </v>
    <v>       0.69999999       0.69999999       0.25853757 </v>
    <v>       0.69999999       0.69999999       0.33240544 </v>
    <v>       0.69999999       0.89999998       0.03693394 </v>
    <v>       0.69999999       0.89999998       0.11080182 </v>
    <v>       0.69999999       0.89999998       0.18466969 </v>
    <v>       0.69999999       0.89999998       0.25853757 </v>
    <v>       0.69999999       0.89999998       0.33240544 </v>
    <v>       0.89999998       0.10000000       0.03693394 </v>
    <v>       0.89999998       0.10000000       0.11080182 </v>
    <v>       0.89999998       0.10000000       0.18466969 </v>
    <v>       0.89999998       0.10000000       0.25853757 </v>
    <v>       0.89999998       0.10000000       0.33240544 </v>
    <v>       0.89999998       0.30000001       0.03693394 </v>
    <v>       0.89999998       0.30000001       0.11080182 </v>
    <v>       0.89999998       0.30000001       0.18466969 </v>
    <v>       0.89999998       0.30000001       0.25853757 </v>
    <v>       0.89999998       0.30000001       0.33240544 </v>
    <v>       0.89999998       0.50000000       0.03693394 </v>
    <v>       0.89999998       0.50000000       0.11080182 </v>
    <v>       0.89999998       0.50000000       0.18466969 </v>
    <v>       0.89999998       0.50000000       0.25853757 </v>
    <v>       0.89999998       0.50000000       0.33240544 </v>
    <v>       0.89999998       0.69999999       0.03693394 </v>
    <v>       0.89999998       0.69999999       0.11080182 </v>
    <v>       0.89999998       0.69999999       0.18466969 </v>
    <v>       0.89999998       0.69999999       0.25853757 </v>
    <v>       0.89999998       0.69999999       0.33240544 </v>
    <v>       0.89999998       0.89999998       0.03693394 </v>
    <v>       0.89999998       0.89999998       0.11080182 </v>
    <v>       0.89999998       0.89999998       0.18466969 </v>
    <v>       0.89999998       0.89999998       0.25853757 </v>
    <v>       0.89999998       0.89999998       0.33240544 </v>
    <v>       0.42141986       0.42141986       0.36744214 </v>
    <v>       0.35569673       0.55286611       0.36744214 </v>
   </varray>
  </structure>
  <varray name="primitive_index" >
   <v type="int" >        1 </v>
   <v type="int" >        2 </v>
   <v type="int" >        3 </v>
   <v type="int" >        4 </v>
   <v type="int" >        5 </v>
   <v type="int" >        6 </v>
   <v type="int" >        7 </v>
   <v type="int" >        8 </v>
   <v type="int" >        9 </v>
   <v type="int" >       10 </v>
   <v type="int" >       11 </v>
   <v type="int" >       12 </v>
   <v type="int" >       13 </v>
   <v type="int" >       14 </v>
   <v type="int" >       15 </v>
   <v type="int" >       16 </v>
   <v type="int" >       17 </v>
   <v type="int" >       18 </v>
   <v type="int" >       19 </v>
   <v type="int" >       20 </v>
   <v type="int" >       21 </v>
   <v type="int" >       22 </v>
   <v type="int" >       23 </v>
   <v type="int" >       24 </v>
   <v type="int" >       25 </v>
   <v type="int" >       26 </v>
   <v type="int" >       27 </v>
   <v type="int" >       28 </v>
   <v type="int" >       29 </v>
   <v type="int" >       30 </v>
   <v type="int" >       31 </v>
   <v type="int" >       32 </v>
   <v type="int" >       33 </v>
   <v type="int" >       34 </v>
   <v type="int" >       35 </v>
   <v type="int" >       36 </v>
   <v type="int" >       37 </v>
   <v type="int" >       38 </v>
   <v type="int" >       39 </v>
   <v type="int" >       40 </v>
   <v type="int" >       41 </v>
   <v type="int" >       42 </v>
   <v type="int" >       43 </v>
   <v type="int" >       44 </v>
   <v type="int" >       45 </v>
   <v type="int" >       46 </v>
   <v type="int" >       47 </v>
   <v type="int" >       48 </v>
   <v type="int" >       49 </v>
   <v type="int" >       50 </v>
   <v type="int" >       51 </v>
   <v type="int" >       52 </v>
   <v type="int" >       53 </v>
   <v type="int" >       54 </v>
   <v type="int" >       55 </v>
   <v type="int" >       56 </v>
   <v type="int" >       57 </v>
   <v type="int" >       58 </v>
   <v type="int" >       59 </v>
   <v type="int" >       60 </v>
   <v type="int" >       61 </v>
   <v type="int" >       62 </v>
   <v type="int" >       63 </v>
   <v type="int" >       64 </v>
   <v type="int" >       65 </v>
   <v type="int" >       66 </v>
   <v type="int" >       67 </v>
   <v type="int" >       68 </v>
   <v type="int" >       69 </v>
   <v type="int" >       70 </v>
   <v type="int" >       71 </v>
   <v type="int" >       72 </v>
   <v type="int" >       73 </v>
   <v type="int" >       74 </v>
   <v type="int" >       75 </v>
   <v type="int" >       76 </v>
   <v type="int" >       77 </v>
   <v type="int" >       78 </v>
   <v type="int" >       79 </v>
   <v type="int" >       80 </v>
   <v type="int" >       81 </v>
   <v type="int" >       82 </v>
   <v type="int" >       83 </v>
   <v type="int" >       84 </v>
   <v type="int" >       85 </v>
   <v type="int" >       86 </v>
   <v type="int" >       87 </v>
   <v type="int" >       88 </v>
   <v type="int" >       89 </v>
   <v type="int" >       90 </v>
   <v type="int" >       91 </v>
   <v type="int" >       92 </v>
   <v type="int" >       93 </v>
   <v type="int" >       94 </v>
   <v type="int" >       95 </v>
   <v type="int" >       96 </v>
   <v type="int" >       97 </v>
   <v type="int" >       98 </v>
   <v type="int" >       99 </v>
   <v type="int" >      100 </v>
   <v type="int" >      101 </v>
   <v type="int" >      102 </v>
   <v type="int" >      103 </v>
   <v type="int" >      104 </v>
   <v type="int" >      105 </v>
   <v type="int" >      106 </v>
   <v type="int" >      107 </v>
   <v type="int" >      108 </v>
   <v type="int" >      109 </v>
   <v type="int" >      110 </v>
   <v type="int" >      111 </v>
   <v type="int" >      112 </v>
   <v type="int" >      113 </v>
   <v type="int" >      114 </v>
   <v type="int" >      115 </v>
   <v type="int" >      116 </v>
   <v type="int" >      117 </v>
   <v type="int" >      118 </v>
   <v type="int" >      119 </v>
   <v type="int" >      120 </v>
   <v type="int" >      121 </v>
   <v type="int" >      122 </v>
   <v type="int" >      123 </v>
   <v type="int" >      124 </v>
   <v type="int" >      125 </v>
   <v type="int" >      126 </v>
   <v type="int" >      127 </v>
   <v type="int" >      128 </v>
   <v type="int" >      129 </v>
   <v type="int" >      130 </v>
   <v type="int" >      131 </v>
   <v type="int" >      132 </v>
   <v type="int" >      133 </v>
   <v type="int" >      134 </v>
   <v type="int" >      135 </v>
   <v type="int" >      136 </v>
   <v type="int" >      137 </v>
   <v type="int" >      138 </v>
   <v type="int" >      139 </v>
   <v type="int" >      140 </v>
   <v type="int" >      141 </v>
   <v type="int" >      142 </v>
   <v type="int" >      143 </v>
   <v type="int" >      144 </v>
   <v type="int" >      145 </v>
   <v type="int" >      146 </v>
   <v type="int" >      147 </v>
   <v type="int" >      148 </v>
   <v type="int" >      149 </v>
   <v type="int" >      150 </v>
   <v type="int" >      151 </v>
   <v type="int" >      152 </v>
   <v type="int" >      153 </v>
   <v type="int" >      154 </v>
   <v type="int" >      155 </v>
   <v type="int" >      156 </v>
   <v type="int" >      157 </v>
   <v type="int" >      158 </v>
   <v type="int" >      159 </v>
   <v type="int" >      160 </v>
   <v type="int" >      161 </v>
   <v type="int" >      162 </v>
   <v type="int" >      163 </v>
   <v type="int" >      164 </v>
   <v type="int" >      165 </v>
   <v type="int" >      166 </v>
   <v type="int" >      167 </v>
   <v type="int" >      168 </v>
   <v type="int" >      169 </v>
   <v type="int" >      170 </v>
   <v type="int" >      171 </v>
   <v type="int" >      172 </v>
   <v type="int" >      173 </v>
   <v type="int" >      174 </v>
   <v type="int" >      175 </v>
   <v type="int" >      176 </v>
   <v type="int" >      177 </v>
   <v type="int" >      178 </v>
   <v type="int" >      179 </v>
   <v type="int" >      180 </v>
   <v type="int" >      181 </v>
   <v type="int" >      182 </v>
   <v type="int" >      183 </v>
   <v type="int" >      184 </v>
   <v type="int" >      185 </v>
   <v type="int" >      186 </v>
   <v type="int" >      187 </v>
   <v type="int" >      188 </v>
   <v type="int" >      189 </v>
   <v type="int" >      190 </v>
   <v type="int" >      191 </v>
   <v type="int" >      192 </v>
   <v type="int" >      193 </v>
   <v type="int" >      194 </v>
   <v type="int" >      195 </v>
   <v type="int" >      196 </v>
   <v type="int" >      197 </v>
   <v type="int" >      198 </v>
   <v type="int" >      199 </v>
   <v type="int" >      200 </v>
   <v type="int" >      201 </v>
   <v type="int" >      202 </v>
   <v type="int" >      203 </v>
   <v type="int" >      204 </v>
   <v type="int" >      205 </v>
   <v type="int" >      206 </v>
   <v type="int" >      207 </v>
   <v type="int" >      208 </v>
   <v type="int" >      209 </v>
   <v type="int" >      210 </v>
   <v type="int" >      211 </v>
   <v type="int" >      212 </v>
   <v type="int" >      213 </v>
   <v type="int" >      214 </v>
   <v type="int" >      215 </v>
   <v type="int" >      216 </v>
   <v type="int" >      217 </v>
   <v type="int" >      218 </v>
   <v type="int" >      219 </v>
   <v type="int" >      220 </v>
   <v type="int" >      221 </v>
   <v type="int" >      222 </v>
   <v type="int" >      223 </v>
   <v type="int" >      224 </v>
   <v type="int" >      225 </v>
   <v type="int" >      226 </v>
   <v type="int" >      227 </v>
   <v type="int" >      228 </v>
   <v type="int" >      229 </v>
   <v type="int" >      230 </v>
   <v type="int" >      231 </v>
   <v type="int" >      232 </v>
   <v type="int" >      233 </v>
   <v type="int" >      234 </v>
   <v type="int" >      235 </v>
   <v type="int" >      236 </v>
   <v type="int" >      237 </v>
   <v type="int" >      238 </v>
   <v type="int" >      239 </v>
   <v type="int" >      240 </v>
   <v type="int" >      241 </v>
   <v type="int" >      242 </v>
   <v type="int" >      243 </v>
   <v type="int" >      244 </v>
   <v type="int" >      245 </v>
   <v type="int" >      246 </v>
   <v type="int" >      247 </v>
   <v type="int" >      248 </v>
   <v type="int" >      249 </v>
   <v type="int" >      250 </v>
   <v type="int" >      251 </v>
   <v type="int" >      252 </v>
  </varray>
 </primitive_cell>
 <kpoints>
  <generation param="Gamma">
   <v type="int" name="divisions">       2        2        1 </v>
   <v name="usershift">      0.00000000       0.00000000       0.00000000 </v>
   <v name="genvec1">      0.50000000      -0.00000000       0.00000000 </v>
   <v name="genvec2">      0.00000000       0.50000000       0.00000000 </v>
   <v name="genvec3">      0.00000000       0.00000000       1.00000000 </v>
   <v name="shift">      0.00000000       0.00000000       0.00000000 </v>
  </generation>
  <varray name="kpointlist" >
   <v>       0.00000000       0.00000000       0.00000000 </v>
   <v>       0.50000000       0.00000000       0.00000000 </v>
   <v>       0.50000000       0.50000000       0.00000000 </v>
   <v>       0.00000000       0.50000000       0.00000000 </v>
  </varray>
  <varray name="weights" >
   <v>       0.25000000 </v>
   <v>       0.25000000 </v>
   <v>       0.25000000 </v>
   <v>       0.25000000 </v>
  </varray>
 </kpoints>
 <parameters>
  <separator name="general" >
   <i type="string" name="SYSTEM">NiAl</i>
   <i type="logical" name="LCOMPAT"> F  </i>
  </separator>
  <separator name="electronic" >
   <i type="string" name="PREC">normal</i>
   <i name="ENMAX">    360.00000000</i>
   <i name="ENAUG">   1139.60900000</i>
   <i name="EDIFF">      0.00000500</i>
   <i type="int" name="IALGO">    38</i>
   <i type="int" name="IWAVPR">    11</i>
   <i type="int" name="NBANDS">  1207</i>
   <i type="int" name="NBANDSLOW">    -1</i>
   <i type="int" name="NBANDSHIGH">    -1</i>
   <i name="NELECT">   2012.00000000</i>
   <i type="int" name="TURBO">     0</i>
   <i type="int" name="IRESTART">     0</i>
   <i type="int" name="NREBOOT">     0</i>
   <i type="int" name="NMIN">     0</i>
   <i name="EREF">      0.00000000</i>
   <separator name="electronic smearing" >
    <i type="int" name="ISMEAR">     0</i>
    <i name="SIGMA">      0.05000000</i>
    <i name="KSPACING">      0.50000000</i>
    <i type="logical" name="KGAMMA"> T  </i>
    <i type="logical" name="KBLOWUP"> T  </i>
   </separator>
   <separator name="electronic projectors" >
    <i type="logical" name="LREAL"> T  </i>
    <v name="ROPT">     -0.00050000     -0.00050000</v>
    <i type="int" name="LMAXPAW">  -100</i>
    <i type="int" name="LMAXMIX">     2</i>
    <i type="logical" name="NLSPLINE"> F  </i>
   </separator>
   <separator name="electronic startup" >
    <i type="int" name="ISTART">     0</i>
    <i type="int" name="ICHARG">     2</i>
    <i type="int" name="INIWAV">     1</i>
   </separator>
   <separator name="electronic spin" >
    <i type="int" name="ISPIN">     1</i>
    <i type="logical" name="LNONCOLLINEAR"> F  </i>
    <v name="MAGMOM">      1.00000000      1.00000000      1.00000000      1.00000000      1.00000000      1.00000000      1.00000000      1.00000000      1.00000000      1.00000000      1.00000000      1.00000000      1.00000000      1.00000000      1.00000000      1.00000000      1.00000000      1.00000000      1.00000000      1.00000000
      1.00000000      1.00000000      1.00000000      1.00000000      1.00000000      1.00000000      1.00000000      1.00000000      1.00000000      1.00000000      1.00000000      1.00000000      1.00000000      1.00000000      1.00000000      1.00000000      1.00000000      1.00000000      1.00000000      1.00000000
      1.00000000      1.00000000      1.00000000      1.00000000      1.00000000      1.00000000      1.00000000      1.00000000      1.00000000      1.00000000      1.00000000      1.00000000      1.00000000      1.00000000      1.00000000      1.00000000      1.00000000      1.00000000      1.00000000      1.00000000
      1.00000000      1.00000000      1.00000000      1.00000000      1.00000000      1.00000000      1.00000000      1.00000000      1.00000000      1.00000000      1.00000000      1.00000000      1.00000000      1.00000000      1.00000000      1.00000000      1.00000000      1.00000000      1.00000000      1.00000000
      1.00000000      1.00000000      1.00000000      1.00000000      1.00000000      1.00000000      1.00000000      1.00000000      1.00000000      1.00000000      1.00000000      1.00000000      1.00000000      1.00000000      1.00000000      1.00000000      1.00000000      1.00000000      1.00000000      1.00000000
      1.00000000      1.00000000      1.00000000      1.00000000      1.00000000      1.00000000      1.00000000      1.00000000      1.00000000      1.00000000      1.00000000      1.00000000      1.00000000      1.00000000      1.00000000      1.00000000      1.00000000      1.00000000      1.00000000      1.00000000
      1.00000000      1.00000000      1.00000000      1.00000000      1.00000000      1.00000000      1.00000000      1.00000000      1.00000000      1.00000000      1.00000000      1.00000000      1.00000000      1.00000000      1.00000000      1.00000000      1.00000000      1.00000000      1.00000000      1.00000000
      1.00000000      1.00000000      1.00000000      1.00000000      1.00000000      1.00000000      1.00000000      1.00000000      1.00000000      1.00000000      1.00000000      1.00000000      1.00000000      1.00000000      1.00000000      1.00000000      1.00000000      1.00000000      1.00000000      1.00000000
      1.00000000      1.00000000      1.00000000      1.00000000      1.00000000      1.00000000      1.00000000      1.00000000      1.00000000      1.00000000      1.00000000      1.00000000      1.00000000      1.00000000      1.00000000      1.00000000      1.00000000      1.00000000      1.00000000      1.00000000
      1.00000000      1.00000000      1.00000000      1.00000000      1.00000000      1.00000000      1.00000000      1.00000000      1.00000000      1.00000000      1.00000000      1.00000000      1.00000000      1.00000000      1.00000000      1.00000000      1.00000000      1.00000000      1.00000000      1.00000000
      1.00000000      1.00000000      1.00000000      1.00000000      1.00000000      1.00000000      1.00000000      1.00000000      1.00000000      1.00000000      1.00000000      1.00000000      1.00000000      1.00000000      1.00000000      1.00000000      1.00000000      1.00000000      1.00000000      1.00000000
      1.00000000      1.00000000      1.00000000      1.00000000      1.00000000      1.00000000      1.00000000      1.00000000      1.00000000      1.00000000      1.00000000      1.00000000      1.00000000      1.00000000      1.00000000      1.00000000      1.00000000      1.00000000      1.00000000      1.00000000
      1.00000000      1.00000000      1.00000000      1.00000000      1.00000000      1.00000000      1.00000000      1.00000000      1.00000000      1.00000000      1.00000000      1.00000000</v>
    <i name="NUPDOWN">     -1.00000000</i>
    <i type="logical" name="LSORBIT"> F  </i>
    <v name="SAXIS">      0.00000000      0.00000000      1.00000000</v>
    <i type="logical" name="LSPIRAL"> F  </i>
    <v name="QSPIRAL">      0.00000000      0.00000000      0.00000000</v>
    <i type="logical" name="LZEROZ"> F  </i>
   </separator>
   <separator name="electronic exchange-correlation" >
    <i type="logical" name="LASPH"> F  </i>
    <i type="logical" name="LMETAGGA"> F  </i>
   </separator>
   <separator name="electronic convergence" >
    <i type="int" name="NELM">    60</i>
    <i type="int" name="NELMDL">    -5</i>
    <i type="int" name="NELMIN">     6</i>
    <i name="ENINI">    360.00000000</i>
    <separator name="electronic convergence detail" >
     <i type="logical" name="LDIAG"> T  </i>
     <i type="logical" name="LSUBROT"> F  </i>
     <i name="WEIMIN">      0.00100000</i>
     <i name="EBREAK">      0.00000000</i>
     <i name="DEPER">      0.30000000</i>
     <i type="int" name="NRMM">     4</i>
     <i name="TIME">      0.40000000</i>
    </separator>
   </separator>
   <separator name="electronic mixer" >
    <i name="AMIX">      0.40000000</i>
    <i name="BMIX">      1.00000000</i>
    <i name="AMIN">      0.10000000</i>
    <i name="AMIX_MAG">      1.60000000</i>
    <i name="BMIX_MAG">      1.00000000</i>
    <separator name="electronic mixer details" >
     <i type="int" name="IMIX">     4</i>
     <i type="logical" name="MIXFIRST"> F  </i>
     <i type="int" name="MAXMIX">   -45</i>
     <i name="WC">    100.00000000</i>
     <i type="int" name="INIMIX">     1</i>
     <i type="int" name="MIXPRE">     1</i>
     <i type="int" name="MREMOVE">     5</i>
    </separator>
   </separator>
   <separator name="electronic dipolcorrection" >
    <i type="logical" name="LDIPOL"> F  </i>
    <i type="logical" name="LMONO"> F  </i>
    <i type="int" name="IDIPOL">     0</i>
    <i name="EPSILON">      1.00000000</i>
    <v name="DIPOL">   -100.00000000   -100.00000000   -100.00000000</v>
    <i name="EFIELD">      0.00000000</i>
   </separator>
  </separator>
  <separator name="grids" >
   <i type="int" name="NGX">    50</i>
   <i type="int" name="NGY">    50</i>
   <i type="int" name="NGZ">   140</i>
   <i type="int" name="NGXF">   100</i>
   <i type="int" name="NGYF">   100</i>
   <i type="int" name="NGZF">   280</i>
   <i type="logical" name="ADDGRID"> F  </i>
  </separator>
  <separator name="ionic" >
   <i type="int" name="NSW">    40</i>
   <i type="int" name="IBRION">     2</i>
   <i type="int" name="MDALGO">     0</i>
   <i type="int" name="ISIF">     0</i>
   <i name="PSTRESS">      0.00000000</i>
   <i name="EDIFFG">      0.00005000</i>
   <i type="int" name="NFREE">     1</i>
   <i name="POTIM">      0.20000000</i>
   <i name="SMASS">     -3.00000000</i>
   <i name="SCALEE">      1.00000000</i>
  </separator>
  <separator name="ionic md" >
   <i name="TEBEG">      0.00010000</i>
   <i name="TEEND">      0.00010000</i>
   <i type="int" name="NBLOCK">     1</i>
   <i type="int" name="KBLOCK">    40</i>
   <i type="int" name="NPACO">   256</i>
   <i name="APACO">     16.00000000</i>
  </separator>
  <separator name="symmetry" >
   <i type="int" name="ISYM">     2</i>
   <i name="SYMPREC">      0.00001000</i>
  </separator>
  <separator name="dos" >
   <i type="int" name="LORBIT">     0</i>
   <v name="RWIGS">     -1.00000000     -1.00000000</v>
   <i type="int" name="NEDOS">   301</i>
   <i name="EMIN">     10.00000000</i>
   <i name="EMAX">    -10.00000000</i>
   <i name="EFERMI">      0.00000000</i>
  </separator>
  <separator name="writing" >
   <i type="int" name="NWRITE">     2</i>
   <i type="logical" name="LWAVE"> F  </i>
   <i type="logical" name="LDOWNSAMPLE"> F  </i>
   <i type="logical" name="LCHARG"> F  </i>
   <i type="logical" name="LPARD"> F  </i>
   <i type="logical" name="LVTOT"> F  </i>
   <i type="logical" name="LVHAR"> F  </i>
   <i type="logical" name="LELF"> F  </i>
   <i type="logical" name="LOPTICS"> F  </i>
   <v name="STM">      0.00000000      0.00000000      0.00000000      0.00000000      0.00000000      0.00000000      0.00000000</v>
  </separator>
  <separator name="performance" >
   <i type="int" name="NPAR">     1</i>
   <i type="int" name="NSIM">     4</i>
   <i type="int" name="NBLK">    -1</i>
   <i type="logical" name="LPLANE"> T  </i>
   <i type="logical" name="LSCALAPACK"> T  </i>
   <i type="logical" name="LSCAAWARE"> F  </i>
   <i type="logical" name="LSCALU"> F  </i>
   <i type="logical" name="LASYNC"> F  </i>
   <i type="logical" name="LORBITALREAL"> F  </i>
  </separator>
  <separator name="miscellaneous" >
   <i type="int" name="IDIOT">     3</i>
   <i type="int" name="PHON_NSTRUCT">    -1</i>
   <i type="logical" name="LMUSIC"> F  </i>
   <v name="POMASS">     58.69000000     16.00000000</v>
   <v name="DARWINR">      0.00000000      0.00000000</v>
   <v name="DARWINV">      1.00000000      1.00000000</v>
   <i type="logical" name="LCORR"> T  </i>
  </separator>
  <i type="logical" name="GGA_COMPAT"> T  </i>
  <i type="logical" name="LBERRY"> F  </i>
  <i type="int" name="ICORELEVEL">     0</i>
  <i type="logical" name="LDAU"> F  </i>
  <i type="int" name="I_CONSTRAINED_M">     0</i>
  <separator name="electronic exchange-correlation" >
   <i type="string" name="GGA">--</i>
   <i type="int" name="VOSKOWN">     0</i>
   <i type="logical" name="LHFCALC"> F  </i>
   <i type="string" name="PRECFOCK"></i>
   <i type="logical" name="LSYMGRAD"> F  </i>
   <i type="logical" name="LHFONE"> F  </i>
   <i type="logical" name="LRHFCALC"> F  </i>
   <i type="logical" name="LTHOMAS"> F  </i>
   <i type="logical" name="LMODELHF"> F  </i>
   <i type="logical" name="LFOCKACE"> F  </i>
   <i name="ENCUT4O">     -1.00000000</i>
   <i type="int" name="EXXOEP">     0</i>
   <i type="int" name="FOURORBIT">     0</i>
   <i name="AEXX">      0.00000000</i>
   <i name="HFALPHA">      0.00000000</i>
   <i name="MCALPHA">      0.00000000</i>
   <i name="ALDAX">      1.00000000</i>
   <i name="AGGAX">      1.00000000</i>
   <i name="ALDAC">      1.00000000</i>
   <i name="AGGAC">      1.00000000</i>
   <i type="int" name="NKREDX">     1</i>
   <i type="int" name="NKREDY">     1</i>
   <i type="int" name="NKREDZ">     1</i>
   <i type="logical" name="SHIFTRED"> F  </i>
   <i type="logical" name="ODDONLY"> F  </i>
   <i type="logical" name="EVENONLY"> F  </i>
   <i type="int" name="LMAXFOCK">     0</i>
   <i type="int" name="NMAXFOCKAE">     0</i>
   <i type="logical" name="LFOCKAEDFT"> F  </i>
   <i name="HFSCREEN">      0.00000000</i>
   <i name="HFSCREENC">      0.00000000</i>
   <i type="int" name="NBANDSGWLOW">     0</i>
  </separator>
  <separator name="vdW DFT" >
   <i type="logical" name="LUSE_VDW"> F  </i>
   <i name="Zab_VDW">     -0.84910000</i>
   <i name="PARAM1">      0.12340000</i>
   <i name="PARAM2">      1.00000000</i>
   <i name="PARAM3">      0.00000000</i>
  </separator>
  <separator name="model GW" >
   <i type="int" name="MODEL_GW">     0</i>
   <i name="MODEL_EPS0">      6.53977746</i>
   <i name="MODEL_ALPHA">      1.00000000</i>
  </separator>
  <separator name="linear response parameters" >
   <i type="logical" name="LEPSILON"> F  </i>
   <i type="logical" name="LRPA"> F  </i>
   <i type="logical" name="LNABLA"> F  </i>
   <i type="logical" name="LVEL"> F  </i>
   <i type="int" name="KINTER">     0</i>
   <i name="CSHIFT">      0.10000000</i>
   <i name="OMEGAMAX">     -1.00000000</i>
   <i name="DEG_THRESHOLD">      0.00200000</i>
   <i name="RTIME">     -0.10000000</i>
   <i name="WPLASMAI">      0.00000000</i>
   <v name="DFIELD">      0.00000000      0.00000000      0.00000000</v>
   <v name="WPLASMA">      0.00000000      0.00000000      0.00000000      0.00000000      0.00000000      0.00000000      0.00000000      0.00000000      0.00000000</v>
  </separator>
  <separator name="orbital magnetization" >
   <i type="logical" name="NUCIND"> F  </i>
   <v name="MAGPOS">      0.00000000      0.00000000      0.00000000</v>
   <i type="logical" name="LNICSALL"> T  </i>
   <i type="logical" name="ORBITALMAG"> F  </i>
   <i type="logical" name="LMAGBLOCH"> F  </i>
   <i type="logical" name="LCHIMAG"> F  </i>
   <i type="logical" name="LGAUGE"> T  </i>
   <i type="int" name="MAGATOM">     0</i>
   <v name="MAGDIPOL">      0.00000000      0.00000000      0.00000000</v>
   <v name="AVECCONST">      0.00000000      0.00000000      0.00000000</v>
  </separator>
  <separator name="response functions" >
   <i type="logical" name="LFINITE_TEMPERATURE"> F  </i>
   <i type="logical" name="LADDER"> F  </i>
   <i type="logical" name="LRPAFORCE"> F  </i>
   <i type="logical" name="LFXC"> F  </i>
   <i type="logical" name="LHARTREE"> T  </i>
   <i type="int" name="IBSE">     0</i>
   <v type="int" name="KPOINT">    -1     0     0     0</v>
   <i type="logical" name="LTCTC"> F  </i>
   <i type="logical" name="LTCTE"> F  </i>
   <i type="logical" name="LTETE"> F  </i>
   <i type="logical" name="LTRIPLET"> F  </i>
   <i type="logical" name="LFXCEPS"> F  </i>
   <i type="logical" name="LFXHEG"> F  </i>
   <i type="int" name="NATURALO">     2</i>
   <i type="logical" name="LHOLEGF"> F  </i>
   <i type="logical" name="L2ORDER"> F  </i>
   <i type="logical" name="LDMP1"> F  </i>
   <i type="logical" name="LMP2LT"> F  </i>
   <i type="logical" name="LSMP2LT"> F  </i>
   <i type="logical" name="LGWLF"> F  </i>
   <i name="ENCUTGW">     -2.00000000</i>
   <i name="ENCUTGWSOFT">     -2.00000000</i>
   <i name="ENCUTLF">     -1.00000000</i>
   <i type="logical" name="LESF_SPLINES"> F  </i>
   <i type="int" name="LMAXMP2">    -1</i>
   <i name="SCISSOR">      0.00000000</i>
   <i type="int" name="NOMEGA">     0</i>
   <i type="int" name="NOMEGAR">     0</i>
   <i type="int" name="NBANDSGW">    -1</i>
   <i type="int" name="NBANDSO">    -1</i>
   <i type="int" name="NBANDSV">    -1</i>
   <i type="int" name="NELM">     1</i>
   <i type="int" name="NELMHF">     1</i>
   <i type="int" name="DIM">     3</i>
   <i type="int" name="IESPILON">     4</i>
   <i type="int" name="ANTIRES">     0</i>
   <i name="OMEGAMAX">    -30.00000000</i>
   <i name="OMEGAMIN">    -30.00000000</i>
   <i name="OMEGATL">   -200.00000000</i>
   <i type="int" name="OMEGAGRID">     0</i>
   <i name="CSHIFT">     -0.10000000</i>
   <i type="logical" name="LSELFENERGY"> F  </i>
   <i type="logical" name="LSPECTRAL"> F  </i>
   <i type="logical" name="LSPECTRALGW"> F  </i>
   <i type="logical" name="LSINGLES"> F  </i>
   <i type="logical" name="LFERMIGW"> F  </i>
   <i type="logical" name="ODDONLYGW"> F  </i>
   <i type="logical" name="EVENONLYGW"> F  </i>
   <i type="int" name="NKREDLFX">     1</i>
   <i type="int" name="NKREDLFY">     1</i>
   <i type="int" name="NKREDLFZ">     1</i>
   <i type="int" name="MAXMEM">  2800</i>
   <i type="int" name="TELESCOPE">     0</i>
   <i type="int" name="NTAUPAR">    -1</i>
   <i type="int" name="NOMEGAPAR">    -1</i>
   <i name="DAMP_NEWTON">      0.80000001</i>
   <i name="LAMBDA">      1.00000000</i>
  </separator>
  <separator name="External order field" >
   <i name="OFIELD_KAPPA">      0.00000000</i>
   <v name="OFIELD_K">      0.00000000      0.00000000      0.00000000</v>
   <i name="OFIELD_Q6_NEAR">      0.00000000</i>
   <i name="OFIELD_Q6_FAR">      0.00000000</i>
   <i name="OFIELD_A">      0.00000000</i>
  </separator>
 </parameters>
 <atominfo>
  <atoms>     252 </atoms>
  <types>       2 </types>
  <array name="atoms" >
   <dimension dim="1">ion</dimension>
   <field type="string">element</field>
   <field type="int">atomtype</field>
   <set>
    <rc><c>Ni</c><c>   1</c></rc>
    <rc><c>Ni</c><c>   1</c></rc>
    <rc><c>Ni</c><c>   1</c></rc>
    <rc><c>Ni</c><c>   1</c></rc>
    <rc><c>Ni</c><c>   1</c></rc>
    <rc><c>Ni</c><c>   1</c></rc>
    <rc><c>Ni</c><c>   1</c></rc>
    <rc><c>Ni</c><c>   1</c></rc>
    <rc><c>Ni</c><c>   1</c></rc>
    <rc><c>Ni</c><c>   1</c></rc>
    <rc><c>Ni</c><c>   1</c></rc>
    <rc><c>Ni</c><c>   1</c></rc>
    <rc><c>Ni</c><c>   1</c></rc>
    <rc><c>Ni</c><c>   1</c></rc>
    <rc><c>Ni</c><c>   1</c></rc>
    <rc><c>Ni</c><c>   1</c></rc>
    <rc><c>Ni</c><c>   1</c></rc>
    <rc><c>Ni</c><c>   1</c></rc>
    <rc><c>Ni</c><c>   1</c></rc>
    <rc><c>Ni</c><c>   1</c></rc>
    <rc><c>Ni</c><c>   1</c></rc>
    <rc><c>Ni</c><c>   1</c></rc>
    <rc><c>Ni</c><c>   1</c></rc>
    <rc><c>Ni</c><c>   1</c></rc>
    <rc><c>Ni</c><c>   1</c></rc>
    <rc><c>Ni</c><c>   1</c></rc>
    <rc><c>Ni</c><c>   1</c></rc>
    <rc><c>Ni</c><c>   1</c></rc>
    <rc><c>Ni</c><c>   1</c></rc>
    <rc><c>Ni</c><c>   1</c></rc>
    <rc><c>Ni</c><c>   1</c></rc>
    <rc><c>Ni</c><c>   1</c></rc>
    <rc><c>Ni</c><c>   1</c></rc>
    <rc><c>Ni</c><c>   1</c></rc>
    <rc><c>Ni</c><c>   1</c></rc>
    <rc><c>Ni</c><c>   1</c></rc>
    <rc><c>Ni</c><c>   1</c></rc>
    <rc><c>Ni</c><c>   1</c></rc>
    <rc><c>Ni</c><c>   1</c></rc>
    <rc><c>Ni</c><c>   1</c></rc>
    <rc><c>Ni</c><c>   1</c></rc>
    <rc><c>Ni</c><c>   1</c></rc>
    <rc><c>Ni</c><c>   1</c></rc>
    <rc><c>Ni</c><c>   1</c></rc>
    <rc><c>Ni</c><c>   1</c></rc>
    <rc><c>Ni</c><c>   1</c></rc>
    <rc><c>Ni</c><c>   1</c></rc>
    <rc><c>Ni</c><c>   1</c></rc>
    <rc><c>Ni</c><c>   1</c></rc>
    <rc><c>Ni</c><c>   1</c></rc>
    <rc><c>Ni</c><c>   1</c></rc>
    <rc><c>Ni</c><c>   1</c></rc>
    <rc><c>Ni</c><c>   1</c></rc>
    <rc><c>Ni</c><c>   1</c></rc>
    <rc><c>Ni</c><c>   1</c></rc>
    <rc><c>Ni</c><c>   1</c></rc>
    <rc><c>Ni</c><c>   1</c></rc>
    <rc><c>Ni</c><c>   1</c></rc>
    <rc><c>Ni</c><c>   1</c></rc>
    <rc><c>Ni</c><c>   1</c></rc>
    <rc><c>Ni</c><c>   1</c></rc>
    <rc><c>Ni</c><c>   1</c></rc>
    <rc><c>Ni</c><c>   1</c></rc>
    <rc><c>Ni</c><c>   1</c></rc>
    <rc><c>Ni</c><c>   1</c></rc>
    <rc><c>Ni</c><c>   1</c></rc>
    <rc><c>Ni</c><c>   1</c></rc>
    <rc><c>Ni</c><c>   1</c></rc>
    <rc><c>Ni</c><c>   1</c></rc>
    <rc><c>Ni</c><c>   1</c></rc>
    <rc><c>Ni</c><c>   1</c></rc>
    <rc><c>Ni</c><c>   1</c></rc>
    <rc><c>Ni</c><c>   1</c></rc>
    <rc><c>Ni</c><c>   1</c></rc>
    <rc><c>Ni</c><c>   1</c></rc>
    <rc><c>Ni</c><c>   1</c></rc>
    <rc><c>Ni</c><c>   1</c></rc>
    <rc><c>Ni</c><c>   1</c></rc>
    <rc><c>Ni</c><c>   1</c></rc>
    <rc><c>Ni</c><c>   1</c></rc>
    <rc><c>Ni</c><c>   1</c></rc>
    <rc><c>Ni</c><c>   1</c></rc>
    <rc><c>Ni</c><c>   1</c></rc>
    <rc><c>Ni</c><c>   1</c></rc>
    <rc><c>Ni</c><c>   1</c></rc>
    <rc><c>Ni</c><c>   1</c></rc>
    <rc><c>Ni</c><c>   1</c></rc>
    <rc><c>Ni</c><c>   1</c></rc>
    <rc><c>Ni</c><c>   1</c></rc>
    <rc><c>Ni</c><c>   1</c></rc>
    <rc><c>Ni</c><c>   1</c></rc>
    <rc><c>Ni</c><c>   1</c></rc>
    <rc><c>Ni</c><c>   1</c></rc>
    <rc><c>Ni</c><c>   1</c></rc>
    <rc><c>Ni</c><c>   1</c></rc>
    <rc><c>Ni</c><c>   1</c></rc>
    <rc><c>Ni</c><c>   1</c></rc>
    <rc><c>Ni</c><c>   1</c></rc>
    <rc><c>Ni</c><c>   1</c></rc>
    <rc><c>Ni</c><c>   1</c></rc>
    <rc><c>Ni</c><c>   1</c></rc>
    <rc><c>Ni</c><c>   1</c></rc>
    <rc><c>Ni</c><c>   1</c></rc>
    <rc><c>Ni</c><c>   1</c></rc>
    <rc><c>Ni</c><c>   1</c></rc>
    <rc><c>Ni</c><c>   1</c></rc>
    <rc><c>Ni</c><c>   1</c></rc>
    <rc><c>Ni</c><c>   1</c></rc>
    <rc><c>Ni</c><c>   1</c></rc>
    <rc><c>Ni</c><c>   1</c></rc>
    <rc><c>Ni</c><c>   1</c></rc>
    <rc><c>Ni</c><c>   1</c></rc>
    <rc><c>Ni</c><c>   1</c></rc>
    <rc><c>Ni</c><c>   1</c></rc>
    <rc><c>Ni</c><c>   1</c></rc>
    <rc><c>Ni</c><c>   1</c></rc>
    <rc><c>Ni</c><c>   1</c></rc>
    <rc><c>Ni</c><c>   1</c></rc>
    <rc><c>Ni</c><c>   1</c></rc>
    <rc><c>Ni</c><c>   1</c></rc>
    <rc><c>Ni</c><c>   1</c></rc>
    <rc><c>Ni</c><c>   1</c></rc>
    <rc><c>Ni</c><c>   1</c></rc>
    <rc><c>Ni</c><c>   1</c></rc>
    <rc><c>Ni</c><c>   1</c></rc>
    <rc><c>O </c><c>   2</c></rc>
    <rc><c>O </c><c>   2</c></rc>
    <rc><c>O </c><c>   2</c></rc>
    <rc><c>O </c><c>   2</c></rc>
    <rc><c>O </c><c>   2</c></rc>
    <rc><c>O </c><c>   2</c></rc>
    <rc><c>O </c><c>   2</c></rc>
    <rc><c>O </c><c>   2</c></rc>
    <rc><c>O </c><c>   2</c></rc>
    <rc><c>O </c><c>   2</c></rc>
    <rc><c>O </c><c>   2</c></rc>
    <rc><c>O </c><c>   2</c></rc>
    <rc><c>O </c><c>   2</c></rc>
    <rc><c>O </c><c>   2</c></rc>
    <rc><c>O </c><c>   2</c></rc>
    <rc><c>O </c><c>   2</c></rc>
    <rc><c>O </c><c>   2</c></rc>
    <rc><c>O </c><c>   2</c></rc>
    <rc><c>O </c><c>   2</c></rc>
    <rc><c>O </c><c>   2</c></rc>
    <rc><c>O </c><c>   2</c></rc>
    <rc><c>O </c><c>   2</c></rc>
    <rc><c>O </c><c>   2</c></rc>
    <rc><c>O </c><c>   2</c></rc>
    <rc><c>O </c><c>   2</c></rc>
    <rc><c>O </c><c>   2</c></rc>
    <rc><c>O </c><c>   2</c></rc>
    <rc><c>O </c><c>   2</c></rc>
    <rc><c>O </c><c>   2</c></rc>
    <rc><c>O </c><c>   2</c></rc>
    <rc><c>O </c><c>   2</c></rc>
    <rc><c>O </c><c>   2</c></rc>
    <rc><c>O </c><c>   2</c></rc>
    <rc><c>O </c><c>   2</c></rc>
    <rc><c>O </c><c>   2</c></rc>
    <rc><c>O </c><c>   2</c></rc>
    <rc><c>O </c><c>   2</c></rc>
    <rc><c>O </c><c>   2</c></rc>
    <rc><c>O </c><c>   2</c></rc>
    <rc><c>O </c><c>   2</c></rc>
    <rc><c>O </c><c>   2</c></rc>
    <rc><c>O </c><c>   2</c></rc>
    <rc><c>O </c><c>   2</c></rc>
    <rc><c>O </c><c>   2</c></rc>
    <rc><c>O </c><c>   2</c></rc>
    <rc><c>O </c><c>   2</c></rc>
    <rc><c>O </c><c>   2</c></rc>
    <rc><c>O </c><c>   2</c></rc>
    <rc><c>O </c><c>   2</c></rc>
    <rc><c>O </c><c>   2</c></rc>
    <rc><c>O </c><c>   2</c></rc>
    <rc><c>O </c><c>   2</c></rc>
    <rc><c>O </c><c>   2</c></rc>
    <rc><c>O </c><c>   2</c></rc>
    <rc><c>O </c><c>   2</c></rc>
    <rc><c>O </c><c>   2</c></rc>
    <rc><c>O </c><c>   2</c></rc>
    <rc><c>O </c><c>   2</c></rc>
    <rc><c>O </c><c>   2</c></rc>
    <rc><c>O </c><c>   2</c></rc>
    <rc><c>O </c><c>   2</c></rc>
    <rc><c>O </c><c>   2</c></rc>
    <rc><c>O </c><c>   2</c></rc>
    <rc><c>O </c><c>   2</c></rc>
    <rc><c>O </c><c>   2</c></rc>
    <rc><c>O </c><c>   2</c></rc>
    <rc><c>O </c><c>   2</c></rc>
    <rc><c>O </c><c>   2</c></rc>
    <rc><c>O </c><c>   2</c></rc>
    <rc><c>O </c><c>   2</c></rc>
    <rc><c>O </c><c>   2</c></rc>
    <rc><c>O </c><c>   2</c></rc>
    <rc><c>O </c><c>   2</c></rc>
    <rc><c>O </c><c>   2</c></rc>
    <rc><c>O </c><c>   2</c></rc>
    <rc><c>O </c><c>   2</c></rc>
    <rc><c>O </c><c>   2</c></rc>
    <rc><c>O </c><c>   2</c></rc>
    <rc><c>O </c><c>   2</c></rc>
    <rc><c>O </c><c>   2</c></rc>
    <rc><c>O </c><c>   2</c></rc>
    <rc><c>O </c><c>   2</c></rc>
    <rc><c>O </c><c>   2</c></rc>
    <rc><c>O </c><c>   2</c></rc>
    <rc><c>O </c><c>   2</c></rc>
    <rc><c>O </c><c>   2</c></rc>
    <rc><c>O </c><c>   2</c></rc>
    <rc><c>O </c><c>   2</c></rc>
    <rc><c>O </c><c>   2</c></rc>
    <rc><c>O </c><c>   2</c></rc>
    <rc><c>O </c><c>   2</c></rc>
    <rc><c>O </c><c>   2</c></rc>
    <rc><c>O </c><c>   2</c></rc>
    <rc><c>O </c><c>   2</c></rc>
    <rc><c>O </c><c>   2</c></rc>
    <rc><c>O </c><c>   2</c></rc>
    <rc><c>O </c><c>   2</c></rc>
    <rc><c>O </c><c>   2</c></rc>
    <rc><c>O </c><c>   2</c></rc>
    <rc><c>O </c><c>   2</c></rc>
    <rc><c>O </c><c>   2</c></rc>
    <rc><c>O </c><c>   2</c></rc>
    <rc><c>O </c><c>   2</c></rc>
    <rc><c>O </c><c>   2</c></rc>
    <rc><c>O </c><c>   2</c></rc>
    <rc><c>O </c><c>   2</c></rc>
    <rc><c>O </c><c>   2</c></rc>
    <rc><c>O </c><c>   2</c></rc>
    <rc><c>O </c><c>   2</c></rc>
    <rc><c>O </c><c>   2</c></rc>
    <rc><c>O </c><c>   2</c></rc>
    <rc><c>O </c><c>   2</c></rc>
    <rc><c>O </c><c>   2</c></rc>
    <rc><c>O </c><c>   2</c></rc>
    <rc><c>O </c><c>   2</c></rc>
    <rc><c>O </c><c>   2</c></rc>
    <rc><c>O </c><c>   2</c></rc>
    <rc><c>O </c><c>   2</c></rc>
    <rc><c>O </c><c>   2</c></rc>
    <rc><c>O </c><c>   2</c></rc>
    <rc><c>O </c><c>   2</c></rc>
    <rc><c>O </c><c>   2</c></rc>
    <rc><c>O </c><c>   2</c></rc>
    <rc><c>O </c><c>   2</c></rc>
    <rc><c>O </c><c>   2</c></rc>
    <rc><c>O </c><c>   2</c></rc>
    <rc><c>O </c><c>   2</c></rc>
   </set>
  </array>
  <array name="atomtypes" >
   <dimension dim="1">type</dimension>
   <field type="int">atomspertype</field>
   <field type="string">element</field>
   <field>mass</field>
   <field>valence</field>
   <field type="string">pseudopotential</field>
   <set>
    <rc><c> 125</c><c>Ni</c><c>     58.69000000</c><c>     10.00000000</c><c>  PAW Ni_GW 31Mar2010                   </c></rc>
    <rc><c> 127</c><c>O </c><c>     16.00000000</c><c>      6.00000000</c><c>  PAW O_GW 19Mar2012                    </c></rc>
   </set>
  </array>
 </atominfo>
 <structure name="initialpos" >
  <crystal>
   <varray name="basis" >
    <v>      10.54150009       0.00000000       0.00000000 </v>
    <v>       5.27075005       9.12920687       0.00000000 </v>
    <v>       0.00000000       0.00000000      28.54150009 </v>
   </varray>
   <i name="volume">   2746.70653362 </i>
   <varray name="rec_basis" >
    <v>       0.09486316      -0.05476927       0.00000000 </v>
    <v>       0.00000000       0.10953854       0.00000000 </v>
    <v>       0.00000000       0.00000000       0.03503670 </v>
   </varray>
  </crystal>
  <varray name="positions" >
   <v>       0.00000000       0.00000000       0.00000000 </v>
   <v>       0.00000000       0.00000000       0.07386788 </v>
   <v>       0.00000000       0.00000000       0.14773576 </v>
   <v>       0.00000000       0.00000000       0.22160364 </v>
   <v>       0.00000000       0.00000000       0.29547151 </v>
   <v>       0.00000000       0.20000000       0.00000000 </v>
   <v>       0.00000000       0.20000000       0.07386788 </v>
   <v>       0.00000000       0.20000000       0.14773576 </v>
   <v>       0.00000000       0.20000000       0.22160364 </v>
   <v>       0.00000000       0.20000000       0.29547151 </v>
   <v>       0.00000000       0.40000001       0.00000000 </v>
   <v>       0.00000000       0.40000001       0.07386788 </v>
   <v>       0.00000000       0.40000001       0.14773576 </v>
   <v>       0.00000000       0.40000001       0.22160364 </v>
   <v>       0.00000000       0.40000001       0.29547151 </v>
   <v>       0.00000000       0.60000002       0.00000000 </v>
   <v>       0.00000000       0.60000002       0.07386788 </v>
   <v>       0.00000000       0.60000002       0.14773576 </v>
   <v>       0.00000000       0.60000002       0.22160364 </v>
   <v>       0.00000000       0.60000002       0.29547151 </v>
   <v>       0.00000000       0.80000001       0.00000000 </v>
   <v>       0.00000000       0.80000001       0.07386788 </v>
   <v>       0.00000000       0.80000001       0.14773576 </v>
   <v>       0.00000000       0.80000001       0.22160364 </v>
   <v>       0.00000000       0.80000001       0.29547151 </v>
   <v>       0.20000000       0.00000000       0.00000000 </v>
   <v>       0.20000000       0.00000000       0.07386788 </v>
   <v>       0.20000000       0.00000000       0.14773576 </v>
   <v>       0.20000000       0.00000000       0.22160364 </v>
   <v>       0.20000000       0.00000000       0.29547151 </v>
   <v>       0.20000000       0.20000000       0.00000000 </v>
   <v>       0.20000000       0.20000000       0.07386788 </v>
   <v>       0.20000000       0.20000000       0.14773576 </v>
   <v>       0.20000000       0.20000000       0.22160364 </v>
   <v>       0.20000000       0.20000000       0.29547151 </v>
   <v>       0.20000000       0.40000001       0.00000000 </v>
   <v>       0.20000000       0.40000001       0.07386788 </v>
   <v>       0.20000000       0.40000001       0.14773576 </v>
   <v>       0.20000000       0.40000001       0.22160364 </v>
   <v>       0.20000000       0.40000001       0.29547151 </v>
   <v>       0.20000000       0.60000002       0.00000000 </v>
   <v>       0.20000000       0.60000002       0.07386788 </v>
   <v>       0.20000000       0.60000002       0.14773576 </v>
   <v>       0.20000000       0.60000002       0.22160364 </v>
   <v>       0.20000000       0.60000002       0.29547151 </v>
   <v>       0.20000000       0.80000001       0.00000000 </v>
   <v>       0.20000000       0.80000001       0.07386788 </v>
   <v>       0.20000000       0.80000001       0.14773576 </v>
   <v>       0.20000000       0.80000001       0.22160364 </v>
   <v>       0.20000000       0.80000001       0.29547151 </v>
   <v>       0.40000001       0.00000000       0.00000000 </v>
   <v>       0.40000001       0.00000000       0.07386788 </v>
   <v>       0.40000001       0.00000000       0.14773576 </v>
   <v>       0.40000001       0.00000000       0.22160364 </v>
   <v>       0.40000001       0.00000000       0.29547151 </v>
   <v>       0.40000001       0.20000000       0.00000000 </v>
   <v>       0.40000001       0.20000000       0.07386788 </v>
   <v>       0.40000001       0.20000000       0.14773576 </v>
   <v>       0.40000001       0.20000000       0.22160364 </v>
   <v>       0.40000001       0.20000000       0.29547151 </v>
   <v>       0.40000001       0.40000001       0.00000000 </v>
   <v>       0.40000001       0.40000001       0.07386788 </v>
   <v>       0.40000001       0.40000001       0.14773576 </v>
   <v>       0.40000001       0.40000001       0.22160364 </v>
   <v>       0.40000001       0.40000001       0.29547151 </v>
   <v>       0.40000001       0.60000002       0.00000000 </v>
   <v>       0.40000001       0.60000002       0.07386788 </v>
   <v>       0.40000001       0.60000002       0.14773576 </v>
   <v>       0.40000001       0.60000002       0.22160364 </v>
   <v>       0.40000001       0.60000002       0.29547151 </v>
   <v>       0.40000001       0.80000001       0.00000000 </v>
   <v>       0.40000001       0.80000001       0.07386788 </v>
   <v>       0.40000001       0.80000001       0.14773576 </v>
   <v>       0.40000001       0.80000001       0.22160364 </v>
   <v>       0.40000001       0.80000001       0.29547151 </v>
   <v>       0.60000002       0.00000000       0.00000000 </v>
   <v>       0.60000002       0.00000000       0.07386788 </v>
   <v>       0.60000002       0.00000000       0.14773576 </v>
   <v>       0.60000002       0.00000000       0.22160364 </v>
   <v>       0.60000002       0.00000000       0.29547151 </v>
   <v>       0.60000002       0.20000000       0.00000000 </v>
   <v>       0.60000002       0.20000000       0.07386788 </v>
   <v>       0.60000002       0.20000000       0.14773576 </v>
   <v>       0.60000002       0.20000000       0.22160364 </v>
   <v>       0.60000002       0.20000000       0.29547151 </v>
   <v>       0.60000002       0.40000001       0.00000000 </v>
   <v>       0.60000002       0.40000001       0.07386788 </v>
   <v>       0.60000002       0.40000001       0.14773576 </v>
   <v>       0.60000002       0.40000001       0.22160364 </v>
   <v>       0.60000002       0.40000001       0.29547151 </v>
   <v>       0.60000002       0.60000002       0.00000000 </v>
   <v>       0.60000002       0.60000002       0.07386788 </v>
   <v>       0.60000002       0.60000002       0.14773576 </v>
   <v>       0.60000002       0.60000002       0.22160364 </v>
   <v>       0.60000002       0.60000002       0.29547151 </v>
   <v>       0.60000002       0.80000001       0.00000000 </v>
   <v>       0.60000002       0.80000001       0.07386788 </v>
   <v>       0.60000002       0.80000001       0.14773576 </v>
   <v>       0.60000002       0.80000001       0.22160364 </v>
   <v>       0.60000002       0.80000001       0.29547151 </v>
   <v>       0.80000001       0.00000000       0.00000000 </v>
   <v>       0.80000001       0.00000000       0.07386788 </v>
   <v>       0.80000001       0.00000000       0.14773576 </v>
   <v>       0.80000001       0.00000000       0.22160364 </v>
   <v>       0.80000001       0.00000000       0.29547151 </v>
   <v>       0.80000001       0.20000000       0.00000000 </v>
   <v>       0.80000001       0.20000000       0.07386788 </v>
   <v>       0.80000001       0.20000000       0.14773576 </v>
   <v>       0.80000001       0.20000000       0.22160364 </v>
   <v>       0.80000001       0.20000000       0.29547151 </v>
   <v>       0.80000001       0.40000001       0.00000000 </v>
   <v>       0.80000001       0.40000001       0.07386788 </v>
   <v>       0.80000001       0.40000001       0.14773576 </v>
   <v>       0.80000001       0.40000001       0.22160364 </v>
   <v>       0.80000001       0.40000001       0.29547151 </v>
   <v>       0.80000001       0.60000002       0.00000000 </v>
   <v>       0.80000001       0.60000002       0.07386788 </v>
   <v>       0.80000001       0.60000002       0.14773576 </v>
   <v>       0.80000001       0.60000002       0.22160364 </v>
   <v>       0.80000001       0.60000002       0.29547151 </v>
   <v>       0.80000001       0.80000001       0.00000000 </v>
   <v>       0.80000001       0.80000001       0.07386788 </v>
   <v>       0.80000001       0.80000001       0.14773576 </v>
   <v>       0.80000001       0.80000001       0.22160364 </v>
   <v>       0.80000001       0.80000001       0.29547151 </v>
   <v>       0.10000000       0.10000000       0.03693394 </v>
   <v>       0.10000000       0.10000000       0.11080182 </v>
   <v>       0.10000000       0.10000000       0.18466969 </v>
   <v>       0.10000000       0.10000000       0.25853757 </v>
   <v>       0.10000000       0.10000000       0.33240544 </v>
   <v>       0.10000000       0.30000001       0.03693394 </v>
   <v>       0.10000000       0.30000001       0.11080182 </v>
   <v>       0.10000000       0.30000001       0.18466969 </v>
   <v>       0.10000000       0.30000001       0.25853757 </v>
   <v>       0.10000000       0.30000001       0.33240544 </v>
   <v>       0.10000000       0.50000000       0.03693394 </v>
   <v>       0.10000000       0.50000000       0.11080182 </v>
   <v>       0.10000000       0.50000000       0.18466969 </v>
   <v>       0.10000000       0.50000000       0.25853757 </v>
   <v>       0.10000000       0.50000000       0.33240544 </v>
   <v>       0.10000000       0.69999999       0.03693394 </v>
   <v>       0.10000000       0.69999999       0.11080182 </v>
   <v>       0.10000000       0.69999999       0.18466969 </v>
   <v>       0.10000000       0.69999999       0.25853757 </v>
   <v>       0.10000000       0.69999999       0.33240544 </v>
   <v>       0.10000000       0.89999998       0.03693394 </v>
   <v>       0.10000000       0.89999998       0.11080182 </v>
   <v>       0.10000000       0.89999998       0.18466969 </v>
   <v>       0.10000000       0.89999998       0.25853757 </v>
   <v>       0.10000000       0.89999998       0.33240544 </v>
   <v>       0.30000001       0.10000000       0.03693394 </v>
   <v>       0.30000001       0.10000000       0.11080182 </v>
   <v>       0.30000001       0.10000000       0.18466969 </v>
   <v>       0.30000001       0.10000000       0.25853757 </v>
   <v>       0.30000001       0.10000000       0.33240544 </v>
   <v>       0.30000001       0.30000001       0.03693394 </v>
   <v>       0.30000001       0.30000001       0.11080182 </v>
   <v>       0.30000001       0.30000001       0.18466969 </v>
   <v>       0.30000001       0.30000001       0.25853757 </v>
   <v>       0.30000001       0.30000001       0.33240544 </v>
   <v>       0.30000001       0.50000000       0.03693394 </v>
   <v>       0.30000001       0.50000000       0.11080182 </v>
   <v>       0.30000001       0.50000000       0.18466969 </v>
   <v>       0.30000001       0.50000000       0.25853757 </v>
   <v>       0.30000001       0.50000000       0.33240544 </v>
   <v>       0.30000001       0.69999999       0.03693394 </v>
   <v>       0.30000001       0.69999999       0.11080182 </v>
   <v>       0.30000001       0.69999999       0.18466969 </v>
   <v>       0.30000001       0.69999999       0.25853757 </v>
   <v>       0.30000001       0.69999999       0.33240544 </v>
   <v>       0.30000001       0.89999998       0.03693394 </v>
   <v>       0.30000001       0.89999998       0.11080182 </v>
   <v>       0.30000001       0.89999998       0.18466969 </v>
   <v>       0.30000001       0.89999998       0.25853757 </v>
   <v>       0.30000001       0.89999998       0.33240544 </v>
   <v>       0.50000000       0.10000000       0.03693394 </v>
   <v>       0.50000000       0.10000000       0.11080182 </v>
   <v>       0.50000000       0.10000000       0.18466969 </v>
   <v>       0.50000000       0.10000000       0.25853757 </v>
   <v>       0.50000000       0.10000000       0.33240544 </v>
   <v>       0.50000000       0.30000001       0.03693394 </v>
   <v>       0.50000000       0.30000001       0.11080182 </v>
   <v>       0.50000000       0.30000001       0.18466969 </v>
   <v>       0.50000000       0.30000001       0.25853757 </v>
   <v>       0.50000000       0.30000001       0.33240544 </v>
   <v>       0.50000000       0.50000000       0.03693394 </v>
   <v>       0.50000000       0.50000000       0.11080182 </v>
   <v>       0.50000000       0.50000000       0.18466969 </v>
   <v>       0.50000000       0.50000000       0.25853757 </v>
   <v>       0.50000000       0.50000000       0.33240544 </v>
   <v>       0.50000000       0.69999999       0.03693394 </v>
   <v>       0.50000000       0.69999999       0.11080182 </v>
   <v>       0.50000000       0.69999999       0.18466969 </v>
   <v>       0.50000000       0.69999999       0.25853757 </v>
   <v>       0.50000000       0.69999999       0.33240544 </v>
   <v>       0.50000000       0.89999998       0.03693394 </v>
   <v>       0.50000000       0.89999998       0.11080182 </v>
   <v>       0.50000000       0.89999998       0.18466969 </v>
   <v>       0.50000000       0.89999998       0.25853757 </v>
   <v>       0.50000000       0.89999998       0.33240544 </v>
   <v>       0.69999999       0.10000000       0.03693394 </v>
   <v>       0.69999999       0.10000000       0.11080182 </v>
   <v>       0.69999999       0.10000000       0.18466969 </v>
   <v>       0.69999999       0.10000000       0.25853757 </v>
   <v>       0.69999999       0.10000000       0.33240544 </v>
   <v>       0.69999999       0.30000001       0.03693394 </v>
   <v>       0.69999999       0.30000001       0.11080182 </v>
   <v>       0.69999999       0.30000001       0.18466969 </v>
   <v>       0.69999999       0.30000001       0.25853757 </v>
   <v>       0.69999999       0.30000001       0.33240544 </v>
   <v>       0.69999999       0.50000000       0.03693394 </v>
   <v>       0.69999999       0.50000000       0.11080182 </v>
   <v>       0.69999999       0.50000000       0.18466969 </v>
   <v>       0.69999999       0.50000000       0.25853757 </v>
   <v>       0.69999999       0.50000000       0.33240544 </v>
   <v>       0.69999999       0.69999999       0.03693394 </v>
   <v>       0.69999999       0.69999999       0.11080182 </v>
   <v>       0.69999999       0.69999999       0.18466969 </v>
   <v>       0.69999999       0.69999999       0.25853757 </v>
   <v>       0.69999999       0.69999999       0.33240544 </v>
   <v>       0.69999999       0.89999998       0.03693394 </v>
   <v>       0.69999999       0.89999998       0.11080182 </v>
   <v>       0.69999999       0.89999998       0.18466969 </v>
   <v>       0.69999999       0.89999998       0.25853757 </v>
   <v>       0.69999999       0.89999998       0.33240544 </v>
   <v>       0.89999998       0.10000000       0.03693394 </v>
   <v>       0.89999998       0.10000000       0.11080182 </v>
   <v>       0.89999998       0.10000000       0.18466969 </v>
   <v>       0.89999998       0.10000000       0.25853757 </v>
   <v>       0.89999998       0.10000000       0.33240544 </v>
   <v>       0.89999998       0.30000001       0.03693394 </v>
   <v>       0.89999998       0.30000001       0.11080182 </v>
   <v>       0.89999998       0.30000001       0.18466969 </v>
   <v>       0.89999998       0.30000001       0.25853757 </v>
   <v>       0.89999998       0.30000001       0.33240544 </v>
   <v>       0.89999998       0.50000000       0.03693394 </v>
   <v>       0.89999998       0.50000000       0.11080182 </v>
   <v>       0.89999998       0.50000000       0.18466969 </v>
   <v>       0.89999998       0.50000000       0.25853757 </v>
   <v>       0.89999998       0.50000000       0.33240544 </v>
   <v>       0.89999998       0.69999999       0.03693394 </v>
   <v>       0.89999998       0.69999999       0.11080182 </v>
   <v>       0.89999998       0.69999999       0.18466969 </v>
   <v>       0.89999998       0.69999999       0.25853757 </v>
   <v>       0.89999998       0.69999999       0.33240544 </v>
   <v>       0.89999998       0.89999998       0.03693394 </v>
   <v>       0.89999998       0.89999998       0.11080182 </v>
   <v>       0.89999998       0.89999998       0.18466969 </v>
   <v>       0.89999998       0.89999998       0.25853757 </v>
   <v>       0.89999998       0.89999998       0.33240544 </v>
   <v>       0.42141986       0.42141986       0.36744214 </v>
   <v>       0.35569673       0.55286611       0.36744214 </v>
  </varray>
 </structure>
 <calculation>
  <scstep>
   <time name="dav">   17.50   17.52</time>
   <time name="total">   17.99   18.07</time>
   <energy>
    <i name="alphaZ">  10964.09662220 </i>
    <i name="ewald">3381946.68138172 </i>
    <i name="hartreedc">**************** </i>
    <i name="XCdc">   5500.76649935 </i>
    <i name="pawpsdc"> 163363.69449659 </i>
    <i name="pawaedc">-172964.64684543 </i>
    <i name="eentropy">     -0.04345271 </i>
    <i name="bandstr">  16590.99690685 </i>
    <i name="atom"> 189564.71521268 </i>
    <i name="e_fr_energy">  31228.01630903 </i>
    <i name="e_wo_entrp">  31228.05976173 </i>
    <i name="e_0_energy">  31228.03803538 </i>
   </energy>
  </scstep>
  <scstep>
   <time name="dav">   17.92   17.93</time>
   <time name="total">   17.93   17.93</time>
   <energy>
    <i name="e_fr_energy">   5170.42797652 </i>
    <i name="e_wo_entrp">   5170.48929295 </i>
    <i name="e_0_energy">   5170.45863473 </i>
   </energy>
  </scstep>
  <scstep>
   <time name="dav">   20.50   20.51</time>
   <time name="total">   20.51   20.51</time>
   <energy>
    <i name="e_fr_energy">    534.65359234 </i>
    <i name="e_wo_entrp">    534.77472643 </i>
    <i name="e_0_energy">    534.71415938 </i>
   </energy>
  </scstep>
  <scstep>
   <time name="dav">   23.40   23.40</time>
   <time name="total">   23.40   23.41</time>
   <energy>
    <i name="e_fr_energy">     12.26100095 </i>
    <i name="e_wo_entrp">     12.41449880 </i>
    <i name="e_0_energy">     12.33774988 </i>
   </energy>
  </scstep>
  <scstep>
   <time name="dav">   22.42   22.43</time>
   <time name="total">   23.28   23.29</time>
   <energy>
    <i name="e_fr_energy">     -4.88580428 </i>
    <i name="e_wo_entrp">     -4.73283585 </i>
    <i name="e_0_energy">     -4.80932006 </i>
   </energy>
  </scstep>
  <scstep>
   <time name="dav">   27.18   27.19</time>
   <time name="total">   28.51   28.52</time>
   <energy>
    <i name="e_fr_energy">   -382.51133345 </i>
    <i name="e_wo_entrp">   -382.42533487 </i>
    <i name="e_0_energy">   -382.46833416 </i>
   </energy>
  </scstep>
  <scstep>
   <time name="dav">   25.59   25.60</time>
   <time name="total">   26.92   26.93</time>
   <energy>
    <i name="e_fr_energy"> -10612.77901808 </i>
    <i name="e_wo_entrp"> -10612.70321803 </i>
    <i name="e_0_energy"> -10612.74111806 </i>
   </energy>
  </scstep>
  <scstep>
   <time name="dav">   26.05   26.05</time>
   <time name="total">   27.38   27.39</time>
   <energy>
    <i name="e_fr_energy"> -11888.61111728 </i>
    <i name="e_wo_entrp"> -11888.53614147 </i>
    <i name="e_0_energy"> -11888.57362938 </i>
   </energy>
  </scstep>
  <scstep>
   <time name="dav">   24.26   24.26</time>
   <time name="total">   25.58   25.59</time>
   <energy>
    <i name="e_fr_energy">  -8425.55375518 </i>
    <i name="e_wo_entrp">  -8425.45542029 </i>
    <i name="e_0_energy">  -8425.50458774 </i>
   </energy>
  </scstep>
  <scstep>
   <time name="dav">   27.16   27.16</time>
   <time name="total">   28.49   28.50</time>
   <energy>
    <i name="e_fr_energy">  -3931.95062581 </i>
    <i name="e_wo_entrp">  -3931.84853378 </i>
    <i name="e_0_energy">  -3931.89957980 </i>
   </energy>
  </scstep>
  <scstep>
   <time name="dav">   24.05   24.05</time>
   <time name="total">   25.39   25.40</time>
   <energy>
    <i name="e_fr_energy">  -2595.64494441 </i>
    <i name="e_wo_entrp">  -2595.57545892 </i>
    <i name="e_0_energy">  -2595.61020167 </i>
   </energy>
  </scstep>
  <scstep>
   <time name="dav">   28.45   28.46</time>
   <time name="total">   29.79   29.80</time>
   <energy>
    <i name="e_fr_energy">    -48.29979605 </i>
    <i name="e_wo_entrp">    -48.21404221 </i>
    <i name="e_0_energy">    -48.25691913 </i>
   </energy>
  </scstep>
  <scstep>
   <time name="dav">   19.64   19.64</time>
   <time name="total">   20.97   20.98</time>
   <energy>
    <i name="e_fr_energy">  -1538.05287392 </i>
    <i name="e_wo_entrp">  -1537.97661777 </i>
    <i name="e_0_energy">  -1538.01474585 </i>
   </energy>
  </scstep>
  <scstep>
   <time name="dav">   19.08   19.08</time>
   <time name="total">   20.46   20.46</time>
   <energy>
    <i name="e_fr_energy">   -749.98491822 </i>
    <i name="e_wo_entrp">   -749.84661485 </i>
    <i name="e_0_energy">   -749.91576654 </i>
   </energy>
  </scstep>
  <scstep>
   <time name="dav">   20.19   20.19</time>
   <time name="total">   21.57   21.58</time>
   <energy>
    <i name="e_fr_energy">  -1911.49225296 </i>
    <i name="e_wo_entrp">  -1911.44533073 </i>
    <i name="e_0_energy">  -1911.46879184 </i>
   </energy>
  </scstep>
  <scstep>
   <time name="dav">   25.15   25.15</time>
   <time name="total">   26.53   26.53</time>
   <energy>
    <i name="e_fr_energy">  -2454.21403621 </i>
    <i name="e_wo_entrp">  -2454.15865370 </i>
    <i name="e_0_energy">  -2454.18634495 </i>
   </energy>
  </scstep>
  <scstep>
   <time name="dav">   24.69   24.70</time>
   <time name="total">   26.07   26.07</time>
   <energy>
    <i name="e_fr_energy">   -297.25373240 </i>
    <i name="e_wo_entrp">   -297.16780247 </i>
    <i name="e_0_energy">   -297.21076743 </i>
   </energy>
  </scstep>
  <scstep>
   <time name="dav">   23.18   23.18</time>
   <time name="total">   24.56   24.57</time>
   <energy>
    <i name="e_fr_energy">     14.35731984 </i>
    <i name="e_wo_entrp">     14.47764514 </i>
    <i name="e_0_energy">     14.41748249 </i>
   </energy>
  </scstep>
  <scstep>
   <time name="dav">   21.05   21.06</time>
   <time name="total">   22.44   22.44</time>
   <energy>
    <i name="e_fr_energy">    101.16995458 </i>
    <i name="e_wo_entrp">    101.21413919 </i>
    <i name="e_0_energy">    101.19204688 </i>
   </energy>
  </scstep>
  <scstep>
   <time name="dav">   18.33   18.33</time>
   <time name="total">   19.72   19.73</time>
   <energy>
    <i name="e_fr_energy">    316.80528412 </i>
    <i name="e_wo_entrp">    316.94390641 </i>
    <i name="e_0_energy">    316.87459527 </i>
   </energy>
  </scstep>
  <scstep>
   <time name="dav">   18.68   18.69</time>
   <time name="total">   20.05   20.05</time>
   <energy>
    <i name="e_fr_energy">    336.14013642 </i>
    <i name="e_wo_entrp">    336.25140465 </i>
    <i name="e_0_energy">    336.19577053 </i>
   </energy>
  </scstep>
  <scstep>
   <time name="dav">   18.15   18.15</time>
   <time name="total">   19.51   19.52</time>
   <energy>
    <i name="e_fr_energy">    368.93491687 </i>
    <i name="e_wo_entrp">    369.08923199 </i>
    <i name="e_0_energy">    369.01207443 </i>
   </energy>
  </scstep>
  <scstep>
   <time name="dav">   18.92   18.92</time>
   <time name="total">   20.32   20.32</time>
   <energy>
    <i name="e_fr_energy">    356.34137805 </i>
    <i name="e_wo_entrp">    356.46491750 </i>
    <i name="e_0_energy">    356.40314778 </i>
   </energy>
  </scstep>
  <scstep>
   <time name="dav">   18.98   18.98</time>
   <time name="total">   20.37   20.37</time>
   <energy>
    <i name="e_fr_energy">    379.12147973 </i>
    <i name="e_wo_entrp">    379.29977830 </i>
    <i name="e_0_energy">    379.21062901 </i>
   </energy>
  </scstep>
  <scstep>
   <time name="dav">   18.09   18.10</time>
   <time name="total">   19.51   19.52</time>
   <energy>
    <i name="e_fr_energy">    393.94399612 </i>
    <i name="e_wo_entrp">    394.10193306 </i>
    <i name="e_0_energy">    394.02296459 </i>
   </energy>
  </scstep>
  <scstep>
   <time name="dav">   18.14   18.14</time>
   <time name="total">   19.55   19.56</time>
   <energy>
    <i name="e_fr_energy">    403.49353747 </i>
    <i name="e_wo_entrp">    403.67805880 </i>
    <i name="e_0_energy">    403.58579814 </i>
   </energy>
  </scstep>
  <scstep>
   <time name="dav">   18.26   18.26</time>
   <time name="total">   19.70   19.70</time>
   <energy>
    <i name="e_fr_energy">    406.49248674 </i>
    <i name="e_wo_entrp">    406.62802180 </i>
    <i name="e_0_energy">    406.56025427 </i>
   </energy>
  </scstep>
  <scstep>
   <time name="dav">   19.14   19.14</time>
   <time name="total">   20.58   20.59</time>
   <energy>
    <i name="e_fr_energy">    416.34787893 </i>
    <i name="e_wo_entrp">    416.49253980 </i>
    <i name="e_0_energy">    416.42020936 </i>
   </energy>
  </scstep>
  <scstep>
   <time name="dav">   18.41   18.42</time>
   <time name="total">   19.86   19.86</time>
   <energy>
    <i name="e_fr_energy">    424.63579514 </i>
    <i name="e_wo_entrp">    424.78933780 </i>
    <i name="e_0_energy">    424.71256647 </i>
   </energy>
  </scstep>
  <scstep>
   <time name="dav">   18.23   18.23</time>
   <time name="total">   19.70   19.71</time>
   <energy>
    <i name="e_fr_energy">    428.61358181 </i>
    <i name="e_wo_entrp">    428.77007843 </i>
    <i name="e_0_energy">    428.69183012 </i>
   </energy>
  </scstep>
  <scstep>
   <time name="dav">   18.25   18.25</time>
   <time name="total">   19.71   19.71</time>
   <energy>
    <i name="e_fr_energy">    431.77050306 </i>
    <i name="e_wo_entrp">    431.95123445 </i>
    <i name="e_0_energy">    431.86086876 </i>
   </energy>
  </scstep>
  <scstep>
   <time name="dav">   18.07   18.07</time>
   <time name="total">   19.56   19.56</time>
   <energy>
    <i name="e_fr_energy">    433.18304689 </i>
    <i name="e_wo_entrp">    433.35612302 </i>
    <i name="e_0_energy">    433.26958495 </i>
   </energy>
  </scstep>
  <scstep>
   <time name="dav">   18.09   18.10</time>
   <time name="total">   19.58   19.59</time>
   <energy>
    <i name="e_fr_energy">    434.39104361 </i>
    <i name="e_wo_entrp">    434.56555112 </i>
    <i name="e_0_energy">    434.47829736 </i>
   </energy>
  </scstep>
  <scstep>
   <time name="dav">   18.33   18.34</time>
[...]
       <r>     2.4388   301.2731  1705.0967 </r>
       <r>     2.5695   297.8642  1744.0239 </r>
       <r>     2.7002   299.2731  1783.1353 </r>
       <r>     2.8308   304.0916  1822.8764 </r>
       <r>     2.9615   298.4667  1861.8824 </r>
       <r>     3.0922   302.5753  1901.4254 </r>
       <r>     3.2229   290.5170  1939.3924 </r>
       <r>     3.3536   276.8252  1975.5701 </r>
       <r>     3.4843   274.3511  2011.4245 </r>
       <r>     3.6150   237.6750  2042.4858 </r>
       <r>     3.7457   221.2199  2071.3966 </r>
       <r>     3.8763   211.4387  2099.0290 </r>
       <r>     4.0070   184.0167  2123.0778 </r>
       <r>     4.1377   167.5510  2144.9747 </r>
       <r>     4.2684   150.1972  2164.6037 </r>
       <r>     4.3991   146.3470  2183.7294 </r>
       <r>     4.5298   128.9676  2200.5840 </r>
       <r>     4.6605   120.0270  2216.2700 </r>
       <r>     4.7912    98.9732  2229.2047 </r>
       <r>     4.9219    90.8110  2241.0726 </r>
       <r>     5.0525    80.7941  2251.6314 </r>
       <r>     5.1832    62.8935  2259.8508 </r>
       <r>     5.3139    35.1055  2264.4386 </r>
       <r>     5.4446    25.4389  2267.7632 </r>
       <r>     5.5753    25.7872  2271.1333 </r>
       <r>     5.7060    29.5719  2274.9980 </r>
       <r>     5.8367    29.9697  2278.9146 </r>
       <r>     5.9674    32.8397  2283.2064 </r>
       <r>     6.0980    29.8374  2287.1058 </r>
       <r>     6.2287    23.0034  2290.1120 </r>
       <r>     6.3594    26.0609  2293.5179 </r>
       <r>     6.4901    29.7442  2297.4051 </r>
       <r>     6.6208    23.7093  2300.5036 </r>
       <r>     6.7515    24.7670  2303.7404 </r>
       <r>     6.8822    21.3147  2306.5259 </r>
       <r>     7.0129    34.9477  2311.0932 </r>
       <r>     7.1435    31.1150  2315.1595 </r>
       <r>     7.2742    23.0147  2318.1673 </r>
       <r>     7.4049    24.6959  2321.3947 </r>
       <r>     7.5356    27.8313  2325.0320 </r>
       <r>     7.6663    24.8854  2328.2842 </r>
       <r>     7.7970    42.4337  2333.8298 </r>
       <r>     7.9277    36.5097  2338.6011 </r>
       <r>     8.0584    36.2084  2343.3331 </r>
       <r>     8.1891    45.2483  2349.2465 </r>
       <r>     8.3197    41.6594  2354.6909 </r>
       <r>     8.4504    38.0485  2359.6634 </r>
       <r>     8.5811    44.4704  2365.4751 </r>
       <r>     8.7118    57.3065  2372.9644 </r>
       <r>     8.8425    48.1200  2379.2531 </r>
       <r>     8.9732    43.9761  2385.0002 </r>
       <r>     9.1039    48.6446  2391.3575 </r>
       <r>     9.2346    57.8870  2398.9226 </r>
       <r>     9.3652    48.4438  2405.2537 </r>
       <r>     9.4959    55.3307  2412.4847 </r>
       <r>     9.6266    11.5579  2413.9952 </r>
       <r>     9.7573     0.0369  2414.0000 </r>
       <r>     9.8880     0.0000  2414.0000 </r>
       <r>    10.0187     0.0000  2414.0000 </r>
       <r>    10.1494     0.0000  2414.0000 </r>
       <r>    10.2801     0.0000  2414.0000 </r>
       <r>    10.4107     0.0000  2414.0000 </r>
       <r>    10.5414     0.0000  2414.0000 </r>
       <r>    10.6721     0.0000  2414.0000 </r>
       <r>    10.8028     0.0000  2414.0000 </r>
       <r>    10.9335     0.0000  2414.0000 </r>
       <r>    11.0642     0.0000  2414.0000 </r>
       <r>    11.1949     0.0000  2414.0000 </r>
       <r>    11.3256     0.0000  2414.0000 </r>
      </set>
     </set>
    </array>
   </total>
  </dos>
 </calculation>
 <structure name="finalpos" >
  <crystal>
   <varray name="basis" >
    <v>      10.54150009       0.00000000       0.00000000 </v>
    <v>       5.27075005       9.12920687       0.00000000 </v>
    <v>       0.00000000       0.00000000      28.54150009 </v>
   </varray>
   <i name="volume">   2746.70653362 </i>
   <varray name="rec_basis" >
    <v>       0.09486316      -0.05476927       0.00000000 </v>
    <v>       0.00000000       0.10953854       0.00000000 </v>
    <v>       0.00000000       0.00000000       0.03503670 </v>
   </varray>
  </crystal>
  <varray name="positions" >
   <v>      -0.01994125       0.00458019      -0.09219477 </v>
   <v>      -0.00890967       0.01192626       0.01362370 </v>
   <v>      -0.00968374       0.01048403       0.14568070 </v>
   <v>       0.00063808      -0.00490483       0.24934042 </v>
   <v>      -0.00049744       0.00152565       0.38318522 </v>
   <v>       0.01669340       0.17386917      -0.12027775 </v>
   <v>      -0.00694976       0.20335763      -0.01916935 </v>
   <v>       0.00462365       0.20244433       0.12371843 </v>
   <v>      -0.00022069       0.19343758       0.27220151 </v>
   <v>       0.00897269       0.19927477       0.36528915 </v>
   <v>       0.00870723       0.40948878      -0.10391797 </v>
   <v>      -0.00206656       0.38982259       0.01896318 </v>
   <v>       0.01055317       0.39627647       0.15216354 </v>
   <v>       0.00503926       0.40308651       0.25870261 </v>
   <v>       0.00712701       0.39640978       0.39336840 </v>
   <v>      -0.00228941       0.60465467      -0.14506819 </v>
   <v>      -0.00051647       0.60019108       0.02364579 </v>
   <v>      -0.00137462       0.60152520       0.15393746 </v>
   <v>       0.01380347       0.60850059       0.28067079 </v>
   <v>       0.01455239       0.60383482       0.42371275 </v>
   <v>      -0.00503808       0.81884070      -0.16065536 </v>
   <v>      -0.00505038       0.81428217       0.01532525 </v>
   <v>      -0.01040327       0.80943814       0.11788018 </v>
   <v>      -0.00731606       0.79949187       0.21697307 </v>
   <v>      -0.00022437       0.79294795       0.37160913 </v>
   <v>       0.19298372      -0.00768114      -0.13787006 </v>
   <v>       0.19846255      -0.00430321       0.02920345 </v>
   <v>       0.20051261      -0.00551520       0.12661580 </v>
   <v>       0.19562880       0.00438585       0.24471516 </v>
   <v>       0.20424301      -0.01126890       0.39181545 </v>
   <v>       0.20496814       0.20057614      -0.11124633 </v>
   <v>       0.19605862       0.19530759       0.01087978 </v>
   <v>       0.22026067       0.18452157       0.14232881 </v>
   <v>       0.20418185       0.19936391       0.26000548 </v>
   <v>       0.21240385       0.17999391       0.40144113 </v>
   <v>       0.20278606       0.40037236      -0.13638034 </v>
   <v>       0.19397589       0.40491656       0.04019607 </v>
   <v>       0.21539954       0.39399302       0.14778921 </v>
   <v>       0.21134166       0.39786977       0.27865865 </v>
   <v>       0.20539743       0.39472003       0.38688816 </v>
   <v>       0.20603484       0.60509100      -0.14096223 </v>
   <v>       0.20088426       0.59976331       0.00545691 </v>
   <v>       0.21524708       0.58209598       0.10983335 </v>
   <v>       0.18826713       0.59910195       0.22782912 </v>
   <v>       0.18424859       0.60482170       0.34588877 </v>
   <v>       0.18324503       0.78922620      -0.10389043 </v>
   <v>       0.21415015       0.79887237       0.01283179 </v>
   <v>       0.19271127       0.79517570       0.14257129 </v>
   <v>       0.19641882       0.79187312       0.25895487 </v>
   <v>       0.20425541       0.79599807       0.36199443 </v>
   <v>       0.39661436       0.00151325      -0.12543799 </v>
   <v>       0.40155206      -0.01480662       0.00285023 </v>
   <v>       0.40997223      -0.00104042       0.12048606 </v>
   <v>       0.40315675       0.00530894       0.24575866 </v>
   <v>       0.41013118      -0.00053577       0.36468284 </v>
   <v>       0.38190765       0.25014053      -0.10312503 </v>
   <v>       0.38529855       0.20972148       0.01942540 </v>
   <v>       0.40550842       0.19467879       0.16558334 </v>
   <v>       0.41281033       0.19742382       0.27485460 </v>
   <v>       0.44828520       0.19658779       0.40725144 </v>
   <v>       0.40680763       0.40559293      -0.16558709 </v>
   <v>       0.39396671       0.40737470       0.00527948 </v>
   <v>       0.39900746       0.37833056       0.10846228 </v>
   <v>       0.38129930       0.40762598       0.22614386 </v>
   <v>       0.40106937       0.38965491       0.35803007 </v>
   <v>       0.40179734       0.55586174      -0.09244284 </v>
   <v>       0.41627260       0.59337093       0.00102777 </v>
   <v>       0.39708965       0.59306315       0.14202172 </v>
   <v>       0.40246229       0.58903631       0.25526517 </v>
   <v>       0.37910150       0.60576065       0.40105286 </v>
   <v>       0.40595939       0.79483868      -0.11854746 </v>
   <v>       0.40137534       0.80581171      -0.03240202 </v>
   <v>       0.40657939       0.78965114       0.13647932 </v>
   <v>       0.39886521       0.80457447       0.25653264 </v>
   <v>       0.40545930       0.79978942       0.37262441 </v>
   <v>       0.59170198       0.01525883      -0.11141546 </v>
   <v>       0.58934151       0.00246380      -0.00467255 </v>
   <v>       0.61075319      -0.01044444       0.10657876 </v>
   <v>       0.62544190      -0.01579743       0.25900431 </v>
   <v>       0.61415194      -0.00403995       0.36937868 </v>
   <v>       0.60621556       0.19897942      -0.14468066 </v>
   <v>       0.59253872       0.20230730       0.00854254 </v>
   <v>       0.60906371       0.18141154       0.14062987 </v>
   <v>       0.60294783       0.19696434       0.23516543 </v>
   <v>       0.61159444       0.19244730       0.34012108 </v>
   <v>       0.58769927       0.39750249      -0.11945674 </v>
   <v>       0.58719642       0.41079805       0.03680450 </v>
   <v>       0.59302255       0.40788558       0.13003408 </v>
   <v>       0.59039146       0.39515878       0.26646387 </v>
   <v>       0.59123504       0.38646117       0.40306648 </v>
   <v>       0.59408432       0.60255530      -0.12511436 </v>
   <v>       0.59985503       0.59911302       0.02349801 </v>
   <v>       0.60899422       0.59659052       0.16347656 </v>
   <v>       0.59566643       0.60154287       0.27490314 </v>
   <v>       0.60645047       0.58766620       0.37521406 </v>
   <v>       0.62073747       0.80901594      -0.14379121 </v>
   <v>       0.59198216       0.81051255       0.01664918 </v>
   <v>       0.60042441       0.80226337       0.13251924 </v>
   <v>       0.60381341       0.79966648       0.26324438 </v>
   <v>       0.61079481       0.78920707       0.40160361 </v>
   <v>       0.80414754      -0.01459208      -0.12656824 </v>
   <v>       0.78549700       0.01668960      -0.02152766 </v>
   <v>       0.79060278       0.01078090       0.11544394 </v>
   <v>       0.83036759      -0.02652972       0.25794877 </v>
   <v>       0.80149278      -0.00085664       0.39508055 </v>
   <v>       0.77997249       0.20424359      -0.08893603 </v>
   <v>       0.78433717       0.21211395       0.01943706 </v>
   <v>       0.80901411       0.20508274       0.12422068 </v>
   <v>       0.79742312       0.20184126       0.25238546 </v>
   <v>       0.79799056       0.20181502       0.37558933 </v>
   <v>       0.78128555       0.40757998      -0.13303350 </v>
   <v>       0.79143248       0.39995605      -0.00470433 </v>
   <v>       0.81470048       0.39020326       0.17374792 </v>
   <v>       0.79534164       0.40490100       0.26840937 </v>
   <v>       0.79607178       0.39862074       0.41702445 </v>
   <v>       0.79553105       0.60757189      -0.11317411 </v>
   <v>       0.81243437       0.58078026       0.00720935 </v>
   <v>       0.81379698       0.58256300       0.12124208 </v>
   <v>       0.80877284       0.59721012       0.25043894 </v>
   <v>       0.82503750       0.57888213       0.36498350 </v>
   <v>       0.84589763       0.78054533      -0.09411474 </v>
   <v>       0.81401813       0.79868860       0.00225475 </v>
   <v>       0.79093523       0.81577885       0.14885525 </v>
   <v>       0.81868834       0.78860748       0.26596288 </v>
   <v>       0.80481364       0.78570762       0.37804406 </v>
   <v>       0.13599439       0.08797093      -0.05509212 </v>
   <v>       0.10776330       0.10305929       0.07637154 </v>
   <v>       0.09566148       0.11065556       0.17926002 </v>
   <v>       0.10990446       0.08208921       0.31425198 </v>
   <v>       0.01745774       0.11320177       0.45937854 </v>
   <v>       0.09862989       0.31262240      -0.03392504 </v>
   <v>       0.06046150       0.30815525       0.09508194 </v>
   <v>       0.09231453       0.30057121       0.20982717 </v>
   <v>       0.09409358       0.30788297       0.33336438 </v>
   <v>       0.12553773       0.29149045       0.44901253 </v>
   <v>       0.10006405       0.48859003      -0.03167511 </v>
   <v>       0.08785596       0.50308720       0.09697265 </v>
   <v>       0.09567194       0.51092351       0.22471585 </v>
   <v>       0.10572432       0.50213341       0.33961732 </v>
   <v>       0.14295822       0.52747858       0.46839101 </v>
   <v>       0.09133298       0.69933301      -0.04196980 </v>
   <v>       0.09859359       0.70537509       0.06398729 </v>
   <v>       0.10483534       0.68914253       0.16074053 </v>
   <v>       0.09342952       0.70389046       0.29476608 </v>
   <v>       0.05628760       0.76910290       0.44618802 </v>
   <v>       0.11833902       0.87288610      -0.04649158 </v>
   <v>       0.10052214       0.90278950       0.06196575 </v>
   <v>       0.10215420       0.89394179       0.19008567 </v>
   <v>       0.08164035       0.90452276       0.30050100 </v>
   <v>       0.14030840       0.86869322       0.41568105 </v>
   <v>       0.31420618       0.08770781      -0.04294402 </v>
   <v>       0.28640931       0.12076164       0.07583940 </v>
   <v>       0.29061274       0.11651181       0.19608390 </v>
   <v>       0.27637009       0.11139068       0.32577036 </v>
   <v>       0.32246124       0.03607060       0.46479498 </v>
   <v>       0.30163864       0.30230964      -0.03440668 </v>
   <v>       0.30111109       0.29581582       0.08669724 </v>
   <v>       0.28600907       0.31835834       0.21442534 </v>
   <v>       0.31639646       0.29228355       0.33204088 </v>
   <v>       0.26311863       0.30213539       0.44218772 </v>
   <v>       0.28758818       0.49354289      -0.04532768 </v>
   <v>       0.30750481       0.49614911       0.05620586 </v>
   <v>       0.30626768       0.48401458       0.16254529 </v>
   <v>       0.30438141       0.49606747       0.28372735 </v>
   <v>       0.24170169       0.56670077       0.47006163 </v>
   <v>       0.27234400       0.70888627      -0.05137187 </v>
   <v>       0.30047883       0.71364471       0.08226536 </v>
   <v>       0.29191160       0.69259405       0.20277432 </v>
   <v>       0.29903558       0.70258568       0.31152448 </v>
   <v>       0.33497047       0.68831475       0.45578121 </v>
   <v>       0.27040648       0.92188018      -0.08091433 </v>
   <v>       0.31004751       0.89604136       0.07923959 </v>
   <v>       0.30782426       0.90036882       0.19895342 </v>
   <v>       0.28944259       0.90472667       0.31993870 </v>
   <v>       0.25265710       0.97706853       0.46589860 </v>
   <v>       0.47964508       0.13176698      -0.06065690 </v>
   <v>       0.51195244       0.09695450       0.05904766 </v>
   <v>       0.49585686       0.08680172       0.21590409 </v>
   <v>       0.51495494       0.09904903       0.32431676 </v>
   <v>       0.49167802       0.07962004       0.45028537 </v>
   <v>       0.50822576       0.29933998      -0.03980862 </v>
   <v>       0.56124427       0.23511430       0.08327032 </v>
   <v>       0.50633345       0.29131517       0.18925214 </v>
   <v>       0.49645342       0.31372091       0.29070650 </v>
   <v>       0.40504039       0.36720236       0.43751842 </v>
   <v>       0.51676340       0.48347970      -0.04351300 </v>
   <v>       0.49817236       0.51098188       0.08909110 </v>
   <v>       0.50091556       0.48795030       0.20589795 </v>
   <v>       0.47870600       0.50310905       0.35445147 </v>
   <v>       0.53897711       0.49225566       0.47110700 </v>
   <v>       0.51474866       0.68262862      -0.07250198 </v>
   <v>       0.50127762       0.69666270       0.06931781 </v>
   <v>       0.49390090       0.71681793       0.20042021 </v>
   <v>       0.49642778       0.69526671       0.31784672 </v>
   <v>       0.45343162       0.77511832       0.45007065 </v>
   <v>       0.49523853       0.90489593      -0.07711172 </v>
   <v>       0.47944584       0.90523442       0.06033309 </v>
   <v>       0.49406209       0.90925215       0.17383045 </v>
   <v>       0.48197277       0.91861796       0.30108439 </v>
   <v>       0.54184616       0.83362317       0.45866699 </v>
   <v>       0.68657570       0.12231125      -0.08093210 </v>
   <v>       0.73831721       0.07854282       0.04097087 </v>
   <v>       0.70771526       0.08959734       0.18992066 </v>
   <v>       0.70234557       0.11751925       0.29006949 </v>
   <v>       0.73435840       0.06556769       0.45050587 </v>
   <v>       0.69283383       0.31128505      -0.04557399 </v>
   <v>       0.72369163       0.29676110       0.07193738 </v>
   <v>       0.71977533       0.29367357       0.17462861 </v>
   <v>       0.69688828       0.30225202       0.31624463 </v>
   <v>       0.69338588       0.27807466       0.44659528 </v>
   <v>       0.66656079       0.52233445      -0.03974124 </v>
   <v>       0.72235804       0.48616615       0.11410296 </v>
   <v>       0.69092661       0.50551080       0.22270137 </v>
   <v>       0.70792999       0.47923798       0.32894242 </v>
   <v>       0.63360805       0.52442115       0.46367447 </v>
   <v>       0.68779794       0.70017623      -0.03342670 </v>
   <v>       0.68663181       0.70446742       0.08261411 </v>
   <v>       0.68452033       0.72244812       0.21169441 </v>
   <v>       0.67787172       0.71685616       0.33743727 </v>
   <v>       0.72185703       0.67209138       0.45779792 </v>
   <v>       0.70027448       0.89522103      -0.04318441 </v>
   <v>       0.70090766       0.88957501       0.05378222 </v>
   <v>       0.69506790       0.90179156       0.19427739 </v>
   <v>       0.70011208       0.91106315       0.31631519 </v>
   <v>       0.65335909      -0.02065153       0.46598475 </v>
   <v>       0.90230671       0.11110921      -0.03486246 </v>
   <v>       0.93170211       0.08184466       0.08830147 </v>
   <v>       0.89828158       0.09481270       0.20496905 </v>
   <v>       0.89342079       0.08483181       0.33267338 </v>
   <v>       0.90491823       0.11138988       0.44802610 </v>
   <v>       0.89437972       0.32747834      -0.07915835 </v>
   <v>       0.92225292       0.27944122       0.04070939 </v>
   <v>       0.90402929       0.29209926       0.22014706 </v>
   <v>       0.89411251       0.29754468       0.32050390 </v>
   <v>       0.92113002       0.29791138       0.45851916 </v>
   <v>       0.89383356       0.51700846      -0.06565368 </v>
   <v>       0.88486424       0.50022863       0.06305791 </v>
   <v>       0.86823468       0.52812843       0.18465432 </v>
   <v>       0.89404116       0.51117364       0.30514424 </v>
   <v>       0.89558276       0.47960827       0.44115718 </v>
   <v>       0.93302923       0.67030880      -0.03645181 </v>
   <v>       0.89090622       0.69417856       0.07638411 </v>
   <v>       0.90004146       0.70300640       0.20553543 </v>
   <v>       0.89416305       0.72331635       0.32255344 </v>
   <v>       0.88358069       0.75059608       0.45271595 </v>
   <v>       0.92170673       0.87517762      -0.06092587 </v>
   <v>       0.90180253       0.89038307       0.06919504 </v>
   <v>       0.88111209       0.91964534       0.17202685 </v>
   <v>       0.88201980       0.93410330       0.33184118 </v>
   <v>       0.92146279       0.88112881       0.48026393 </v>
   <v>       0.57496195       0.28821223       0.48348201 </v>
   <v>       0.28152101       0.58396391       0.50728052 </v>
  </varray>
 </structure>
</modeling>
