 running on    1 total cores
 distrk:  each k-point on    1 cores,    1 groups
 distr:  one band on    1 cores,    1 groups
 OpenACC runtime initialized ...    1 GPUs detected
 vasp.6.2.1 16May21 (build May 12 2022 08:28:04) complex                         
 POSCAR found type information on POSCAR NiO 
 POSCAR found :  2 types and     252 ions
 scaLAPACK will be used selectively (only on CPU)
 LDA part: xc-table for Pade appr. of Perdew
 POSCAR found type information on POSCAR NiO 
 POSCAR found :  2 types and     252 ions
 POSCAR, INCAR and KPOINTS ok, starting setup
 FFT: planning ...
 WAVECAR not read
 entering main loop
       N       E                     dE             d eps       ncg     rms          rms(c)
DAV:   1     0.312280163090E+05    0.31228E+05   -0.90444E+05  9744   0.156E+03
DAV:   2     0.517042797652E+04   -0.26058E+05   -0.24152E+05 10060   0.569E+02
DAV:   3     0.534653592336E+03   -0.46358E+04   -0.42535E+04 11848   0.280E+02
DAV:   4     0.122610009545E+02   -0.52239E+03   -0.50068E+03 13896   0.983E+01
DAV:   5    -0.488580427505E+01   -0.17147E+02   -0.16994E+02 13216   0.192E+01    0.744E+02
DAV:   6    -0.382511333447E+03   -0.37763E+03   -0.11194E+03 16448   0.227E+02    0.677E+02
DAV:   7    -0.106127790188E+05   -0.10230E+05   -0.54287E+04 15343   0.799E+02    0.354E+03
DAV:   8    -0.118886111181E+05   -0.12758E+04   -0.23369E+04 15720   0.248E+02    0.299E+03
DAV:   9    -0.842555374920E+04    0.34631E+04   -0.33327E+03 14424   0.882E+01    0.233E+03
DAV:  10    -0.393195064720E+04    0.44936E+04   -0.52549E+02 16416   0.837E+01    0.174E+03
DAV:  11    -0.259564491286E+04    0.13363E+04   -0.13256E+03 14280   0.120E+02    0.141E+03
DAV:  12    -0.482997099250E+02    0.25473E+04   -0.47100E+04 17304   0.594E+02    0.228E+03
DAV:  13    -0.153805274204E+04   -0.14898E+04   -0.16447E+04 11248   0.197E+02    0.142E+03
DAV:  14    -0.749984789733E+03    0.78807E+03   -0.12575E+03 10800   0.170E+02    0.934E+02
DAV:  15    -0.191148258826E+04   -0.11615E+04   -0.49669E+03 11552   0.369E+02    0.118E+03
DAV:  16    -0.245419956606E+04   -0.54272E+03   -0.49676E+03 15016   0.949E+01    0.106E+03
DAV:  17    -0.297262957531E+03    0.21569E+04   -0.67631E+02 14648   0.150E+02    0.625E+02
DAV:  18     0.143667060570E+02    0.31163E+03   -0.12873E+03 13640   0.241E+02    0.622E+02
DAV:  19     0.100994435107E+03    0.86628E+02   -0.94335E+02 12176   0.123E+02    0.554E+02
DAV:  20     0.316651010162E+03    0.21566E+03   -0.54736E+02 10320   0.124E+02    0.351E+02
DAV:  21     0.336039565932E+03    0.19389E+02   -0.17444E+02 10592   0.866E+01    0.348E+02
DAV:  22     0.368868043458E+03    0.32828E+02   -0.15636E+02 10232   0.480E+01    0.309E+02
DAV:  23     0.356282040910E+03   -0.12586E+02   -0.59069E+01 10768   0.455E+01    0.324E+02
DAV:  24     0.379093715060E+03    0.22812E+02   -0.32959E+01 10784   0.323E+01    0.315E+02
DAV:  25     0.393910444562E+03    0.14817E+02   -0.28908E+01 10192   0.283E+01    0.311E+02
DAV:  26     0.403417001954E+03    0.95066E+01   -0.18001E+01 10224   0.216E+01    0.310E+02
DAV:  27     0.406483577783E+03    0.30666E+01   -0.17407E+01 10304   0.250E+01    0.312E+02
DAV:  28     0.417004356409E+03    0.10521E+02   -0.20582E+01 10928   0.238E+01    0.311E+02
DAV:  29     0.425577776169E+03    0.85734E+01   -0.26424E+01 10456   0.255E+01    0.309E+02
DAV:  30     0.429002041713E+03    0.34243E+01   -0.18451E+01 10408   0.193E+01    0.307E+02
DAV:  31     0.431801560890E+03    0.27995E+01   -0.10203E+01 10328   0.138E+01    0.305E+02
DAV:  32     0.433345340374E+03    0.15438E+01   -0.47251E+00 10296   0.909E+00    0.302E+02
DAV:  33     0.434584586038E+03    0.12392E+01   -0.36095E+00 10176   0.733E+00    0.299E+02
DAV:  34     0.437833881721E+03    0.32493E+01   -0.27946E+00 10448   0.839E+00    0.294E+02
DAV:  35     0.440544095273E+03    0.27102E+01   -0.33691E+00 10672   0.814E+00    0.289E+02
DAV:  36     0.442768652585E+03    0.22246E+01   -0.35393E+00 10704   0.950E+00    0.286E+02
DAV:  37     0.445817193519E+03    0.30485E+01   -0.43062E+00 10560   0.994E+00    0.282E+02
DAV:  38     0.446556229180E+03    0.73904E+00   -0.32801E+00 10904   0.605E+00    0.280E+02
DAV:  39     0.447392740203E+03    0.83651E+00   -0.18654E+00 10632   0.429E+00    0.280E+02
DAV:  40     0.447845262177E+03    0.45252E+00   -0.84850E-01 10224   0.374E+00    0.281E+02
DAV:  41     0.447503350477E+03   -0.34191E+00   -0.13323E+00 11792   0.460E+00    0.283E+02
DAV:  42     0.447302105706E+03   -0.20124E+00   -0.13980E+00 11792   0.388E+00    0.289E+02
DAV:  43     0.446357882513E+03   -0.94422E+00   -0.94737E-01 11448   0.371E+00    0.297E+02
DAV:  44     0.446154391970E+03   -0.20349E+00   -0.59102E-01 10776   0.201E+00    0.301E+02
DAV:  45     0.445136439674E+03   -0.10180E+01   -0.21689E-01 10336   0.182E+00    0.307E+02
DAV:  46     0.444678156224E+03   -0.45828E+00   -0.10901E-01 13304   0.728E-01    0.310E+02
DAV:  47     0.444822397105E+03    0.14424E+00   -0.18147E-02 10753   0.319E-01    0.310E+02
DAV:  48     0.444374407738E+03   -0.44799E+00   -0.30773E-02 14290   0.934E-01    0.312E+02
DAV:  49     0.444067778747E+03   -0.30663E+00   -0.19043E-02 11296   0.767E-01    0.314E+02
DAV:  50     0.443746435221E+03   -0.32134E+00   -0.93871E-03 10456   0.267E-01    0.317E+02
DAV:  51     0.421387762334E+03   -0.22359E+02   -0.60408E+01 16856   0.539E+01    0.121E+02
DAV:  52     0.436279506401E+03    0.14892E+02   -0.21988E+01 10760   0.196E+01    0.102E+02
DAV:  53     0.441022479239E+03    0.47430E+01   -0.11943E+01 10296   0.180E+01    0.970E+01
DAV:  54     0.445101905253E+03    0.40794E+01   -0.83152E+00 10376   0.166E+01    0.878E+01
DAV:  55     0.449677780291E+03    0.45759E+01   -0.15205E+01 11304   0.239E+01    0.794E+01
DAV:  56     0.439732709324E+03   -0.99451E+01   -0.43977E+01 15448   0.348E+01    0.755E+01
DAV:  57     0.450625225327E+03    0.10893E+02   -0.45009E+01 10384   0.310E+01    0.606E+01
DAV:  58     0.450655665708E+03    0.30440E-01   -0.14992E+01 10304   0.183E+01    0.608E+01
DAV:  59     0.452816642416E+03    0.21610E+01   -0.64597E+00 10176   0.105E+01    0.570E+01
DAV:  60     0.453750755920E+03    0.93411E+00   -0.48769E+00 10624   0.126E+01    0.545E+01
DAV:  61     0.444111953583E+03   -0.96388E+01   -0.34120E+01 15232   0.336E+01    0.760E+01
DAV:  62     0.456324475623E+03    0.12213E+02   -0.33750E+01 11224   0.342E+01    0.519E+01
DAV:  63     0.460859877970E+03    0.45354E+01   -0.16266E+01 10488   0.217E+01    0.402E+01
DAV:  64     0.463562319901E+03    0.27024E+01   -0.64956E+00 10256   0.155E+01    0.337E+01
DAV:  65     0.461496917671E+03   -0.20654E+01   -0.45930E+00 10320   0.130E+01    0.398E+01
DAV:  66     0.461047199959E+03   -0.44972E+00   -0.48238E+00 10256   0.167E+01    0.371E+01
DAV:  67     0.459708522727E+03   -0.13387E+01   -0.50442E+00 10616   0.178E+01    0.453E+01
DAV:  68     0.463471774063E+03    0.37633E+01   -0.81854E+00 10480   0.137E+01    0.281E+01
DAV:  69     0.464265999268E+03    0.79423E+00   -0.36716E+00 10320   0.113E+01    0.268E+01
DAV:  70     0.465003882157E+03    0.73788E+00   -0.17849E+00 10216   0.844E+00    0.228E+01
DAV:  71     0.464915705188E+03   -0.88177E-01   -0.12621E+00 10288   0.744E+00    0.245E+01
DAV:  72     0.465364516520E+03    0.44881E+00   -0.11421E+00 10080   0.618E+00    0.209E+01
DAV:  73     0.465953050259E+03    0.58853E+00   -0.14373E+00  9992   0.479E+00    0.152E+01
DAV:  74     0.466010745247E+03    0.57695E-01   -0.40632E-01 10056   0.358E+00    0.152E+01
DAV:  75     0.466230941179E+03    0.22020E+00   -0.55225E-01  9960   0.310E+00    0.113E+01
DAV:  76     0.466164576918E+03   -0.66364E-01   -0.49053E-01 10073   0.355E+00    0.126E+01
DAV:  77     0.466318371556E+03    0.15379E+00   -0.51891E-01 10216   0.290E+00    0.102E+01
DAV:  78     0.466391763732E+03    0.73392E-01   -0.18715E-01 10217   0.186E+00    0.915E+00
DAV:  79     0.466420635517E+03    0.28872E-01   -0.13133E-01 10160   0.176E+00    0.835E+00
DAV:  80     0.466507238825E+03    0.86603E-01   -0.12306E-01 10080   0.172E+00    0.652E+00
DAV:  81     0.466531627279E+03    0.24388E-01   -0.30443E-01 11704   0.263E+00    0.547E+00
DAV:  82     0.466592118401E+03    0.60491E-01   -0.18104E-01 11209   0.200E+00    0.428E+00
DAV:  83     0.466606646351E+03    0.14528E-01   -0.54366E-02 10744   0.945E-01    0.333E+00
DAV:  84     0.466597750664E+03   -0.88957E-02   -0.42378E-02 10816   0.986E-01    0.373E+00
DAV:  85     0.466601138524E+03    0.33879E-02   -0.38140E-02 10641   0.900E-01    0.357E+00
DAV:  86     0.466571018905E+03   -0.30120E-01   -0.11646E-01 12840   0.176E+00    0.412E+00
DAV:  87     0.466620045980E+03    0.49027E-01   -0.12319E-01 11928   0.149E+00    0.237E+00
DAV:  88     0.466625554903E+03    0.55089E-02   -0.28839E-02 11504   0.730E-01    0.143E+00
DAV:  89     0.466624988942E+03   -0.56596E-03   -0.18754E-02 11065   0.600E-01    0.136E+00
DAV:  90     0.466626147941E+03    0.11590E-02   -0.74404E-03 10776   0.440E-01    0.123E+00
DAV:  91     0.466622001115E+03   -0.41468E-02   -0.92082E-03 11129   0.422E-01    0.161E+00
DAV:  92     0.466626744649E+03    0.47435E-02   -0.60609E-03 10416   0.345E-01    0.112E+00
DAV:  93     0.466627607475E+03    0.86283E-03   -0.44764E-03 10529   0.283E-01    0.742E-01
DAV:  94     0.466628054237E+03    0.44676E-03   -0.37925E-03 10480   0.244E-01    0.447E-01
DAV:  95     0.466627669984E+03   -0.38425E-03   -0.19290E-03 10480   0.201E-01    0.418E-01
DAV:  96     0.466626997404E+03   -0.67258E-03   -0.21138E-03 10369   0.231E-01    0.472E-01
DAV:  97     0.466627260681E+03    0.26328E-03   -0.13060E-03 10368   0.165E-01    0.360E-01
DAV:  98     0.466627165251E+03   -0.95430E-04   -0.64025E-04 10153   0.120E-01    0.300E-01
DAV:  99     0.466626986803E+03   -0.17845E-03   -0.35493E-04 10264   0.866E-02    0.235E-01
DAV: 100     0.466626852194E+03   -0.13461E-03   -0.26761E-04  9993   0.784E-02    0.167E-01
DAV: 101     0.466626744102E+03   -0.10809E-03   -0.17964E-04  9888   0.795E-02    0.133E-01
DAV: 102     0.466626665103E+03   -0.78999E-04   -0.12559E-04  9712   0.574E-02    0.101E-01
DAV: 103     0.466626447255E+03   -0.21785E-03   -0.64988E-05  9337   0.397E-02    0.812E-02
DAV: 104     0.466626314223E+03   -0.13303E-03   -0.51069E-05  8952   0.337E-02    0.720E-02
DAV: 105     0.466626201662E+03   -0.11256E-03   -0.33829E-05  8480   0.300E-02    0.598E-02
DAV: 106     0.466626121549E+03   -0.80113E-04   -0.35874E-05  8296   0.338E-02    0.478E-02
DAV: 107     0.466626117476E+03   -0.40736E-05   -0.19798E-05  7512   0.246E-02
   1 F= 0.35063590E+03 E0= 0.35073788E+03  d E =0.350636E+03
 curvature:   0.00 expect dE= 0.000E+00 dE for cont linesearch  0.000E+00
 trial: gam= 0.00000 g(F)=  0.658E+03 g(S)=  0.000E+00 ort = 0.000E+00 (trialstep = 0.100E+01)
 search vector abs. value=  0.658E+03
 bond charge predicted
       N       E                     dE             d eps       ncg     rms          rms(c)
DAV:   1     0.178265814454E+04    0.13160E+04   -0.89241E+04 13080   0.479E+02    0.820E+02
DAV:   2    -0.162626790787E+05   -0.18045E+05   -0.11073E+05 17044   0.108E+03    0.534E+03
DAV:   3    -0.216275910498E+05   -0.53649E+04   -0.53290E+04 16072   0.400E+02    0.384E+03
DAV:   4    -0.177993450451E+05    0.38282E+04   -0.70317E+05 16376   0.914E+02    0.705E+03
DAV:   5    -0.136774120079E+05    0.41219E+04   -0.92329E+04 13509   0.502E+02    0.234E+03
DAV:   6    -0.765714236753E+03    0.12912E+05   -0.20847E+04 12935   0.299E+02    0.657E+02
DAV:   7     0.107603262409E+03    0.87332E+03   -0.14156E+04 13968   0.196E+02    0.658E+02
DAV:   8    -0.325101283600E+03   -0.43270E+03   -0.69104E+03 11616   0.292E+02    0.767E+02
DAV:   9    -0.429321055581E+03   -0.10422E+03   -0.34354E+03 12584   0.132E+02    0.336E+02
DAV:  10    -0.611460222515E+03   -0.18214E+03   -0.42523E+02 11008   0.190E+02    0.328E+02
DAV:  11    -0.214904399126E+03    0.39656E+03   -0.39007E+02 11064   0.138E+02    0.271E+02
DAV:  12    -0.142886112136E+03    0.72018E+02   -0.19425E+02 10208   0.664E+01    0.238E+02
DAV:  13    -0.123320501344E+03    0.19566E+02   -0.16251E+02 10744   0.509E+01    0.237E+02
DAV:  14    -0.100715475572E+03    0.22605E+02   -0.48907E+01 10384   0.306E+01    0.227E+02
DAV:  15    -0.876352914441E+02    0.13080E+02   -0.26406E+01 10936   0.220E+01    0.226E+02
DAV:  16    -0.535748721035E+02    0.34060E+02   -0.31896E+01 11104   0.349E+01    0.217E+02
DAV:  17     0.230373198139E+02    0.76612E+02   -0.11407E+02 15176   0.497E+01    0.211E+02
DAV:  18     0.492535641477E+02    0.26216E+02   -0.57208E+01 11536   0.364E+01    0.209E+02
DAV:  19     0.639530975316E+02    0.14700E+02   -0.48016E+01 10880   0.340E+01    0.201E+02
DAV:  20     0.644506729399E+02    0.49758E+00   -0.22114E+01 10480   0.197E+01    0.204E+02
DAV:  21     0.705170010449E+02    0.60663E+01   -0.18055E+01 10912   0.235E+01    0.205E+02
DAV:  22     0.702520152871E+02   -0.26499E+00   -0.13421E+01 11280   0.186E+01    0.205E+02
DAV:  23     0.749315439025E+02    0.46795E+01   -0.11390E+01 11280   0.191E+01    0.204E+02
DAV:  24     0.777451116564E+02    0.28136E+01   -0.96732E+00 10888   0.166E+01    0.203E+02
DAV:  25     0.793127872893E+02    0.15677E+01   -0.90313E+00 10760   0.148E+01    0.202E+02
DAV:  26     0.815916114585E+02    0.22788E+01   -0.89402E+00 10768   0.147E+01    0.202E+02
DAV:  27     0.840026952741E+02    0.24111E+01   -0.68457E+00 11600   0.130E+01    0.202E+02
DAV:  28     0.852314516036E+02    0.12288E+01   -0.45888E+00 10816   0.101E+01    0.202E+02
DAV:  29     0.854100988605E+02    0.17865E+00   -0.28698E+00 10944   0.657E+00    0.203E+02
DAV:  30     0.849981004596E+02   -0.41200E+00   -0.17108E+00 10808   0.557E+00    0.204E+02
DAV:  31     0.850402776422E+02    0.42177E-01   -0.11940E+00 10840   0.438E+00    0.204E+02
DAV:  32     0.849710571170E+02   -0.69221E-01   -0.83542E-01 10960   0.435E+00    0.205E+02
DAV:  33     0.850466996147E+02    0.75642E-01   -0.12749E+00 11112   0.495E+00    0.206E+02
DAV:  34     0.850967802764E+02    0.50081E-01   -0.16077E+00 11096   0.581E+00    0.208E+02
DAV:  35     0.855449449103E+02    0.44816E+00   -0.14389E+00 10680   0.544E+00    0.210E+02
DAV:  36     0.859418760329E+02    0.39693E+00   -0.11868E+00 10504   0.424E+00    0.211E+02
DAV:  37     0.859938937058E+02    0.52018E-01   -0.66738E-01 10224   0.287E+00    0.212E+02
DAV:  38     0.859562473809E+02   -0.37646E-01   -0.39199E-01 10136   0.233E+00    0.214E+02
DAV:  39     0.860890614265E+02    0.13281E+00   -0.24243E-01 10096   0.197E+00    0.215E+02
DAV:  40     0.862796887225E+02    0.19063E+00   -0.12586E-01 10264   0.140E+00    0.216E+02
DAV:  41     0.864788247007E+02    0.19914E+00   -0.11645E-01 10392   0.118E+00    0.218E+02
DAV:  42     0.866298383125E+02    0.15101E+00   -0.11117E-01 10536   0.977E-01    0.220E+02
DAV:  43     0.867308267611E+02    0.10099E+00   -0.78187E-02 10408   0.980E-01    0.221E+02
DAV:  44     0.867677934286E+02    0.36967E-01   -0.41490E-02 13544   0.330E-01    0.222E+02
DAV:  45     0.867533555618E+02   -0.14438E-01   -0.27722E-03 12176   0.163E-01    0.221E+02
DAV:  46     0.867535521714E+02    0.19661E-03   -0.86239E-04 10520   0.721E-02    0.221E+02
DAV:  47    -0.956550278305E+02   -0.18241E+03   -0.55147E+01 15361   0.275E+01    0.143E+02
DAV:  48    -0.165884812471E+03   -0.70230E+02   -0.66082E+01 12840   0.870E+00    0.149E+02
DAV:  49    -0.900050825519E+02    0.75880E+02   -0.18545E+01 16112   0.177E+01    0.153E+02
DAV:  50    -0.640981309195E+02    0.25907E+02   -0.14900E+01 14032   0.202E+01    0.142E+02
DAV:  51    -0.412210433637E+02    0.22877E+02   -0.68244E+00 12808   0.136E+01    0.136E+02
DAV:  52    -0.262100342251E+04   -0.25798E+04   -0.37268E+03 17008   0.117E+02    0.299E+02
DAV:  53    -0.106942458635E+04    0.15516E+04   -0.11971E+03 13688   0.958E+01    0.233E+02
DAV:  54    -0.243881183165E+03    0.82554E+03   -0.86387E+02 14616   0.728E+01    0.177E+02
DAV:  55    -0.366020936803E+02    0.20728E+03   -0.43385E+02 13128   0.691E+01    0.147E+02
DAV:  56     0.227424263209E+01    0.38876E+02   -0.23958E+02 11648   0.609E+01    0.127E+02
DAV:  57     0.472978161136E+01    0.24555E+01   -0.18043E+02 11104   0.683E+01    0.138E+02
DAV:  58     0.254493419826E+02    0.20720E+02   -0.11436E+02 10632   0.484E+01    0.106E+02
DAV:  59     0.183122013612E+02   -0.71371E+01   -0.49658E+01 10240   0.370E+01    0.113E+02
DAV:  60     0.230662502930E+02    0.47540E+01   -0.31046E+01 10184   0.293E+01    0.104E+02
DAV:  61     0.264177681087E+02    0.33515E+01   -0.22316E+01 10216   0.238E+01    0.990E+01
DAV:  62     0.300271209516E+02    0.36094E+01   -0.23925E+01 10568   0.353E+01    0.111E+02
DAV:  63     0.360104283760E+02    0.59833E+01   -0.17071E+01 10352   0.189E+01    0.105E+02
DAV:  64     0.418564600539E+02    0.58460E+01   -0.83064E+00 10256   0.126E+01    0.984E+01
DAV:  65     0.420455568507E+02    0.18910E+00   -0.35714E+00 10328   0.707E+00    0.981E+01
DAV:  66     0.427922270456E+02    0.74667E+00   -0.22774E+00 10264   0.672E+00    0.969E+01
DAV:  67     0.242232905519E+02   -0.18569E+02   -0.20496E+01 12888   0.333E+01    0.116E+02
DAV:  68     0.428176882775E+02    0.18594E+02   -0.12678E+01 12080   0.216E+01    0.976E+01
DAV:  69     0.440283243898E+02    0.12106E+01   -0.45210E+00 11456   0.108E+01    0.964E+01
DAV:  70     0.394407325238E+02   -0.45876E+01   -0.49101E+00 10888   0.111E+01    0.995E+01
DAV:  71     0.294078540411E+02   -0.10033E+02   -0.10349E+01 11376   0.177E+01    0.102E+02
DAV:  72    -0.140226784281E+03   -0.16963E+03   -0.75732E+01 13872   0.590E+01    0.177E+02
DAV:  73    -0.744819560861E+02    0.65745E+02   -0.42615E+01 12896   0.384E+01    0.130E+02
DAV:  74    -0.488167507793E+02    0.25665E+02   -0.23303E+01 12096   0.209E+01    0.118E+02
DAV:  75    -0.834309308813E+02   -0.34614E+02   -0.14152E+01 11040   0.120E+01    0.126E+02
DAV:  76    -0.854240393965E+02   -0.19931E+01   -0.62175E+00 13984   0.407E+00    0.126E+02
DAV:  77    -0.647439056085E+02    0.20680E+02   -0.68585E+01 14384   0.477E+01    0.155E+02
DAV:  78    -0.430981802288E+01    0.60434E+02   -0.39512E+01 13936   0.401E+01    0.120E+02
DAV:  79    -0.119068636317E+02   -0.75970E+01   -0.26288E+01 14792   0.231E+01    0.113E+02
DAV:  80    -0.567177492743E+02   -0.44811E+02   -0.20766E+01 13360   0.263E+01    0.123E+02
DAV:  81    -0.618391371286E+02   -0.51214E+01   -0.84472E+00 13272   0.121E+01    0.119E+02
DAV:  82    -0.138643562557E+03   -0.76804E+02   -0.12593E+02 13392   0.833E+01    0.181E+02
DAV:  83    -0.499055852359E+02    0.88738E+02   -0.89173E+01 12432   0.773E+01    0.129E+02
DAV:  84    -0.986763445716E+02   -0.48771E+02   -0.41147E+01 12408   0.346E+01    0.129E+02
DAV:  85    -0.117740719755E+03   -0.19064E+02   -0.24398E+01 10984   0.245E+01    0.126E+02
DAV:  86    -0.108498426132E+03    0.92423E+01   -0.18944E+01 10416   0.237E+01    0.124E+02
DAV:  87    -0.142419368824E+03   -0.33921E+02   -0.24394E+02 13248   0.899E+01    0.195E+02
DAV:  88    -0.226457625185E+02    0.11977E+03   -0.10598E+02 11426   0.603E+01    0.143E+02
DAV:  89     0.194215793638E+02    0.42067E+02   -0.51687E+01 10680   0.356E+01    0.111E+02
DAV:  90    -0.594271470094E+01   -0.25364E+02   -0.66258E+01 10528   0.474E+01    0.126E+02
DAV:  91     0.178800487649E+02    0.23823E+02   -0.44914E+01 10320   0.347E+01    0.973E+01
DAV:  92    -0.782921435828E+02   -0.96172E+02   -0.20263E+02 13272   0.107E+02    0.175E+02
DAV:  93     0.126917212997E+02    0.90984E+02   -0.60075E+01 10052   0.568E+01    0.119E+02
DAV:  94     0.113974808622E+02   -0.12942E+01   -0.31538E+01 13776   0.942E+00    0.115E+02
DAV:  95     0.192594071715E+02    0.78619E+01   -0.32935E+00 11368   0.114E+01    0.112E+02
DAV:  96     0.275787249748E+02    0.83193E+01   -0.11284E+01 11544   0.189E+01    0.102E+02
DAV:  97    -0.120355715966E+02   -0.39614E+02   -0.62856E+01 16330   0.636E+01    0.105E+02
DAV:  98    -0.187634774623E+01    0.10159E+02   -0.58852E+01 13912   0.681E+01    0.105E+02
DAV:  99     0.183441338306E+02    0.20220E+02   -0.31785E+01 13224   0.323E+01    0.850E+01
DAV: 100     0.316982637285E+02    0.13354E+02   -0.16554E+01 11296   0.248E+01    0.740E+01
DAV: 101     0.486061489703E+02    0.16908E+02   -0.11530E+01 11032   0.198E+01    0.621E+01
DAV: 102     0.433286839500E+02   -0.52775E+01   -0.16609E+01 11784   0.234E+01    0.692E+01
DAV: 103     0.468591333693E+02    0.35304E+01   -0.12434E+01 10544   0.204E+01    0.628E+01
DAV: 104     0.487427671761E+02    0.18836E+01   -0.63019E+00 10696   0.135E+01    0.603E+01
DAV: 105     0.493409999670E+02    0.59823E+00   -0.54735E+00 10536   0.130E+01    0.624E+01
DAV: 106     0.505925892405E+02    0.12516E+01   -0.77670E+00 10456   0.156E+01    0.561E+01
DAV: 107     0.395795419556E+02   -0.11013E+02   -0.17244E+01 12336   0.265E+01    0.706E+01
DAV: 108     0.445618018215E+02    0.49823E+01   -0.15173E+01 10600   0.233E+01    0.558E+01
DAV: 109     0.539249056913E+02    0.93631E+01   -0.62207E+00 10568   0.143E+01    0.479E+01
DAV: 110     0.546337512829E+02    0.70885E+00   -0.39233E+00 10472   0.987E+00    0.465E+01
DAV: 111     0.535794587396E+02   -0.10543E+01   -0.23988E+00 10568   0.610E+00    0.444E+01
DAV: 112     0.271272962959E+02   -0.26452E+02   -0.56619E+01 14296   0.407E+01    0.107E+02
DAV: 113     0.709152614446E+02    0.43788E+02   -0.27538E+01 12641   0.304E+01    0.467E+01
DAV: 114     0.744431266068E+02    0.35279E+01   -0.82064E+00 11208   0.135E+01    0.425E+01
DAV: 115     0.758706392804E+02    0.14275E+01   -0.68445E+00 10728   0.126E+01    0.416E+01
DAV: 116     0.792093637711E+02    0.33387E+01   -0.38185E+00 10504   0.997E+00    0.354E+01
DAV: 117     0.512829953996E+02   -0.27926E+02   -0.39583E+01 13424   0.380E+01    0.828E+01
DAV: 118     0.776501539564E+02    0.26367E+02   -0.26310E+01 12240   0.296E+01    0.388E+01
DAV: 119     0.796716448157E+02    0.20215E+01   -0.62012E+00 11056   0.115E+01    0.334E+01
DAV: 120     0.816646834407E+02    0.19930E+01   -0.35239E+00 10328   0.917E+00
 -----------------------------------------------------------------------------
|                                                                             |
|           W    W    AA    RRRRR   N    N  II  N    N   GGGG   !!!           |
|           W    W   A  A   R    R  NN   N  II  NN   N  G    G  !!!           |
|           W    W  A    A  R    R  N N  N  II  N N  N  G       !!!           |
|           W WW W  AAAAAA  RRRRR   N  N N  II  N  N N  G  GGG   !            |
|           WW  WW  A    A  R   R   N   NN  II  N   NN  G    G                |
|           W    W  A    A  R    R  N    N  II  N    N   GGGG   !!!           |
|                                                                             |
|     The electronic self-consistency was not achieved in the given           |
|     number of steps (NELM). The forces and other quantities evaluated       |
|     might not be reliable so examine the results carefully. If you find     |
|     spurious results, we suggest increasing NELM, if you were close to      |
|     convergence or switching to a different ALGO or adjusting the           |
|     density mixing parameters otherwise.                                    |
|                                                                             |
 -----------------------------------------------------------------------------

   2 F= -.28996384E+02 E0= -.28887802E+02  d E =-.379632E+03
 trial-energy change: -379.632281  1 .order -419.929155 -657.543751 -182.314558
 step:   1.3836(harm=  1.3836)  dis= 0.59419  next Energy=  -104.264382 (dE=-0.455E+03)
 bond charge predicted
       N       E                     dE             d eps       ncg     rms          rms(c)
DAV:   1     0.174796587540E+03    0.95125E+02   -0.21191E+04  9687   0.181E+02    0.156E+02
DAV:   2    -0.133543451111E+03   -0.30834E+03   -0.19317E+03 10608   0.124E+02    0.205E+02
DAV:   3    -0.213592542804E+03   -0.80049E+02   -0.71636E+02 10224   0.144E+02    0.203E+02
DAV:   4    -0.623536856994E+03   -0.40994E+03   -0.42165E+02 10105   0.209E+02    0.312E+02
DAV:   5    -0.125514843324E+03    0.49802E+03   -0.21155E+02 10744   0.123E+02    0.155E+02
DAV:   6    -0.215266393931E+02    0.10399E+03   -0.11759E+02 10496   0.130E+02    0.131E+02
DAV:   7    -0.580822771043E+01    0.15718E+02   -0.12683E+02 11056   0.533E+01    0.108E+02
DAV:   8     0.176821927922E+02    0.23490E+02   -0.80591E+01 10080   0.527E+01    0.892E+01
DAV:   9     0.250421147738E+02    0.73599E+01   -0.37469E+01 11208   0.292E+01    0.806E+01
DAV:  10     0.119987103106E+02   -0.13043E+02   -0.34967E+01 10568   0.312E+01    0.862E+01
DAV:  11     0.177454030681E+02    0.57467E+01   -0.20696E+01 10688   0.183E+01    0.768E+01
DAV:  12     0.221473852084E+02    0.44020E+01   -0.75552E+00 10568   0.123E+01    0.730E+01
DAV:  13     0.219691990055E+02   -0.17819E+00   -0.72207E+00 10528   0.144E+01    0.724E+01
DAV:  14     0.165438113799E+02   -0.54254E+01   -0.13564E+01 11680   0.159E+01    0.740E+01
DAV:  15     0.253923376799E+02    0.88485E+01   -0.10347E+01 11360   0.170E+01    0.601E+01
DAV:  16     0.269688613778E+02    0.15765E+01   -0.83290E+00 11224   0.151E+01    0.513E+01
DAV:  17     0.257229195996E+02   -0.12459E+01   -0.12026E+01 11480   0.161E+01    0.464E+01
DAV:  18     0.282110807598E+02    0.24882E+01   -0.10214E+01 10896   0.134E+01    0.380E+01
DAV:  19     0.305813153898E+02    0.23702E+01   -0.54912E+00 11016   0.136E+01    0.307E+01
DAV:  20     0.310426123692E+02    0.46130E+00   -0.33260E+00 10680   0.934E+00    0.304E+01
DAV:  21     0.314123013541E+02    0.36969E+00   -0.24537E+00 10760   0.750E+00    0.298E+01
DAV:  22     0.316116060615E+02    0.19930E+00   -0.12765E+00 10680   0.494E+00    0.284E+01
DAV:  23     0.316208127961E+02    0.92067E-02   -0.14568E+00 10776   0.567E+00    0.258E+01
DAV:  24     0.323567580562E+02    0.73595E+00   -0.94458E-01 10992   0.449E+00    0.220E+01
DAV:  25     0.326053587319E+02    0.24860E+00   -0.97707E-01 11224   0.475E+00    0.208E+01
DAV:  26     0.326812403183E+02    0.75882E-01   -0.13047E+00 10832   0.560E+00    0.188E+01
DAV:  27     0.333423758387E+02    0.66114E+00   -0.87391E-01 10872   0.364E+00    0.142E+01
DAV:  28     0.334752660948E+02    0.13289E+00   -0.55390E-01 10512   0.279E+00    0.139E+01
DAV:  29     0.335618172060E+02    0.86551E-01   -0.19860E-01 10472   0.167E+00    0.127E+01
DAV:  30     0.336139441808E+02    0.52127E-01   -0.15646E-01 10464   0.155E+00    0.123E+01
DAV:  31     0.336828507665E+02    0.68907E-01   -0.17720E-01 11064   0.218E+00    0.109E+01
DAV:  32     0.338113707565E+02    0.12852E+00   -0.19691E-01 10792   0.233E+00    0.874E+00
DAV:  33     0.339266938572E+02    0.11532E+00   -0.10781E-01 10808   0.167E+00    0.707E+00
DAV:  34     0.339005388282E+02   -0.26155E-01   -0.41216E-01 15656   0.222E+00    0.783E+00
DAV:  35     0.340241327505E+02    0.12359E+00   -0.10592E-01 11400   0.108E+00    0.606E+00
DAV:  36     0.340379809267E+02    0.13848E-01   -0.70591E-02 11536   0.128E+00    0.653E+00
DAV:  37     0.341280897702E+02    0.90109E-01   -0.60650E-02 10728   0.127E+00    0.521E+00
DAV:  38     0.341687109345E+02    0.40621E-01   -0.42245E-02 10840   0.114E+00    0.492E+00
DAV:  39     0.342360360669E+02    0.67325E-01   -0.42257E-02 11056   0.931E-01    0.346E+00
DAV:  40     0.342416356816E+02    0.55996E-02   -0.23899E-02 10672   0.783E-01    0.363E+00
DAV:  41     0.342620525397E+02    0.20417E-01   -0.15374E-02 10600   0.499E-01    0.320E+00
DAV:  42     0.342872309932E+02    0.25178E-01   -0.14533E-02 10552   0.512E-01    0.254E+00
DAV:  43     0.343054218702E+02    0.18191E-01   -0.10381E-02 10640   0.535E-01    0.197E+00
DAV:  44     0.343193515339E+02    0.13930E-01   -0.91875E-03 10640   0.488E-01    0.155E+00
DAV:  45     0.343273960082E+02    0.80445E-02   -0.60033E-03 10568   0.407E-01    0.129E+00
DAV:  46     0.343332469761E+02    0.58510E-02   -0.43375E-03 10712   0.308E-01    0.112E+00
DAV:  47     0.343341608816E+02    0.91391E-03   -0.13184E-02 12592   0.698E-01    0.147E+00
DAV:  48     0.343399266191E+02    0.57657E-02   -0.77540E-03 11888   0.537E-01    0.973E-01
DAV:  49     0.343426338532E+02    0.27072E-02   -0.55556E-03 11480   0.421E-01    0.682E-01
DAV:  50     0.343430439462E+02    0.41009E-03   -0.35102E-03 11760   0.358E-01    0.651E-01
DAV:  51     0.343439195794E+02    0.87563E-03   -0.28776E-03 10872   0.319E-01    0.479E-01
DAV:  52     0.343437814596E+02   -0.13812E-03   -0.33404E-03 11056   0.316E-01    0.518E-01
DAV:  53     0.343442918961E+02    0.51044E-03   -0.19979E-03 10944   0.259E-01    0.322E-01
DAV:  54     0.343444706462E+02    0.17875E-03   -0.72436E-04 10720   0.157E-01    0.202E-01
DAV:  55     0.343440891388E+02   -0.38151E-03   -0.49159E-04 10456   0.123E-01    0.217E-01
DAV:  56     0.343439113642E+02   -0.17777E-03   -0.39852E-04 10240   0.106E-01    0.152E-01
DAV:  57     0.343436689950E+02   -0.24237E-03   -0.40183E-04 10320   0.116E-01    0.204E-01
DAV:  58     0.343431265098E+02   -0.54249E-03   -0.29818E-04  9960   0.977E-02    0.143E-01
DAV:  59     0.343427898558E+02   -0.33665E-03   -0.15500E-04  9336   0.647E-02    0.132E-01
DAV:  60     0.343423439860E+02   -0.44587E-03   -0.11227E-04  9464   0.537E-02    0.115E-01
DAV:  61     0.343419738617E+02   -0.37012E-03   -0.10047E-04  9328   0.486E-02    0.956E-02
DAV:  62     0.343418388423E+02   -0.13502E-03   -0.10225E-04  9184   0.541E-02    0.124E-01
DAV:  63     0.343415015875E+02   -0.33725E-03   -0.72890E-05  8912   0.426E-02    0.717E-02
DAV:  64     0.343412606246E+02   -0.24096E-03   -0.36859E-05  8992   0.321E-02    0.644E-02
DAV:  65     0.343410476432E+02   -0.21298E-03   -0.42988E-05  8736   0.321E-02    0.555E-02
DAV:  66     0.343407685780E+02   -0.27907E-03   -0.46444E-05  8888   0.296E-02    0.580E-02
DAV:  67     0.343407543539E+02   -0.14224E-04   -0.36470E-05  8568   0.343E-02    0.660E-02
DAV:  68     0.343406085926E+02   -0.14576E-03   -0.28340E-05  8280   0.290E-02    0.597E-02
DAV:  69     0.343403938082E+02   -0.21478E-03   -0.21888E-05  8248   0.229E-02    0.293E-02
DAV:  70     0.343403532207E+02   -0.40588E-04   -0.10470E-05  6760   0.138E-02    0.220E-02
DAV:  71     0.343402869869E+02   -0.66234E-04   -0.76626E-06  6176   0.123E-02    0.147E-02
DAV:  72     0.343402721668E+02   -0.14820E-04   -0.47434E-06  5664   0.117E-02    0.209E-02
DAV:  73     0.343402569522E+02   -0.15215E-04   -0.42352E-06  5384   0.105E-02    0.126E-02
DAV:  74     0.343402453074E+02   -0.11645E-04   -0.14646E-06  5536   0.444E-03    0.122E-02
DAV:  75     0.343402351062E+02   -0.10201E-04   -0.12621E-06  5368   0.404E-03    0.881E-03
DAV:  76     0.343402280519E+02   -0.70543E-05   -0.75624E-07  5384   0.308E-03    0.496E-03
DAV:  77     0.343402218698E+02   -0.61821E-05   -0.68718E-07  5408   0.395E-03    0.844E-03
DAV:  78     0.343402214590E+02   -0.41071E-06   -0.67528E-07  5480   0.387E-03
   3 F= -.74415938E+02 E0= -.74314052E+02  d E =-.425052E+03
 curvature:  -0.69 expect dE=-0.286E+03 dE for cont linesearch -0.122E+02
 ZBRENT: increasing intervall
 opt :   2.1509  next Energy=   -99.775191 (dE=-0.450E+03)
 bond charge predicted
       N       E                     dE             d eps       ncg     rms          rms(c)
DAV:   1     0.878798696578E+03    0.84446E+03   -0.85427E+04 11096   0.393E+02    0.573E+02
DAV:   2    -0.823268544956E+04   -0.91115E+04   -0.34761E+04 15058   0.761E+02    0.319E+03
DAV:   3    -0.133769649031E+05   -0.51443E+04   -0.28855E+04 15984   0.274E+02    0.254E+03
DAV:   4    -0.947009447764E+04    0.39069E+04   -0.29277E+05 16840   0.757E+02    0.498E+03
DAV:   5    -0.917808853761E+04    0.29201E+03   -0.54656E+04 12380   0.392E+02    0.206E+03
DAV:   6    -0.111773954977E+04    0.80603E+04   -0.12376E+04 12528   0.183E+02    0.757E+02
DAV:   7    -0.350443247553E+03    0.76730E+03   -0.96463E+03 13136   0.233E+02    0.118E+03
DAV:   8    -0.581352028792E+03   -0.23091E+03   -0.91783E+03 14168   0.233E+02    0.386E+02
DAV:   9    -0.576594884525E+03    0.47571E+01   -0.21152E+03 10600   0.235E+02    0.385E+02
DAV:  10    -0.172133871065E+03    0.40446E+03   -0.95870E+02 10112   0.236E+02    0.297E+02
DAV:  11    -0.762952172752E+02    0.95839E+02   -0.65463E+02 10832   0.958E+01    0.142E+02
DAV:  12    -0.822208551439E+02   -0.59256E+01   -0.27155E+02 10440   0.838E+01    0.102E+02
DAV:  13    -0.944270645659E+02   -0.12206E+02   -0.13489E+02 10168   0.554E+01    0.117E+02
DAV:  14    -0.649899113635E+02    0.29437E+02   -0.77633E+01 10272   0.353E+01    0.101E+02
DAV:  15    -0.580268103029E+02    0.69631E+01   -0.45563E+01 13824   0.142E+01    0.894E+01
DAV:  16    -0.564165948317E+02    0.16102E+01   -0.11017E+01 10760   0.174E+01    0.844E+01
DAV:  17    -0.459646072392E+02    0.10452E+02   -0.89353E+00 11000   0.135E+01    0.768E+01
DAV:  18    -0.404795678798E+02    0.54850E+01   -0.69031E+00 11728   0.142E+01    0.754E+01
DAV:  19    -0.394707378177E+02    0.10088E+01   -0.12853E+01 13360   0.203E+01    0.709E+01
DAV:  20    -0.390081649437E+02    0.46257E+00   -0.17106E+01 12264   0.217E+01    0.671E+01
DAV:  21    -0.356289271642E+02    0.33792E+01   -0.12827E+01 11592   0.169E+01    0.650E+01
DAV:  22    -0.314863471785E+02    0.41426E+01   -0.10052E+01 11392   0.131E+01    0.562E+01
DAV:  23    -0.303098894139E+02    0.11765E+01   -0.86326E+00 10776   0.145E+01    0.558E+01
DAV:  24    -0.288628826812E+02    0.14470E+01   -0.94386E+00 10664   0.118E+01    0.507E+01
DAV:  25    -0.288613999914E+02    0.14827E-02   -0.68912E+00 10672   0.111E+01    0.518E+01
DAV:  26    -0.262351702661E+02    0.26262E+01   -0.65815E+00 10888   0.896E+00    0.439E+01
DAV:  27    -0.257935165633E+02    0.44165E+00   -0.49787E+00 10912   0.804E+00    0.409E+01
DAV:  28    -0.259556818022E+02   -0.16217E+00   -0.25045E+00 11480   0.655E+00    0.424E+01
DAV:  29    -0.258588442430E+02    0.96838E-01   -0.22032E+00 11064   0.472E+00    0.417E+01
DAV:  30    -0.261861037575E+02   -0.32726E+00   -0.18231E+00 10720   0.526E+00    0.414E+01
DAV:  31    -0.261048515695E+02    0.81252E-01   -0.19702E+00 10944   0.521E+00    0.398E+01
DAV:  32    -0.261506126556E+02   -0.45761E-01   -0.26733E+00 10896   0.567E+00    0.375E+01
DAV:  33    -0.271688562590E+02   -0.10182E+01   -0.22491E+00 10648   0.676E+00    0.394E+01
DAV:  34    -0.265805630917E+02    0.58829E+00   -0.28686E+00 11144   0.577E+00    0.350E+01
DAV:  35    -0.266346076760E+02   -0.54045E-01   -0.24856E+00 10488   0.534E+00    0.335E+01
DAV:  36    -0.268931428050E+02   -0.25854E+00   -0.17746E+00 10752   0.599E+00    0.324E+01
DAV:  37    -0.266412187195E+02    0.25192E+00   -0.18531E+00 10656   0.484E+00    0.290E+01
DAV:  38    -0.264121832754E+02    0.22904E+00   -0.77397E-01 10776   0.391E+00    0.276E+01
DAV:  39    -0.262782734740E+02    0.13391E+00   -0.37846E-01 10568   0.240E+00    0.270E+01
DAV:  40    -0.263017261550E+02   -0.23453E-01   -0.28516E-01 10448   0.209E+00    0.271E+01
DAV:  41    -0.261421313467E+02    0.15959E+00   -0.20141E-01 10248   0.140E+00    0.262E+01
DAV:  42    -0.260481886426E+02    0.93943E-01   -0.14210E-01 11088   0.131E+00    0.256E+01
DAV:  43    -0.259370352556E+02    0.11115E+00   -0.13473E-01 11128   0.150E+00    0.254E+01
DAV:  44    -0.257150351638E+02    0.22200E+00   -0.15649E-01 11448   0.151E+00    0.246E+01
DAV:  45    -0.255210573706E+02    0.19398E+00   -0.22634E-01 10456   0.202E+00    0.235E+01
DAV:  46    -0.254173270585E+02    0.10373E+00   -0.30743E-01 10496   0.224E+00    0.232E+01
DAV:  47    -0.321709864554E+02   -0.67537E+01   -0.14155E+01 14080   0.138E+01    0.553E+01
DAV:  48    -0.261347561227E+02    0.60362E+01   -0.10508E+01 11112   0.122E+01    0.275E+01
DAV:  49    -0.249400506644E+02    0.11947E+01   -0.39850E+00 11552   0.736E+00    0.229E+01
DAV:  50    -0.247846934088E+02    0.15536E+00   -0.21539E+00 12320   0.747E+00    0.234E+01
DAV:  51    -0.250839192420E+02   -0.29923E+00   -0.22737E+00 12008   0.643E+00    0.247E+01
DAV:  52    -0.289000067636E+02   -0.38161E+01   -0.73156E+00 14416   0.116E+01    0.331E+01
DAV:  53    -0.296846721699E+02   -0.78467E+00   -0.35500E+00 13072   0.107E+01    0.323E+01
DAV:  54    -0.287970953863E+02    0.88758E+00   -0.32834E+00 11184   0.966E+00    0.279E+01
DAV:  55    -0.282298511025E+02    0.56724E+00   -0.23007E+00 10792   0.751E+00    0.250E+01
DAV:  56    -0.275459846957E+02    0.68387E+00   -0.94556E-01 10992   0.614E+00    0.227E+01
DAV:  57    -0.270754161035E+02    0.47057E+00   -0.21573E+00 12976   0.859E+00    0.237E+01
DAV:  58    -0.261787919579E+02    0.89662E+00   -0.20010E+00 11168   0.776E+00    0.201E+01
DAV:  59    -0.256210240456E+02    0.55777E+00   -0.18885E+00 10816   0.497E+00    0.181E+01
DAV:  60    -0.251753470595E+02    0.44568E+00   -0.70135E-01 10600   0.396E+00    0.183E+01
DAV:  61    -0.246259729108E+02    0.54937E+00   -0.35244E-01 10608   0.291E+00    0.158E+01
DAV:  62    -0.241507665617E+02    0.47521E+00   -0.91504E-01 15184   0.500E+00    0.158E+01
DAV:  63    -0.238373460025E+02    0.31342E+00   -0.11208E+00 13096   0.472E+00    0.135E+01
DAV:  64    -0.235738559379E+02    0.26349E+00   -0.28852E-01 12816   0.213E+00    0.121E+01
DAV:  65    -0.233955183942E+02    0.17834E+00   -0.19550E-01 12104   0.222E+00    0.107E+01
DAV:  66    -0.231501180334E+02    0.24540E+00   -0.28844E-01 13048   0.244E+00    0.949E+00
DAV:  67    -0.231753735878E+02   -0.25256E-01   -0.48920E-01 12336   0.321E+00    0.104E+01
DAV:  68    -0.229543576059E+02    0.22102E+00   -0.52220E-01 11408   0.292E+00    0.756E+00
DAV:  69    -0.228372352035E+02    0.11712E+00   -0.26555E-01 11480   0.206E+00    0.542E+00
DAV:  70    -0.228131421311E+02    0.24093E-01   -0.26711E-01 10888   0.151E+00    0.528E+00
DAV:  71    -0.228391972152E+02   -0.26055E-01   -0.68344E-02 10528   0.119E+00    0.582E+00
DAV:  72    -0.228598481668E+02   -0.20651E-01   -0.11712E-01 10912   0.156E+00    0.576E+00
DAV:  73    -0.227916301936E+02    0.68218E-01   -0.12921E-01 10544   0.148E+00    0.390E+00
DAV:  74    -0.227738831704E+02    0.17747E-01   -0.87943E-02 10792   0.112E+00    0.299E+00
DAV:  75    -0.227611239739E+02    0.12759E-01   -0.63599E-02 11704   0.900E-01    0.282E+00
DAV:  76    -0.227612566361E+02   -0.13266E-03   -0.25050E-02 10992   0.703E-01    0.294E+00
DAV:  77    -0.227772465227E+02   -0.15990E-01   -0.44504E-02 11136   0.953E-01    0.320E+00
DAV:  78    -0.227482517138E+02    0.28995E-01   -0.54239E-02 10688   0.836E-01    0.209E+00
DAV:  79    -0.227449240163E+02    0.33277E-02   -0.11222E-02 11024   0.405E-01    0.162E+00
DAV:  80    -0.227417460796E+02    0.31779E-02   -0.71965E-03 10800   0.308E-01    0.144E+00
DAV:  81    -0.227392937103E+02    0.24524E-02   -0.54232E-03 10608   0.272E-01    0.115E+00
DAV:  82    -0.227433041316E+02   -0.40104E-02   -0.79630E-03 11392   0.461E-01    0.144E+00
DAV:  83    -0.227375248675E+02    0.57793E-02   -0.72847E-03 11000   0.431E-01    0.971E-01
DAV:  84    -0.227370135244E+02    0.51134E-03   -0.16508E-03 10992   0.198E-01    0.850E-01
DAV:  85    -0.227357212706E+02    0.12923E-02   -0.15228E-03 11256   0.183E-01    0.607E-01
DAV:  86    -0.227349297157E+02    0.79155E-03   -0.17470E-03 11144   0.153E-01    0.298E-01
DAV:  87    -0.227352411626E+02   -0.31145E-03   -0.94270E-04 11088   0.151E-01    0.403E-01
DAV:  88    -0.227347767246E+02    0.46444E-03   -0.77769E-04 10560   0.132E-01    0.205E-01
DAV:  89    -0.227348203030E+02   -0.43578E-04   -0.39975E-04  9928   0.785E-02    0.200E-01
DAV:  90    -0.227348289294E+02   -0.86264E-05   -0.42385E-04 10000   0.735E-02    0.198E-01
DAV:  91    -0.227348212707E+02    0.76587E-05   -0.24609E-04  9176   0.624E-02    0.116E-01
DAV:  92    -0.227348743766E+02   -0.53106E-04   -0.14324E-04  9568   0.616E-02    0.125E-01
DAV:  93    -0.227348731053E+02    0.12713E-05   -0.13160E-04  8688   0.513E-02    0.937E-02
DAV:  94    -0.227349278331E+02   -0.54728E-04   -0.62580E-05  8448   0.328E-02    0.894E-02
DAV:  95    -0.227349798698E+02   -0.52037E-04   -0.54807E-05  8488   0.308E-02    0.799E-02
DAV:  96    -0.227350227204E+02   -0.42851E-04   -0.34543E-05  7920   0.245E-02    0.543E-02
DAV:  97    -0.227350564068E+02   -0.33686E-04   -0.42368E-05  7984   0.309E-02    0.693E-02
DAV:  98    -0.227350956155E+02   -0.39209E-04   -0.37424E-05  7760   0.284E-02    0.392E-02
DAV:  99    -0.227351574157E+02   -0.61800E-04   -0.18364E-05  7128   0.175E-02    0.410E-02
DAV: 100    -0.227352444925E+02   -0.87077E-04   -0.20350E-05  7496   0.172E-02    0.323E-02
DAV: 101    -0.227353286715E+02   -0.84179E-04   -0.16992E-05  7400   0.166E-02    0.332E-02
DAV: 102    -0.227354078661E+02   -0.79195E-04   -0.15544E-05  7016   0.197E-02    0.407E-02
DAV: 103    -0.227354737772E+02   -0.65911E-04   -0.15673E-05  7272   0.162E-02    0.279E-02
DAV: 104    -0.227355312733E+02   -0.57496E-04   -0.79883E-06  6464   0.114E-02    0.298E-02
DAV: 105    -0.227355984473E+02   -0.67174E-04   -0.71082E-06  6120   0.103E-02    0.303E-02
DAV: 106    -0.227356494535E+02   -0.51006E-04   -0.45119E-06  5832   0.832E-03    0.194E-02
DAV: 107    -0.227356708953E+02   -0.21442E-04   -0.30325E-06  5560   0.633E-03    0.136E-02
DAV: 108    -0.227356976201E+02   -0.26725E-04   -0.21899E-06  5528   0.585E-03    0.105E-02
DAV: 109    -0.227357113617E+02   -0.13742E-04   -0.15420E-06  5504   0.475E-03    0.788E-03
DAV: 110    -0.227357182456E+02   -0.68839E-05   -0.92695E-07  5512   0.372E-03    0.628E-03
DAV: 111    -0.227357243989E+02   -0.61532E-05   -0.66513E-07  5496   0.304E-03    0.569E-03
DAV: 112    -0.227357279188E+02   -0.35199E-05   -0.52717E-07  5416   0.274E-03
   4 F= -.12813126E+03 E0= -.12795916E+03  d E =-.478767E+03
 curvature:  -1.44 expect dE=-0.703E+03 dE for cont linesearch -0.468E+01
 trial: gam= 0.67267 g(F)=  0.489E+03 g(S)=  0.000E+00 ort = 0.463E+02 (trialstep = 0.953E+00)
 search vector abs. value=  0.848E+03
 bond charge predicted
       N       E                     dE             d eps       ncg     rms          rms(c)
DAV:   1     0.135312931592E+04    0.13759E+04   -0.12592E+05 10208   0.596E+02    0.758E+02
DAV:   2    -0.151657582922E+05   -0.16519E+05   -0.10083E+05 15904   0.965E+02    0.480E+03
DAV:   3    -0.238255686572E+05   -0.86598E+04   -0.52150E+04 16088   0.403E+02    0.390E+03
DAV:   4    -0.214255252428E+05    0.24000E+04   -0.76923E+05 16560   0.924E+02    0.695E+03
DAV:   5    -0.872575879111E+04    0.12700E+05   -0.82488E+04 12116   0.484E+02    0.195E+03
DAV:   6    -0.159101273120E+04    0.71347E+04   -0.21402E+04 12416   0.237E+02    0.729E+02
DAV:   7    -0.162196907843E+04   -0.30956E+02   -0.89223E+03 13296   0.224E+02    0.470E+02
DAV:   8    -0.153152626660E+04    0.90443E+02   -0.30436E+03 13520   0.163E+02    0.885E+02
DAV:   9    -0.123832653366E+04    0.29320E+03   -0.30646E+03 13336   0.127E+02    0.367E+02
DAV:  10    -0.150536763137E+04   -0.26704E+03   -0.89649E+02 11344   0.213E+02    0.397E+02
DAV:  11    -0.705309905356E+03    0.80006E+03   -0.43287E+02 10760   0.110E+02    0.266E+02
DAV:  12    -0.722802016784E+03   -0.17492E+02   -0.34339E+02 10552   0.735E+01    0.269E+02
DAV:  13    -0.601136243374E+03    0.12167E+03   -0.16784E+02 10752   0.605E+01    0.236E+02
DAV:  14    -0.603495885127E+03   -0.23596E+01   -0.12230E+02 10496   0.790E+01    0.217E+02
DAV:  15    -0.500184709228E+03    0.10331E+03   -0.12588E+02 10168   0.534E+01    0.185E+02
DAV:  16    -0.444167763356E+03    0.56017E+02   -0.69849E+01 10824   0.410E+01    0.172E+02
DAV:  17    -0.408862567703E+03    0.35305E+02   -0.10101E+02 12600   0.507E+01    0.163E+02
DAV:  18    -0.389653841917E+03    0.19209E+02   -0.58238E+01 11440   0.474E+01    0.160E+02
DAV:  19    -0.381280307217E+03    0.83735E+01   -0.69122E+01 10792   0.431E+01    0.154E+02
DAV:  20    -0.360922446135E+03    0.20358E+02   -0.46437E+01 10672   0.283E+01    0.139E+02
DAV:  21    -0.371065579193E+03   -0.10143E+02   -0.40792E+01 10848   0.309E+01    0.145E+02
DAV:  22    -0.372785455768E+03   -0.17199E+01   -0.22396E+01 10360   0.228E+01    0.145E+02
DAV:  23    -0.369684939872E+03    0.31005E+01   -0.23053E+01 11384   0.246E+01    0.143E+02
DAV:  24    -0.389172416026E+03   -0.19487E+02   -0.21712E+01 10600   0.289E+01    0.150E+02
DAV:  25    -0.384675107749E+03    0.44973E+01   -0.22960E+01 10984   0.318E+01    0.144E+02
DAV:  26    -0.388908235853E+03   -0.42331E+01   -0.21131E+01 11528   0.240E+01    0.144E+02
DAV:  27    -0.388287796782E+03    0.62044E+00   -0.27504E+01 11680   0.301E+01    0.143E+02
DAV:  28    -0.368190343729E+03    0.20097E+02   -0.23087E+01 11464   0.258E+01    0.130E+02
DAV:  29    -0.355771498307E+03    0.12419E+02   -0.27350E+01 11128   0.259E+01    0.123E+02
DAV:  30    -0.348068813642E+03    0.77027E+01   -0.22514E+01 11096   0.261E+01    0.121E+02
DAV:  31    -0.338038142790E+03    0.10031E+02   -0.17452E+01 10960   0.189E+01    0.112E+02
DAV:  32    -0.332840942121E+03    0.51972E+01   -0.96047E+00 10728   0.119E+01    0.107E+02
DAV:  33    -0.331357420012E+03    0.14835E+01   -0.48350E+00 11752   0.809E+00    0.106E+02
DAV:  34    -0.331112750621E+03    0.24467E+00   -0.29033E+00 11000   0.552E+00    0.106E+02
DAV:  35    -0.330929244590E+03    0.18351E+00   -0.14148E+00 10600   0.355E+00    0.106E+02
DAV:  36    -0.330949932719E+03   -0.20688E-01   -0.63265E-01 13744   0.101E+00    0.106E+02
DAV:  37    -0.331298376019E+03   -0.34844E+00   -0.34629E-02 13608   0.644E-01    0.106E+02
DAV:  38    -0.331432062999E+03   -0.13369E+00   -0.72486E-02 14736   0.909E-01    0.106E+02
DAV:  39    -0.333494054828E+03   -0.20620E+01   -0.22976E+00 14232   0.614E+00    0.109E+02
DAV:  40    -0.332352045581E+03    0.11420E+01   -0.57553E+00 13448   0.890E+00    0.109E+02
DAV:  41    -0.330015826859E+03    0.23362E+01   -0.36117E+00 11624   0.746E+00    0.107E+02
DAV:  42    -0.328627832714E+03    0.13880E+01   -0.17963E+00 11344   0.469E+00    0.105E+02
DAV:  43    -0.329467414764E+03   -0.83958E+00   -0.42137E+00 12520   0.792E+00    0.109E+02
DAV:  44    -0.326485891616E+03    0.29815E+01   -0.49555E+00 11416   0.895E+00    0.105E+02
DAV:  45    -0.327326006327E+03   -0.84011E+00   -0.36764E+00 10784   0.880E+00    0.103E+02
DAV:  46    -0.327517736568E+03   -0.19173E+00   -0.31309E+00 10680   0.664E+00    0.102E+02
DAV:  47    -0.561106419934E+03   -0.23359E+03   -0.14904E+02 13968   0.101E+02    0.195E+02
DAV:  48    -0.473404229412E+03    0.87702E+02   -0.58302E+01 11896   0.463E+01    0.148E+02
DAV:  49    -0.531148862726E+03   -0.57745E+02   -0.70934E+01 11544   0.684E+01    0.184E+02
DAV:  50    -0.455521738255E+03    0.75627E+02   -0.48386E+01 11016   0.556E+01    0.147E+02
DAV:  51    -0.428771829136E+03    0.26750E+02   -0.44843E+01 10544   0.508E+01    0.134E+02
DAV:  52    -0.476321411411E+03   -0.47550E+02   -0.95411E+01 12184   0.725E+01    0.145E+02
DAV:  53    -0.441292426775E+03    0.35029E+02   -0.47106E+01 10256   0.375E+01    0.121E+02
DAV:  54    -0.472462500466E+03   -0.31170E+02   -0.42540E+01 11048   0.434E+01    0.139E+02
DAV:  55    -0.481120598630E+03   -0.86581E+01   -0.35643E+01 10272   0.452E+01    0.140E+02
DAV:  56    -0.449031153345E+03    0.32089E+02   -0.26937E+01 10152   0.351E+01    0.119E+02
DAV:  57    -0.447482667222E+03    0.15485E+01   -0.30638E+01 10552   0.381E+01    0.116E+02
DAV:  58    -0.432161323863E+03    0.15321E+02   -0.26239E+01 10568   0.356E+01    0.105E+02
DAV:  59    -0.423316845355E+03    0.88445E+01   -0.18540E+01 10752   0.271E+01    0.990E+01
DAV:  60    -0.418697171090E+03    0.46197E+01   -0.24478E+01 10496   0.263E+01    0.911E+01
DAV:  61    -0.407713199032E+03    0.10984E+02   -0.15733E+01 10488   0.204E+01    0.810E+01
DAV:  62    -0.426111798485E+03   -0.18399E+02   -0.53384E+01 12760   0.445E+01    0.107E+02
DAV:  63    -0.398660393072E+03    0.27451E+02   -0.31204E+01 11072   0.351E+01    0.763E+01
DAV:  64    -0.386809452219E+03    0.11851E+02   -0.10939E+01 10360   0.190E+01    0.700E+01
DAV:  65    -0.383906146849E+03    0.29033E+01   -0.67191E+00 10472   0.148E+01    0.660E+01
DAV:  66    -0.381930363150E+03    0.19758E+01   -0.47305E+00 10233   0.113E+01    0.648E+01
DAV:  67    -0.389411057306E+03   -0.74807E+01   -0.26493E+01 12960   0.357E+01    0.881E+01
DAV:  68    -0.377665883698E+03    0.11745E+02   -0.17916E+01 11136   0.236E+01    0.672E+01
DAV:  69    -0.374198357559E+03    0.34675E+01   -0.34603E+00 10472   0.754E+00    0.633E+01
DAV:  70    -0.369641339279E+03    0.45570E+01   -0.23129E+00 11176   0.728E+00    0.625E+01
DAV:  71    -0.363719975789E+03    0.59214E+01   -0.21964E+00 10888   0.872E+00    0.604E+01
DAV:  72    -0.365439857487E+03   -0.17199E+01   -0.30493E+01 13192   0.389E+01    0.900E+01
DAV:  73    -0.350691006048E+03    0.14749E+02   -0.17965E+01 11920   0.222E+01    0.591E+01
DAV:  74    -0.346506109130E+03    0.41849E+01   -0.52919E+00 10778   0.957E+00    0.544E+01
DAV:  75    -0.344525082398E+03    0.19810E+01   -0.26422E+00 11288   0.646E+00    0.572E+01
DAV:  76    -0.345353935347E+03   -0.82885E+00   -0.48697E+00 11416   0.112E+01    0.595E+01
DAV:  77    -0.360541967366E+03   -0.15188E+02   -0.46077E+01 12088   0.525E+01    0.868E+01
DAV:  78    -0.351273531417E+03    0.92684E+01   -0.35710E+01 10968   0.431E+01    0.634E+01
DAV:  79    -0.347689845155E+03    0.35837E+01   -0.16044E+01 10640   0.120E+01    0.578E+01
DAV:  80    -0.344882937957E+03    0.28069E+01   -0.43424E+00 10448   0.738E+00    0.540E+01
DAV:  81    -0.343453628917E+03    0.14293E+01   -0.16008E+00 11856   0.557E+00    0.530E+01
DAV:  82    -0.403584769118E+03   -0.60131E+02   -0.55355E+01 13296   0.522E+01    0.121E+02
DAV:  83    -0.344198853900E+03    0.59386E+02   -0.24151E+01 11408   0.263E+01    0.598E+01
DAV:  84    -0.338219493956E+03    0.59794E+01   -0.99370E+00 11192   0.149E+01    0.561E+01
DAV:  85    -0.339389608426E+03   -0.11701E+01   -0.93921E+00 11016   0.141E+01    0.552E+01
DAV:  86    -0.336607345269E+03    0.27823E+01   -0.41057E+00 10712   0.957E+00    0.520E+01
DAV:  87    -0.382110660379E+03   -0.45503E+02   -0.35371E+01 12336   0.411E+01    0.114E+02
DAV:  88    -0.339594568057E+03    0.42516E+02   -0.20793E+01 10944   0.277E+01    0.634E+01
DAV:  89    -0.338211726757E+03    0.13828E+01   -0.10495E+01 10568   0.161E+01    0.579E+01
DAV:  90    -0.336737505187E+03    0.14742E+01   -0.10094E+01 10688   0.111E+01    0.505E+01
DAV:  91    -0.336118130011E+03    0.61938E+00   -0.41377E+00 10529   0.975E+00    0.507E+01
DAV:  92    -0.349427803630E+03   -0.13310E+02   -0.11715E+01 12744   0.256E+01    0.671E+01
DAV:  93    -0.336046829444E+03    0.13381E+02   -0.51749E+00 11312   0.180E+01    0.478E+01
DAV:  94    -0.336415491204E+03   -0.36866E+00   -0.19643E+00 11360   0.910E+00    0.471E+01
DAV:  95    -0.333843891577E+03    0.25716E+01   -0.29755E+00 11224   0.842E+00    0.437E+01
DAV:  96    -0.332054500853E+03    0.17894E+01   -0.28134E+00 10521   0.832E+00    0.404E+01
DAV:  97    -0.336526243753E+03   -0.44717E+01   -0.68226E+00 12144   0.173E+01    0.570E+01
DAV:  98    -0.329941925020E+03    0.65843E+01   -0.64351E+00 11024   0.120E+01    0.405E+01
DAV:  99    -0.327455006857E+03    0.24869E+01   -0.38919E+00 10953   0.945E+00    0.363E+01
DAV: 100    -0.326997690519E+03    0.45732E+00   -0.43076E+00 10816   0.808E+00    0.354E+01
DAV: 101    -0.324651028611E+03    0.23467E+01   -0.10741E+00 10928   0.627E+00    0.323E+01
DAV: 102    -0.335903846680E+03   -0.11253E+02   -0.12926E+01 14216   0.236E+01    0.679E+01
DAV: 103    -0.323756461832E+03    0.12147E+02   -0.11799E+01 12192   0.215E+01    0.292E+01
DAV: 104    -0.322101930486E+03    0.16545E+01   -0.26970E+00 11265   0.899E+00    0.286E+01
DAV: 105    -0.321162811864E+03    0.93912E+00   -0.26548E+00 11072   0.655E+00    0.223E+01
DAV: 106    -0.320481152576E+03    0.68166E+00   -0.18442E+00 10856   0.666E+00    0.183E+01
DAV: 107    -0.321570812955E+03   -0.10897E+01   -0.28217E+00 11032   0.986E+00    0.230E+01
DAV: 108    -0.319979651455E+03    0.15912E+01   -0.19750E+00 10872   0.845E+00    0.149E+01
DAV: 109    -0.319565649455E+03    0.41400E+00   -0.94292E-01 10664   0.389E+00    0.112E+01
DAV: 110    -0.319492597961E+03    0.73051E-01   -0.75799E-01 10792   0.351E+00    0.102E+01
DAV: 111    -0.319452373984E+03    0.40224E-01   -0.45717E-01 10640   0.307E+00    0.970E+00
DAV: 112    -0.319476799580E+03   -0.24426E-01   -0.54205E-01 10752   0.410E+00    0.947E+00
DAV: 113    -0.319318445171E+03    0.15835E+00   -0.45674E-01 10384   0.362E+00    0.727E+00
DAV: 114    -0.319373169233E+03   -0.54724E-01   -0.55709E-01 10672   0.306E+00    0.804E+00
DAV: 115    -0.319256961545E+03    0.11621E+00   -0.31326E-01 10368   0.247E+00    0.644E+00
DAV: 116    -0.319239815104E+03    0.17146E-01   -0.30991E-01 10544   0.239E+00    0.590E+00
DAV: 117    -0.319352854682E+03   -0.11304E+00   -0.24861E-01 10632   0.267E+00    0.777E+00
DAV: 118    -0.319218444882E+03    0.13441E+00   -0.39698E-01 10520   0.238E+00    0.553E+00
DAV: 119    -0.319181382671E+03    0.37062E-01   -0.85394E-02 10488   0.147E+00    0.449E+00
DAV: 120    -0.319150349841E+03    0.31033E-01   -0.31135E-02 10352   0.845E-01
 -----------------------------------------------------------------------------
|                                                                             |
|           W    W    AA    RRRRR   N    N  II  N    N   GGGG   !!!           |
|           W    W   A  A   R    R  NN   N  II  NN   N  G    G  !!!           |
|           W    W  A    A  R    R  N N  N  II  N N  N  G       !!!           |
|           W WW W  AAAAAA  RRRRR   N  N N  II  N  N N  G  GGG   !            |
|           WW  WW  A    A  R   R   N   NN  II  N   NN  G    G                |
|           W    W  A    A  R    R  N    N  II  N    N   GGGG   !!!           |
|                                                                             |
|     The electronic self-consistency was not achieved in the given           |
|     number of steps (NELM). The forces and other quantities evaluated       |
|     might not be reliable so examine the results carefully. If you find     |
|     spurious results, we suggest increasing NELM, if you were close to      |
|     convergence or switching to a different ALGO or adjusting the           |
|     density mixing parameters otherwise.                                    |
|                                                                             |
 -----------------------------------------------------------------------------

   5 F= -.41959545E+03 E0= -.41943602E+03  d E =-.291464E+03
 trial-energy change: -291.464187  1 .order -310.491619 -495.530521 -125.452717
 step:   1.6440(harm=  1.2767)  dis= 0.73007  next Energy=  -457.793389 (dE=-0.330E+03)
 bond charge predicted
       N       E                     dE             d eps       ncg     rms          rms(c)
DAV:   1     0.321491009176E+03    0.64067E+03   -0.67381E+04  9696   0.413E+02    0.385E+02
DAV:   2    -0.774857498235E+04   -0.80701E+04   -0.27382E+04 13088   0.676E+02    0.235E+03
DAV:   3    -0.120673456393E+05   -0.43188E+04   -0.24769E+04 16304   0.230E+02    0.223E+03
DAV:   4    -0.242501762543E+04    0.96423E+04   -0.15596E+05 16496   0.472E+02    0.255E+03
DAV:   5    -0.286490771121E+04   -0.43989E+03   -0.32549E+04 11753   0.314E+02    0.745E+02
DAV:   6    -0.385805865294E+03    0.24791E+04   -0.79203E+03 14618   0.242E+02    0.497E+02
DAV:   7    -0.686680937941E+03   -0.30088E+03   -0.41752E+03 12488   0.130E+02    0.312E+02
DAV:   8    -0.868396700696E+03   -0.18172E+03   -0.81497E+02 10640   0.182E+02    0.323E+02
DAV:   9    -0.597531815840E+03    0.27086E+03   -0.54214E+02 12104   0.132E+02    0.220E+02
DAV:  10    -0.626938975013E+03   -0.29407E+02   -0.52722E+02 10168   0.142E+02    0.229E+02
DAV:  11    -0.458512087882E+03    0.16843E+03   -0.25961E+02 12752   0.612E+01    0.162E+02
DAV:  12    -0.437536368420E+03    0.20976E+02   -0.12071E+02 11304   0.846E+01    0.165E+02
DAV:  13    -0.447437972635E+03   -0.99016E+01   -0.13194E+02 10432   0.840E+01    0.167E+02
DAV:  14    -0.404470001342E+03    0.42968E+02   -0.98881E+01 10472   0.628E+01    0.119E+02
DAV:  15    -0.392306177395E+03    0.12164E+02   -0.90058E+01 10272   0.535E+01    0.111E+02
DAV:  16    -0.397714178425E+03   -0.54080E+01   -0.58016E+01 10656   0.394E+01    0.120E+02
DAV:  17    -0.388484495352E+03    0.92297E+01   -0.54443E+01 11120   0.381E+01    0.106E+02
DAV:  18    -0.365569996708E+03    0.22914E+02   -0.37999E+01 10920   0.310E+01    0.722E+01
DAV:  19    -0.366526600239E+03   -0.95660E+00   -0.41998E+01 10704   0.301E+01    0.762E+01
DAV:  20    -0.374064234194E+03   -0.75376E+01   -0.41130E+01 10560   0.306E+01    0.745E+01
DAV:  21    -0.372616089960E+03    0.14481E+01   -0.40310E+01 10424   0.312E+01    0.732E+01
DAV:  22    -0.375740510231E+03   -0.31244E+01   -0.27829E+01 10408   0.243E+01    0.702E+01
DAV:  23    -0.375260248683E+03    0.48026E+00   -0.21108E+01 10744   0.214E+01    0.736E+01
DAV:  24    -0.375534301726E+03   -0.27405E+00   -0.16566E+01 11504   0.166E+01    0.708E+01
DAV:  25    -0.376393430676E+03   -0.85913E+00   -0.14005E+01 10640   0.152E+01    0.627E+01
DAV:  26    -0.378776764381E+03   -0.23833E+01   -0.10075E+01 11240   0.134E+01    0.612E+01
DAV:  27    -0.376585836326E+03    0.21909E+01   -0.68512E+00 11160   0.103E+01    0.513E+01
DAV:  28    -0.372988408922E+03    0.35974E+01   -0.31583E+00 10760   0.715E+00    0.514E+01
DAV:  29    -0.371407053664E+03    0.15814E+01   -0.34908E+00 11112   0.674E+00    0.582E+01
DAV:  30    -0.370723957751E+03    0.68310E+00   -0.51467E+00 11120   0.856E+00    0.577E+01
DAV:  31    -0.368021741375E+03    0.27022E+01   -0.34221E+00 11192   0.771E+00    0.534E+01
DAV:  32    -0.365924660515E+03    0.20971E+01   -0.28655E+00 11072   0.637E+00    0.479E+01
DAV:  33    -0.363242787010E+03    0.26819E+01   -0.19262E+00 12424   0.639E+00    0.511E+01
DAV:  34    -0.361921267302E+03    0.13215E+01   -0.27484E+00 11912   0.589E+00    0.469E+01
DAV:  35    -0.360935623992E+03    0.98564E+00   -0.16404E+00 11456   0.467E+00    0.470E+01
DAV:  36    -0.360721178890E+03    0.21445E+00   -0.82310E-01 10856   0.356E+00    0.472E+01
DAV:  37    -0.360699348114E+03    0.21831E-01   -0.70977E-01 10640   0.232E+00    0.462E+01
DAV:  38    -0.359357694313E+03    0.13417E+01   -0.16390E+00 13648   0.252E+00    0.479E+01
DAV:  39    -0.358613719827E+03    0.74397E+00   -0.41603E-01 11928   0.256E+00    0.489E+01
DAV:  40    -0.358270424981E+03    0.34329E+00   -0.57235E-01 11952   0.310E+00    0.485E+01
DAV:  41    -0.357820888028E+03    0.44954E+00   -0.45574E-01 12040   0.287E+00    0.507E+01
DAV:  42    -0.357424304199E+03    0.39658E+00   -0.37651E-01 11232   0.232E+00    0.521E+01
DAV:  43    -0.357175750717E+03    0.24855E+00   -0.24329E-01 10528   0.188E+00    0.532E+01
DAV:  44    -0.356959893616E+03    0.21586E+00   -0.24081E-01 10768   0.183E+00    0.536E+01
DAV:  45    -0.356784050124E+03    0.17584E+00   -0.20378E-01 10672   0.171E+00    0.548E+01
DAV:  46    -0.356769172955E+03    0.14877E-01   -0.96222E-02 10504   0.122E+00    0.559E+01
DAV:  47    -0.451425156566E+03   -0.94656E+02   -0.45078E+01 16736   0.495E+01    0.166E+02
DAV:  48    -0.380761303176E+03    0.70664E+02   -0.30264E+01 12088   0.324E+01    0.105E+02
DAV:  49    -0.378179416437E+03    0.25819E+01   -0.15618E+01 11944   0.212E+01    0.101E+02
DAV:  50    -0.368468154740E+03    0.97113E+01   -0.15281E+01 11032   0.212E+01    0.874E+01
DAV:  51    -0.361680372925E+03    0.67878E+01   -0.10079E+01 10896   0.134E+01    0.745E+01
DAV:  52    -0.370394165688E+03   -0.87138E+01   -0.21074E+01 12936   0.240E+01    0.829E+01
DAV:  53    -0.365108401195E+03    0.52858E+01   -0.16595E+01 11808   0.235E+01    0.812E+01
DAV:  54    -0.358515304164E+03    0.65931E+01   -0.13935E+01 11880   0.199E+01    0.668E+01
DAV:  55    -0.353776005885E+03    0.47393E+01   -0.11148E+01 11512   0.188E+01    0.552E+01
DAV:  56    -0.353438823380E+03    0.33718E+00   -0.86394E+00 11672   0.164E+01    0.584E+01
DAV:  57    -0.390030204464E+03   -0.36591E+02   -0.17763E+01 11992   0.282E+01    0.112E+02
DAV:  58    -0.350212604855E+03    0.39818E+02   -0.15793E+01 11488   0.207E+01    0.391E+01
DAV:  59    -0.348336180565E+03    0.18764E+01   -0.45051E+00 11536   0.120E+01    0.342E+01
DAV:  60    -0.347231949785E+03    0.11042E+01   -0.32029E+00 10968   0.101E+01    0.284E+01
DAV:  61    -0.346494471397E+03    0.73748E+00   -0.20049E+00 10536   0.696E+00    0.243E+01
DAV:  62    -0.346247016283E+03    0.24746E+00   -0.15481E+00 11688   0.749E+00    0.284E+01
DAV:  63    -0.345395863904E+03    0.85115E+00   -0.19435E+00 10984   0.669E+00    0.227E+01
DAV:  64    -0.345042513864E+03    0.35335E+00   -0.11400E+00 11136   0.438E+00    0.169E+01
DAV:  65    -0.344686437050E+03    0.35608E+00   -0.43401E-01 10792   0.286E+00    0.138E+01
DAV:  66    -0.344576940979E+03    0.10950E+00   -0.35237E-01 10968   0.271E+00    0.127E+01
DAV:  67    -0.344902514121E+03   -0.32557E+00   -0.67023E-01 11344   0.429E+00    0.167E+01
DAV:  68    -0.344386768754E+03    0.51575E+00   -0.65179E-01 10936   0.390E+00    0.107E+01
DAV:  69    -0.344335894511E+03    0.50874E-01   -0.31104E-01 11288   0.299E+00    0.112E+01
DAV:  70    -0.344139070545E+03    0.19682E+00   -0.35275E-01 11040   0.210E+00    0.636E+00
DAV:  71    -0.344085790591E+03    0.53280E-01   -0.13159E-01 11264   0.169E+00    0.604E+00
DAV:  72    -0.344245076869E+03   -0.15929E+00   -0.30527E-01 11656   0.305E+00    0.917E+00
DAV:  73    -0.343985598224E+03    0.25948E+00   -0.23964E-01 11056   0.258E+00    0.597E+00
DAV:  74    -0.343928661831E+03    0.56936E-01   -0.16923E-01 10768   0.143E+00    0.483E+00
DAV:  75    -0.343827712872E+03    0.10095E+00   -0.92435E-02 11152   0.126E+00    0.361E+00
DAV:  76    -0.343798194460E+03    0.29518E-01   -0.46660E-02 10792   0.944E-01    0.361E+00
DAV:  77    -0.343751356496E+03    0.46838E-01   -0.17347E-01 13392   0.191E+00    0.630E+00
DAV:  78    -0.343672703305E+03    0.78653E-01   -0.18193E-01 12120   0.181E+00    0.344E+00
DAV:  79    -0.343649205569E+03    0.23498E-01   -0.33109E-02 11640   0.852E-01    0.234E+00
DAV:  80    -0.343621200012E+03    0.28006E-01   -0.28412E-02 11720   0.751E-01    0.257E+00
DAV:  81    -0.343549069113E+03    0.72131E-01   -0.21733E-02 11504   0.652E-01    0.192E+00
DAV:  82    -0.343629447078E+03   -0.80378E-01   -0.31156E-01 15952   0.221E+00    0.762E+00
DAV:  83    -0.343309557384E+03    0.31989E+00   -0.23492E-01 13072   0.207E+00    0.286E+00
DAV:  84    -0.343269189975E+03    0.40367E-01   -0.56858E-02 13048   0.978E-01    0.227E+00
DAV:  85    -0.343198766358E+03    0.70424E-01   -0.40221E-02 13080   0.772E-01    0.228E+00
DAV:  86    -0.343146862212E+03    0.51904E-01   -0.22093E-02 12224   0.642E-01    0.179E+00
DAV:  87    -0.343099148199E+03    0.47714E-01   -0.31286E-02 12488   0.775E-01    0.205E+00
DAV:  88    -0.343061640608E+03    0.37508E-01   -0.35248E-02 11768   0.896E-01    0.205E+00
DAV:  89    -0.342993247022E+03    0.68394E-01   -0.40560E-02 13512   0.739E-01    0.192E+00
DAV:  90    -0.342967249922E+03    0.25997E-01   -0.30155E-02 12440   0.693E-01    0.202E+00
DAV:  91    -0.342949290012E+03    0.17960E-01   -0.13007E-02 12752   0.469E-01    0.172E+00
DAV:  92    -0.342965186295E+03   -0.15896E-01   -0.17644E-02 12280   0.632E-01    0.179E+00
DAV:  93    -0.342944265763E+03    0.20921E-01   -0.17615E-02 11992   0.580E-01    0.102E+00
DAV:  94    -0.342941003431E+03    0.32623E-02   -0.12279E-02 12048   0.420E-01    0.154E+00
DAV:  95    -0.342937044431E+03    0.39590E-02   -0.10661E-02 12024   0.392E-01    0.101E+00
DAV:  96    -0.342937172658E+03   -0.12823E-03   -0.96026E-03 12016   0.343E-01    0.118E+00
DAV:  97    -0.342936282957E+03    0.88970E-03   -0.69387E-03 11752   0.401E-01    0.841E-01
DAV:  98    -0.342935609465E+03    0.67349E-03   -0.46881E-03 11608   0.300E-01    0.451E-01
DAV:  99    -0.342936778009E+03   -0.11685E-02   -0.20490E-03 11712   0.175E-01    0.476E-01
DAV: 100    -0.342939586058E+03   -0.28080E-02   -0.34825E-03 11824   0.194E-01    0.933E-01
DAV: 101    -0.342940517711E+03   -0.93165E-03   -0.16175E-03 11544   0.168E-01    0.679E-01
DAV: 102    -0.342942055778E+03   -0.15381E-02   -0.30393E-03 11632   0.213E-01    0.510E-01
DAV: 103    -0.342943122229E+03   -0.10665E-02   -0.13717E-03 11352   0.182E-01    0.351E-01
DAV: 104    -0.342944491252E+03   -0.13690E-02   -0.87659E-04 11088   0.124E-01    0.302E-01
DAV: 105    -0.342945522126E+03   -0.10309E-02   -0.42103E-04 10936   0.917E-02    0.175E-01
DAV: 106    -0.342946496121E+03   -0.97399E-03   -0.24834E-04 10712   0.688E-02    0.138E-01
DAV: 107    -0.342947112973E+03   -0.61685E-03   -0.31787E-04 10208   0.717E-02    0.194E-01
DAV: 108    -0.342948057510E+03   -0.94454E-03   -0.27001E-04  9904   0.632E-02    0.143E-01
DAV: 109    -0.342949506798E+03   -0.14493E-02   -0.20187E-04  9992   0.516E-02    0.110E-01
DAV: 110    -0.342950430328E+03   -0.92353E-03   -0.12316E-04 10144   0.448E-02    0.102E-01
DAV: 111    -0.342951261920E+03   -0.83159E-03   -0.92641E-05  9816   0.379E-02    0.829E-02
DAV: 112    -0.342951416692E+03   -0.15477E-03   -0.82185E-05  9456   0.417E-02    0.101E-01
DAV: 113    -0.342952070878E+03   -0.65419E-03   -0.80218E-05  9560   0.367E-02    0.631E-02
DAV: 114    -0.342952842749E+03   -0.77187E-03   -0.60809E-05  9632   0.273E-02    0.528E-02
DAV: 115    -0.342953255674E+03   -0.41293E-03   -0.43671E-05  9368   0.236E-02    0.497E-02
DAV: 116    -0.342953861282E+03   -0.60561E-03   -0.44524E-05  9592   0.207E-02    0.495E-02
DAV: 117    -0.342953977679E+03   -0.11640E-03   -0.30328E-05  7952   0.235E-02    0.598E-02
DAV: 118    -0.342954225203E+03   -0.24752E-03   -0.23703E-05  8096   0.183E-02    0.390E-02
DAV: 119    -0.342954398463E+03   -0.17326E-03   -0.12009E-05  6960   0.126E-02    0.327E-02
DAV: 120    -0.342954541699E+03   -0.14324E-03   -0.11096E-05  7152   0.120E-02
 -----------------------------------------------------------------------------
|                                                                             |
|           W    W    AA    RRRRR   N    N  II  N    N   GGGG   !!!           |
|           W    W   A  A   R    R  NN   N  II  NN   N  G    G  !!!           |
|           W    W  A    A  R    R  N N  N  II  N N  N  G       !!!           |
|           W WW W  AAAAAA  RRRRR   N  N N  II  N  N N  G  GGG   !            |
|           WW  WW  A    A  R   R   N   NN  II  N   NN  G    G                |
|           W    W  A    A  R    R  N    N  II  N    N   GGGG   !!!           |
|                                                                             |
|     The electronic self-consistency was not achieved in the given           |
|     number of steps (NELM). The forces and other quantities evaluated       |
|     might not be reliable so examine the results carefully. If you find     |
|     spurious results, we suggest increasing NELM, if you were close to      |
|     convergence or switching to a different ALGO or adjusting the           |
|     density mixing parameters otherwise.                                    |
|                                                                             |
 -----------------------------------------------------------------------------

   6 F= -.44006380E+03 E0= -.43990238E+03  d E =-.311933E+03
 curvature:   0.30 expect dE= 0.598E+03 dE for cont linesearch  0.217E+01
 trial: gam= 4.36221 g(F)=  0.197E+04 g(S)=  0.000E+00 ort =-0.779E+02 (trialstep = 0.531E-01)
 search vector abs. value=  0.174E+05
 bond charge predicted
       N       E                     dE             d eps       ncg     rms          rms(c)
DAV:   1    -0.385762373777E+03   -0.42808E+02   -0.80717E+03  9680   0.116E+02    0.577E+01
DAV:   2    -0.600286758941E+03   -0.21452E+03   -0.26026E+02 10760   0.715E+01    0.159E+02
DAV:   3    -0.464333088760E+03    0.13595E+03   -0.13457E+02 10528   0.873E+01    0.118E+02
DAV:   4    -0.544162802755E+03   -0.79830E+02   -0.69731E+01 10568   0.743E+01    0.133E+02
DAV:   5    -0.471857700380E+03    0.72305E+02   -0.69278E+01 11624   0.594E+01    0.965E+01
DAV:   6    -0.430107187453E+03    0.41751E+02   -0.28348E+01 10336   0.378E+01    0.639E+01
DAV:   7    -0.461047866157E+03   -0.30941E+02   -0.45793E+01 10936   0.471E+01    0.887E+01
DAV:   8    -0.442700165124E+03    0.18348E+02   -0.29496E+01 11856   0.426E+01    0.670E+01
DAV:   9    -0.428663209240E+03    0.14037E+02   -0.41132E+01 11048   0.398E+01    0.530E+01
DAV:  10    -0.427283232230E+03    0.13800E+01   -0.33891E+01 11176   0.272E+01    0.532E+01
DAV:  11    -0.424724562184E+03    0.25587E+01   -0.12652E+01 10488   0.188E+01    0.540E+01
DAV:  12    -0.422149081157E+03    0.25755E+01   -0.88084E+00 10480   0.193E+01    0.490E+01
DAV:  13    -0.419794695857E+03    0.23544E+01   -0.97031E+00 12352   0.165E+01    0.440E+01
DAV:  14    -0.422099403974E+03   -0.23047E+01   -0.87871E+00 10832   0.177E+01    0.513E+01
DAV:  15    -0.419142875920E+03    0.29565E+01   -0.69644E+00 11544   0.118E+01    0.425E+01
DAV:  16    -0.417663180773E+03    0.14797E+01   -0.87536E+00 10704   0.113E+01    0.369E+01
DAV:  17    -0.416310372836E+03    0.13528E+01   -0.47182E+00 10880   0.993E+00    0.340E+01
DAV:  18    -0.415317913360E+03    0.99246E+00   -0.28135E+00 10896   0.765E+00    0.313E+01
DAV:  19    -0.413455494676E+03    0.18624E+01   -0.14177E+00 11776   0.744E+00    0.239E+01
DAV:  20    -0.412887787514E+03    0.56771E+00   -0.21264E+00 11816   0.696E+00    0.205E+01
DAV:  21    -0.412224492526E+03    0.66329E+00   -0.16743E+00 12368   0.609E+00    0.180E+01
DAV:  22    -0.411758192549E+03    0.46630E+00   -0.16288E+00 11096   0.505E+00    0.146E+01
DAV:  23    -0.411565928729E+03    0.19226E+00   -0.90525E-01 10904   0.379E+00    0.125E+01
DAV:  24    -0.411442211245E+03    0.12372E+00   -0.77592E-01 11256   0.339E+00    0.110E+01
DAV:  25    -0.411242199232E+03    0.20001E+00   -0.45322E-01 10696   0.272E+00    0.828E+00
DAV:  26    -0.411143004908E+03    0.99194E-01   -0.28130E-01 10864   0.226E+00    0.698E+00
DAV:  27    -0.411116794766E+03    0.26210E-01   -0.20646E-01 10664   0.183E+00    0.659E+00
DAV:  28    -0.411107369717E+03    0.94250E-02   -0.21131E-01 11152   0.187E+00    0.611E+00
DAV:  29    -0.411090209284E+03    0.17160E-01   -0.22395E-01 11592   0.194E+00    0.529E+00
DAV:  30    -0.411051207461E+03    0.39002E-01   -0.15636E-01 11640   0.189E+00    0.416E+00
DAV:  31    -0.411036454506E+03    0.14753E-01   -0.15108E-01 11296   0.169E+00    0.369E+00
DAV:  32    -0.411014182332E+03    0.22272E-01   -0.12881E-01 10960   0.136E+00    0.287E+00
DAV:  33    -0.411001809159E+03    0.12373E-01   -0.80190E-02 10912   0.108E+00    0.216E+00
DAV:  34    -0.411000711642E+03    0.10975E-02   -0.46256E-02 10832   0.896E-01    0.215E+00
DAV:  35    -0.410991322183E+03    0.93895E-02   -0.23718E-02 10808   0.647E-01    0.149E+00
DAV:  36    -0.410990572568E+03    0.74961E-03   -0.16529E-02 10592   0.488E-01    0.154E+00
DAV:  37    -0.410988717373E+03    0.18552E-02   -0.73555E-03 10464   0.342E-01    0.129E+00
DAV:  38    -0.410986769064E+03    0.19483E-02   -0.41045E-03 10656   0.284E-01    0.108E+00
DAV:  39    -0.410985789508E+03    0.97956E-03   -0.34228E-03 10488   0.253E-01    0.837E-01
DAV:  40    -0.410985589554E+03    0.19995E-03   -0.38555E-03 11656   0.254E-01    0.768E-01
DAV:  41    -0.410984855596E+03    0.73396E-03   -0.20299E-03 11136   0.177E-01    0.619E-01
DAV:  42    -0.410984921031E+03   -0.65435E-04   -0.15440E-03 10824   0.165E-01    0.638E-01
DAV:  43    -0.410984505570E+03    0.41546E-03   -0.46956E-04 10392   0.759E-02    0.524E-01
DAV:  44    -0.410984523597E+03   -0.18026E-04   -0.52600E-04 10240   0.954E-02    0.519E-01
DAV:  45    -0.410984217784E+03    0.30581E-03   -0.48915E-04 10392   0.917E-02    0.404E-01
DAV:  46    -0.410984069278E+03    0.14851E-03   -0.70917E-04 10656   0.108E-01    0.296E-01
DAV:  47    -0.410984213038E+03   -0.14376E-03   -0.93092E-04 10752   0.137E-01    0.374E-01
DAV:  48    -0.410984035177E+03    0.17786E-03   -0.66867E-04 10616   0.110E-01    0.302E-01
DAV:  49    -0.410983935560E+03    0.99618E-04   -0.35612E-04 10312   0.691E-02    0.227E-01
DAV:  50    -0.410983957628E+03   -0.22069E-04   -0.15981E-04 10000   0.628E-02    0.243E-01
DAV:  51    -0.410983884284E+03    0.73344E-04   -0.13762E-04  9640   0.528E-02    0.165E-01
DAV:  52    -0.410983888623E+03   -0.43386E-05   -0.17482E-04  9384   0.674E-02    0.176E-01
DAV:  53    -0.410983877502E+03    0.11121E-04   -0.12170E-04  8880   0.507E-02    0.185E-01
DAV:  54    -0.410983860651E+03    0.16851E-04   -0.62350E-05  8600   0.392E-02    0.175E-01
DAV:  55    -0.410983836904E+03    0.23747E-04   -0.47367E-05  8408   0.342E-02    0.142E-01
DAV:  56    -0.410983820429E+03    0.16475E-04   -0.40452E-05  7912   0.297E-02    0.114E-01
DAV:  57    -0.410983831188E+03   -0.10759E-04   -0.53508E-05  8344   0.385E-02    0.119E-01
DAV:  58    -0.410983811006E+03    0.20182E-04   -0.54991E-05  7936   0.334E-02    0.821E-02
DAV:  59    -0.410983801424E+03    0.95824E-05   -0.29940E-05  7312   0.233E-02    0.542E-02
DAV:  60    -0.410983795925E+03    0.54995E-05   -0.14011E-05  6280   0.164E-02    0.408E-02
DAV:  61    -0.410983793208E+03    0.27162E-05   -0.73010E-06  5552   0.125E-02
   7 F= -.50687801E+03 E0= -.50670983E+03  d E =-.668142E+02
 trial-energy change:  -66.814215  1 .order  -69.673077  -86.685953  -52.660200
 step:   0.1353(harm=  0.1353)  dis= 0.31151  next Energy=  -550.486845 (dE=-0.110E+03)
 bond charge predicted
       N       E                     dE             d eps       ncg     rms          rms(c)
DAV:   1    -0.382767901517E+03    0.28216E+02   -0.19718E+04  9664   0.192E+02    0.686E+01
DAV:   2    -0.853277094966E+03   -0.47051E+03   -0.92076E+02 10584   0.118E+02    0.223E+02
DAV:   3    -0.594648352776E+03    0.25863E+03   -0.41590E+02 10472   0.125E+02    0.155E+02
DAV:   4    -0.827408250733E+03   -0.23276E+03   -0.11378E+02 10728   0.126E+02    0.212E+02
DAV:   5    -0.670327845515E+03    0.15708E+03   -0.15397E+02 11288   0.933E+01    0.195E+02
DAV:   6    -0.539429247317E+03    0.13090E+03   -0.98302E+01 10304   0.410E+01    0.112E+02
DAV:   7    -0.537634171495E+03    0.17951E+01   -0.33829E+01 10736   0.374E+01    0.128E+02
DAV:   8    -0.497806654740E+03    0.39828E+02   -0.39069E+01 12176   0.368E+01    0.763E+01
DAV:   9    -0.496143528587E+03    0.16631E+01   -0.20756E+01 11072   0.310E+01    0.729E+01
DAV:  10    -0.500031555177E+03   -0.38880E+01   -0.12619E+01 10912   0.158E+01    0.786E+01
DAV:  11    -0.500312910068E+03   -0.28135E+00   -0.76546E+00 12080   0.566E+00    0.771E+01
DAV:  12    -0.498978250531E+03    0.13347E+01   -0.29525E+00 10720   0.987E+00    0.722E+01
DAV:  13    -0.502780137663E+03   -0.38019E+01   -0.13589E+01 11552   0.198E+01    0.749E+01
DAV:  14    -0.499265590149E+03    0.35145E+01   -0.94296E+00 13696   0.204E+01    0.631E+01
DAV:  15    -0.495911811187E+03    0.33538E+01   -0.72189E+00 12008   0.185E+01    0.593E+01
DAV:  16    -0.496668183239E+03   -0.75637E+00   -0.88040E+00 11720   0.199E+01    0.584E+01
DAV:  17    -0.494130477353E+03    0.25377E+01   -0.98158E+00 11488   0.201E+01    0.539E+01
DAV:  18    -0.490277469931E+03    0.38530E+01   -0.41193E+00 11568   0.145E+01    0.493E+01
DAV:  19    -0.487164681749E+03    0.31128E+01   -0.28545E+00 11280   0.107E+01    0.432E+01
DAV:  20    -0.484790103362E+03    0.23746E+01   -0.19589E+00 11000   0.659E+00    0.374E+01
DAV:  21    -0.483413727084E+03    0.13764E+01   -0.12794E+00 10728   0.572E+00    0.346E+01
DAV:  22    -0.482430947743E+03    0.98278E+00   -0.79849E-01 11072   0.472E+00    0.329E+01
DAV:  23    -0.481410987162E+03    0.10200E+01   -0.71878E-01 11968   0.357E+00    0.301E+01
DAV:  24    -0.480588424791E+03    0.82256E+00   -0.63022E-01 12552   0.365E+00    0.278E+01
DAV:  25    -0.479854833428E+03    0.73359E+00   -0.40357E-01 12136   0.302E+00    0.242E+01
DAV:  26    -0.479310148716E+03    0.54468E+00   -0.37527E-01 12320   0.286E+00    0.217E+01
DAV:  27    -0.478944242880E+03    0.36591E+00   -0.58064E-01 12544   0.376E+00    0.180E+01
DAV:  28    -0.478756697210E+03    0.18755E+00   -0.83551E-01 11664   0.395E+00    0.154E+01
DAV:  29    -0.478790041245E+03   -0.33344E-01   -0.96810E-01 10976   0.427E+00    0.162E+01
DAV:  30    -0.478651608944E+03    0.13843E+00   -0.91487E-01 10792   0.418E+00    0.145E+01
DAV:  31    -0.478356051910E+03    0.29556E+00   -0.56769E-01 10680   0.339E+00    0.117E+01
DAV:  32    -0.478302297692E+03    0.53754E-01   -0.33026E-01 10672   0.275E+00    0.113E+01
DAV:  33    -0.478235390533E+03    0.66907E-01   -0.25908E-01 10920   0.235E+00    0.106E+01
DAV:  34    -0.478150825945E+03    0.84565E-01   -0.30021E-01 10976   0.233E+00    0.900E+00
DAV:  35    -0.478075410946E+03    0.75415E-01   -0.21038E-01 10720   0.220E+00    0.778E+00
DAV:  36    -0.478048537285E+03    0.26874E-01   -0.19676E-01 10704   0.208E+00    0.717E+00
DAV:  37    -0.478049651517E+03   -0.11142E-02   -0.22860E-01 10800   0.229E+00    0.732E+00
DAV:  38    -0.477951037233E+03    0.98614E-01   -0.18832E-01 10824   0.197E+00    0.489E+00
DAV:  39    -0.477915739765E+03    0.35297E-01   -0.10378E-01 10720   0.134E+00    0.402E+00
DAV:  40    -0.477910182014E+03    0.55578E-02   -0.70142E-02 10696   0.112E+00    0.378E+00
DAV:  41    -0.477901470257E+03    0.87118E-02   -0.35793E-02 10616   0.852E-01    0.334E+00
DAV:  42    -0.477895343027E+03    0.61272E-02   -0.27433E-02 10848   0.682E-01    0.303E+00
DAV:  43    -0.477894619600E+03    0.72343E-03   -0.37573E-02 11544   0.830E-01    0.292E+00
DAV:  44    -0.477890766939E+03    0.38527E-02   -0.51270E-02 11384   0.873E-01    0.265E+00
DAV:  45    -0.477880143534E+03    0.10623E-01   -0.45173E-02 11064   0.821E-01    0.206E+00
DAV:  46    -0.477877604912E+03    0.25386E-02   -0.34366E-02 11216   0.717E-01    0.205E+00
DAV:  47    -0.477914907216E+03   -0.37302E-01   -0.10371E-01 13504   0.153E+00    0.389E+00
DAV:  48    -0.477890354753E+03    0.24552E-01   -0.38059E-02 12392   0.997E-01    0.303E+00
DAV:  49    -0.477879718112E+03    0.10637E-01   -0.14709E-02 12464   0.671E-01    0.242E+00
DAV:  50    -0.477870177290E+03    0.95408E-02   -0.13554E-02 11248   0.531E-01    0.156E+00
DAV:  51    -0.477866448827E+03    0.37285E-02   -0.55168E-03 11000   0.362E-01    0.121E+00
DAV:  52    -0.477885361614E+03   -0.18913E-01   -0.39117E-02 15568   0.885E-01    0.268E+00
DAV:  53    -0.477878090217E+03    0.72714E-02   -0.19275E-02 13288   0.501E-01    0.234E+00
DAV:  54    -0.477875524658E+03    0.25656E-02   -0.53594E-03 11104   0.282E-01    0.219E+00
DAV:  55    -0.477874446070E+03    0.10786E-02   -0.52731E-03 10784   0.300E-01    0.206E+00
DAV:  56    -0.477873502823E+03    0.94325E-03   -0.63407E-03 11464   0.375E-01    0.189E+00
DAV:  57    -0.477874233278E+03   -0.73045E-03   -0.14334E-02 12120   0.663E-01    0.176E+00
DAV:  58    -0.477868084975E+03    0.61483E-02   -0.17827E-02 12008   0.611E-01    0.134E+00
DAV:  59    -0.477864505127E+03    0.35798E-02   -0.60303E-03 11768   0.338E-01    0.945E-01
DAV:  60    -0.477862874623E+03    0.16305E-02   -0.33877E-03 12056   0.258E-01    0.640E-01
DAV:  61    -0.477862846738E+03    0.27885E-04   -0.26872E-03 11312   0.232E-01    0.594E-01
DAV:  62    -0.477865243315E+03   -0.23966E-02   -0.48369E-03 12272   0.427E-01    0.984E-01
DAV:  63    -0.477862631126E+03    0.26122E-02   -0.24647E-03 11320   0.261E-01    0.594E-01
DAV:  64    -0.477862358864E+03    0.27226E-03   -0.99227E-04 11304   0.124E-01    0.516E-01
DAV:  65    -0.477862414110E+03   -0.55247E-04   -0.10406E-03 11144   0.142E-01    0.477E-01
[...]
DAV:  18    -0.948589846744E+03    0.17284E-01   -0.67397E-02 11424   0.125E+00    0.208E+00
DAV:  19    -0.948587927948E+03    0.19188E-02   -0.35438E-02 11584   0.103E+00    0.196E+00
DAV:  20    -0.948580226890E+03    0.77011E-02   -0.21773E-02 11400   0.757E-01    0.138E+00
DAV:  21    -0.948576865050E+03    0.33618E-02   -0.13514E-02 11432   0.578E-01    0.104E+00
DAV:  22    -0.948575335260E+03    0.15298E-02   -0.96683E-03 11352   0.482E-01    0.824E-01
DAV:  23    -0.948575461566E+03   -0.12631E-03   -0.62626E-03 11704   0.433E-01    0.824E-01
DAV:  24    -0.948575151383E+03    0.31018E-03   -0.47139E-03 11608   0.381E-01    0.733E-01
DAV:  25    -0.948575170142E+03   -0.18758E-04   -0.38804E-03 11536   0.343E-01    0.693E-01
DAV:  26    -0.948574514476E+03    0.65567E-03   -0.32120E-03 11320   0.309E-01    0.557E-01
DAV:  27    -0.948573760119E+03    0.75436E-03   -0.20436E-03 11592   0.239E-01    0.331E-01
DAV:  28    -0.948573759471E+03    0.64843E-06   -0.11296E-03 11584   0.171E-01    0.328E-01
DAV:  29    -0.948573617147E+03    0.14232E-03   -0.77783E-04 11664   0.130E-01    0.258E-01
DAV:  30    -0.948573556152E+03    0.60995E-04   -0.58953E-04 12136   0.948E-02    0.201E-01
DAV:  31    -0.948573516681E+03    0.39471E-04   -0.30834E-04 10960   0.795E-02    0.160E-01
DAV:  32    -0.948573482721E+03    0.33960E-04   -0.20934E-04 10776   0.641E-02    0.114E-01
DAV:  33    -0.948573479753E+03    0.29684E-05   -0.15968E-04 10448   0.446E-02    0.890E-02
DAV:  34    -0.948573482438E+03   -0.26852E-05   -0.79604E-05  9208   0.380E-02    0.775E-02
DAV:  35    -0.948573485933E+03   -0.34957E-05   -0.53144E-05  8816   0.343E-02    0.670E-02
DAV:  36    -0.948573493837E+03   -0.79037E-05   -0.38222E-05  8528   0.312E-02    0.657E-02
DAV:  37    -0.948573503587E+03   -0.97500E-05   -0.33309E-05  8368   0.326E-02    0.716E-02
DAV:  38    -0.948573497984E+03    0.56035E-05   -0.26221E-05  7664   0.289E-02    0.479E-02
DAV:  39    -0.948573497652E+03    0.33202E-06   -0.17086E-05  6416   0.238E-02
  37 F= -.10232840E+04 E0= -.10230926E+04  d E =-.739071E+01
 ZBRENT: can't locate minimum, use default step
 trial-energy change:   -7.390708  1 .order   -7.439471   -8.451139   -6.427802
 step:   0.9047(harm=  0.9447)  dis= 0.23117  next Energy= -1033.542744 (dE=-0.176E+02)
 bond charge predicted
       N       E                     dE             d eps       ncg     rms          rms(c)
DAV:   1    -0.934481580324E+03    0.14092E+02   -0.73030E+03  9664   0.112E+02    0.397E+01
DAV:   2    -0.106879922219E+04   -0.13432E+03   -0.26070E+02 11512   0.611E+01    0.167E+02
DAV:   3    -0.105891852461E+04    0.98807E+01   -0.12945E+02 10184   0.762E+01    0.134E+02
DAV:   4    -0.993894993842E+03    0.65024E+02   -0.58275E+01  9984   0.598E+01    0.793E+01
DAV:   5    -0.105559951194E+04   -0.61705E+02   -0.38056E+01 10624   0.595E+01    0.137E+02
DAV:   6    -0.102138154805E+04    0.34218E+02   -0.48027E+01 10440   0.594E+01    0.109E+02
DAV:   7    -0.975027759534E+03    0.46354E+02   -0.24477E+01 10888   0.381E+01    0.515E+01
DAV:   8    -0.971645327084E+03    0.33824E+01   -0.19387E+01 10640   0.318E+01    0.479E+01
DAV:   9    -0.977159007812E+03   -0.55137E+01   -0.15811E+01 10776   0.299E+01    0.661E+01
DAV:  10    -0.970842674068E+03    0.63163E+01   -0.14241E+01 10737   0.262E+01    0.433E+01
DAV:  11    -0.965475027514E+03    0.53676E+01   -0.84377E+00 10152   0.218E+01    0.310E+01
DAV:  12    -0.966602148105E+03   -0.11271E+01   -0.61893E+00 10248   0.190E+01    0.335E+01
DAV:  13    -0.968387979483E+03   -0.17858E+01   -0.63248E+00 10384   0.192E+01    0.416E+01
DAV:  14    -0.964930771846E+03    0.34572E+01   -0.48549E+00 10360   0.144E+01    0.272E+01
DAV:  15    -0.964083599145E+03    0.84717E+00   -0.28250E+00 10392   0.112E+01    0.239E+01
DAV:  16    -0.962929098132E+03    0.11545E+01   -0.26039E+00 10168   0.990E+00    0.189E+01
DAV:  17    -0.962168747078E+03    0.76035E+00   -0.17887E+00 10576   0.746E+00    0.117E+01
DAV:  18    -0.961749493496E+03    0.41925E+00   -0.73959E-01 10472   0.533E+00    0.791E+00
DAV:  19    -0.961655403922E+03    0.94090E-01   -0.41352E-01 10784   0.362E+00    0.686E+00
DAV:  20    -0.961568974289E+03    0.86430E-01   -0.22974E-01 10352   0.225E+00    0.449E+00
DAV:  21    -0.961599085326E+03   -0.30111E-01   -0.21202E-01 10960   0.237E+00    0.524E+00
DAV:  22    -0.961622938635E+03   -0.23853E-01   -0.16475E-01 10920   0.233E+00    0.529E+00
DAV:  23    -0.961615466758E+03    0.74719E-02   -0.14217E-01 10920   0.221E+00    0.516E+00
DAV:  24    -0.961588355222E+03    0.27112E-01   -0.14319E-01 11024   0.215E+00    0.425E+00
DAV:  25    -0.961594235433E+03   -0.58802E-02   -0.11156E-01 11016   0.211E+00    0.437E+00
DAV:  26    -0.961564727815E+03    0.29508E-01   -0.11542E-01 10912   0.204E+00    0.336E+00
DAV:  27    -0.961540989856E+03    0.23738E-01   -0.62520E-02 10912   0.164E+00    0.245E+00
DAV:  28    -0.961532694933E+03    0.82949E-02   -0.39835E-02 10856   0.126E+00    0.203E+00
DAV:  29    -0.961522735212E+03    0.99597E-02   -0.24843E-02 10888   0.870E-01    0.139E+00
DAV:  30    -0.961520279406E+03    0.24558E-02   -0.13877E-02 10960   0.650E-01    0.113E+00
DAV:  31    -0.961518703914E+03    0.15755E-02   -0.87624E-03 10968   0.463E-01    0.895E-01
DAV:  32    -0.961517793286E+03    0.91063E-03   -0.63466E-03 11392   0.368E-01    0.728E-01
DAV:  33    -0.961517600478E+03    0.19281E-03   -0.44327E-03 11432   0.286E-01    0.658E-01
DAV:  34    -0.961517145618E+03    0.45486E-03   -0.30068E-03 11272   0.247E-01    0.530E-01
DAV:  35    -0.961517082317E+03    0.63301E-04   -0.23788E-03 11176   0.230E-01    0.494E-01
DAV:  36    -0.961516817080E+03    0.26524E-03   -0.18986E-03 11056   0.225E-01    0.397E-01
DAV:  37    -0.961516885111E+03   -0.68031E-04   -0.15499E-03 10944   0.203E-01    0.380E-01
DAV:  38    -0.961516694977E+03    0.19013E-03   -0.99016E-04 10976   0.165E-01    0.288E-01
DAV:  39    -0.961516629705E+03    0.65272E-04   -0.64716E-04 10992   0.128E-01    0.248E-01
DAV:  40    -0.961516687034E+03   -0.57329E-04   -0.50234E-04 10992   0.109E-01    0.257E-01
DAV:  41    -0.961516638097E+03    0.48937E-04   -0.34423E-04 10944   0.943E-02    0.219E-01
DAV:  42    -0.961516615584E+03    0.22512E-04   -0.27187E-04 10696   0.854E-02    0.202E-01
DAV:  43    -0.961516580271E+03    0.35313E-04   -0.18935E-04 10808   0.692E-02    0.164E-01
DAV:  44    -0.961516549053E+03    0.31218E-04   -0.14401E-04 10376   0.566E-02    0.118E-01
DAV:  45    -0.961516535270E+03    0.13783E-04   -0.10600E-04 10288   0.420E-02    0.779E-02
DAV:  46    -0.961516543729E+03   -0.84590E-05   -0.70674E-05  9208   0.342E-02    0.677E-02
DAV:  47    -0.961516562544E+03   -0.18815E-04   -0.53839E-05  9248   0.339E-02    0.811E-02
DAV:  48    -0.961516564934E+03   -0.23900E-05   -0.47783E-05  8888   0.351E-02
  38 F= -.10359808E+04 E0= -.10357989E+04  d E =-.200875E+02
 curvature:  -1.22 expect dE=-0.214E+02 dE for cont linesearch -0.135E+01
 ZBRENT: increasing intervall
 opt :   2.2617  next Energy= -1025.509134 (dE=-0.962E+01)
 bond charge predicted
       N       E                     dE             d eps       ncg     rms          rms(c)
DAV:   1    -0.731619046233E+03    0.22990E+03   -0.30394E+04  9760   0.255E+02    0.154E+02
DAV:   2    -0.205898866815E+04   -0.13274E+04   -0.19722E+03 10832   0.233E+02    0.530E+02
DAV:   3    -0.135372378194E+04    0.70526E+03   -0.15054E+03 10218   0.134E+02    0.255E+02
DAV:   4    -0.295152507227E+04   -0.15978E+04   -0.62509E+02 11504   0.288E+02    0.388E+02
DAV:   5    -0.181426429574E+04    0.11373E+04   -0.77595E+02 12168   0.110E+02    0.304E+02
DAV:   6    -0.130244273391E+04    0.51182E+03   -0.30647E+02 11416   0.963E+01    0.209E+02
DAV:   7    -0.203294431632E+04   -0.73050E+03   -0.29066E+02 11736   0.180E+02    0.304E+02
DAV:   8    -0.129247103469E+04    0.74047E+03   -0.31932E+02 10840   0.112E+02    0.206E+02
DAV:   9    -0.112001691279E+04    0.17245E+03   -0.21884E+02  9960   0.817E+01    0.153E+02
DAV:  10    -0.106603474618E+04    0.53982E+02   -0.17809E+02 10208   0.818E+01    0.144E+02
DAV:  11    -0.103217280048E+04    0.33862E+02   -0.13671E+02 10120   0.694E+01    0.115E+02
DAV:  12    -0.985049441387E+03    0.47123E+02   -0.10302E+02 10144   0.602E+01    0.874E+01
DAV:  13    -0.976064581706E+03    0.89849E+01   -0.70452E+01 10344   0.498E+01    0.767E+01
DAV:  14    -0.970664642010E+03    0.53999E+01   -0.41229E+01 10064   0.383E+01    0.724E+01
DAV:  15    -0.962417462037E+03    0.82472E+01   -0.31463E+01 10128   0.359E+01    0.568E+01
DAV:  16    -0.962182737487E+03    0.23472E+00   -0.18529E+01 10264   0.251E+01    0.560E+01
DAV:  17    -0.957929489691E+03    0.42532E+01   -0.14397E+01 10152   0.210E+01    0.428E+01
DAV:  18    -0.958476478781E+03   -0.54699E+00   -0.10620E+01 10376   0.213E+01    0.439E+01
DAV:  19    -0.960461076831E+03   -0.19846E+01   -0.10856E+01 10416   0.223E+01    0.439E+01
DAV:  20    -0.958851108358E+03    0.16100E+01   -0.10655E+01 10376   0.226E+01    0.379E+01
DAV:  21    -0.959843103471E+03   -0.99200E+00   -0.91247E+00 10320   0.208E+01    0.393E+01
DAV:  22    -0.960989387830E+03   -0.11463E+01   -0.83433E+00 10512   0.204E+01    0.448E+01
DAV:  23    -0.957302890534E+03    0.36865E+01   -0.71007E+00 10360   0.182E+01    0.305E+01
DAV:  24    -0.955072833790E+03    0.22301E+01   -0.46393E+00 10328   0.147E+01    0.232E+01
DAV:  25    -0.954232205955E+03    0.84063E+00   -0.27934E+00 10392   0.113E+01    0.194E+01
DAV:  26    -0.953620297435E+03    0.61191E+00   -0.16263E+00 10408   0.784E+00    0.154E+01
DAV:  27    -0.953308497138E+03    0.31180E+00   -0.75596E-01 10352   0.424E+00    0.124E+01
DAV:  28    -0.953269893086E+03    0.38604E-01   -0.55862E-01 10368   0.372E+00    0.115E+01
DAV:  29    -0.953284525095E+03   -0.14632E-01   -0.52337E-01 10552   0.405E+00    0.112E+01
DAV:  30    -0.953296601782E+03   -0.12077E-01   -0.42764E-01 10488   0.405E+00    0.108E+01
DAV:  31    -0.953165559484E+03    0.13104E+00   -0.27967E-01 10480   0.314E+00    0.886E+00
DAV:  32    -0.953106743250E+03    0.58816E-01   -0.29976E-01 10560   0.315E+00    0.871E+00
DAV:  33    -0.953057913922E+03    0.48829E-01   -0.28110E-01 10472   0.309E+00    0.780E+00
DAV:  34    -0.952971428018E+03    0.86486E-01   -0.21526E-01 10808   0.259E+00    0.607E+00
DAV:  35    -0.952928485616E+03    0.42942E-01   -0.11558E-01 10448   0.174E+00    0.509E+00
DAV:  36    -0.952907057485E+03    0.21428E-01   -0.53547E-02 10824   0.985E-01    0.458E+00
DAV:  37    -0.952905850254E+03    0.12072E-02   -0.36840E-02 10736   0.929E-01    0.450E+00
DAV:  38    -0.952892307302E+03    0.13543E-01   -0.27522E-02 10704   0.856E-01    0.412E+00
DAV:  39    -0.952889545677E+03    0.27616E-02   -0.32152E-02 10768   0.989E-01    0.410E+00
DAV:  40    -0.952874001491E+03    0.15544E-01   -0.30924E-02 10616   0.940E-01    0.362E+00
DAV:  41    -0.952872652955E+03    0.13485E-02   -0.25097E-02 10800   0.865E-01    0.364E+00
DAV:  42    -0.952863838322E+03    0.88146E-02   -0.21162E-02 10784   0.771E-01    0.319E+00
DAV:  43    -0.952857977237E+03    0.58611E-02   -0.13518E-02 10848   0.612E-01    0.298E+00
DAV:  44    -0.952857764855E+03    0.21238E-03   -0.10246E-02 10880   0.532E-01    0.296E+00
DAV:  45    -0.952854221042E+03    0.35438E-02   -0.70381E-03 10800   0.414E-01    0.280E+00
DAV:  46    -0.952852484151E+03    0.17369E-02   -0.54916E-03 11048   0.401E-01    0.275E+00
DAV:  47    -0.952936297723E+03   -0.83814E-01   -0.16963E-01 16280   0.188E+00    0.528E+00
DAV:  48    -0.952891987393E+03    0.44310E-01   -0.67601E-02 14000   0.149E+00    0.409E+00
DAV:  49    -0.952904139646E+03   -0.12152E-01   -0.81507E-02 13408   0.172E+00    0.398E+00
DAV:  50    -0.952895933761E+03    0.82059E-02   -0.97197E-02 13456   0.194E+00    0.354E+00
DAV:  51    -0.952865289973E+03    0.30644E-01   -0.59838E-02 12272   0.155E+00    0.277E+00
DAV:  52    -0.952867399479E+03   -0.21095E-02   -0.50885E-02 12640   0.144E+00    0.301E+00
DAV:  53    -0.952845728388E+03    0.21671E-01   -0.41361E-02 12184   0.120E+00    0.189E+00
DAV:  54    -0.952840973027E+03    0.47554E-02   -0.19637E-02 12304   0.874E-01    0.162E+00
DAV:  55    -0.952837384932E+03    0.35881E-02   -0.16085E-02 12056   0.750E-01    0.131E+00
DAV:  56    -0.952834682483E+03    0.27024E-02   -0.10155E-02 12368   0.627E-01    0.101E+00
DAV:  57    -0.952845361900E+03   -0.10679E-01   -0.18841E-02 12560   0.845E-01    0.187E+00
DAV:  58    -0.952831996632E+03    0.13365E-01   -0.16049E-02 11832   0.731E-01    0.770E-01
DAV:  59    -0.952831090301E+03    0.90633E-03   -0.46529E-03 11768   0.338E-01    0.577E-01
DAV:  60    -0.952830359445E+03    0.73086E-03   -0.21793E-03 11664   0.267E-01    0.401E-01
DAV:  61    -0.952830142051E+03    0.21739E-03   -0.12699E-03 11552   0.198E-01    0.321E-01
DAV:  62    -0.952830481427E+03   -0.33938E-03   -0.10247E-03 11728   0.202E-01    0.414E-01
DAV:  63    -0.952829942207E+03    0.53922E-03   -0.98899E-04 11232   0.187E-01    0.234E-01
DAV:  64    -0.952830012460E+03   -0.70253E-04   -0.50638E-04 11384   0.125E-01    0.250E-01
DAV:  65    -0.952829874589E+03    0.13787E-03   -0.35362E-04 11328   0.117E-01    0.175E-01
DAV:  66    -0.952829828896E+03    0.45693E-04   -0.33454E-04 10976   0.889E-02    0.153E-01
DAV:  67    -0.952830160517E+03   -0.33162E-03   -0.50732E-04 11352   0.135E-01    0.308E-01
DAV:  68    -0.952829784675E+03    0.37584E-03   -0.36065E-04 11360   0.119E-01    0.103E-01
DAV:  69    -0.952829751922E+03    0.32753E-04   -0.60496E-05 10128   0.449E-02    0.624E-02
DAV:  70    -0.952829752185E+03   -0.26333E-06   -0.31175E-05  8144   0.296E-02
  39 F= -.10268311E+04 E0= -.10266608E+04  d E =-.109379E+02
 curvature:   9.49 expect dE= 0.162E+04 dE for cont linesearch  0.772E+02
 ZBRENT: bracketing found
 ZBRENT: interpolating
 opt :   1.2700  next Energy= -1037.871599 (dE=-0.220E+02)
 bond charge predicted
       N       E                     dE             d eps       ncg     rms          rms(c)
DAV:   1    -0.876452865968E+03    0.76377E+02   -0.15833E+04  9688   0.172E+02    0.742E+01
DAV:   2    -0.105024803041E+04   -0.17380E+03   -0.96957E+02 11178   0.833E+01    0.168E+02
DAV:   3    -0.138741751307E+04   -0.33717E+03   -0.28952E+02 10288   0.139E+02    0.214E+02
DAV:   4    -0.115289495860E+04    0.23452E+03   -0.14904E+02  9968   0.116E+02    0.161E+02
DAV:   5    -0.128090933969E+04   -0.12801E+03   -0.95642E+01 10480   0.125E+02    0.203E+02
DAV:   6    -0.106544569411E+04    0.21546E+03   -0.98097E+01 10024   0.750E+01    0.118E+02
DAV:   7    -0.101099097175E+04    0.54455E+02   -0.53078E+01 10088   0.611E+01    0.880E+01
DAV:   8    -0.999053694043E+03    0.11937E+02   -0.46259E+01 10128   0.470E+01    0.906E+01
DAV:   9    -0.100472532773E+04   -0.56716E+01   -0.40422E+01 10376   0.455E+01    0.925E+01
DAV:  10    -0.988815481837E+03    0.15910E+02   -0.31290E+01 10664   0.391E+01    0.716E+01
DAV:  11    -0.972447535860E+03    0.16368E+02   -0.17830E+01 10048   0.285E+01    0.458E+01
DAV:  12    -0.969100213348E+03    0.33473E+01   -0.12682E+01 10296   0.224E+01    0.436E+01
DAV:  13    -0.969787241451E+03   -0.68703E+00   -0.10279E+01 10288   0.188E+01    0.421E+01
DAV:  14    -0.971453189944E+03   -0.16659E+01   -0.10508E+01 11000   0.209E+01    0.461E+01
DAV:  15    -0.968050880797E+03    0.34023E+01   -0.62463E+00 10240   0.158E+01    0.347E+01
DAV:  16    -0.971217214139E+03   -0.31663E+01   -0.77462E+00 10336   0.193E+01    0.428E+01
DAV:  17    -0.976161544930E+03   -0.49443E+01   -0.11787E+01 10944   0.250E+01    0.493E+01
DAV:  18    -0.969355505865E+03    0.68060E+01   -0.91097E+00 10656   0.214E+01    0.312E+01
DAV:  19    -0.966867901240E+03    0.24876E+01   -0.55428E+00 10720   0.169E+01    0.250E+01
DAV:  20    -0.966283978029E+03    0.58392E+00   -0.36243E+00 10728   0.123E+01    0.241E+01
DAV:  21    -0.965306771494E+03    0.97721E+00   -0.24030E+00 10640   0.974E+00    0.183E+01
DAV:  22    -0.964634897558E+03    0.67187E+00   -0.10031E+00 10472   0.582E+00    0.135E+01
DAV:  23    -0.964353978409E+03    0.28092E+00   -0.45241E-01 10728   0.319E+00    0.116E+01
DAV:  24    -0.964307962551E+03    0.46016E-01   -0.33669E-01 10608   0.283E+00    0.107E+01
DAV:  25    -0.964267783276E+03    0.40179E-01   -0.29231E-01 11160   0.301E+00    0.102E+01
DAV:  26    -0.964229879493E+03    0.37904E-01   -0.35316E-01 10504   0.342E+00    0.893E+00
DAV:  27    -0.964197377231E+03    0.32502E-01   -0.29481E-01 10512   0.336E+00    0.854E+00
DAV:  28    -0.964071365928E+03    0.12601E+00   -0.26213E-01 10384   0.305E+00    0.611E+00
DAV:  29    -0.964031589245E+03    0.39777E-01   -0.18552E-01 11328   0.249E+00    0.568E+00
DAV:  30    -0.963987971775E+03    0.43617E-01   -0.12585E-01 10616   0.196E+00    0.457E+00
DAV:  31    -0.963969737878E+03    0.18234E-01   -0.94216E-02 10800   0.164E+00    0.392E+00
DAV:  32    -0.963953280028E+03    0.16458E-01   -0.48285E-02 10672   0.990E-01    0.308E+00
DAV:  33    -0.963955102634E+03   -0.18226E-02   -0.44522E-02 10728   0.103E+00    0.297E+00
DAV:  34    -0.963950108388E+03    0.49942E-02   -0.23124E-02 10680   0.799E-01    0.244E+00
DAV:  35    -0.963950871286E+03   -0.76290E-03   -0.21023E-02 10728   0.826E-01    0.228E+00
DAV:  36    -0.963950731719E+03    0.13957E-03   -0.22552E-02 11176   0.864E-01    0.218E+00
DAV:  37    -0.963950440837E+03    0.29088E-03   -0.21918E-02 11144   0.851E-01    0.196E+00
DAV:  38    -0.963948145066E+03    0.22958E-02   -0.19056E-02 11008   0.778E-01    0.175E+00
DAV:  39    -0.963942227073E+03    0.59180E-02   -0.12401E-02 11048   0.629E-01    0.129E+00
DAV:  40    -0.963939794086E+03    0.24330E-02   -0.61348E-03 11000   0.442E-01    0.113E+00
DAV:  41    -0.963938975753E+03    0.81833E-03   -0.49978E-03 11128   0.406E-01    0.109E+00
DAV:  42    -0.963936714831E+03    0.22609E-02   -0.32371E-03 11360   0.328E-01    0.865E-01
DAV:  43    -0.963936399367E+03    0.31546E-03   -0.30066E-03 10728   0.284E-01    0.790E-01
DAV:  44    -0.963936304516E+03    0.94851E-04   -0.20068E-03 10848   0.247E-01    0.738E-01
DAV:  45    -0.963935883860E+03    0.42066E-03   -0.17308E-03 11232   0.245E-01    0.650E-01
DAV:  46    -0.963935269184E+03    0.61468E-03   -0.12597E-03 10936   0.194E-01    0.494E-01
DAV:  47    -0.963937400850E+03   -0.21317E-02   -0.47007E-03 17488   0.341E-01    0.834E-01
DAV:  48    -0.963935385120E+03    0.20157E-02   -0.44483E-03 14256   0.313E-01    0.463E-01
DAV:  49    -0.963935004274E+03    0.38085E-03   -0.10554E-03 13464   0.184E-01    0.361E-01
DAV:  50    -0.963934867672E+03    0.13660E-03   -0.60202E-04 12936   0.150E-01    0.309E-01
DAV:  51    -0.963934659133E+03    0.20854E-03   -0.36390E-04 12888   0.111E-01    0.212E-01
DAV:  52    -0.963934813432E+03   -0.15430E-03   -0.57576E-04 12784   0.138E-01    0.303E-01
DAV:  53    -0.963934783370E+03    0.30061E-04   -0.50606E-04 12736   0.136E-01    0.264E-01
DAV:  54    -0.963934685859E+03    0.97511E-04   -0.40929E-04 12184   0.131E-01    0.220E-01
DAV:  55    -0.963934541740E+03    0.14412E-03   -0.22974E-04 11416   0.938E-02    0.125E-01
DAV:  56    -0.963934518595E+03    0.23145E-04   -0.12041E-04 11192   0.652E-02    0.102E-01
DAV:  57    -0.963934645418E+03   -0.12682E-03   -0.18818E-04 11864   0.829E-02    0.184E-01
DAV:  58    -0.963934510955E+03    0.13446E-03   -0.16412E-04 11232   0.797E-02    0.818E-02
DAV:  59    -0.963934504174E+03    0.67807E-05   -0.48839E-05  9192   0.390E-02    0.634E-02
DAV:  60    -0.963934498246E+03    0.59276E-05   -0.29894E-05  7896   0.318E-02    0.479E-02
DAV:  61    -0.963934496499E+03    0.17474E-05   -0.14334E-05  5400   0.226E-02
  40 F= -.10382676E+04 E0= -.10380892E+04  d E =-.223743E+02
 curvature:  -0.23 expect dE=-0.655E+01 dE for cont linesearch -0.105E-01
 trial: gam= 0.75495 g(F)=  0.282E+02 g(S)=  0.000E+00 ort = 0.209E+01 (trialstep = 0.435E+00)
 search vector abs. value=  0.867E+02
