NiAl                                    
            1
    10.541500    0.000000    0.000000
     5.270750    9.129207    0.000000
     0.000000    0.000000   28.541500
   Ni   O 
   125   127
Direct configuration=     1
   0.00000000  0.00000000  0.00000000
   0.00000000  0.00000000  0.07386788
   0.00000000  0.00000000  0.14773576
   0.00000000  0.00000000  0.22160364
   0.00000000  0.00000000  0.29547151
   0.00000000  0.20000000  0.00000000
   0.00000000  0.20000000  0.07386788
   0.00000000  0.20000000  0.14773576
   0.00000000  0.20000000  0.22160364
   0.00000000  0.20000000  0.29547151
   0.00000000  0.40000001  0.00000000
   0.00000000  0.40000001  0.07386788
   0.00000000  0.40000001  0.14773576
   0.00000000  0.40000001  0.22160364
   0.00000000  0.40000001  0.29547151
   0.00000000  0.60000002  0.00000000
   0.00000000  0.60000002  0.07386788
   0.00000000  0.60000002  0.14773576
   0.00000000  0.60000002  0.22160364
   0.00000000  0.60000002  0.29547151
   0.00000000  0.80000001  0.00000000
   0.00000000  0.80000001  0.07386788
   0.00000000  0.80000001  0.14773576
   0.00000000  0.80000001  0.22160364
   0.00000000  0.80000001  0.29547151
   0.20000000  0.00000000  0.00000000
   0.20000000  0.00000000  0.07386788
   0.20000000  0.00000000  0.14773576
   0.20000000  0.00000000  0.22160364
   0.20000000  0.00000000  0.29547151
   0.20000000  0.20000000  0.00000000
   0.20000000  0.20000000  0.07386788
   0.20000000  0.20000000  0.14773576
   0.20000000  0.20000000  0.22160364
   0.20000000  0.20000000  0.29547151
   0.20000000  0.40000001  0.00000000
   0.20000000  0.40000001  0.07386788
   0.20000000  0.40000001  0.14773576
   0.20000000  0.40000001  0.22160364
   0.20000000  0.40000001  0.29547151
   0.20000000  0.60000002  0.00000000
   0.20000000  0.60000002  0.07386788
   0.20000000  0.60000002  0.14773576
   0.20000000  0.60000002  0.22160364
   0.20000000  0.60000002  0.29547151
   0.20000000  0.80000001  0.00000000
   0.20000000  0.80000001  0.07386788
   0.20000000  0.80000001  0.14773576
   0.20000000  0.80000001  0.22160364
   0.20000000  0.80000001  0.29547151
   0.40000001  0.00000000  0.00000000
   0.40000001  0.00000000  0.07386788
   0.40000001  0.00000000  0.14773576
   0.40000001  0.00000000  0.22160364
   0.40000001  0.00000000  0.29547151
   0.40000001  0.20000000  0.00000000
   0.40000001  0.20000000  0.07386788
   0.40000001  0.20000000  0.14773576
   0.40000001  0.20000000  0.22160364
   0.40000001  0.20000000  0.29547151
   0.40000001  0.40000001  0.00000000
   0.40000001  0.40000001  0.07386788
   0.40000001  0.40000001  0.14773576
   0.40000001  0.40000001  0.22160364
   0.40000001  0.40000001  0.29547151
   0.40000001  0.60000002  0.00000000
   0.40000001  0.60000002  0.07386788
   0.40000001  0.60000002  0.14773576
   0.40000001  0.60000002  0.22160364
   0.40000001  0.60000002  0.29547151
   0.40000001  0.80000001  0.00000000
   0.40000001  0.80000001  0.07386788
   0.40000001  0.80000001  0.14773576
   0.40000001  0.80000001  0.22160364
   0.40000001  0.80000001  0.29547151
   0.60000002  0.00000000  0.00000000
   0.60000002  0.00000000  0.07386788
   0.60000002  0.00000000  0.14773576
   0.60000002  0.00000000  0.22160364
   0.60000002  0.00000000  0.29547151
   0.60000002  0.20000000  0.00000000
   0.60000002  0.20000000  0.07386788
   0.60000002  0.20000000  0.14773576
   0.60000002  0.20000000  0.22160364
   0.60000002  0.20000000  0.29547151
   0.60000002  0.40000001  0.00000000
   0.60000002  0.40000001  0.07386788
   0.60000002  0.40000001  0.14773576
   0.60000002  0.40000001  0.22160364
   0.60000002  0.40000001  0.29547151
   0.60000002  0.60000002  0.00000000
   0.60000002  0.60000002  0.07386788
   0.60000002  0.60000002  0.14773576
   0.60000002  0.60000002  0.22160364
   0.60000002  0.60000002  0.29547151
   0.60000002  0.80000001  0.00000000
   0.60000002  0.80000001  0.07386788
   0.60000002  0.80000001  0.14773576
   0.60000002  0.80000001  0.22160364
   0.60000002  0.80000001  0.29547151
   0.80000001  0.00000000  0.00000000
   0.80000001  0.00000000  0.07386788
   0.80000001  0.00000000  0.14773576
   0.80000001  0.00000000  0.22160364
   0.80000001  0.00000000  0.29547151
   0.80000001  0.20000000  0.00000000
   0.80000001  0.20000000  0.07386788
   0.80000001  0.20000000  0.14773576
   0.80000001  0.20000000  0.22160364
   0.80000001  0.20000000  0.29547151
   0.80000001  0.40000001  0.00000000
   0.80000001  0.40000001  0.07386788
   0.80000001  0.40000001  0.14773576
   0.80000001  0.40000001  0.22160364
   0.80000001  0.40000001  0.29547151
   0.80000001  0.60000002  0.00000000
   0.80000001  0.60000002  0.07386788
   0.80000001  0.60000002  0.14773576
   0.80000001  0.60000002  0.22160364
   0.80000001  0.60000002  0.29547151
   0.80000001  0.80000001  0.00000000
   0.80000001  0.80000001  0.07386788
   0.80000001  0.80000001  0.14773576
   0.80000001  0.80000001  0.22160364
   0.80000001  0.80000001  0.29547151
   0.10000000  0.10000000  0.03693394
   0.10000000  0.10000000  0.11080182
   0.10000000  0.10000000  0.18466969
   0.10000000  0.10000000  0.25853757
   0.10000000  0.10000000  0.33240544
   0.10000000  0.30000001  0.03693394
   0.10000000  0.30000001  0.11080182
   0.10000000  0.30000001  0.18466969
   0.10000000  0.30000001  0.25853757
   0.10000000  0.30000001  0.33240544
   0.10000000  0.50000000  0.03693394
   0.10000000  0.50000000  0.11080182
   0.10000000  0.50000000  0.18466969
   0.10000000  0.50000000  0.25853757
   0.10000000  0.50000000  0.33240544
   0.10000000  0.69999999  0.03693394
   0.10000000  0.69999999  0.11080182
   0.10000000  0.69999999  0.18466969
   0.10000000  0.69999999  0.25853757
   0.10000000  0.69999999  0.33240544
   0.10000000  0.89999998  0.03693394
   0.10000000  0.89999998  0.11080182
   0.10000000  0.89999998  0.18466969
   0.10000000  0.89999998  0.25853757
   0.10000000  0.89999998  0.33240544
   0.30000001  0.10000000  0.03693394
   0.30000001  0.10000000  0.11080182
   0.30000001  0.10000000  0.18466969
   0.30000001  0.10000000  0.25853757
   0.30000001  0.10000000  0.33240544
   0.30000001  0.30000001  0.03693394
   0.30000001  0.30000001  0.11080182
   0.30000001  0.30000001  0.18466969
   0.30000001  0.30000001  0.25853757
   0.30000001  0.30000001  0.33240544
   0.30000001  0.50000000  0.03693394
   0.30000001  0.50000000  0.11080182
   0.30000001  0.50000000  0.18466969
   0.30000001  0.50000000  0.25853757
   0.30000001  0.50000000  0.33240544
   0.30000001  0.69999999  0.03693394
   0.30000001  0.69999999  0.11080182
   0.30000001  0.69999999  0.18466969
   0.30000001  0.69999999  0.25853757
   0.30000001  0.69999999  0.33240544
   0.30000001  0.89999998  0.03693394
   0.30000001  0.89999998  0.11080182
   0.30000001  0.89999998  0.18466969
   0.30000001  0.89999998  0.25853757
   0.30000001  0.89999998  0.33240544
   0.50000000  0.10000000  0.03693394
   0.50000000  0.10000000  0.11080182
   0.50000000  0.10000000  0.18466969
   0.50000000  0.10000000  0.25853757
   0.50000000  0.10000000  0.33240544
   0.50000000  0.30000001  0.03693394
   0.50000000  0.30000001  0.11080182
   0.50000000  0.30000001  0.18466969
   0.50000000  0.30000001  0.25853757
   0.50000000  0.30000001  0.33240544
   0.50000000  0.50000000  0.03693394
   0.50000000  0.50000000  0.11080182
   0.50000000  0.50000000  0.18466969
   0.50000000  0.50000000  0.25853757
   0.50000000  0.50000000  0.33240544
   0.50000000  0.69999999  0.03693394
   0.50000000  0.69999999  0.11080182
   0.50000000  0.69999999  0.18466969
   0.50000000  0.69999999  0.25853757
   0.50000000  0.69999999  0.33240544
   0.50000000  0.89999998  0.03693394
   0.50000000  0.89999998  0.11080182
   0.50000000  0.89999998  0.18466969
   0.50000000  0.89999998  0.25853757
   0.50000000  0.89999998  0.33240544
   0.69999999  0.10000000  0.03693394
   0.69999999  0.10000000  0.11080182
   0.69999999  0.10000000  0.18466969
   0.69999999  0.10000000  0.25853757
   0.69999999  0.10000000  0.33240544
   0.69999999  0.30000001  0.03693394
   0.69999999  0.30000001  0.11080182
   0.69999999  0.30000001  0.18466969
   0.69999999  0.30000001  0.25853757
   0.69999999  0.30000001  0.33240544
   0.69999999  0.50000000  0.03693394
   0.69999999  0.50000000  0.11080182
   0.69999999  0.50000000  0.18466969
   0.69999999  0.50000000  0.25853757
   0.69999999  0.50000000  0.33240544
   0.69999999  0.69999999  0.03693394
   0.69999999  0.69999999  0.11080182
   0.69999999  0.69999999  0.18466969
   0.69999999  0.69999999  0.25853757
   0.69999999  0.69999999  0.33240544
   0.69999999  0.89999998  0.03693394
   0.69999999  0.89999998  0.11080182
   0.69999999  0.89999998  0.18466969
   0.69999999  0.89999998  0.25853757
   0.69999999  0.89999998  0.33240544
   0.89999998  0.10000000  0.03693394
   0.89999998  0.10000000  0.11080182
   0.89999998  0.10000000  0.18466969
   0.89999998  0.10000000  0.25853757
   0.89999998  0.10000000  0.33240544
   0.89999998  0.30000001  0.03693394
   0.89999998  0.30000001  0.11080182
   0.89999998  0.30000001  0.18466969
   0.89999998  0.30000001  0.25853757
   0.89999998  0.30000001  0.33240544
   0.89999998  0.50000000  0.03693394
   0.89999998  0.50000000  0.11080182
   0.89999998  0.50000000  0.18466969
   0.89999998  0.50000000  0.25853757
   0.89999998  0.50000000  0.33240544
   0.89999998  0.69999999  0.03693394
   0.89999998  0.69999999  0.11080182
   0.89999998  0.69999999  0.18466969
   0.89999998  0.69999999  0.25853757
   0.89999998  0.69999999  0.33240544
   0.89999998  0.89999998  0.03693394
   0.89999998  0.89999998  0.11080182
   0.89999998  0.89999998  0.18466969
   0.89999998  0.89999998  0.25853757
   0.89999998  0.89999998  0.33240544
   0.42141986  0.42141986  0.36744214
   0.35569673  0.55286611  0.36744214
Direct configuration=     2
  -0.00000254  0.00002397 -0.01880330
   0.00007525  0.00002330  0.07269987
   0.00007746 -0.00003802  0.14781366
   0.00017737 -0.00018327  0.22138291
  -0.00007007  0.00005874  0.30208382
  -0.00000192  0.20000948 -0.01880268
  -0.00000117  0.20002198  0.07272829
   0.00000078  0.20006696  0.14784487
   0.00004592  0.20004173  0.22133102
  -0.00007071  0.19984768  0.30209832
   0.00001749  0.39998157 -0.01878527
   0.00001482  0.39997779  0.07274271
  -0.00002346  0.40001893  0.14780838
  -0.00002672  0.40002237  0.22136224
   0.00004472  0.40000753  0.30215797
   0.00000868  0.59997577 -0.01879604
  -0.00002337  0.60000511  0.07271499
   0.00000832  0.60000390  0.14783923
  -0.00000431  0.60009659  0.22130472
  -0.00021669  0.60005747  0.30209621
  -0.00000821  0.80000714 -0.01878592
   0.00001037  0.79999840  0.07267564
   0.00007854  0.79993352  0.14779078
   0.00040655  0.79949239  0.22150381
  -0.00006883  0.80010252  0.30196038
   0.20004091 -0.00003243 -0.01880139
   0.20001047  0.00000110  0.07271278
   0.20000170 -0.00002649  0.14782697
   0.19990127 -0.00003374  0.22133279
   0.20004365  0.00026128  0.30211391
   0.20000493  0.20000742 -0.01878631
   0.19997263  0.19998337  0.07274323
   0.20002328  0.19998427  0.14781240
   0.20006656  0.19999401  0.22137664
   0.19997016  0.19984595  0.30217550
   0.20002330  0.40000711 -0.01879563
   0.19995938  0.39995022  0.07271530
   0.20002528  0.39998560  0.14783989
   0.19997018  0.39998693  0.22126075
   0.19899997  0.39899154  0.30212756
   0.19997144  0.60004102 -0.01880526
   0.19993292  0.60004194  0.07267343
   0.20006319  0.59993378  0.14786986
   0.20022230  0.59970965  0.22144090
   0.19977761  0.60046684  0.30153541
   0.19997305  0.80003609 -0.01881572
   0.19998032  0.80005039  0.07269445
   0.20001969  0.79994141  0.14786320
   0.19994250  0.79991365  0.22133728
   0.19999643  0.80036492  0.30187422
   0.39998452  0.00002567 -0.01879133
   0.39998722  0.00001180  0.07273894
   0.40000909  0.00000916  0.14781665
   0.40001763 -0.00004512  0.22135802
   0.40000564  0.00012316  0.30215053
   0.39998282  0.20002701 -0.01880833
   0.39997653  0.19998174  0.07270603
   0.40000528  0.20000362  0.14784426
   0.40004208  0.19994491  0.22128295
   0.40009156  0.19901386  0.30221322
   0.40001382  0.40001334 -0.01881814
   0.39997275  0.40000372  0.07266225
   0.39997550  0.40000127  0.14789033
   0.40002089  0.40001292  0.22133208
   0.40220465  0.39731477  0.29912192
   0.39997109  0.60000625 -0.01881569
   0.40000321  0.60002974  0.07269135
   0.40005580  0.59999522  0.14787255
   0.40000511  0.60010539  0.22127789
   0.40103623  0.60134351  0.30082751
   0.40003231  0.79996890 -0.01879918
   0.40002778  0.79997354  0.07272667
   0.40000655  0.79997969  0.14781680
   0.39998808  0.80001533  0.22132109
   0.40006560  0.80082846  0.30222353
   0.59994518  0.00003785 -0.01880615
   0.59998587 -0.00000392  0.07270613
   0.60000718  0.00000301  0.14784123
   0.60006972  0.00007094  0.22132672
   0.59970811 -0.00025990  0.30208566
   0.60001238  0.19996566 -0.01880450
   0.60004075  0.19994941  0.07268140
   0.59991277  0.20004562  0.14788231
   0.59967280  0.20027493  0.22146875
   0.60075525  0.20001843  0.30124142
   0.59998854  0.40000460 -0.01881568
   0.60002823  0.39999269  0.07269853
   0.59996643  0.39996901  0.14786013
   0.59994304  0.40006452  0.22138288
   0.59912217  0.40149354  0.30209005
   0.59999297  0.59997963 -0.01878937
   0.60001797  0.60003140  0.07273981
   0.59998280  0.59997623  0.14782250
   0.60001420  0.60007348  0.22130545
   0.60008171  0.60023671  0.30233863
   0.59999114  0.79999107 -0.01878196
   0.60003245  0.80001302  0.07274713
   0.60000009  0.80003731  0.14781443
   0.60002347  0.80006602  0.22134509
   0.60011327  0.79988221  0.30218122
   0.80000150 -0.00002203 -0.01879022
   0.80000231 -0.00005535  0.07269291
   0.79990848  0.00009066  0.14780575
   0.79955537  0.00050996  0.22150619
   0.79992910 -0.00018796  0.30206490
   0.79997972  0.20003822 -0.01880959
   0.80001653  0.20000135  0.07269996
   0.80002527  0.19998330  0.14779787
   0.79965293  0.20023072  0.22144553
   0.80014069  0.19992295  0.30201922
   0.79997162  0.40002196 -0.01879100
   0.79999808  0.40001874  0.07273205
   0.79996679  0.40002219  0.14782701
   0.80002303  0.39991809  0.22132541
   0.80034169  0.40001954  0.30212209
   0.80000394  0.59999835 -0.01878019
   0.79999673  0.60000821  0.07274552
   0.80003843  0.60001794  0.14780289
   0.79997677  0.60001061  0.22134828
   0.79996567  0.60017213  0.30214708
   0.79996776  0.80000029 -0.01880518
   0.79999754  0.79997909  0.07271401
   0.79999576  0.79993936  0.14784372
   0.80001063  0.79996601  0.22132983
   0.80008699  0.79994949  0.30210129
   0.09997167  0.09999414  0.03554794
   0.10000306  0.09997686  0.11129288
   0.10003114  0.10000149  0.18476225
   0.09996380  0.09999343  0.25796056
   0.09995117  0.09993081  0.34722832
   0.09999422  0.30000203  0.03550312
   0.10000203  0.30000938  0.11131419
   0.09999240  0.29999979  0.18475326
   0.10003882  0.30004222  0.25797847
   0.10005815  0.30004136  0.34714201
   0.10000843  0.50000680  0.03553677
   0.09999594  0.50001104  0.11131354
   0.10001774  0.50002288  0.18475727
   0.10019731  0.50017129  0.25801710
   0.10026042  0.50042056  0.34696581
   0.10006414  0.69994698  0.03553649
   0.09994883  0.70005703  0.11135588
   0.09979384  0.70023823  0.18462014
   0.09889464  0.70114131  0.25769278
   0.09938937  0.70044581  0.34745167
   0.10003113  0.89994234  0.03555271
   0.09991367  0.90007697  0.11132751
   0.09998367  0.90002015  0.18470385
   0.09932454  0.90057944  0.25784900
   0.09985043  0.90004766  0.34731562
   0.30000879  0.09999583  0.03551173
   0.29999712  0.10001114  0.11131311
   0.30000916  0.09999058  0.18475554
   0.29999303  0.10006774  0.25796824
   0.30011409  0.09991665  0.34711572
   0.30000762  0.30001116  0.03553520
   0.29999288  0.30002296  0.11131977
   0.30002399  0.30001188  0.18475842
   0.30013055  0.30033328  0.25802445
   0.29987624  0.30083352  0.34687133
   0.30005705  0.49993794  0.03556127
   0.29999103  0.50002660  0.11133467
   0.29991441  0.50012812  0.18462124
   0.30042426  0.49982933  0.25834921
   0.27816786  0.50649245  0.34102046
   0.30005062  0.69993448  0.03556810
   0.29996895  0.70001902  0.11131743
   0.29995476  0.70006036  0.18470191
   0.30015561  0.69984958  0.25813674
   0.29751907  0.70797147  0.34530408
   0.29996400  0.90002124  0.03554268
   0.29999711  0.90001137  0.11131386
   0.29998722  0.90002982  0.18476549
   0.29995551  0.89980454  0.25802378
   0.29978510  0.89995956  0.34703027
   0.50002525  0.09998663  0.03555340
   0.50001275  0.09998326  0.11130341
   0.49996099  0.10000989  0.18475786
   0.50013122  0.10017867  0.25798364
   0.50032299  0.10036900  0.34700490
   0.49995719  0.30004773  0.03557177
   0.50002889  0.30000029  0.11133584
   0.50010751  0.29985436  0.18460485
   0.49936038  0.30040019  0.25844329
   0.50195525  0.29132654  0.34496785
   0.49999887  0.49999695  0.03556630
   0.49999879  0.49999428  0.11130478
   0.49999793  0.49998852  0.18472169
   0.49980696  0.49996912  0.25807136
   0.51373712  0.50094418  0.34301218
   0.49998217  0.70000843  0.03550704
   0.49998689  0.70001432  0.11131826
   0.49998607  0.70000389  0.18476987
   0.49990595  0.69970903  0.25802232
   0.49974135  0.69966078  0.34693754
   0.50001047  0.89999271  0.03550867
   0.50000325  0.89997609  0.11131583
   0.50000264  0.89999127  0.18475365
   0.49999204  0.89998510  0.25799402
   0.50002943  0.89992926  0.34712428
   0.69995743  0.10006172  0.03554130
   0.70005649  0.09995503  0.11134634
   0.70027208  0.09975059  0.18458828
   0.70084420  0.09902563  0.25786387
   0.70019338  0.09995522  0.34737843
   0.69997681  0.30000018  0.03555618
   0.70000777  0.30000515  0.11132370
   0.70001764  0.29993647  0.18469377
   0.70092164  0.29876937  0.25774070
   0.70061946  0.29965572  0.34734810
   0.69999505  0.49999314  0.03550902
   0.70001013  0.49998719  0.11131616
   0.70002395  0.49997886  0.18476272
   0.69977625  0.49985700  0.25802883
   0.70003792  0.49963293  0.34702771
   0.70000332  0.70000388  0.03549985
   0.69997369  0.69999020  0.11130921
   0.70001456  0.69997986  0.18476381
   0.69992276  0.69995631  0.25798984
   0.69988483  0.70000438  0.34713710
   0.70004588  0.89999056  0.03555456
   0.69999644  0.90002201  0.11129176
   0.69998051  0.90001746  0.18475845
   0.70012450  0.89996061  0.25796612
   0.70001194  0.90011400  0.34726027
   0.90000896  0.09995537  0.03556085
   0.89994203  0.10004494  0.11133476
   0.90000844  0.10001623  0.18472133
   0.90003421  0.09995397  0.25800827
   0.89986574  0.10004542  0.34724370
   0.90000333  0.29998006  0.03552716
   0.90001773  0.29996531  0.11129437
   0.89999010  0.30000654  0.18477086
   0.89991456  0.29994659  0.25798739
   0.90006154  0.29994174  0.34721689
   0.89999704  0.50001710  0.03550117
   0.89999115  0.50000039  0.11131382
   0.89998508  0.50000008  0.18476146
   0.90001777  0.49999597  0.25801773
   0.89989396  0.49999755  0.34715662
   0.90002888  0.70000315  0.03554008
   0.89998317  0.70001986  0.11130499
   0.89999761  0.69998916  0.18476982
   0.90001643  0.70009425  0.25797113
   0.90005934  0.69997942  0.34724077
   0.90000066  0.90001926  0.03553460
   0.89996696  0.90003057  0.11137547
   0.90008379  0.89991242  0.18463238
   0.90004726  0.89999495  0.25800399
   0.90008677  0.89996857  0.34728352
   0.44614256  0.39038635  0.38077935
   0.33774943  0.57659226  0.37567046
Direct configuration=     3
  -0.00000351  0.00003316 -0.02601691
   0.00010412  0.00003224  0.07225178
   0.00010718 -0.00005261  0.14784355
   0.00024542 -0.00025357  0.22129823
  -0.00009696  0.00008128  0.30462053
  -0.00000265  0.20001311 -0.02601605
  -0.00000162  0.20003040  0.07229111
   0.00000108  0.20009265  0.14788674
   0.00006354  0.20005774  0.22122643
  -0.00009783  0.19978925  0.30464060
   0.00002420  0.39997450 -0.02599195
   0.00002051  0.39996927  0.07231106
  -0.00003246  0.40002619  0.14783624
  -0.00003697  0.40003095  0.22126963
   0.00006188  0.40001041  0.30472313
   0.00001201  0.59996647 -0.02600686
  -0.00003234  0.60000705  0.07227270
   0.00001151  0.60000539  0.14787893
  -0.00000596  0.60013364  0.22119004
  -0.00029982  0.60007950  0.30463767
  -0.00001135  0.80000988 -0.02599286
   0.00001434  0.79999778  0.07221826
   0.00010866  0.79990801  0.14781189
   0.00056252  0.79929764  0.22146551
  -0.00009523  0.80014184  0.30444973
   0.20005660 -0.00004487 -0.02601426
   0.20001449  0.00000152  0.07226964
   0.20000236 -0.00003665  0.14786197
   0.19986339 -0.00004668  0.22122888
   0.20006039  0.00036151  0.30466217
   0.20000682  0.20001027 -0.02599339
   0.19996212  0.19997699  0.07231178
   0.20003221  0.19997823  0.14784180
   0.20009210  0.19999171  0.22128955
   0.19995871  0.19978685  0.30474739
   0.20003224  0.40000983 -0.02600630
   0.19994380  0.39993112  0.07227313
   0.20003497  0.39998008  0.14787983
   0.19995874  0.39998191  0.22112921
   0.19861632  0.39860465  0.30468106
   0.19996048  0.60005675 -0.02601961
   0.19990719  0.60005801  0.07221520
   0.20008743  0.59990837  0.14792131
   0.20030758  0.59959826  0.22137846
   0.19969230  0.60064593  0.30386174
   0.19996271  0.80004992 -0.02603409
   0.19997276  0.80006972  0.07224428
   0.20002724  0.79991893  0.14791209
   0.19992044  0.79988052  0.22123510
   0.19999506  0.80050491  0.30433052
   0.39997857  0.00003552 -0.02600034
   0.39998232  0.00001633  0.07230584
   0.40001257  0.00001267  0.14784768
   0.40002439 -0.00006244  0.22126379
   0.40000780  0.00017041  0.30471283
   0.39997623  0.20003738 -0.02602386
   0.39996753  0.19997473  0.07226031
   0.40000730  0.20000501  0.14788588
   0.40005822  0.19992378  0.22115992
   0.40012669  0.19863554  0.30479957
   0.40001911  0.40001845 -0.02603744
   0.39996230  0.40000514  0.07219973
   0.39996610  0.40000176  0.14794963
   0.40002890  0.40001787  0.22122790
   0.40305043  0.39628462  0.30052235
   0.39995999  0.60000864 -0.02603405
   0.40000444  0.60004114  0.07224000
   0.40007720  0.59999338  0.14792503
   0.40000707  0.60014581  0.22115291
   0.40143376  0.60185892  0.30288226
   0.40004471  0.79995696 -0.02601121
   0.40003843  0.79996339  0.07228886
   0.40000906  0.79997189  0.14784789
   0.39998351  0.80002120  0.22121269
   0.40009076  0.80114628  0.30481384
   0.59992415  0.00005237 -0.02602085
   0.59998044 -0.00000543  0.07226044
   0.60000992  0.00000416  0.14788169
   0.60009646  0.00009815  0.22122049
   0.59959612 -0.00035961  0.30462308
   0.60001712  0.19995249 -0.02601857
   0.60005637  0.19992999  0.07222622
   0.59987930  0.20006312  0.14793853
   0.59954727  0.20038040  0.22141700
   0.60104499  0.20002549  0.30345495
   0.59998414  0.40000636 -0.02603404
   0.60003905  0.39998988  0.07224993
   0.59995355  0.39995713  0.14790785
   0.59992117  0.40008927  0.22129819
   0.59878540  0.40206651  0.30462916
   0.59999026  0.59997181 -0.02599764
   0.60002485  0.60004344  0.07230705
   0.59997620  0.59996710  0.14785578
   0.60001963  0.60010167  0.22119105
   0.60011305  0.60032751  0.30497310
   0.59998773  0.79998765 -0.02598737
   0.60004489  0.80001800  0.07231717
   0.60000012  0.80005161  0.14784461
   0.60003247  0.80009134  0.22124591
   0.60015672  0.79983701  0.30475530
   0.80000207 -0.00003048 -0.02599880
   0.80000320 -0.00007659  0.07224216
   0.79987337  0.00012544  0.14783260
   0.79938478  0.00070560  0.22146880
   0.79990190 -0.00026007  0.30459436
   0.79997193  0.20005288 -0.02602561
   0.80002286  0.20000187  0.07225191
   0.80003497  0.19997689  0.14782170
   0.79951977  0.20031923  0.22138487
   0.80019466  0.19989338  0.30453115
   0.79996073  0.40003038 -0.02599988
   0.79999734  0.40002592  0.07229631
   0.79995404  0.40003070  0.14786201
   0.80003187  0.39988667  0.22121867
   0.80047277  0.40002703  0.30467349
   0.80000545  0.59999770 -0.02598493
   0.79999548  0.60001135  0.07231495
   0.80005317  0.60002481  0.14782864
   0.79996786  0.60001467  0.22125031
   0.79995249  0.60023815  0.30470807
   0.79995538  0.80000040 -0.02601951
   0.79999659  0.79997106  0.07227135
   0.79999414  0.79991609  0.14788513
   0.80001470  0.79995297  0.22122478
   0.80012036  0.79993011  0.30464470
   0.09996080  0.09999189  0.03501623
   0.10000423  0.09996799  0.11148127
   0.10004308  0.10000207  0.18479775
   0.09994992  0.09999091  0.25773921
   0.09993243  0.09990427  0.35291490
   0.09999200  0.30000280  0.03495421
   0.10000280  0.30001297  0.11151075
   0.09998948  0.29999970  0.18478531
   0.10005372  0.30005841  0.25776398
   0.10008046  0.30005722  0.35279547
   0.10001166  0.50000941  0.03500077
   0.09999438  0.50001528  0.11150985
   0.10002455  0.50003165  0.18479087
   0.10027300  0.50023700  0.25781743
   0.10036033  0.50058190  0.35255168
   0.10008875  0.69992665  0.03500039
   0.09992920  0.70007891  0.11156844
   0.09971475  0.70032963  0.18460113
   0.09847058  0.70157916  0.25736869
   0.09915511  0.70061684  0.35322394
   0.10004308  0.89992023  0.03502282
   0.09988055  0.90010651  0.11152918
   0.09997741  0.90002789  0.18471695
   0.09906541  0.90080174  0.25758484
   0.09979305  0.90006596  0.35303568
   0.30001216  0.09999423  0.03496612
   0.29999601  0.10001541  0.11150925
   0.30001267  0.09998696  0.18478847
   0.29999035  0.10009373  0.25774983
   0.30015786  0.09988467  0.35275910
   0.30001053  0.30001543  0.03499860
   0.29999014  0.30003176  0.11151847
   0.30003319  0.30001643  0.18479246
   0.30018063  0.30046114  0.25782760
   0.29982876  0.30115328  0.35242095
   0.30007893  0.49991413  0.03503466
   0.29998759  0.50003680  0.11153909
   0.29988157  0.50017728  0.18460265
   0.30058702  0.49976386  0.25827695
   0.26979228  0.50898318  0.34432548
   0.30007003  0.69990934  0.03504412
   0.29995704  0.70002633  0.11151523
   0.29993740  0.70008353  0.18471428
   0.30021531  0.69979188  0.25798296
   0.29656729  0.71102962  0.35025245
   0.29995018  0.90002939  0.03500894
   0.29999600  0.90001574  0.11151030
   0.29998232  0.90004127  0.18480224
   0.29993844  0.89972957  0.25782668
   0.29970265  0.89994406  0.35264087
   0.50003494  0.09998150  0.03502378
   0.50001765  0.09997684  0.11149584
   0.49994602  0.10001368  0.18479168
   0.50018156  0.10024722  0.25777113
   0.50044690  0.10051056  0.35260576
   0.49994076  0.30006603  0.03504919
   0.50003998  0.30000039  0.11154071
   0.50014876  0.29979849  0.18457998
   0.49911500  0.30055371  0.25840713
   0.50270535  0.28799909  0.34978723
   0.49999844  0.49999578  0.03504163
   0.49999833  0.49999209  0.11149774
   0.49999713  0.49998412  0.18474164
   0.49973290  0.49995728  0.25789251
   0.51900716  0.50130640  0.34708130
   0.49997533  0.70001166  0.03495964
   0.49998186  0.70001982  0.11151638
   0.49998073  0.70000539  0.18480830
   0.49986986  0.69959740  0.25782466
   0.49964212  0.69953065  0.35251256
   0.50001449  0.89998992  0.03496189
   0.50000450  0.89996692  0.11151302
   0.50000365  0.89998793  0.18478586
   0.49998899  0.89997939  0.25778550
   0.50004072  0.89990213  0.35277095
   0.69994110  0.10008540  0.03500704
   0.70007817  0.09993778  0.11155524
   0.70037646  0.09965490  0.18455705
   0.70116807  0.09865183  0.25760542
   0.70026757  0.09993805  0.35312260
   0.69996792  0.30000024  0.03502762
   0.70001075  0.30000712  0.11152391
   0.70002441  0.29991209  0.18470301
   0.70127522  0.29829726  0.25743500
   0.70085712  0.29952364  0.35308063
   0.69999316  0.49999050  0.03496237
   0.70001402  0.49998228  0.11151348
   0.70003314  0.49997075  0.18479841
   0.69969042  0.49980214  0.25783366
   0.70005247  0.49949211  0.35263733
   0.70000460  0.70000537  0.03494969
   0.69996361  0.69998644  0.11150386
   0.70002015  0.69997214  0.18479992
   0.69989313  0.69993955  0.25777971
   0.69984066  0.70000606  0.35278868
   0.70006349  0.89998695  0.03502539
   0.69999507  0.90003046  0.11147972
   0.69997304  0.90002416  0.18479249
   0.70017227  0.89994551  0.25774689
   0.70001653  0.90015775  0.35295910
   0.90001241  0.09993825  0.03503409
   0.89991980  0.10006217  0.11153922
   0.90001168  0.10002246  0.18474114
   0.90004735  0.09993631  0.25780522
   0.89981425  0.10006284  0.35293618
   0.90000462  0.29997241  0.03498747
   0.90002454  0.29995199  0.11148333
   0.89998632  0.30000904  0.18480967
   0.89988179  0.29992610  0.25777632
   0.90008516  0.29991938  0.35289908
   0.89999592  0.50002366  0.03495150
   0.89998777  0.50000054  0.11151025
   0.89997937  0.50000011  0.18479666
   0.90002459  0.49999442  0.25781830
   0.89985329  0.49999661  0.35281569
   0.90003997  0.70000437  0.03500535
   0.89997673  0.70002748  0.11149803
   0.89999671  0.69998501  0.18480823
   0.90002274  0.70013042  0.25775382
   0.90008211  0.69997153  0.35293212
   0.90000092  0.90002666  0.03499776
   0.89995430  0.90004231  0.11159554
   0.90011594  0.89987882  0.18461806
   0.90006540  0.89999302  0.25779929
   0.90012007  0.89995652  0.35299128
   0.45562705  0.37848081  0.38589597
   0.33086422  0.58569444  0.37882713
Direct configuration=     4
  -0.00000545  0.00005155 -0.04044412
   0.00016186  0.00005012  0.07135560
   0.00016662 -0.00008179  0.14790332
   0.00038151 -0.00039419  0.22112887
  -0.00015072  0.00012635  0.30969396
  -0.00000412  0.20002038 -0.04044278
  -0.00000253  0.20004726  0.07141673
   0.00000167  0.20014403  0.14797046
   0.00009877  0.20008976  0.22101726
  -0.00015208  0.19967238  0.30972515
   0.00003763  0.39996035 -0.04040533
   0.00003189  0.39995222  0.07144775
  -0.00005045  0.40004071  0.14789197
  -0.00005747  0.40004810  0.22108441
   0.00009619  0.40001619  0.30985345
   0.00001867  0.59994786 -0.04042849
  -0.00005027  0.60001095  0.07138812
   0.00001790  0.60000836  0.14795833
  -0.00000926  0.60020774  0.22096069
  -0.00046609  0.60012358  0.30972060
  -0.00001765  0.80001535 -0.04040674
   0.00002230  0.79999654  0.07130349
   0.00016892  0.79985700  0.14785411
   0.00087445  0.79890816  0.22138892
  -0.00014804  0.80022049  0.30942844