 380 380   0   0
  0.1965819E+02  0.1514622E-08  0.1514622E-08  0.3760000E-08  0.2000000E-15
   1.0000000000000000E-004
  CAR 
 NiAl                                    
      6.92845002    -32.97411683  301     -0.08567149      1.00000000
    -32.974  0.0000E+00  0.0000E+00
    -32.841  0.0000E+00  0.0000E+00
    -32.708  0.0000E+00  0.0000E+00
    -32.575  0.0000E+00  0.0000E+00
    -32.442  0.0000E+00  0.0000E+00
    -32.309  0.0000E+00  0.0000E+00
    -32.176  0.0000E+00  0.0000E+00
    -32.043  0.0000E+00  0.0000E+00
    -31.910  0.0000E+00  0.0000E+00
    -31.777  0.0000E+00  0.0000E+00
    -31.644  0.0000E+00  0.0000E+00
    -31.511  0.0000E+00  0.0000E+00
    -31.378  0.7008E-10  0.9321E-11
    -31.245  0.1566E-02  0.2083E-03
    -31.112  0.2566E+00  0.3433E-01
    -30.979  0.1062E+01  0.1756E+00
    -30.846  0.1549E+01  0.3816E+00
    -30.713  0.1382E+00  0.4000E+00
    -30.580  0.3414E-04  0.4000E+00
    -30.447  0.5094E+00  0.4678E+00
    -30.314  0.1181E+01  0.6248E+00
    -30.181  0.9179E-02  0.6260E+00
    -30.048  0.1009E+01  0.7602E+00
    -29.915  0.1110E+00  0.7750E+00
    -29.782  0.3819E-01  0.7801E+00
    -29.649  0.1277E+01  0.9500E+00
    -29.516  0.1632E+01  0.1167E+01
    -29.383  0.4357E+00  0.1225E+01
    -29.250  0.6460E-03  0.1225E+01
    -29.117  0.5617E+00  0.1300E+01
    -28.984  0.1121E+01  0.1449E+01
    -28.851  0.8645E+00  0.1564E+01
    -28.718  0.2862E+00  0.1602E+01
    -28.585  0.3529E+00  0.1649E+01
    -28.452  0.4288E+00  0.1706E+01
    -28.319  0.2535E+01  0.2043E+01
    -28.186  0.4385E+00  0.2101E+01
    -28.053  0.9626E+00  0.2229E+01
    -27.920  0.1277E+01  0.2399E+01
    -27.787  0.1072E-01  0.2401E+01
    -27.654  0.8522E+00  0.2514E+01
    -27.521  0.1101E+01  0.2660E+01
    -27.388  0.1823E+01  0.2903E+01
    -27.255  0.9188E+00  0.3025E+01
    -27.122  0.8902E+00  0.3143E+01
    -26.989  0.2370E+00  0.3175E+01
    -26.856  0.4419E-01  0.3181E+01
    -26.723  0.6906E+00  0.3273E+01
    -26.590  0.6097E+01  0.4084E+01
    -26.457  0.2375E+01  0.4400E+01
    -26.324  0.2866E-02  0.4400E+01
    -26.191  0.4385E-10  0.4400E+01
    -26.058  0.0000E+00  0.4400E+01
    -25.925  0.3290E-06  0.4400E+01
    -25.792  0.7768E-01  0.4410E+01
    -25.659  0.1791E+01  0.4649E+01
    -25.526  0.1439E+01  0.4840E+01
    -25.393  0.1794E+01  0.5079E+01
    -25.260  0.1756E+01  0.5312E+01
    -25.127  0.1838E+01  0.5557E+01
    -24.994  0.3262E+00  0.5600E+01
    -24.861  0.6893E-05  0.5600E+01
    -24.728  0.0000E+00  0.5600E+01
    -24.595  0.0000E+00  0.5600E+01
    -24.462  0.0000E+00  0.5600E+01
    -24.329  0.0000E+00  0.5600E+01
    -24.196  0.0000E+00  0.5600E+01
    -24.063  0.0000E+00  0.5600E+01
    -23.930  0.0000E+00  0.5600E+01
    -23.797  0.0000E+00  0.5600E+01
    -23.664  0.0000E+00  0.5600E+01
    -23.531  0.0000E+00  0.5600E+01
    -23.398  0.0000E+00  0.5600E+01
    -23.264  0.0000E+00  0.5600E+01
    -23.131  0.0000E+00  0.5600E+01
    -22.998  0.0000E+00  0.5600E+01
    -22.865  0.0000E+00  0.5600E+01
    -22.732  0.0000E+00  0.5600E+01
    -22.599  0.0000E+00  0.5600E+01
    -22.466  0.0000E+00  0.5600E+01
    -22.333  0.0000E+00  0.5600E+01
    -22.200  0.0000E+00  0.5600E+01
    -22.067  0.0000E+00  0.5600E+01
    -21.934  0.0000E+00  0.5600E+01
    -21.801  0.0000E+00  0.5600E+01
    -21.668  0.0000E+00  0.5600E+01
    -21.535  0.0000E+00  0.5600E+01
    -21.402  0.0000E+00  0.5600E+01
    -21.269  0.0000E+00  0.5600E+01
    -21.136  0.1172E-06  0.5600E+01
    -21.003  0.5884E-01  0.5608E+01
    -20.870  0.2604E+01  0.5954E+01
    -20.737  0.3448E+00  0.6000E+01
    -20.604  0.2497E-05  0.6000E+01
    -20.471  0.0000E+00  0.6000E+01
    -20.338  0.0000E+00  0.6000E+01
    -20.205  0.0000E+00  0.6000E+01
    -20.072  0.0000E+00  0.6000E+01
    -19.939  0.0000E+00  0.6000E+01
    -19.806  0.4380E-12  0.6000E+01
    -19.673  0.2691E-03  0.6000E+01
    -19.540  0.6400E+00  0.6085E+01
    -19.407  0.1842E+01  0.6330E+01
    -19.274  0.7685E+00  0.6432E+01
    -19.141  0.2035E+01  0.6703E+01
    -19.008  0.9158E+00  0.6825E+01
    -18.875  0.1536E-02  0.6825E+01
    -18.742  0.5546E+00  0.6899E+01
    -18.609  0.5765E+00  0.6975E+01
    -18.476  0.1075E+01  0.7118E+01
    -18.343  0.7722E+00  0.7221E+01
    -18.210  0.1385E+01  0.7405E+01
    -18.077  0.7637E+00  0.7507E+01
    -17.944  0.1891E+01  0.7758E+01
    -17.811  0.4378E+01  0.8341E+01
    -17.678  0.2608E+00  0.8375E+01
    -17.545  0.9312E+00  0.8499E+01
    -17.412  0.8243E+00  0.8609E+01
    -17.279  0.1554E+01  0.8816E+01
    -17.146  0.7080E-01  0.8825E+01
    -17.013  0.3258E+00  0.8868E+01
    -16.880  0.8831E+00  0.8986E+01
    -16.747  0.4826E+00  0.9050E+01
    -16.614  0.5139E+00  0.9118E+01
    -16.481  0.1635E+01  0.9336E+01
    -16.348  0.2724E+01  0.9698E+01
    -16.215  0.1584E-01  0.9700E+01
    -16.082  0.4770E+00  0.9764E+01
    -15.949  0.1432E+00  0.9783E+01
    -15.816  0.1577E+01  0.9993E+01
    -15.683  0.1350E+00  0.1001E+02
    -15.550  0.1653E+01  0.1023E+02
    -15.417  0.1960E+01  0.1049E+02
    -15.284  0.1006E+01  0.1062E+02
    -15.151  0.1083E-01  0.1063E+02
    -15.018  0.1018E+01  0.1076E+02
    -14.885  0.1035E+00  0.1078E+02
    -14.752  0.4941E+00  0.1084E+02
    -14.619  0.1014E+01  0.1098E+02
    -14.486  0.7330E+00  0.1107E+02
    -14.353  0.8823E+00  0.1119E+02
    -14.220  0.1378E+00  0.1121E+02
    -14.087  0.1449E+00  0.1123E+02
    -13.954  0.1058E+01  0.1137E+02
    -13.821  0.6995E+00  0.1146E+02
    -13.688  0.3078E+01  0.1187E+02
    -13.555  0.2351E+01  0.1218E+02
    -13.422  0.2317E+01  0.1249E+02
    -13.289  0.1282E+01  0.1266E+02
    -13.156  0.3224E+01  0.1309E+02
    -13.023  0.1833E+01  0.1334E+02
    -12.890  0.2126E+01  0.1362E+02
    -12.757  0.3304E+00  0.1366E+02
    -12.624  0.1321E+01  0.1384E+02
    -12.491  0.6556E+00  0.1392E+02
    -12.358  0.2806E+00  0.1396E+02
    -12.225  0.2833E+00  0.1400E+02
    -12.092  0.6842E-01  0.1401E+02
    -11.959  0.1880E+01  0.1426E+02
    -11.826  0.2809E+01  0.1463E+02
    -11.693  0.2054E+01  0.1491E+02
    -11.560  0.8940E+00  0.1502E+02
    -11.427  0.1174E-02  0.1503E+02
    -11.294  0.4050E+00  0.1508E+02
    -11.161  0.3049E+01  0.1548E+02
    -11.028  0.1011E+01  0.1562E+02
    -10.895  0.2514E+01  0.1595E+02
    -10.762  0.2049E+01  0.1623E+02
    -10.629  0.3450E+01  0.1668E+02
    -10.496  0.3661E+01  0.1717E+02
    -10.363  0.1018E+01  0.1731E+02
    -10.230  0.1774E+01  0.1754E+02
    -10.097  0.3313E+01  0.1798E+02
     -9.964  0.1226E+00  0.1800E+02
     -9.831  0.2079E-06  0.1800E+02
     -9.698  0.4505E-04  0.1800E+02
     -9.565  0.4821E+00  0.1806E+02
     -9.432  0.6454E+00  0.1815E+02
     -9.299  0.1217E+00  0.1817E+02
     -9.166  0.3451E+01  0.1863E+02
     -9.033  0.1306E+01  0.1880E+02
     -8.900  0.8407E-02  0.1880E+02
     -8.767  0.1990E+00  0.1883E+02
     -8.634  0.2695E+01  0.1918E+02
     -8.501  0.9996E+00  0.1932E+02
     -8.368  0.2080E+01  0.1959E+02
     -8.235  0.1441E+01  0.1979E+02
     -8.102  0.1544E+01  0.1999E+02
     -7.969  0.1142E+00  0.2001E+02
     -7.835  0.2238E+01  0.2030E+02
     -7.702  0.3661E+01  0.2079E+02
     -7.569  0.3318E+01  0.2123E+02
     -7.436  0.3195E+01  0.2166E+02
     -7.303  0.2299E+01  0.2196E+02
     -7.170  0.5360E+01  0.2268E+02
     -7.037  0.8596E+01  0.2382E+02
     -6.904  0.6633E+01  0.2470E+02
     -6.771  0.3847E+01  0.2521E+02
     -6.638  0.4144E+01  0.2576E+02
     -6.505  0.4612E+01  0.2638E+02
     -6.372  0.5314E+01  0.2709E+02
     -6.239  0.3617E+01  0.2757E+02
     -6.106  0.3734E+01  0.2806E+02
     -5.973  0.4978E+01  0.2872E+02
     -5.840  0.5084E+01  0.2940E+02
     -5.707  0.4485E+01  0.3000E+02
     -5.574  0.6051E+01  0.3080E+02
     -5.441  0.4835E+01  0.3145E+02
     -5.308  0.5701E+01  0.3220E+02
     -5.175  0.2939E+01  0.3259E+02
     -5.042  0.3678E+01  0.3308E+02
     -4.909  0.8513E+01  0.3422E+02
     -4.776  0.9305E+01  0.3545E+02
     -4.643  0.8874E+01  0.3663E+02
     -4.510  0.6544E+01  0.3750E+02
     -4.377  0.7773E+01  0.3854E+02
     -4.244  0.8482E+01  0.3967E+02
     -4.111  0.1420E+02  0.4156E+02
     -3.978  0.1048E+02  0.4295E+02
     -3.845  0.1222E+02  0.4457E+02
     -3.712  0.1520E+02  0.4660E+02
     -3.579  0.1930E+02  0.4916E+02
     -3.446  0.1949E+02  0.5176E+02
     -3.313  0.1897E+02  0.5428E+02
     -3.180  0.2395E+02  0.5747E+02
     -3.047  0.2478E+02  0.6076E+02
     -2.914  0.2518E+02  0.6411E+02
     -2.781  0.2287E+02  0.6715E+02
     -2.648  0.2365E+02  0.7030E+02
     -2.515  0.2595E+02  0.7375E+02
     -2.382  0.2200E+02  0.7668E+02
     -2.249  0.2891E+02  0.8052E+02
     -2.116  0.3159E+02  0.8472E+02
     -1.983  0.3266E+02  0.8907E+02
     -1.850  0.3780E+02  0.9410E+02
     -1.717  0.4635E+02  0.1003E+03
     -1.584  0.4254E+02  0.1059E+03
     -1.451  0.4200E+02  0.1115E+03
     -1.318  0.3481E+02  0.1161E+03
     -1.185  0.3449E+02  0.1207E+03
     -1.052  0.2840E+02  0.1245E+03
     -0.919  0.3472E+02  0.1291E+03
     -0.786  0.3769E+02  0.1341E+03
     -0.653  0.3262E+02  0.1385E+03
     -0.520  0.3850E+02  0.1436E+03
     -0.387  0.4139E+02  0.1491E+03
     -0.254  0.3933E+02  0.1543E+03
     -0.121  0.5895E+02  0.1622E+03
      0.012  0.5024E+02  0.1689E+03
      0.145  0.1620E+02  0.1710E+03
      0.278  0.9345E+01  0.1722E+03
      0.411  0.1209E+02  0.1739E+03
      0.544  0.1036E+02  0.1752E+03
      0.677  0.5911E+01  0.1760E+03
      0.810  0.5386E+01  0.1767E+03
      0.943  0.5267E+01  0.1774E+03
      1.076  0.5426E+01  0.1782E+03
      1.209  0.4364E+01  0.1787E+03
      1.342  0.7123E+01  0.1797E+03
      1.475  0.7747E+01  0.1807E+03
      1.608  0.7112E+01  0.1817E+03
      1.741  0.7600E+01  0.1827E+03
      1.874  0.6284E+01  0.1835E+03
      2.007  0.2445E+01  0.1838E+03
      2.140  0.4958E+01  0.1845E+03
      2.273  0.5260E+01  0.1852E+03
      2.406  0.3078E+01  0.1856E+03
      2.539  0.4420E+01  0.1862E+03
      2.672  0.5949E+01  0.1870E+03
      2.805  0.5170E+01  0.1877E+03
      2.938  0.5865E+01  0.1885E+03
      3.071  0.5943E+01  0.1892E+03
      3.204  0.4338E+01  0.1898E+03
      3.337  0.4064E+01  0.1904E+03
      3.470  0.5889E+01  0.1911E+03
      3.603  0.7308E+01  0.1921E+03
      3.736  0.2898E+01  0.1925E+03
      3.869  0.3843E+01  0.1930E+03
      4.002  0.4904E+01  0.1937E+03
      4.135  0.4856E+01  0.1943E+03
      4.268  0.3651E+01  0.1948E+03
      4.401  0.1104E+01  0.1949E+03
      4.534  0.1148E+01  0.1951E+03
      4.667  0.4023E+01  0.1956E+03
      4.800  0.2758E+01  0.1960E+03
      4.933  0.4177E+01  0.1966E+03
      5.066  0.3751E+01  0.1971E+03
      5.199  0.1112E+01  0.1972E+03
      5.332  0.7032E-02  0.1972E+03
      5.465  0.2489E-09  0.1972E+03
      5.598  0.0000E+00  0.1972E+03
      5.731  0.0000E+00  0.1972E+03
      5.864  0.0000E+00  0.1972E+03
      5.997  0.0000E+00  0.1972E+03
      6.130  0.0000E+00  0.1972E+03
      6.263  0.0000E+00  0.1972E+03
      6.396  0.0000E+00  0.1972E+03
      6.529  0.0000E+00  0.1972E+03
      6.662  0.0000E+00  0.1972E+03
      6.795  0.0000E+00  0.1972E+03
      6.928  0.0000E+00  0.1972E+03
