 380 380   0   0
  0.1965819E+02  0.1514622E-08  0.1514622E-08  0.3760000E-08  0.2000000E-15
   1.0000000000000000E-004
  CAR 
 NiAl                                    
      6.99192599    -33.04602205  301     -0.08478224      1.00000000
    -33.046  0.0000E+00  0.0000E+00
    -32.913  0.0000E+00  0.0000E+00
    -32.779  0.0000E+00  0.0000E+00
    -32.646  0.0000E+00  0.0000E+00
    -32.512  0.0000E+00  0.0000E+00
    -32.379  0.0000E+00  0.0000E+00
    -32.245  0.0000E+00  0.0000E+00
    -32.112  0.0000E+00  0.0000E+00
    -31.978  0.0000E+00  0.0000E+00
    -31.845  0.0000E+00  0.0000E+00
    -31.711  0.0000E+00  0.0000E+00
    -31.578  0.0000E+00  0.0000E+00
    -31.445  0.6120E-10  0.8168E-11
    -31.311  0.1527E-02  0.2037E-03
    -31.178  0.2239E+00  0.3008E-01
    -31.044  0.1068E+01  0.1726E+00
    -30.911  0.1230E+01  0.3368E+00
    -30.777  0.4737E+00  0.4000E+00
    -30.644  0.2735E-04  0.4000E+00
    -30.510  0.3283E+00  0.4438E+00
    -30.377  0.1350E+01  0.6240E+00
    -30.243  0.7946E-02  0.6250E+00
    -30.110  0.5730E+00  0.7015E+00
    -29.976  0.5507E+00  0.7750E+00
    -29.843  0.3689E+00  0.8242E+00
    -29.710  0.1079E+01  0.9682E+00
    -29.576  0.1290E+01  0.1140E+01
    -29.443  0.4940E+00  0.1206E+01
    -29.309  0.1397E+00  0.1225E+01
    -29.176  0.2770E+00  0.1262E+01
    -29.042  0.1404E+01  0.1449E+01
    -28.909  0.3205E+00  0.1492E+01
    -28.775  0.1178E+01  0.1649E+01
    -28.642  0.1048E-01  0.1651E+01
    -28.508  0.1093E+01  0.1797E+01
    -28.375  0.2048E+01  0.2070E+01
    -28.241  0.2257E+00  0.2100E+01
    -28.108  0.3126E+00  0.2142E+01
    -27.975  0.6630E+00  0.2230E+01
    -27.841  0.1161E+01  0.2385E+01
    -27.708  0.3108E+00  0.2427E+01
    -27.574  0.2029E+01  0.2697E+01
    -27.441  0.2187E-01  0.2700E+01
    -27.307  0.1640E+01  0.2919E+01
    -27.174  0.1375E+01  0.3103E+01
    -27.040  0.5418E+00  0.3175E+01
    -26.907  0.1287E-03  0.3175E+01
    -26.773  0.1185E+00  0.3191E+01
    -26.640  0.8608E+00  0.3306E+01
    -26.506  0.1745E+01  0.3539E+01
    -26.373  0.3372E+01  0.3989E+01
    -26.240  0.1701E+01  0.4216E+01
    -26.106  0.1380E+01  0.4400E+01
    -25.973  0.3935E-01  0.4405E+01
    -25.839  0.1518E+01  0.4608E+01
    -25.706  0.2095E+01  0.4887E+01
    -25.572  0.2394E+01  0.5207E+01
    -25.439  0.1061E+01  0.5348E+01
    -25.305  0.1357E+01  0.5530E+01
    -25.172  0.5276E+00  0.5600E+01
    -25.038  0.3891E-04  0.5600E+01
    -24.905  0.0000E+00  0.5600E+01
    -24.772  0.0000E+00  0.5600E+01
    -24.638  0.0000E+00  0.5600E+01
    -24.505  0.0000E+00  0.5600E+01
    -24.371  0.0000E+00  0.5600E+01
    -24.238  0.0000E+00  0.5600E+01
    -24.104  0.0000E+00  0.5600E+01
    -23.971  0.0000E+00  0.5600E+01
    -23.837  0.0000E+00  0.5600E+01
    -23.704  0.0000E+00  0.5600E+01
    -23.570  0.0000E+00  0.5600E+01
    -23.437  0.0000E+00  0.5600E+01
    -23.303  0.0000E+00  0.5600E+01
    -23.170  0.0000E+00  0.5600E+01
    -23.037  0.0000E+00  0.5600E+01
    -22.903  0.0000E+00  0.5600E+01
    -22.770  0.0000E+00  0.5600E+01
    -22.636  0.1745E-09  0.5600E+01
    -22.503  0.1095E-01  0.5601E+01
    -22.369  0.2566E+01  0.5944E+01
    -22.236  0.4197E+00  0.6000E+01
    -22.102  0.1902E-05  0.6000E+01
    -21.969  0.0000E+00  0.6000E+01
    -21.835  0.0000E+00  0.6000E+01
    -21.702  0.0000E+00  0.6000E+01
    -21.568  0.0000E+00  0.6000E+01
    -21.435  0.0000E+00  0.6000E+01
    -21.302  0.0000E+00  0.6000E+01
    -21.168  0.0000E+00  0.6000E+01
    -21.035  0.0000E+00  0.6000E+01
    -20.901  0.0000E+00  0.6000E+01
    -20.768  0.0000E+00  0.6000E+01
    -20.634  0.0000E+00  0.6000E+01
    -20.501  0.0000E+00  0.6000E+01
    -20.367  0.0000E+00  0.6000E+01
    -20.234  0.0000E+00  0.6000E+01
    -20.100  0.2945E-06  0.6000E+01
    -19.967  0.7937E-01  0.6011E+01
    -19.833  0.1752E+01  0.6244E+01
    -19.700  0.1003E+01  0.6378E+01
    -19.567  0.1122E+01  0.6528E+01
    -19.433  0.1554E+01  0.6735E+01
    -19.300  0.6712E+00  0.6825E+01
    -19.166  0.2411E-02  0.6825E+01
    -19.033  0.9051E+00  0.6946E+01
    -18.899  0.6794E+00  0.7037E+01
    -18.766  0.2535E+00  0.7071E+01
    -18.632  0.9657E+00  0.7199E+01
    -18.499  0.2839E+00  0.7237E+01
    -18.365  0.2159E+01  0.7525E+01
    -18.232  0.3712E+00  0.7575E+01
    -18.099  0.2935E+00  0.7614E+01
    -17.965  0.2815E+01  0.7990E+01
    -17.832  0.2141E+01  0.8276E+01
    -17.698  0.1354E+01  0.8456E+01
    -17.565  0.1679E+01  0.8680E+01
    -17.431  0.7211E+00  0.8777E+01
    -17.298  0.8456E+00  0.8889E+01
    -17.164  0.7961E-01  0.8900E+01
    -17.031  0.8254E+00  0.9010E+01
    -16.897  0.1053E+01  0.9151E+01
    -16.764  0.5708E+00  0.9227E+01
    -16.630  0.1237E+01  0.9392E+01
    -16.497  0.2302E+01  0.9699E+01
    -16.364  0.5675E+00  0.9775E+01
    -16.230  0.2042E-04  0.9775E+01
    -16.097  0.2421E-01  0.9778E+01
    -15.963  0.1069E+01  0.9921E+01
    -15.830  0.1510E+01  0.1012E+02
    -15.696  0.1152E+01  0.1028E+02
    -15.563  0.1929E+00  0.1030E+02
    -15.429  0.1729E+01  0.1053E+02
    -15.296  0.9153E+00  0.1065E+02
    -15.162  0.8982E+00  0.1077E+02
    -15.029  0.5700E-02  0.1078E+02
    -14.895  0.1376E+01  0.1096E+02
    -14.762  0.3061E+00  0.1100E+02
    -14.629  0.6438E+00  0.1109E+02
    -14.495  0.8200E+00  0.1120E+02
    -14.362  0.1665E+00  0.1122E+02
    -14.228  0.1134E+00  0.1123E+02
    -14.095  0.1050E+01  0.1137E+02
    -13.961  0.1504E+01  0.1157E+02
    -13.828  0.2767E+01  0.1194E+02
    -13.694  0.1174E+01  0.1210E+02
    -13.561  0.2845E+01  0.1248E+02
    -13.427  0.2072E+01  0.1276E+02
    -13.294  0.2717E+01  0.1312E+02
    -13.161  0.2075E+01  0.1340E+02
    -13.027  0.1700E+01  0.1362E+02
    -12.894  0.6457E-01  0.1363E+02
    -12.760  0.1998E+01  0.1390E+02
    -12.627  0.2073E+00  0.1392E+02
    -12.493  0.6071E-03  0.1393E+02
    -12.360  0.4284E+00  0.1398E+02
    -12.226  0.1031E+01  0.1412E+02
    -12.093  0.1032E+01  0.1426E+02
    -11.959  0.1618E+01  0.1447E+02
    -11.826  0.3523E+01  0.1494E+02
    -11.692  0.6094E+00  0.1502E+02
    -11.559  0.3908E-01  0.1503E+02
    -11.426  0.2368E+01  0.1535E+02
    -11.292  0.2285E+01  0.1565E+02
    -11.159  0.2037E+01  0.1592E+02
    -11.025  0.1291E+01  0.1610E+02
    -10.892  0.3481E+01  0.1656E+02
    -10.758  0.4179E+01  0.1712E+02
    -10.625  0.1557E+01  0.1733E+02
    -10.491  0.1384E+01  0.1751E+02
    -10.358  0.2789E+01  0.1788E+02
    -10.224  0.8798E+00  0.1800E+02
    -10.091  0.1179E-02  0.1800E+02
     -9.957  0.1144E-05  0.1800E+02
     -9.824  0.1974E+00  0.1803E+02
     -9.691  0.2567E+01  0.1837E+02
     -9.557  0.3044E+01  0.1878E+02
     -9.424  0.1860E+00  0.1880E+02
     -9.290  0.8741E-05  0.1880E+02
     -9.157  0.2025E+00  0.1883E+02
     -9.023  0.9191E+00  0.1895E+02
     -8.890  0.3828E+00  0.1900E+02
     -8.756  0.1480E+01  0.1920E+02
     -8.623  0.1322E-01  0.1920E+02
     -8.489  0.4211E+00  0.1926E+02
     -8.356  0.9726E+00  0.1939E+02
     -8.222  0.2125E+01  0.1967E+02
     -8.089  0.2902E+01  0.2006E+02
     -7.956  0.1659E+01  0.2028E+02
     -7.822  0.1370E+01  0.2046E+02
     -7.689  0.2827E+01  0.2084E+02
     -7.555  0.4450E+01  0.2143E+02
     -7.422  0.3103E+01  0.2185E+02
     -7.288  0.4056E+01  0.2239E+02
     -7.155  0.6293E+01  0.2323E+02
     -7.021  0.6874E+01  0.2415E+02
     -6.888  0.5697E+01  0.2491E+02
     -6.754  0.7649E+01  0.2593E+02
     -6.621  0.3239E+01  0.2636E+02
     -6.488  0.3520E+01  0.2683E+02
     -6.354  0.5312E+01  0.2754E+02
     -6.221  0.2493E+01  0.2787E+02
     -6.087  0.2264E+01  0.2817E+02
     -5.954  0.4593E+01  0.2879E+02
     -5.820  0.4777E+01  0.2942E+02
     -5.687  0.6028E+01  0.3023E+02
     -5.553  0.5340E+01  0.3094E+02
     -5.420  0.3228E+01  0.3137E+02
     -5.286  0.5063E+01  0.3205E+02
     -5.153  0.4578E+01  0.3266E+02
     -5.019  0.4497E+01  0.3326E+02
     -4.886  0.4397E+01  0.3384E+02
     -4.753  0.9954E+01  0.3517E+02
     -4.619  0.6255E+01  0.3601E+02
     -4.486  0.7161E+01  0.3696E+02
     -4.352  0.5990E+01  0.3776E+02
     -4.219  0.9252E+01  0.3900E+02
     -4.085  0.1453E+02  0.4094E+02
     -3.952  0.1049E+02  0.4234E+02
     -3.818  0.9742E+01  0.4364E+02
     -3.685  0.1534E+02  0.4568E+02
     -3.551  0.1982E+02  0.4833E+02
     -3.418  0.1816E+02  0.5075E+02
     -3.284  0.1966E+02  0.5338E+02
     -3.151  0.2214E+02  0.5633E+02
     -3.018  0.2442E+02  0.5959E+02
     -2.884  0.2629E+02  0.6310E+02
     -2.751  0.2458E+02  0.6638E+02
     -2.617  0.2609E+02  0.6986E+02
     -2.484  0.2557E+02  0.7327E+02
     -2.350  0.2205E+02  0.7622E+02
     -2.217  0.3044E+02  0.8028E+02
     -2.083  0.3035E+02  0.8433E+02
     -1.950  0.3295E+02  0.8873E+02
     -1.816  0.4091E+02  0.9419E+02
     -1.683  0.4637E+02  0.1004E+03
     -1.550  0.4630E+02  0.1066E+03
     -1.416  0.3990E+02  0.1119E+03
     -1.283  0.3322E+02  0.1163E+03
     -1.149  0.3596E+02  0.1211E+03
     -1.016  0.2910E+02  0.1250E+03
     -0.882  0.3608E+02  0.1298E+03
     -0.749  0.3671E+02  0.1347E+03
     -0.615  0.3406E+02  0.1393E+03
     -0.482  0.4221E+02  0.1449E+03
     -0.348  0.4010E+02  0.1502E+03
     -0.215  0.4451E+02  0.1562E+03
     -0.081  0.6312E+02  0.1646E+03
      0.052  0.3948E+02  0.1699E+03
      0.185  0.1086E+02  0.1713E+03
      0.319  0.9015E+01  0.1725E+03
      0.452  0.1133E+02  0.1740E+03
      0.586  0.7727E+01  0.1751E+03
      0.719  0.4195E+01  0.1756E+03
      0.853  0.5317E+01  0.1763E+03
      0.986  0.8021E+01  0.1774E+03
      1.120  0.5935E+01  0.1782E+03
      1.253  0.6307E+01  0.1790E+03
      1.387  0.7234E+01  0.1800E+03
      1.520  0.6142E+01  0.1808E+03
      1.654  0.4445E+01  0.1814E+03
      1.787  0.9075E+01  0.1826E+03
      1.920  0.6739E+01  0.1835E+03
      2.054  0.4771E+01  0.1842E+03
      2.187  0.6227E+01  0.1850E+03
      2.321  0.3429E+01  0.1855E+03
      2.454  0.5130E+01  0.1861E+03
      2.588  0.4774E+01  0.1868E+03
      2.721  0.4798E+01  0.1874E+03
      2.855  0.7084E+01  0.1884E+03
      2.988  0.3765E+01  0.1889E+03
      3.122  0.5937E+01  0.1897E+03
      3.255  0.3732E+01  0.1902E+03
      3.389  0.5440E+01  0.1909E+03
      3.522  0.7421E+01  0.1919E+03
      3.655  0.4426E+01  0.1925E+03
      3.789  0.2719E+01  0.1928E+03
      3.922  0.4045E+01  0.1934E+03
      4.056  0.5031E+01  0.1940E+03
      4.189  0.5203E+01  0.1947E+03
      4.323  0.1064E+01  0.1949E+03
      4.456  0.1033E+01  0.1950E+03
      4.590  0.4377E+01  0.1956E+03
      4.723  0.1904E+01  0.1959E+03
      4.857  0.3070E+01  0.1963E+03
      4.990  0.5234E+01  0.1970E+03
      5.123  0.1461E+01  0.1972E+03
      5.257  0.3431E+00  0.1972E+03
      5.390  0.2873E-02  0.1972E+03
      5.524  0.1070E-09  0.1972E+03
      5.657  0.0000E+00  0.1972E+03
      5.791  0.0000E+00  0.1972E+03
      5.924  0.0000E+00  0.1972E+03
      6.058  0.0000E+00  0.1972E+03
      6.191  0.0000E+00  0.1972E+03
      6.325  0.0000E+00  0.1972E+03
      6.458  0.0000E+00  0.1972E+03
      6.592  0.0000E+00  0.1972E+03
      6.725  0.0000E+00  0.1972E+03
      6.858  0.0000E+00  0.1972E+03
      6.992  0.0000E+00  0.1972E+03
