  380  380   20    1
  0.1965819E+02  0.1514622E-08  0.1514622E-08  0.3760000E-08  0.2000000E-15
   1.0000000000000000E-004
  CAR 
 NiAl                                    
   3288      2   1972
 
  0.1262379E-14  0.1262379E-14  0.1262379E-14  0.2500000E+00
    1      -31.226115   1.000000
    2      -30.926268   1.000000
    3      -30.926268   1.000000
    4      -30.926218   1.000000
    5      -30.500873   1.000000
    6      -30.500757   1.000000
    7      -30.500757   1.000000
    8      -29.714467   1.000000
    9      -29.714467   1.000000
   10      -29.714426   1.000000
   11      -29.501127   1.000000
   12      -29.501037   1.000000
   13      -29.429197   1.000000
   14      -29.133559   1.000000
   15      -29.133559   1.000000
   16      -29.133484   1.000000
   17      -28.857112   1.000000
   18      -28.857045   1.000000
   19      -28.113030   1.000000
   20      -28.113008   1.000000
   21      -28.113008   1.000000
   22      -27.871194   1.000000
   23      -27.871181   1.000000
   24      -27.871181   1.000000
   25      -27.664822   1.000000
   26      -27.664810   1.000000
   27      -27.664810   1.000000
   28      -27.649809   1.000000
   29      -27.649787   1.000000
   30      -27.649787   1.000000
   31      -27.288694   1.000000
   32      -26.785112   1.000000
   33      -26.492246   1.000000
   34      -26.492182   1.000000
   35      -26.492182   1.000000
   36      -26.488044   1.000000
   37      -26.487982   1.000000
   38      -26.417387   1.000000
   39      -26.417387   1.000000
   40      -26.417300   1.000000
   41      -26.317975   1.000000
   42      -26.317975   1.000000
   43      -26.317963   1.000000
   44      -26.223059   1.000000
   45      -25.920181   1.000000
   46      -25.920181   1.000000
   47      -25.920174   1.000000
   48      -25.726492   1.000000
   49      -25.625654   1.000000
   50      -25.625629   1.000000
   51      -25.623247   1.000000
   52      -25.623247   1.000000
   53      -25.623212   1.000000
   54      -25.350431   1.000000
   55      -25.350413   1.000000
   56      -25.350413   1.000000
   57      -22.414081   1.000000
   58      -22.405306   1.000000
   59      -22.405305   1.000000
   60      -22.405305   1.000000
   61      -19.927808   1.000000
   62      -19.927808   1.000000
   63      -19.927784   1.000000
   64      -19.548726   1.000000
   65      -19.487532   1.000000
   66      -19.487532   1.000000
   67      -19.487520   1.000000
   68      -19.408798   1.000000
   69      -19.408791   1.000000
   70      -18.932111   1.000000
   71      -18.932037   1.000000
   72      -18.932037   1.000000
   73      -18.453055   1.000000
   74      -18.453039   1.000000
   75      -18.453039   1.000000
   76      -18.030226   1.000000
   77      -18.030226   1.000000
   78      -18.030122   1.000000
   79      -18.013348   1.000000
   80      -18.013213   1.000000
   81      -17.769951   1.000000
   82      -17.769841   1.000000
   83      -17.756508   1.000000
   84      -17.756354   1.000000
   85      -17.756354   1.000000
   86      -17.737900   1.000000
   87      -17.417780   1.000000
   88      -17.417780   1.000000
   89      -17.417740   1.000000
   90      -17.336039   1.000000
   91      -17.336039   1.000000
   92      -17.335953   1.000000
   93      -16.529128   1.000000
   94      -16.529108   1.000000
   95      -16.506176   1.000000
   96      -16.506176   1.000000
   97      -16.506156   1.000000
   98      -15.892232   1.000000
   99      -15.892200   1.000000
  100      -15.892200   1.000000
  101      -15.778199   1.000000
  102      -15.778185   1.000000
  103      -15.778185   1.000000
  104      -15.714183   1.000000
  105      -15.714141   1.000000
  106      -15.714141   1.000000
  107      -15.504303   1.000000
  108      -14.933471   1.000000
  109      -14.933455   1.000000
  110      -14.933455   1.000000
  111      -14.541997   1.000000
  112      -14.541993   1.000000
  113      -14.380642   1.000000
  114      -13.930603   1.000000
  115      -13.930603   1.000000
  116      -13.930574   1.000000
  117      -13.908285   1.000000
  118      -13.881354   1.000000
  119      -13.881354   1.000000
  120      -13.881293   1.000000
  121      -13.733666   1.000000
  122      -13.721523   1.000000
  123      -13.721479   1.000000
  124      -13.721479   1.000000
  125      -13.598630   1.000000
  126      -13.598421   1.000000
  127      -13.548124   1.000000
  128      -13.548095   1.000000
  129      -13.277881   1.000000
  130      -13.277881   1.000000
  131      -13.277705   1.000000
  132      -13.178892   1.000000
  133      -13.178892   1.000000
  134      -13.178737   1.000000
  135      -13.138453   1.000000
  136      -13.138453   1.000000
  137      -13.138386   1.000000
  138      -12.384912   1.000000
  139      -12.384667   1.000000
  140      -12.384667   1.000000
  141      -12.146724   1.000000
  142      -12.146411   1.000000
  143      -12.146411   1.000000
  144      -12.091794   1.000000
  145      -12.091678   1.000000
  146      -12.091678   1.000000
  147      -11.931144   1.000000
  148      -11.931144   1.000000
  149      -11.930903   1.000000
  150      -11.890196   1.000000
  151      -11.890056   1.000000
  152      -11.523484   1.000000
  153      -11.477750   1.000000
  154      -11.477502   1.000000
  155      -11.477502   1.000000
  156      -11.401750   1.000000
  157      -11.401580   1.000000
  158      -11.401580   1.000000
  159      -11.123717   1.000000
  160      -11.068792   1.000000
  161      -11.068722   1.000000
  162      -11.068722   1.000000
  163      -10.988799   1.000000
  164      -10.988777   1.000000
  165      -10.988777   1.000000
  166      -10.875700   1.000000
  167      -10.875700   1.000000
  168      -10.875617   1.000000
  169      -10.765521   1.000000
  170      -10.765384   1.000000
  171      -10.716117   1.000000
  172      -10.543047   1.000000
  173      -10.543032   1.000000
  174      -10.543032   1.000000
  175      -10.535065   1.000000
  176      -10.464963   1.000000
  177      -10.464888   1.000000
  178      -10.418455   1.000000
  179      -10.418455   1.000000
  180      -10.418378   1.000000
  181       -9.705326   1.000000
  182       -9.705326   1.000000
  183       -9.705242   1.000000
  184       -9.658134   1.000000
  185       -9.658050   1.000000
  186       -9.658050   1.000000
  187       -9.569237   1.000000
  188       -9.569146   1.000000
  189       -8.890270   1.000000
  190       -8.890270   1.000000
  191       -8.890174   1.000000
  192       -8.836803   1.000000
  193       -8.441760   1.000000
  194       -8.285629   1.000000
  195       -8.285629   1.000000
  196       -8.285026   1.000000
  197       -8.232946   1.000000
  198       -8.216815   1.000000
  199       -8.216815   1.000000
  200       -8.216782   1.000000
  201       -8.120345   1.000000
  202       -8.120345   1.000000
  203       -8.120272   1.000000
  204       -7.890241   1.000000
  205       -7.755728   1.000000
  206       -7.755624   1.000000
  207       -7.755624   1.000000
  208       -7.647573   1.000000
  209       -7.647510   1.000000
  210       -7.647510   1.000000
  211       -7.612206   1.000000
  212       -7.612191   1.000000
  213       -7.612191   1.000000
  214       -7.560133   1.000000
  215       -7.560130   1.000000
  216       -7.560130   1.000000
  217       -7.467617   1.000000
  218       -7.412638   1.000000
  219       -7.412600   1.000000
  220       -7.344247   1.000000
  221       -7.344154   1.000000
  222       -7.344154   1.000000
  223       -7.271811   1.000000
  224       -7.271378   1.000000
  225       -7.243637   1.000000
  226       -7.203336   1.000000
  227       -7.203336   1.000000
  228       -7.203274   1.000000
  229       -7.199846   1.000000
  230       -7.199463   1.000000
  231       -7.198522   1.000000
  232       -7.198455   1.000000
  233       -7.198455   1.000000
  234       -7.183029   1.000000
  235       -7.117866   1.000000
  236       -7.117780   1.000000
  237       -7.117780   1.000000
  238       -7.037309   1.000000
  239       -7.024313   1.000000
  240       -7.024313   1.000000
  241       -7.023639   1.000000
  242       -7.007871   1.000000
  243       -7.007854   1.000000
  244       -7.007854   1.000000
  245       -6.979281   1.000000
  246       -6.979102   1.000000
  247       -6.955979   1.000000
  248       -6.955905   1.000000
  249       -6.955905   1.000000
  250       -6.916016   1.000000
  251       -6.893430   1.000000
  252       -6.892978   1.000000
  253       -6.892978   1.000000
  254       -6.867393   1.000000
  255       -6.867289   1.000000
  256       -6.867289   1.000000
  257       -6.812656   1.000000
  258       -6.812656   1.000000
  259       -6.812644   1.000000
  260       -6.790415   1.000000
  261       -6.722220   1.000000
  262       -6.722220   1.000000
  263       -6.722163   1.000000
  264       -6.658195   1.000000
  265       -6.657825   1.000000
  266       -6.572721   1.000000
  267       -6.563947   1.000000
  268       -6.563947   1.000000
  269       -6.563941   1.000000
  270       -6.559925   1.000000
  271       -6.472596   1.000000
  272       -6.472536   1.000000
  273       -6.472536   1.000000
  274       -6.346973   1.000000
  275       -6.346588   1.000000
  276       -6.332012   1.000000
  277       -6.332002   1.000000
  278       -6.332002   1.000000
  279       -6.245142   1.000000
  280       -6.245077   1.000000
  281       -6.245077   1.000000
  282       -6.152459   1.000000
  283       -6.120224   1.000000
  284       -6.119760   1.000000
  285       -6.119760   1.000000
  286       -6.083281   1.000000
  287       -6.083281   1.000000
  288       -6.083179   1.000000
  289       -5.921637   1.000000
  290       -5.921637   1.000000
  291       -5.921620   1.000000
  292       -5.855133   1.000000
  293       -5.854530   1.000000
  294       -5.768452   1.000000
  295       -5.768452   1.000000
  296       -5.768223   1.000000
  297       -5.657741   1.000000
  298       -5.657741   1.000000
  299       -5.657558   1.000000
  300       -5.640451   1.000000
  301       -5.640451   1.000000
  302       -5.640272   1.000000
  303       -5.595692   1.000000
  304       -5.582141   1.000000
  305       -5.581789   1.000000
  306       -5.469985   1.000000
  307       -5.469964   1.000000
  308       -5.469964   1.000000
  309       -5.416601   1.000000
  310       -5.416601   1.000000
  311       -5.416575   1.000000
  312       -5.406991   1.000000
  313       -5.406991   1.000000
  314       -5.406968   1.000000
  315       -5.359782   1.000000
  316       -5.359764   1.000000
  317       -5.352070   1.000000
  318       -5.349432   1.000000
  319       -5.349416   1.000000
  320       -5.349416   1.000000
  321       -5.312322   1.000000
  322       -5.266032   1.000000
  323       -5.265796   1.000000
  324       -5.255317   1.000000
  325       -5.214843   1.000000
  326       -5.214776   1.000000
  327       -5.214776   1.000000
  328       -5.135429   1.000000
  329       -5.135388   1.000000
  330       -5.135388   1.000000
  331       -5.055216   1.000000
  332       -5.055012   1.000000
  333       -5.055012   1.000000
  334       -5.002620   1.000000
  335       -5.002526   1.000000
  336       -4.941941   1.000000
  337       -4.941868   1.000000
  338       -4.941868   1.000000
  339       -4.876176   1.000000
  340       -4.874461   1.000000
  341       -4.874461   1.000000
  342       -4.874435   1.000000
  343       -4.852998   1.000000
  344       -4.852996   1.000000
  345       -4.846687   1.000000
  346       -4.831915   1.000000
  347       -4.831903   1.000000
  348       -4.830510   1.000000
  349       -4.830510   1.000000
  350       -4.830378   1.000000
  351       -4.812512   1.000000
  352       -4.752547   1.000000
  353       -4.752256   1.000000
  354       -4.752256   1.000000
  355       -4.728462   1.000000
  356       -4.728462   1.000000
  357       -4.728453   1.000000
  358       -4.604370   1.000000
  359       -4.575486   1.000000
  360       -4.575486   1.000000
  361       -4.575472   1.000000
  362       -4.538065   1.000000
  363       -4.538065   1.000000
  364       -4.537844   1.000000
  365       -4.528203   1.000000
  366       -4.528195   1.000000
  367       -4.528153   1.000000
  368       -4.517334   1.000000
  369       -4.517317   1.000000
  370       -4.502968   1.000000
  371       -4.502915   1.000000
  372       -4.502915   1.000000
  373       -4.473024   1.000000
  374       -4.457650   1.000000
  375       -4.457628   1.000000
  376       -4.457628   1.000000
  377       -4.428531   1.000000
  378       -4.428242   1.000000
  379       -4.428242   1.000000
  380       -4.302862   1.000000
  381       -4.302702   1.000000
  382       -4.302702   1.000000
  383       -4.268713   1.000000
  384       -4.268232   1.000000
  385       -4.259331   1.000000
  386       -4.259098   1.000000
  387       -4.259098   1.000000
  388       -4.258740   1.000000
  389       -4.207543   1.000000
  390       -4.207505   1.000000
  391       -4.207505   1.000000
  392       -4.200846   1.000000
  393       -4.200846   1.000000
  394       -4.200838   1.000000
  395       -4.188595   1.000000
  396       -4.188575   1.000000
  397       -4.188575   1.000000
  398       -4.102333   1.000000
  399       -4.102313   1.000000
  400       -4.102313   1.000000
  401       -4.092420   1.000000
  402       -4.092415   1.000000
  403       -4.090000   1.000000
  404       -4.090000   1.000000
  405       -4.089999   1.000000
  406       -4.081835   1.000000
  407       -4.081362   1.000000
  408       -4.081257   1.000000
  409       -4.081257   1.000000
  410       -4.066347   1.000000
  411       -4.066336   1.000000
  412       -4.033243   1.000000
  413       -4.033243   1.000000
  414       -4.033240   1.000000
  415       -4.029120   1.000000
  416       -4.007759   1.000000
  417       -4.007754   1.000000
  418       -4.007754   1.000000
  419       -4.006538   1.000000
  420       -3.978644   1.000000
  421       -3.978635   1.000000
  422       -3.978635   1.000000
  423       -3.953730   1.000000
  424       -3.953704   1.000000
  425       -3.953704   1.000000
  426       -3.883447   1.000000
  427       -3.883400   1.000000
  428       -3.858320   1.000000
  429       -3.858306   1.000000
  430       -3.858306   1.000000
  431       -3.839491   1.000000
  432       -3.839491   1.000000
  433       -3.839491   1.000000
  434       -3.823391   1.000000
  435       -3.823391   1.000000
  436       -3.823357   1.000000
  437       -3.801724   1.000000
  438       -3.801724   1.000000
  439       -3.801715   1.000000
  440       -3.798046   1.000000
  441       -3.798046   1.000000
  442       -3.797992   1.000000
  443       -3.759938   1.000000
  444       -3.759938   1.000000
  445       -3.759827   1.000000
  446       -3.715293   1.000000
  447       -3.715293   1.000000
  448       -3.715256   1.000000
  449       -3.712026   1.000000
  450       -3.712001   1.000000
  451       -3.712001   1.000000
  452       -3.710555   1.000000
  453       -3.710503   1.000000
  454       -3.683920   1.000000
  455       -3.683845   1.000000
  456       -3.672577   1.000000
  457       -3.665672   1.000000
  458       -3.665672   1.000000
  459       -3.665595   1.000000
  460       -3.649984   1.000000
  461       -3.649984   1.000000
  462       -3.649925   1.000000
  463       -3.647196   1.000000
  464       -3.647196   1.000000
  465       -3.647146   1.000000
  466       -3.632235   1.000000
  467       -3.626446   1.000000
  468       -3.626446   1.000000
  469       -3.625859   1.000000
  470       -3.613842   1.000000
  471       -3.613842   1.000000
  472       -3.613746   1.000000
  473       -3.589024   1.000000
  474       -3.588989   1.000000
  475       -3.588989   1.000000
  476       -3.579815   1.000000
  477       -3.579764   1.000000
  478       -3.579764   1.000000
  479       -3.576970   1.000000
  480       -3.576925   1.000000
  481       -3.576925   1.000000
  482       -3.571433   1.000000
  483       -3.571378   1.000000
  484       -3.571378   1.000000
  485       -3.560253   1.000000
  486       -3.560253   1.000000
  487       -3.560175   1.000000
  488       -3.542410   1.000000
  489       -3.542410   1.000000
  490       -3.542324   1.000000
  491       -3.540506   1.000000
  492       -3.540506   1.000000
  493       -3.540437   1.000000
  494       -3.525577   1.000000
  495       -3.525577   1.000000
  496       -3.525415   1.000000
  497       -3.485535   1.000000
  498       -3.485499   1.000000
  499       -3.485499   1.000000
  500       -3.463527   1.000000
  501       -3.463478   1.000000
  502       -3.463478   1.000000
  503       -3.459681   1.000000
  504       -3.439108   1.000000
  505       -3.439058   1.000000
  506       -3.439058   1.000000
  507       -3.433942   1.000000
  508       -3.433896   1.000000
  509       -3.433896   1.000000
  510       -3.406167   1.000000
  511       -3.406082   1.000000
  512       -3.396558   1.000000
  513       -3.396483   1.000000
  514       -3.392214   1.000000
  515       -3.383507   1.000000
  516       -3.383479   1.000000
  517       -3.383479   1.000000
  518       -3.374822   1.000000
  519       -3.374780   1.000000
  520       -3.374780   1.000000
  521       -3.370064   1.000000
  522       -3.370035   1.000000
  523       -3.370035   1.000000
  524       -3.366596   1.000000
  525       -3.354169   1.000000
  526       -3.354167   1.000000
  527       -3.354167   1.000000
  528       -3.347852   1.000000
  529       -3.347852   1.000000
  530       -3.347721   1.000000
  531       -3.344994   1.000000
  532       -3.344925   1.000000
  533       -3.315816   1.000000
  534       -3.302208   1.000000
  535       -3.302122   1.000000
  536       -3.302122   1.000000
  537       -3.290719   1.000000
  538       -3.290567   1.000000
  539       -3.290567   1.000000
  540       -3.279464   1.000000
  541       -3.279251   1.000000
  542       -3.279251   1.000000
  543       -3.256731   1.000000
  544       -3.256383   1.000000
  545       -3.256383   1.000000
  546       -3.252235   1.000000
  547       -3.252156   1.000000
  548       -3.235007   1.000000
  549       -3.234933   1.000000
  550       -3.234933   1.000000
  551       -3.227100   1.000000
  552       -3.226785   1.000000
  553       -3.226725   1.000000
  554       -3.220227   1.000000
  555       -3.220227   1.000000
  556       -3.220189   1.000000
  557       -3.215812   1.000000
  558       -3.215812   1.000000
  559       -3.215807   1.000000
  560       -3.208482   1.000000
  561       -3.208482   1.000000
  562       -3.208464   1.000000
  563       -3.200148   1.000000
  564       -3.199754   1.000000
  565       -3.199734   1.000000
  566       -3.180102   1.000000
  567       -3.180102   1.000000
  568       -3.179994   1.000000
  569       -3.148270   1.000000
  570       -3.148216   1.000000
  571       -3.148216   1.000000
  572       -3.133764   1.000000
  573       -3.133764   1.000000
  574       -3.133764   1.000000
  575       -3.123730   1.000000
  576       -3.123721   1.000000
  577       -3.112768   1.000000
  578       -3.112758   1.000000
  579       -3.112758   1.000000
  580       -3.071137   1.000000
  581       -3.071005   1.000000
  582       -3.064670   1.000000
  583       -3.064670   1.000000
  584       -3.064647   1.000000
  585       -3.061536   1.000000
  586       -3.061363   1.000000
  587       -3.045866   1.000000
  588       -3.032494   1.000000
  589       -3.024433   1.000000
  590       -3.024433   1.000000
  591       -3.024381   1.000000
  592       -2.983761   1.000000
  593       -2.983722   1.000000
  594       -2.983722   1.000000
  595       -2.976318   1.000000
  596       -2.976258   1.000000
  597       -2.976243   1.000000
  598       -2.976221   1.000000
  599       -2.976221   1.000000
  600       -2.967196   1.000000
  601       -2.967150   1.000000
  602       -2.967150   1.000000
  603       -2.967082   1.000000
  604       -2.967010   1.000000
  605       -2.967010   1.000000
  606       -2.957582   1.000000
  607       -2.957496   1.000000
  608       -2.954017   1.000000
  609       -2.953952   1.000000
  610       -2.953952   1.000000
  611       -2.953186   1.000000
  612       -2.940802   1.000000
  613       -2.940702   1.000000
  614       -2.940702   1.000000
  615       -2.936589   1.000000
  616       -2.936503   1.000000
  617       -2.936503   1.000000
  618       -2.934280   1.000000
  619       -2.919874   1.000000
  620       -2.919775   1.000000
  621       -2.919775   1.000000
  622       -2.891792   1.000000
  623       -2.891728   1.000000
  624       -2.891728   1.000000
  625       -2.881798   1.000000
  626       -2.881796   1.000000
  627       -2.881796   1.000000
  628       -2.877714   1.000000
  629       -2.877642   1.000000
  630       -2.865483   1.000000
  631       -2.865400   1.000000
  632       -2.865400   1.000000
  633       -2.864253   1.000000
  634       -2.864187   1.000000
  635       -2.864187   1.000000
  636       -2.855461   1.000000
  637       -2.855409   1.000000
  638       -2.855409   1.000000
  639       -2.844225   1.000000
  640       -2.843090   1.000000
  641       -2.831579   1.000000
  642       -2.831506   1.000000
  643       -2.825608   1.000000
  644       -2.825442   1.000000
  645       -2.825442   1.000000
  646       -2.815923   1.000000
  647       -2.815869   1.000000
  648       -2.803771   1.000000
  649       -2.803748   1.000000
  650       -2.803748   1.000000
  651       -2.803200   1.000000
  652       -2.803098   1.000000
  653       -2.803098   1.000000
  654       -2.799801   1.000000
  655       -2.795928   1.000000
  656       -2.795928   1.000000
  657       -2.785847   1.000000
  658       -2.785734   1.000000
  659       -2.785734   1.000000
  660       -2.781424   1.000000
  661       -2.778479   1.000000
  662       -2.778346   1.000000
  663       -2.778344   1.000000
  664       -2.778344   1.000000
  665       -2.760851   1.000000
  666       -2.760800   1.000000
  667       -2.760800   1.000000
  668       -2.746521   1.000000
  669       -2.741597   1.000000
  670       -2.713048   1.000000
  671       -2.712978   1.000000
  672       -2.712978   1.000000
  673       -2.705465   1.000000
  674       -2.705355   1.000000
  675       -2.705355   1.000000
  676       -2.695175   1.000000
  677       -2.695112   1.000000
  678       -2.695112   1.000000
  679       -2.687064   1.000000
  680       -2.686991   1.000000
  681       -2.686991   1.000000
  682       -2.685772   1.000000
  683       -2.685740   1.000000
  684       -2.642194   1.000000
  685       -2.642117   1.000000
  686       -2.641468   1.000000
  687       -2.641408   1.000000
  688       -2.641408   1.000000
  689       -2.640897   1.000000
  690       -2.640888   1.000000
  691       -2.640888   1.000000
  692       -2.640122   1.000000
  693       -2.639517   1.000000
  694       -2.627308   1.000000
  695       -2.627307   1.000000
  696       -2.625048   1.000000
  697       -2.625047   1.000000
  698       -2.625047   1.000000
  699       -2.612336   1.000000
  700       -2.612216   1.000000
  701       -2.608196   1.000000
  702       -2.608176   1.000000
  703       -2.608176   1.000000
  704       -2.601497   1.000000
  705       -2.601425   1.000000
  706       -2.601425   1.000000
  707       -2.595504   1.000000
  708       -2.595449   1.000000
  709       -2.595449   1.000000
  710       -2.588241   1.000000
  711       -2.588199   1.000000
  712       -2.572128   1.000000
  713       -2.561217   1.000000
  714       -2.556279   1.000000
  715       -2.556278   1.000000
  716       -2.550126   1.000000
  717       -2.550126   1.000000
  718       -2.540601   1.000000
  719       -2.540539   1.000000
  720       -2.540539   1.000000
  721       -2.526479   1.000000
  722       -2.526479   1.000000
  723       -2.526421   1.000000
  724       -2.524968   1.000000
  725       -2.514064   1.000000
  726       -2.514045   1.000000
  727       -2.514045   1.000000
  728       -2.499788   1.000000
  729       -2.499788   1.000000
  730       -2.499713   1.000000
  731       -2.480341   1.000000
  732       -2.480225   1.000000
  733       -2.480225   1.000000
  734       -2.474462   1.000000
  735       -2.474354   1.000000
  736       -2.474354   1.000000
  737       -2.453502   1.000000
  738       -2.453502   1.000000
  739       -2.453488   1.000000
  740       -2.445898   1.000000
  741       -2.445898   1.000000
  742       -2.445890   1.000000
  743       -2.440584   1.000000
  744       -2.440584   1.000000
  745       -2.440582   1.000000
  746       -2.434045   1.000000
  747       -2.434045   1.000000
  748       -2.434038   1.000000
  749       -2.414025   1.000000
  750       -2.414025   1.000000
  751       -2.414015   1.000000
  752       -2.380056   1.000000
  753       -2.379967   1.000000
  754       -2.379967   1.000000
  755       -2.376395   1.000000
  756       -2.376334   1.000000
  757       -2.365898   1.000000
  758       -2.365882   1.000000
  759       -2.365882   1.000000
  760       -2.342982   1.000000
  761       -2.342982   1.000000
  762       -2.342895   1.000000
  763       -2.340378   1.000000
  764       -2.340322   1.000000
  765       -2.332852   1.000000
  766       -2.332852   1.000000
  767       -2.332842   1.000000
  768       -2.322767   1.000000
  769       -2.322767   1.000000
  770       -2.322740   1.000000
  771       -2.317932   1.000000
  772       -2.317932   1.000000
  773       -2.317842   1.000000
  774       -2.317543   1.000000
  775       -2.304110   1.000000
  776       -2.303978   1.000000
  777       -2.303978   1.000000
  778       -2.297458   1.000000
  779       -2.296683   1.000000
  780       -2.296579   1.000000
  781       -2.296579   1.000000
  782       -2.268355   1.000000
  783       -2.268295   1.000000
  784       -2.268295   1.000000
  785       -2.262563   1.000000
  786       -2.262498   1.000000
  787       -2.262498   1.000000
  788       -2.261475   1.000000
  789       -2.261439   1.000000
  790       -2.261439   1.000000
  791       -2.261219   1.000000
  792       -2.261154   1.000000
  793       -2.261154   1.000000
  794       -2.258852   1.000000
  795       -2.255147   1.000000
  796       -2.244953   1.000000
  797       -2.244953   1.000000
  798       -2.244940   1.000000
  799       -2.214019   1.000000
  800       -2.214019   1.000000
  801       -2.214005   1.000000
  802       -2.213435   1.000000
  803       -2.213424   1.000000
  804       -2.207244   1.000000
  805       -2.207190   1.000000
  806       -2.207190   1.000000
  807       -2.204809   1.000000
  808       -2.204809   1.000000
  809       -2.204759   1.000000
  810       -2.195987   1.000000
  811       -2.195939   1.000000
  812       -2.195939   1.000000
  813       -2.186958   1.000000
  814       -2.186918   1.000000
  815       -2.181677   1.000000
  816       -2.181637   1.000000
  817       -2.181637   1.000000
  818       -2.181169   1.000000
  819       -2.181169   1.000000
  820       -2.181151   1.000000
  821       -2.162188   1.000000
  822       -2.158488   1.000000
  823       -2.158477   1.000000
  824       -2.154240   1.000000
  825       -2.154234   1.000000
  826       -2.154234   1.000000
  827       -2.117719   1.000000
  828       -2.115853   1.000000
  829       -2.115853   1.000000
  830       -2.115804   1.000000
  831       -2.114035   1.000000
  832       -2.114035   1.000000
  833       -2.113983   1.000000
  834       -2.101518   1.000000
  835       -2.099973   1.000000
  836       -2.099973   1.000000
  837       -2.099917   1.000000
  838       -2.097752   1.000000
  839       -2.097681   1.000000
  840       -2.091541   1.000000
  841       -2.091541   1.000000
  842       -2.091528   1.000000
  843       -2.080756   1.000000
  844       -2.079400   1.000000
  845       -2.079387   1.000000
  846       -2.079387   1.000000
  847       -2.078297   1.000000
  848       -2.078288   1.000000
  849       -2.055608   1.000000
  850       -2.055579   1.000000
  851       -2.055579   1.000000
  852       -2.046795   1.000000
  853       -2.046701   1.000000
  854       -2.046701   1.000000
  855       -2.040709   1.000000
  856       -2.039212   1.000000
  857       -2.039212   1.000000
  858       -2.039175   1.000000
  859       -2.015402   1.000000
  860       -2.015392   1.000000
  861       -2.007573   1.000000
  862       -2.007260   1.000000
  863       -2.006267   1.000000
  864       -2.004246   1.000000
  865       -2.004246   1.000000
  866       -2.004216   1.000000
  867       -2.001061   1.000000
  868       -2.001061   1.000000
  869       -2.001039   1.000000
  870       -1.986104   1.000000
  871       -1.986094   1.000000
  872       -1.984664   1.000000
  873       -1.984664   1.000000
  874       -1.984577   1.000000
  875       -1.980310   1.000000
  876       -1.980310   1.000000
  877       -1.980271   1.000000
  878       -1.977047   1.000000
  879       -1.977043   1.000000
  880       -1.977043   1.000000
  881       -1.975148   1.000000
  882       -1.975148   1.000000
  883       -1.975099   1.000000
  884       -1.961070   1.000000
  885       -1.961070   1.000000
  886       -1.960975   1.000000
  887       -1.960551   1.000000
  888       -1.960524   1.000000
  889       -1.960524   1.000000
  890       -1.958453   1.000000
  891       -1.958453   1.000000
  892       -1.958416   1.000000
  893       -1.951749   1.000000
  894       -1.951715   1.000000
  895       -1.946085   1.000000
  896       -1.946085   1.000000
  897       -1.946004   1.000000
  898       -1.933915   1.000000
  899       -1.933901   1.000000
  900       -1.927910   1.000000
  901       -1.927910   1.000000