 running on    1 total cores
 distrk:  each k-point on    1 cores,    1 groups
 distr:  one band on    1 cores,    1 groups
 OpenACC runtime initialized ...    1 GPUs detected
 vasp.6.2.1 16May21 (build May 12 2022 08:28:04) complex                         
 POSCAR found type information on POSCAR NiO 
 POSCAR found :  2 types and     380 ions
 scaLAPACK will be used selectively (only on CPU)
 LDA part: xc-table for Pade appr. of Perdew
 POSCAR found type information on POSCAR NiO 
 POSCAR found :  2 types and     380 ions
 POSCAR, INCAR and KPOINTS ok, starting setup
 FFT: planning ...
 WAVECAR not read
 entering main loop
       N       E                     dE             d eps       ncg     rms          rms(c)
DAV:   1     0.344958205173E+05    0.34496E+05   -0.12981E+06  7920   0.132E+03
DAV:   2     0.348019143085E+04   -0.31016E+05   -0.29192E+05  8176   0.477E+02
DAV:   3    -0.808920842151E+03   -0.42891E+04   -0.36682E+04 10752   0.176E+02
DAV:   4    -0.161661894136E+04   -0.80770E+03   -0.66416E+03 14376   0.692E+01
DAV:   5    -0.173480633307E+04   -0.11819E+03   -0.97524E+02 14432   0.235E+01    0.515E+02
DAV:   6    -0.216224058076E+04   -0.42743E+03   -0.20735E+03 10288   0.161E+02    0.536E+02
DAV:   7    -0.110523963953E+05   -0.88902E+04   -0.32212E+04 11616   0.334E+02    0.138E+03
DAV:   8    -0.433159853404E+04    0.67208E+04   -0.11217E+04 11568   0.140E+02    0.666E+02
DAV:   9    -0.814574508981E+04   -0.38141E+04   -0.43982E+04 13336   0.355E+02    0.215E+03
DAV:  10    -0.822404506546E+04   -0.78300E+02   -0.14433E+04 12136   0.135E+02    0.112E+03
DAV:  11    -0.122771390484E+05   -0.40531E+04   -0.17124E+05 14728   0.279E+02    0.329E+03
DAV:  12    -0.143441227248E+05   -0.20670E+04   -0.45889E+04 12472   0.244E+02    0.160E+03
DAV:  13    -0.241240584490E+04    0.11932E+05   -0.12731E+05 11752   0.301E+02    0.159E+03
DAV:  14    -0.550440286419E+04   -0.30920E+04   -0.31168E+04 10512   0.188E+02    0.686E+02
DAV:  15    -0.267389487374E+04    0.28305E+04   -0.60938E+03  9496   0.999E+01    0.608E+02
DAV:  16    -0.253200690583E+04    0.14189E+03   -0.43617E+03 13384   0.930E+01    0.350E+02
DAV:  17    -0.228421855091E+04    0.24779E+03   -0.68979E+02 10208   0.632E+01    0.324E+02
DAV:  18    -0.206654895330E+04    0.21767E+03   -0.24551E+02  9552   0.373E+01    0.251E+02
DAV:  19    -0.213980704094E+04   -0.73258E+02   -0.23406E+02 10672   0.616E+01    0.267E+02
DAV:  20    -0.192278931208E+04    0.21702E+03   -0.12792E+02  9736   0.380E+01    0.258E+02
DAV:  21    -0.201659155115E+04   -0.93802E+02   -0.14154E+02  9576   0.558E+01    0.241E+02
DAV:  22    -0.192093297261E+04    0.95659E+02   -0.17168E+02 10752   0.393E+01    0.227E+02
DAV:  23    -0.202117456440E+04   -0.10024E+03   -0.18695E+02  9512   0.604E+01    0.225E+02
DAV:  24    -0.175252001194E+04    0.26865E+03   -0.18839E+02  9328   0.544E+01    0.204E+02
DAV:  25    -0.175501717344E+04   -0.24972E+01   -0.10360E+02  9464   0.408E+01    0.226E+02
DAV:  26    -0.168262879805E+04    0.72388E+02   -0.87335E+01 10328   0.409E+01    0.191E+02
DAV:  27    -0.162636517578E+04    0.56264E+02   -0.72398E+01  8760   0.233E+01    0.155E+02
DAV:  28    -0.161545362062E+04    0.10912E+02   -0.35342E+01  8808   0.179E+01    0.152E+02
DAV:  29    -0.160259783339E+04    0.12856E+02   -0.22483E+01  9408   0.197E+01    0.144E+02
DAV:  30    -0.161612830634E+04   -0.13530E+02   -0.31133E+01  9944   0.238E+01    0.155E+02
DAV:  31    -0.161201082454E+04    0.41175E+01   -0.50125E+01  9520   0.259E+01    0.172E+02
DAV:  32    -0.155882628552E+04    0.53185E+02   -0.32595E+01  9032   0.175E+01    0.136E+02
DAV:  33    -0.154209138644E+04    0.16735E+02   -0.19671E+01  9992   0.134E+01    0.112E+02
DAV:  34    -0.154181648499E+04    0.27490E+00   -0.11003E+01 12520   0.405E+00    0.110E+02
DAV:  35    -0.153134481121E+04    0.10472E+02   -0.27078E+00 12160   0.594E+00    0.102E+02
DAV:  36    -0.154619598575E+04   -0.14851E+02   -0.86721E+00 11088   0.141E+01    0.128E+02
DAV:  37    -0.155074154110E+04   -0.45456E+01   -0.97795E+00 12488   0.145E+01    0.122E+02
DAV:  38    -0.155515407012E+04   -0.44125E+01   -0.54024E+00 12264   0.844E+00    0.131E+02
DAV:  39    -0.154965716616E+04    0.54969E+01   -0.41178E+00 10680   0.693E+00    0.131E+02
DAV:  40    -0.154297293064E+04    0.66842E+01   -0.35941E+00 10464   0.599E+00    0.124E+02
DAV:  41    -0.153493588186E+04    0.80370E+01   -0.50322E+00 11136   0.829E+00    0.126E+02
DAV:  42    -0.151966488029E+04    0.15271E+02   -0.62124E+00 12248   0.987E+00    0.113E+02
DAV:  43    -0.151007475353E+04    0.95901E+01   -0.33949E+00  9912   0.622E+00    0.106E+02
DAV:  44    -0.150547921096E+04    0.45955E+01   -0.35957E+00  9968   0.665E+00    0.102E+02
DAV:  45    -0.150588315425E+04   -0.40394E+00   -0.27973E+00  9184   0.639E+00    0.104E+02
DAV:  46    -0.149868623790E+04    0.71969E+01   -0.18320E+00 11160   0.435E+00    0.960E+01
DAV:  47    -0.149454655807E+04    0.41397E+01   -0.83895E-01 10056   0.321E+00    0.915E+01
DAV:  48    -0.149353745567E+04    0.10091E+01   -0.69172E-01 11536   0.114E+00    0.900E+01
DAV:  49    -0.149104675646E+04    0.24907E+01   -0.12091E-01 11856   0.128E+00    0.855E+01
DAV:  50    -0.149054574616E+04    0.50101E+00   -0.27610E-01 12112   0.232E+00    0.850E+01
DAV:  51    -0.149566236207E+04   -0.51166E+01   -0.18214E+01 13280   0.194E+01    0.804E+01
DAV:  52    -0.148902972429E+04    0.66326E+01   -0.92117E+00 10280   0.101E+01    0.603E+01
DAV:  53    -0.149030665254E+04   -0.12769E+01   -0.27226E+00  9328   0.575E+00    0.683E+01
DAV:  54    -0.149024819201E+04    0.58461E-01   -0.17365E+00  9368   0.290E+00    0.646E+01
DAV:  55    -0.148913069221E+04    0.11175E+01   -0.10438E+00 11248   0.348E+00    0.592E+01
DAV:  56    -0.153615239286E+04   -0.47022E+02   -0.14951E+01 15000   0.221E+01    0.123E+02
DAV:  57    -0.149216045203E+04    0.43992E+02   -0.11584E+01 12672   0.182E+01    0.602E+01
DAV:  58    -0.149615389179E+04   -0.39934E+01   -0.91330E+00 12168   0.115E+01    0.777E+01
DAV:  59    -0.149634892530E+04   -0.19503E+00   -0.45353E+00 10256   0.802E+00    0.671E+01
DAV:  60    -0.149971147835E+04   -0.33626E+01   -0.49428E+00 11648   0.626E+00
 -----------------------------------------------------------------------------
|                                                                             |
|           W    W    AA    RRRRR   N    N  II  N    N   GGGG   !!!           |
|           W    W   A  A   R    R  NN   N  II  NN   N  G    G  !!!           |
|           W    W  A    A  R    R  N N  N  II  N N  N  G       !!!           |
|           W WW W  AAAAAA  RRRRR   N  N N  II  N  N N  G  GGG   !            |
|           WW  WW  A    A  R   R   N   NN  II  N   NN  G    G                |
|           W    W  A    A  R    R  N    N  II  N    N   GGGG   !!!           |
|                                                                             |
|     The electronic self-consistency was not achieved in the given           |
|     number of steps (NELM). The forces and other quantities evaluated       |
|     might not be reliable so examine the results carefully. If you find     |
|     spurious results, we suggest increasing NELM, if you were close to      |
|     convergence or switching to a different ALGO or adjusting the           |
|     density mixing parameters otherwise.                                    |
|                                                                             |
 -----------------------------------------------------------------------------

   1 F= -.16125141E+04 E0= -.16120626E+04  d E =-.161251E+04
 curvature:   0.00 expect dE= 0.000E+00 dE for cont linesearch  0.000E+00
 trial: gam= 0.00000 g(F)=  0.236E+03 g(S)=  0.000E+00 ort = 0.000E+00 (trialstep = 0.100E+01)
 search vector abs. value=  0.236E+03
 bond charge predicted
       N       E                     dE             d eps       ncg     rms          rms(c)
DAV:   1    -0.121656250037E+04    0.27979E+03   -0.47673E+04  8928   0.246E+02    0.232E+02
DAV:   2    -0.318552265081E+05   -0.30639E+05   -0.18883E+05 13616   0.906E+02    0.524E+03
DAV:   3    -0.315874115992E+05    0.26781E+03   -0.53111E+04 12752   0.278E+02    0.286E+03
DAV:   4    -0.333064174137E+04    0.28257E+05   -0.41860E+04 11456   0.140E+02    0.102E+03
DAV:   5    -0.333649813212E+04   -0.58564E+01   -0.69860E+04 13152   0.228E+02    0.146E+03
DAV:   6    -0.762212334907E+04   -0.42856E+04   -0.33572E+04 13120   0.183E+02    0.805E+02
DAV:   7    -0.197960151414E+04    0.56425E+04   -0.39014E+04 12856   0.153E+02    0.566E+02
DAV:   8    -0.284122596258E+04   -0.86162E+03   -0.10639E+04 11208   0.104E+02    0.336E+02
DAV:   9    -0.208580656736E+04    0.75542E+03   -0.10604E+03  9432   0.127E+02    0.286E+02
DAV:  10    -0.194594401048E+04    0.13986E+03   -0.10275E+03  9576   0.918E+01    0.233E+02
DAV:  11    -0.187514455756E+04    0.70799E+02   -0.46449E+02  9360   0.745E+01    0.194E+02
DAV:  12    -0.204615992639E+04   -0.17102E+03   -0.51454E+02  9504   0.861E+01    0.236E+02
DAV:  13    -0.194885951820E+04    0.97300E+02   -0.29519E+02  9104   0.751E+01    0.218E+02
DAV:  14    -0.182015157582E+04    0.12871E+03   -0.23813E+02  9624   0.558E+01    0.201E+02
DAV:  15    -0.187682755108E+04   -0.56676E+02   -0.16049E+02  9136   0.544E+01    0.217E+02
DAV:  16    -0.178441431510E+04    0.92413E+02   -0.11846E+02  9224   0.509E+01    0.206E+02
DAV:  17    -0.170492178858E+04    0.79493E+02   -0.12152E+02  8640   0.476E+01    0.174E+02
DAV:  18    -0.168235958909E+04    0.22562E+02   -0.88345E+01  8888   0.415E+01    0.177E+02
DAV:  19    -0.162025403989E+04    0.62106E+02   -0.71589E+01  8968   0.366E+01    0.143E+02
DAV:  20    -0.164439322254E+04   -0.24139E+02   -0.54966E+01  9040   0.274E+01    0.152E+02
DAV:  21    -0.162674867514E+04    0.17645E+02   -0.51923E+01  9424   0.353E+01    0.137E+02
DAV:  22    -0.159631751928E+04    0.30431E+02   -0.39306E+01  8720   0.201E+01    0.106E+02
DAV:  23    -0.158816161531E+04    0.81559E+01   -0.16165E+01  9368   0.955E+00    0.986E+01
DAV:  24    -0.160841378050E+04   -0.20252E+02   -0.13966E+01  9832   0.184E+01    0.139E+02
DAV:  25    -0.159164036929E+04    0.16773E+02   -0.11767E+01  9520   0.142E+01    0.107E+02
DAV:  26    -0.158315460953E+04    0.84858E+01   -0.15515E+01  9288   0.196E+01    0.985E+01
DAV:  27    -0.159394866315E+04   -0.10794E+02   -0.18053E+01  9376   0.187E+01    0.114E+02
DAV:  28    -0.159010347180E+04    0.38452E+01   -0.18208E+01  9416   0.168E+01    0.108E+02
DAV:  29    -0.157774487630E+04    0.12359E+02   -0.16208E+01  9288   0.200E+01    0.908E+01
DAV:  30    -0.158512121395E+04   -0.73763E+01   -0.10900E+01  9832   0.128E+01    0.111E+02
DAV:  31    -0.157898555062E+04    0.61357E+01   -0.65133E+00  8816   0.840E+00    0.988E+01
DAV:  32    -0.157704402824E+04    0.19415E+01   -0.35613E+00 11936   0.327E+00    0.949E+01
DAV:  33    -0.159072273839E+04   -0.13679E+02   -0.50540E+00 12816   0.967E+00    0.118E+02
DAV:  34    -0.158737703835E+04    0.33457E+01   -0.30799E+00 10400   0.642E+00    0.115E+02
DAV:  35    -0.158028042962E+04    0.70966E+01   -0.25250E+00  9144   0.505E+00    0.106E+02
DAV:  36    -0.157724267532E+04    0.30378E+01   -0.15512E+00 10448   0.264E+00    0.101E+02
DAV:  37    -0.157240075756E+04    0.48419E+01   -0.14681E+00 11600   0.404E+00    0.917E+01
DAV:  38    -0.156849081401E+04    0.39099E+01   -0.15400E+00 11864   0.502E+00    0.849E+01
DAV:  39    -0.156719987302E+04    0.12909E+01   -0.23890E+00 12872   0.609E+00    0.845E+01
DAV:  40    -0.156590512847E+04    0.12947E+01   -0.22387E+00 11824   0.578E+00    0.838E+01
DAV:  41    -0.156429465913E+04    0.16105E+01   -0.14848E+00 11696   0.453E+00    0.803E+01
DAV:  42    -0.156330621621E+04    0.98844E+00   -0.69271E-01 11184   0.252E+00    0.770E+01
DAV:  43    -0.156619742818E+04   -0.28912E+01   -0.10731E+00 11112   0.402E+00    0.879E+01
DAV:  44    -0.156439486689E+04    0.18026E+01   -0.64384E-01 10856   0.228E+00    0.823E+01
DAV:  45    -0.156386242563E+04    0.53244E+00   -0.66257E-01 11152   0.282E+00    0.792E+01
DAV:  46    -0.156345765776E+04    0.40477E+00   -0.61817E-01 10432   0.254E+00    0.820E+01
DAV:  47    -0.168420158931E+04   -0.12074E+03   -0.90739E+01 12820   0.394E+01    0.165E+02
DAV:  48    -0.165129729556E+04    0.32904E+02   -0.35006E+01 13208   0.197E+01    0.138E+02
DAV:  49    -0.165925875524E+04   -0.79615E+01   -0.20746E+01 13104   0.216E+01    0.134E+02
DAV:  50    -0.165739255964E+04    0.18662E+01   -0.12446E+01 11928   0.886E+00    0.128E+02
DAV:  51    -0.166616967605E+04   -0.87771E+01   -0.88387E+00 12056   0.107E+01    0.123E+02
DAV:  52    -0.171168989985E+04   -0.45520E+02   -0.51940E+01 14288   0.321E+01    0.145E+02
DAV:  53    -0.168866054740E+04    0.23029E+02   -0.19699E+01 10536   0.148E+01    0.124E+02
DAV:  54    -0.169821783291E+04   -0.95573E+01   -0.76650E+00  9880   0.941E+00    0.133E+02
DAV:  55    -0.169811143614E+04    0.10640E+00   -0.34882E+00  8920   0.365E+00    0.133E+02
DAV:  56    -0.169828121070E+04   -0.16977E+00   -0.16928E+00 13432   0.444E+00    0.139E+02
DAV:  57    -0.168549252514E+04    0.12789E+02   -0.42753E+00 13672   0.770E+00    0.126E+02
DAV:  58    -0.168206907032E+04    0.34235E+01   -0.44115E+00 12680   0.874E+00    0.135E+02
DAV:  59    -0.165900097423E+04    0.23068E+02   -0.12426E+01 14536   0.145E+01    0.117E+02
DAV:  60    -0.163950147687E+04    0.19499E+02   -0.21711E+01 12896   0.177E+01
 -----------------------------------------------------------------------------
|                                                                             |
|           W    W    AA    RRRRR   N    N  II  N    N   GGGG   !!!           |
|           W    W   A  A   R    R  NN   N  II  NN   N  G    G  !!!           |
|           W    W  A    A  R    R  N N  N  II  N N  N  G       !!!           |
|           W WW W  AAAAAA  RRRRR   N  N N  II  N  N N  G  GGG   !            |
|           WW  WW  A    A  R   R   N   NN  II  N   NN  G    G                |
|           W    W  A    A  R    R  N    N  II  N    N   GGGG   !!!           |
|                                                                             |
|     The electronic self-consistency was not achieved in the given           |
|     number of steps (NELM). The forces and other quantities evaluated       |
|     might not be reliable so examine the results carefully. If you find     |
|     spurious results, we suggest increasing NELM, if you were close to      |
|     convergence or switching to a different ALGO or adjusting the           |
|     density mixing parameters otherwise.                                    |
|                                                                             |
 -----------------------------------------------------------------------------

   2 F= -.17518169E+04 E0= -.17514356E+04  d E =-.139303E+03
 trial-energy change: -139.302758  1 .order -113.000418 -236.155983   10.155147
 step:   0.9588(harm=  0.9588)  dis= 0.21062  next Energy= -1725.723903 (dE=-0.113E+03)
 bond charge predicted
       N       E                     dE             d eps       ncg     rms          rms(c)
DAV:   1    -0.163019040266E+04    0.28811E+02   -0.88898E+01  9064   0.128E+01    0.103E+02
DAV:   2    -0.524569363224E+04   -0.36155E+04   -0.20847E+03 12080   0.364E+02    0.666E+02
DAV:   3    -0.512705546257E+04    0.11864E+03   -0.31025E+03 13736   0.157E+02    0.554E+02
DAV:   4    -0.295835587972E+04    0.21687E+04   -0.76195E+02 11652   0.117E+02    0.367E+02
DAV:   5    -0.227006215557E+04    0.68829E+03   -0.11822E+03 11968   0.877E+01    0.315E+02
DAV:   6    -0.187100339145E+04    0.39906E+03   -0.40846E+02 11424   0.654E+01    0.231E+02
DAV:   7    -0.172807174656E+04    0.14293E+03   -0.27336E+02  9264   0.490E+01    0.171E+02
DAV:   8    -0.165403461995E+04    0.74037E+02   -0.14490E+02  9328   0.414E+01    0.115E+02
DAV:   9    -0.164853975752E+04    0.54949E+01   -0.10246E+02  9120   0.416E+01    0.140E+02
DAV:  10    -0.162395297674E+04    0.24587E+02   -0.80728E+01  9944   0.314E+01    0.125E+02
DAV:  11    -0.159244032726E+04    0.31513E+02   -0.73707E+01  9960   0.318E+01    0.985E+01
DAV:  12    -0.159783002655E+04   -0.53897E+01   -0.44852E+01  9336   0.301E+01    0.111E+02
DAV:  13    -0.158708189984E+04    0.10748E+02   -0.33689E+01 10224   0.186E+01    0.765E+01
DAV:  14    -0.158971984077E+04   -0.26379E+01   -0.22208E+01  9144   0.195E+01    0.818E+01
DAV:  15    -0.161818852699E+04   -0.28469E+02   -0.26850E+01  9240   0.276E+01    0.115E+02
DAV:  16    -0.161353467702E+04    0.46538E+01   -0.32549E+01 10472   0.277E+01    0.111E+02
DAV:  17    -0.161518936120E+04   -0.16547E+01   -0.33049E+01  9480   0.295E+01    0.110E+02
DAV:  18    -0.159563713819E+04    0.19552E+02   -0.23194E+01  9336   0.258E+01    0.103E+02
DAV:  19    -0.158208200581E+04    0.13555E+02   -0.13893E+01  9344   0.138E+01    0.744E+01
DAV:  20    -0.158439383083E+04   -0.23118E+01   -0.11287E+01  9328   0.159E+01    0.880E+01
DAV:  21    -0.157608068386E+04    0.83131E+01   -0.10120E+01  9088   0.140E+01    0.677E+01
DAV:  22    -0.157200654450E+04    0.40741E+01   -0.49870E+00  9344   0.939E+00    0.582E+01
DAV:  23    -0.156697579295E+04    0.50308E+01   -0.30114E+00  9152   0.624E+00    0.441E+01
DAV:  24    -0.156463195369E+04    0.23438E+01   -0.19594E+00  9536   0.619E+00    0.343E+01
DAV:  25    -0.156360676303E+04    0.10252E+01   -0.16069E+00  9032   0.570E+00    0.309E+01
DAV:  26    -0.156550579520E+04   -0.18990E+01   -0.19613E+00  9480   0.669E+00    0.403E+01
DAV:  27    -0.157012244597E+04   -0.46167E+01   -0.35496E+00  9320   0.889E+00    0.588E+01
DAV:  28    -0.156872365730E+04    0.13988E+01   -0.17156E+00  9328   0.597E+00    0.594E+01
DAV:  29    -0.156440472875E+04    0.43189E+01   -0.17516E+00  9472   0.441E+00    0.410E+01
DAV:  30    -0.156291828158E+04    0.14864E+01   -0.10597E+00  9416   0.418E+00    0.325E+01
DAV:  31    -0.156222083249E+04    0.69745E+00   -0.96379E-01  9240   0.407E+00    0.302E+01
DAV:  32    -0.156133935552E+04    0.88148E+00   -0.76623E-01  9568   0.370E+00    0.241E+01
DAV:  33    -0.156090046074E+04    0.43889E+00   -0.50524E-01  9400   0.258E+00    0.224E+01
DAV:  34    -0.156088667734E+04    0.13783E-01   -0.30421E-01  9464   0.171E+00    0.218E+01
DAV:  35    -0.156059979398E+04    0.28688E+00   -0.22513E-01  9552   0.160E+00    0.194E+01
DAV:  36    -0.156024021378E+04    0.35958E+00   -0.25379E-01 10008   0.181E+00    0.136E+01
DAV:  37    -0.156024706231E+04   -0.68485E-02   -0.25279E-01 10296   0.167E+00    0.155E+01
DAV:  38    -0.156000104002E+04    0.24602E+00   -0.11814E-01 11000   0.658E-01    0.121E+01
DAV:  39    -0.155983718642E+04    0.16385E+00   -0.48957E-02 11368   0.787E-01    0.993E+00
DAV:  40    -0.155973942013E+04    0.97766E-01   -0.45748E-02 10744   0.812E-01    0.781E+00
DAV:  41    -0.155967048939E+04    0.68931E-01   -0.52148E-02 12320   0.858E-01    0.807E+00
DAV:  42    -0.155957556426E+04    0.94925E-01   -0.30086E-02 11080   0.591E-01    0.558E+00
DAV:  43    -0.155952155060E+04    0.54014E-01   -0.31475E-02 11384   0.473E-01    0.474E+00
DAV:  44    -0.155949216197E+04    0.29389E-01   -0.13040E-02  9344   0.265E-01    0.355E+00
DAV:  45    -0.155946629417E+04    0.25868E-01   -0.10840E-02 11760   0.303E-01    0.270E+00
DAV:  46    -0.155945415048E+04    0.12144E-01   -0.64219E-03 11256   0.234E-01    0.231E+00
DAV:  47    -0.155944719061E+04    0.69599E-02   -0.21714E-02 13024   0.474E-01    0.219E+00
DAV:  48    -0.155944152383E+04    0.56668E-02   -0.73410E-03  8632   0.222E-01    0.134E+00
DAV:  49    -0.155944046531E+04    0.10585E-02   -0.24206E-03  9488   0.189E-01    0.653E-01
DAV:  50    -0.155944047407E+04   -0.87549E-05   -0.14173E-03 12152   0.121E-01    0.434E-01
DAV:  51    -0.155944269993E+04   -0.22259E-02   -0.84441E-04  9544   0.117E-01    0.749E-01
DAV:  52    -0.155944428339E+04   -0.15835E-02   -0.90454E-04 11080   0.115E-01    0.568E-01
DAV:  53    -0.155944477791E+04   -0.49451E-03   -0.65097E-04  9568   0.101E-01    0.569E-01
DAV:  54    -0.155944512784E+04   -0.34993E-03   -0.38708E-04 11672   0.616E-02    0.165E-01
DAV:  55    -0.155944651226E+04   -0.13844E-02   -0.25977E-04 12984   0.421E-02    0.243E-01
DAV:  56    -0.155944693863E+04   -0.42636E-03   -0.95027E-05 10376   0.360E-02    0.103E-01
DAV:  57    -0.155944722346E+04   -0.28483E-03   -0.50950E-05  9216   0.289E-02    0.137E-01
DAV:  58    -0.155944785263E+04   -0.62918E-03   -0.63419E-05  9536   0.242E-02    0.109E-01
DAV:  59    -0.155944840145E+04   -0.54882E-03   -0.59110E-05 10112   0.164E-02    0.117E-01
DAV:  60    -0.155944858629E+04   -0.18484E-03   -0.22538E-05  7456   0.124E-02
 -----------------------------------------------------------------------------
|                                                                             |
|           W    W    AA    RRRRR   N    N  II  N    N   GGGG   !!!           |
|           W    W   A  A   R    R  NN   N  II  NN   N  G    G  !!!           |
|           W    W  A    A  R    R  N N  N  II  N N  N  G       !!!           |
|           W WW W  AAAAAA  RRRRR   N  N N  II  N  N N  G  GGG   !            |
|           WW  WW  A    A  R   R   N   NN  II  N   NN  G    G                |
|           W    W  A    A  R    R  N    N  II  N    N   GGGG   !!!           |
|                                                                             |
|     The electronic self-consistency was not achieved in the given           |
|     number of steps (NELM). The forces and other quantities evaluated       |
|     might not be reliable so examine the results carefully. If you find     |
|     spurious results, we suggest increasing NELM, if you were close to      |
|     convergence or switching to a different ALGO or adjusting the           |
|     density mixing parameters otherwise.                                    |
|                                                                             |
 -----------------------------------------------------------------------------

   3 F= -.16717747E+04 E0= -.16710139E+04  d E =-.592605E+02
 curvature:  -0.48 expect dE=-0.690E+02 dE for cont linesearch -0.113E-02
 trial: gam= 0.60623 g(F)=  0.144E+03 g(S)=  0.000E+00 ort = 0.745E+00 (trialstep = 0.992E+00)
 search vector abs. value=  0.232E+03
 bond charge predicted
       N       E                     dE             d eps       ncg     rms          rms(c)
DAV:   1    -0.126264650558E+04    0.29680E+03   -0.44320E+04  8032   0.226E+02    0.198E+02
DAV:   2    -0.182534317653E+05   -0.16991E+05   -0.70558E+04 13124   0.622E+02    0.285E+03
DAV:   3    -0.190499080754E+05   -0.79648E+03   -0.31638E+04 13048   0.186E+02    0.171E+03
DAV:   4    -0.307283392063E+04    0.15977E+05   -0.21104E+04 11720   0.881E+01    0.652E+02
DAV:   5    -0.217746615741E+04    0.89537E+03   -0.32339E+04 13688   0.179E+02    0.699E+02
DAV:   6    -0.316839433944E+04   -0.99093E+03   -0.13388E+04 12496   0.117E+02    0.404E+02
DAV:   7    -0.198307150587E+04    0.11853E+04   -0.18522E+03 11552   0.121E+02    0.276E+02
DAV:   8    -0.185563503301E+04    0.12744E+03   -0.11302E+03 10848   0.733E+01    0.254E+02
DAV:   9    -0.177693825262E+04    0.78697E+02   -0.37688E+02 10288   0.508E+01    0.208E+02
DAV:  10    -0.176154276797E+04    0.15395E+02   -0.16076E+02  9432   0.468E+01    0.202E+02
DAV:  11    -0.173356588342E+04    0.27977E+02   -0.10859E+02  9720   0.298E+01    0.187E+02
DAV:  12    -0.172158081232E+04    0.11985E+02   -0.47355E+01  9320   0.250E+01    0.181E+02
DAV:  13    -0.172417134914E+04   -0.25905E+01   -0.51292E+01  9648   0.363E+01    0.193E+02
DAV:  14    -0.171564259115E+04    0.85288E+01   -0.10014E+02  9672   0.432E+01    0.181E+02
DAV:  15    -0.171549090881E+04    0.15168E+00   -0.54710E+01  9080   0.297E+01    0.174E+02
DAV:  16    -0.192895252227E+04   -0.21346E+03   -0.46849E+01  9752   0.493E+01    0.241E+02
DAV:  17    -0.181719083949E+04    0.11176E+03   -0.49337E+01  9136   0.245E+01    0.216E+02
DAV:  18    -0.174185384239E+04    0.75337E+02   -0.35864E+01 10760   0.190E+01    0.191E+02
DAV:  19    -0.179378544446E+04   -0.51932E+02   -0.53549E+01 10904   0.354E+01    0.208E+02
DAV:  20    -0.178550812896E+04    0.82773E+01   -0.56357E+01  9360   0.323E+01    0.207E+02
DAV:  21    -0.174599522199E+04    0.39513E+02   -0.48220E+01 10408   0.299E+01    0.177E+02
DAV:  22    -0.176928979430E+04   -0.23295E+02   -0.46897E+01 10224   0.293E+01    0.200E+02
DAV:  23    -0.173509982898E+04    0.34190E+02   -0.41717E+01  8976   0.293E+01    0.179E+02
DAV:  24    -0.166777661666E+04    0.67323E+02   -0.42078E+01  9480   0.303E+01    0.114E+02
DAV:  25    -0.168498423854E+04   -0.17208E+02   -0.33329E+01  9792   0.296E+01    0.140E+02
DAV:  26    -0.169872059585E+04   -0.13736E+02   -0.25711E+01  9144   0.220E+01    0.160E+02
DAV:  27    -0.168722217209E+04    0.11498E+02   -0.23615E+01  9640   0.243E+01    0.141E+02
DAV:  28    -0.165719384343E+04    0.30028E+02   -0.14880E+01  8704   0.149E+01    0.124E+02
DAV:  29    -0.165428071899E+04    0.29131E+01   -0.21051E+01 11104   0.188E+01    0.123E+02
DAV:  30    -0.162989988171E+04    0.24381E+02   -0.12520E+01 10544   0.175E+01    0.908E+01
DAV:  31    -0.161695962593E+04    0.12940E+02   -0.62744E+00 10312   0.696E+00    0.723E+01
DAV:  32    -0.161537224367E+04    0.15874E+01   -0.52529E+00  9696   0.937E+00    0.829E+01
DAV:  33    -0.161708052681E+04   -0.17083E+01   -0.35520E+00 13352   0.206E+00    0.854E+01
DAV:  34    -0.161749353196E+04   -0.41301E+00   -0.26926E-01 10480   0.194E+00    0.867E+01
DAV:  35    -0.161779417004E+04   -0.30064E+00   -0.15910E-01  8896   0.932E-01    0.877E+01
DAV:  36    -0.161798171098E+04   -0.18754E+00   -0.82810E-01 14120   0.330E+00    0.857E+01
DAV:  37    -0.161841343610E+04   -0.43173E+00   -0.22640E-01 12960   0.117E+00    0.879E+01
DAV:  38    -0.161931476994E+04   -0.90133E+00   -0.10790E+00 12168   0.389E+00    0.866E+01
DAV:  39    -0.161807965824E+04    0.12351E+01   -0.42847E-01 12864   0.207E+00    0.846E+01
DAV:  40    -0.162367948600E+04   -0.55998E+01   -0.18375E+00 13432   0.504E+00    0.871E+01
DAV:  41    -0.162697718484E+04   -0.32977E+01   -0.81728E+00 13368   0.108E+01    0.104E+02
DAV:  42    -0.162206078113E+04    0.49164E+01   -0.27001E+00 12472   0.276E+00    0.957E+01
DAV:  43    -0.164180506432E+04   -0.19744E+02   -0.99929E+00 12944   0.114E+01    0.131E+02
DAV:  44    -0.163780788272E+04    0.39972E+01   -0.19115E+00  8832   0.218E+00    0.127E+02
DAV:  45    -0.163091349072E+04    0.68944E+01   -0.10428E+00 11728   0.399E+00    0.121E+02
DAV:  46    -0.161718939216E+04    0.13724E+02   -0.12435E+00 13000   0.422E+00    0.103E+02
DAV:  47    -0.166439193136E+04   -0.47203E+02   -0.51327E+01 14544   0.281E+01    0.136E+02
DAV:  48    -0.162056495020E+04    0.43827E+02   -0.22455E+01 10224   0.204E+01    0.884E+01
DAV:  49    -0.162681002226E+04   -0.62451E+01   -0.11652E+01 10592   0.161E+01    0.102E+02
DAV:  50    -0.163739966956E+04   -0.10590E+02   -0.15561E+01 12616   0.116E+01    0.101E+02
DAV:  51    -0.163885879967E+04   -0.14591E+01   -0.63572E+00 11728   0.560E+00    0.975E+01
DAV:  52    -0.168078724197E+04   -0.41928E+02   -0.32359E+01 14464   0.249E+01    0.137E+02
DAV:  53    -0.165117373185E+04    0.29614E+02   -0.13108E+01 12096   0.112E+01    0.935E+01
DAV:  54    -0.164471775067E+04    0.64560E+01   -0.80785E+00 12664   0.110E+01    0.958E+01
DAV:  55    -0.163387046513E+04    0.10847E+02   -0.60465E+00 11440   0.967E+00    0.845E+01
DAV:  56    -0.161422904468E+04    0.19641E+02   -0.10285E+01 14368   0.122E+01    0.616E+01
DAV:  57    -0.159816969263E+04    0.16059E+02   -0.16137E+01 14328   0.169E+01    0.521E+01
DAV:  58    -0.159436165417E+04    0.38080E+01   -0.76094E+00 12696   0.894E+00    0.442E+01
DAV:  59    -0.159140999968E+04    0.29517E+01   -0.30520E+00  9944   0.577E+00    0.305E+01
DAV:  60    -0.159035598000E+04    0.10540E+01   -0.20131E+00 10472   0.581E+00
 -----------------------------------------------------------------------------
|                                                                             |
|           W    W    AA    RRRRR   N    N  II  N    N   GGGG   !!!           |
|           W    W   A  A   R    R  NN   N  II  NN   N  G    G  !!!           |
|           W    W  A    A  R    R  N N  N  II  N N  N  G       !!!           |
|           W WW W  AAAAAA  RRRRR   N  N N  II  N  N N  G  GGG   !            |
|           WW  WW  A    A  R   R   N   NN  II  N   NN  G    G                |
|           W    W  A    A  R    R  N    N  II  N    N   GGGG   !!!           |
|                                                                             |
|     The electronic self-consistency was not achieved in the given           |
|     number of steps (NELM). The forces and other quantities evaluated       |
|     might not be reliable so examine the results carefully. If you find     |
|     spurious results, we suggest increasing NELM, if you were close to      |
|     convergence or switching to a different ALGO or adjusting the           |
|     density mixing parameters otherwise.                                    |
|                                                                             |
 -----------------------------------------------------------------------------

   4 F= -.17026234E+04 E0= -.17019424E+04  d E =-.308488E+02
 trial-energy change:  -30.848785  1 .order  -80.372666 -143.171514  -17.573818
 step:   1.1305(harm=  1.1305)  dis= 0.42425  next Energy= -1753.376805 (dE=-0.816E+02)
 bond charge predicted
       N       E                     dE             d eps       ncg     rms          rms(c)
DAV:   1    -0.159009670695E+04    0.13133E+01   -0.75540E+02  7928   0.260E+01    0.246E+01
DAV:   2    -0.244733983728E+04   -0.85724E+03   -0.10652E+02 10232   0.121E+02    0.258E+02
DAV:   3    -0.177220610967E+04    0.67513E+03   -0.55669E+01  9848   0.691E+01    0.193E+02
DAV:   4    -0.163623330048E+04    0.13597E+03   -0.23032E+01  9936   0.324E+01    0.124E+02
DAV:   5    -0.160744490544E+04    0.28788E+02   -0.29340E+01  9816   0.184E+01    0.636E+01
DAV:   6    -0.159622645315E+04    0.11218E+02   -0.16666E+01  9288   0.161E+01    0.445E+01
DAV:   7    -0.159946239531E+04   -0.32359E+01   -0.10308E+01  9512   0.141E+01    0.559E+01
DAV:   8    -0.159910074212E+04    0.36165E+00   -0.11558E+01  9096   0.133E+01    0.446E+01
DAV:   9    -0.159894825091E+04    0.15249E+00   -0.98161E+00  9128   0.142E+01    0.511E+01
DAV:  10    -0.159759213465E+04    0.13561E+01   -0.73385E+00 10104   0.987E+00    0.425E+01
DAV:  11    -0.160813540245E+04   -0.10543E+02   -0.61453E+00  9432   0.131E+01    0.760E+01
DAV:  12    -0.160879291215E+04   -0.65751E+00   -0.43732E+00  9072   0.845E+00    0.845E+01
DAV:  13    -0.159830712297E+04    0.10486E+02   -0.32022E+00  9080   0.700E+00    0.531E+01
DAV:  14    -0.159532677638E+04    0.29803E+01   -0.17900E+00  8992   0.676E+00    0.442E+01
DAV:  15    -0.159472697920E+04    0.59980E+00   -0.23010E+00  9440   0.723E+00    0.394E+01
DAV:  16    -0.159185852847E+04    0.28685E+01   -0.17956E+00  9344   0.583E+00    0.222E+01
DAV:  17    -0.159085711046E+04    0.10014E+01   -0.11357E+00 10248   0.411E+00    0.151E+01
DAV:  18    -0.159065857733E+04    0.19853E+00   -0.59642E-01  9712   0.269E+00    0.125E+01
DAV:  19    -0.159091379625E+04   -0.25522E+00   -0.65223E-01  9608   0.333E+00    0.192E+01
DAV:  20    -0.159090476449E+04    0.90318E-02   -0.60122E-01  9736   0.343E+00    0.158E+01
DAV:  21    -0.159054177332E+04    0.36299E+00   -0.55658E-01  9744   0.314E+00    0.129E+01
DAV:  22    -0.159060842359E+04   -0.66650E-01   -0.26563E-01  9684   0.213E+00    0.123E+01
DAV:  23    -0.159032173077E+04    0.28669E+00   -0.34688E-01  9944   0.213E+00    0.709E+00
DAV:  24    -0.159025338461E+04    0.68346E-01   -0.15912E-01  9952   0.175E+00    0.758E+00
DAV:  25    -0.159027977911E+04   -0.26395E-01   -0.26386E-01  9680   0.188E+00    0.673E+00
DAV:  26    -0.159021124279E+04    0.68536E-01   -0.92806E-02  9472   0.131E+00    0.512E+00
DAV:  27    -0.159019819020E+04    0.13053E-01   -0.10181E-01  9616   0.134E+00    0.559E+00
DAV:  28    -0.159017873429E+04    0.19456E-01   -0.62949E-02 10104   0.108E+00    0.397E+00
DAV:  29    -0.159013036149E+04    0.48373E-01   -0.33920E-02  9872   0.838E-01    0.162E+00
DAV:  30    -0.159013448919E+04   -0.41277E-02   -0.24082E-02 12856   0.468E-01    0.179E+00
DAV:  31    -0.159012592843E+04    0.85608E-02   -0.89248E-03 10912   0.360E-01    0.140E+00
DAV:  32    -0.159012608423E+04   -0.15580E-03   -0.50179E-03 10672   0.243E-01    0.155E+00
DAV:  33    -0.159012284205E+04    0.32422E-02   -0.24681E-03  9680   0.178E-01    0.113E+00
DAV:  34    -0.159012191982E+04    0.92223E-03   -0.29309E-03  9840   0.221E-01    0.820E-01
DAV:  35    -0.159012036433E+04    0.15555E-02   -0.18969E-03  9680   0.190E-01    0.628E-01
DAV:  36    -0.159012063270E+04   -0.26837E-03   -0.21257E-03  9720   0.183E-01    0.857E-01
DAV:  37    -0.159011958939E+04    0.10433E-02   -0.92747E-04  9672   0.119E-01    0.845E-01
DAV:  38    -0.159011857070E+04    0.10187E-02   -0.84366E-04 12624   0.684E-02    0.447E-01
DAV:  39    -0.159011871224E+04   -0.14154E-03   -0.33485E-04 10368   0.705E-02    0.530E-01
DAV:  40    -0.159011807542E+04    0.63682E-03   -0.35257E-04 10328   0.651E-02    0.213E-01
DAV:  41    -0.159011796016E+04    0.11526E-03   -0.30647E-04 13112   0.337E-02    0.215E-01
DAV:  42    -0.159011801214E+04   -0.51981E-04   -0.95552E-05 11800   0.251E-02    0.242E-01
DAV:  43    -0.159011797182E+04    0.40319E-04   -0.51656E-05  9072   0.246E-02    0.676E-02
DAV:  44    -0.159011819507E+04   -0.22325E-03   -0.57786E-05  9784   0.190E-02    0.210E-01
DAV:  45    -0.159011837502E+04   -0.17995E-03   -0.93785E-05 11824   0.197E-02    0.758E-02
DAV:  46    -0.159011848427E+04   -0.10925E-03   -0.24653E-05  7280   0.157E-02    0.175E-01
DAV:  47    -0.159011847668E+04    0.75852E-05   -0.13960E-05  5704   0.109E-02    0.110E-01
DAV:  48    -0.159011850141E+04   -0.24723E-04   -0.84299E-06  5088   0.797E-03    0.471E-02
DAV:  49    -0.159011853391E+04   -0.32501E-04   -0.70260E-06  5376   0.787E-03    0.536E-02
DAV:  50    -0.159011854322E+04   -0.93160E-05   -0.88781E-06  5216   0.649E-03    0.150E-02
DAV:  51    -0.159011854392E+04   -0.69244E-06   -0.29027E-06  4192   0.178E-03
   5 F= -.17024317E+04 E0= -.17016619E+04  d E =-.306571E+02
 curvature:  -0.91 expect dE=-0.240E+02 dE for cont linesearch -0.173E+01
 ZBRENT: increasing intervall
 opt :   1.4081  next Energy= -1709.196122 (dE=-0.374E+02)
 bond charge predicted
       N       E                     dE             d eps       ncg     rms          rms(c)
DAV:   1    -0.158747926225E+04    0.26393E+01   -0.30282E+03  7888   0.521E+01    0.255E+01
DAV:   2    -0.169868497511E+04   -0.11121E+03   -0.90986E+01 10104   0.413E+01    0.119E+02
DAV:   3    -0.171733509468E+04   -0.18650E+02   -0.69710E+01  9704   0.495E+01    0.125E+02
DAV:   4    -0.162515278256E+04    0.92182E+02   -0.16827E+01  9672   0.321E+01    0.945E+01
DAV:   5    -0.162079096569E+04    0.43618E+01   -0.17880E+01  9640   0.174E+01    0.957E+01
DAV:   6    -0.162091659590E+04   -0.12563E+00   -0.18117E+01 10480   0.175E+01    0.102E+02
DAV:   7    -0.161388383321E+04    0.70328E+01   -0.20926E+01 10304   0.200E+01    0.792E+01
DAV:   8    -0.160506537154E+04    0.88185E+01   -0.94916E+00  9296   0.125E+01    0.610E+01
DAV:   9    -0.166740117898E+04   -0.62336E+02   -0.10560E+01 10192   0.244E+01    0.123E+02
DAV:  10    -0.165050561369E+04    0.16896E+02   -0.12088E+01  9848   0.155E+01    0.117E+02
DAV:  11    -0.161657189395E+04    0.33934E+02   -0.73711E+00  9544   0.148E+01    0.701E+01
DAV:  12    -0.160378635823E+04    0.12786E+02   -0.67208E+00  9552   0.141E+01    0.491E+01
DAV:  13    -0.160058582570E+04    0.32005E+01   -0.65295E+00  9560   0.114E+01    0.551E+01
DAV:  14    -0.160049787088E+04    0.87955E-01   -0.46142E+00  9328   0.737E+00    0.550E+01
DAV:  15    -0.159822094575E+04    0.22769E+01   -0.30469E+00  9176   0.713E+00    0.409E+01
DAV:  16    -0.159725212886E+04    0.96882E+00   -0.23155E+00  9104   0.634E+00    0.380E+01
DAV:  17    -0.159544305329E+04    0.18091E+01   -0.12720E+00  9760   0.443E+00    0.201E+01
DAV:  18    -0.159522456219E+04    0.21849E+00   -0.95880E-01  9648   0.397E+00    0.187E+01
DAV:  19    -0.159498607666E+04    0.23849E+00   -0.52321E-01  9008   0.318E+00    0.170E+01
DAV:  20    -0.159469458721E+04    0.29149E+00   -0.64426E-01  9744   0.285E+00    0.115E+01
DAV:  21    -0.159475931819E+04   -0.64731E-01   -0.46709E-01  9416   0.287E+00    0.115E+01
DAV:  22    -0.159517300135E+04   -0.41368E+00   -0.63244E-01 10248   0.337E+00    0.184E+01
DAV:  23    -0.159491556977E+04    0.25743E+00   -0.50449E-01  9904   0.314E+00    0.151E+01
DAV:  24    -0.159477441219E+04    0.14116E+00   -0.25862E-01  9512   0.210E+00    0.145E+01
DAV:  25    -0.159454076445E+04    0.23365E+00   -0.13713E-01  9712   0.152E+00    0.104E+01
DAV:  26    -0.159441625692E+04    0.12451E+00   -0.14605E-01  9392   0.159E+00    0.545E+00
DAV:  27    -0.159444628067E+04   -0.30024E-01   -0.10628E-01  9712   0.142E+00    0.831E+00
DAV:  28    -0.159444111173E+04    0.51689E-02   -0.58650E-02  9400   0.100E+00    0.852E+00
DAV:  29    -0.159439939941E+04    0.41712E-01   -0.46040E-02  9424   0.854E-01    0.694E+00
DAV:  30    -0.159437285888E+04    0.26541E-01   -0.32618E-02  9136   0.742E-01    0.555E+00
DAV:  31    -0.159433453286E+04    0.38326E-01   -0.14596E-02  9424   0.497E-01    0.354E+00
DAV:  32    -0.159433932898E+04   -0.47961E-02   -0.11589E-02  9992   0.438E-01    0.358E+00
DAV:  33    -0.159433142765E+04    0.79013E-02   -0.80739E-03  9752   0.382E-01    0.312E+00
DAV:  34    -0.159433044240E+04    0.98524E-03   -0.72275E-03 10464   0.348E-01    0.294E+00
DAV:  35    -0.159431911548E+04    0.11327E-01   -0.50073E-03 10976   0.320E-01    0.193E+00
DAV:  36    -0.159431630601E+04    0.28095E-02   -0.34999E-03 13480   0.152E-01    0.148E+00
DAV:  37    -0.159431263806E+04    0.36680E-02   -0.14411E-03 12552   0.148E-01    0.657E-01
DAV:  38    -0.159431330398E+04   -0.66592E-03   -0.10946E-03 12112   0.123E-01    0.776E-01
DAV:  39    -0.159431314000E+04    0.16397E-03   -0.83319E-04 10760   0.109E-01    0.813E-01
DAV:  40    -0.159431244742E+04    0.69258E-03   -0.32154E-04 10736   0.580E-02    0.578E-01
DAV:  41    -0.159431258978E+04   -0.14236E-03   -0.27304E-04 10744   0.696E-02    0.634E-01
DAV:  42    -0.159431225723E+04    0.33255E-03   -0.17476E-04 10016   0.538E-02    0.513E-01
DAV:  43    -0.159431206454E+04    0.19269E-03   -0.12694E-04 11408   0.323E-02    0.409E-01
DAV:  44    -0.159431184982E+04    0.21472E-03   -0.49728E-05  7960   0.201E-02    0.214E-01
DAV:  45    -0.159431193985E+04   -0.90037E-04   -0.33583E-05  7784   0.195E-02    0.323E-01
DAV:  46    -0.159431180702E+04    0.13283E-03   -0.26482E-05  5488   0.183E-02    0.122E-01
DAV:  47    -0.159431179337E+04    0.13649E-04   -0.10596E-05  4856   0.123E-02    0.360E-02
DAV:  48    -0.159431179947E+04   -0.60983E-05   -0.16129E-05  5912   0.632E-03    0.237E-02
DAV:  49    -0.159431179954E+04   -0.66124E-07   -0.32989E-06  4136   0.292E-03
   6 F= -.17066236E+04 E0= -.17058600E+04  d E =-.348490E+02
 curvature:  -3.54 expect dE=-0.137E+03 dE for cont linesearch -0.110E+01
 ZBRENT: increasing intervall
 opt :   1.9631  next Energy= -1704.380567 (dE=-0.326E+02)
 bond charge predicted
       N       E                     dE             d eps       ncg     rms          rms(c)
DAV:   1    -0.153170251638E+04    0.62609E+02   -0.12667E+04  7888   0.113E+02    0.522E+01
DAV:   2    -0.394421190511E+04   -0.24125E+04   -0.51349E+02 10684   0.189E+02    0.430E+02
DAV:   3    -0.194638701179E+04    0.19978E+04   -0.70624E+02 10296   0.651E+01    0.224E+02
DAV:   4    -0.178697929713E+04    0.15941E+03   -0.10969E+02 11336   0.533E+01    0.159E+02
DAV:   5    -0.171870573740E+04    0.68274E+02   -0.12329E+02 10136   0.505E+01    0.141E+02
DAV:   6    -0.162384406411E+04    0.94862E+02   -0.14220E+02 10776   0.467E+01    0.862E+01
DAV:   7    -0.163757090862E+04   -0.13727E+02   -0.79411E+01  9864   0.361E+01    0.987E+01
DAV:   8    -0.163420843093E+04    0.33625E+01   -0.57918E+01  8976   0.313E+01    0.829E+01
DAV:   9    -0.160753847388E+04    0.26670E+02   -0.21199E+01  8888   0.175E+01    0.517E+01
DAV:  10    -0.160167392793E+04    0.58645E+01   -0.14628E+01  9328   0.162E+01    0.550E+01
DAV:  11    -0.160084444600E+04    0.82948E+00   -0.11242E+01  9048   0.137E+01    0.552E+01
DAV:  12    -0.159963393089E+04    0.12105E+01   -0.10546E+01  9448   0.128E+01    0.533E+01
DAV:  13    -0.160206384215E+04   -0.24299E+01   -0.94410E+00  9056   0.141E+01    0.523E+01
DAV:  14    -0.161646418784E+04   -0.14400E+02   -0.10730E+01  9128   0.181E+01    0.939E+01
DAV:  15    -0.160829089345E+04    0.81733E+01   -0.81646E+00  8912   0.121E+01    0.775E+01
DAV:  16    -0.159899036768E+04    0.93005E+01   -0.53732E+00  9000   0.997E+00    0.466E+01
DAV:  17    -0.159909362246E+04   -0.10325E+00   -0.58122E+00  9048   0.110E+01    0.507E+01
DAV:  18    -0.159559503025E+04    0.34986E+01   -0.27600E+00  9752   0.730E+00    0.338E+01
DAV:  19    -0.159423851669E+04    0.13565E+01   -0.15152E+00  9256   0.505E+00    0.334E+01
DAV:  20    -0.159377722135E+04    0.46130E+00   -0.94908E-01  9168   0.352E+00    0.299E+01
DAV:  21    -0.159287726482E+04    0.89996E+00   -0.93946E-01  9224   0.408E+00    0.196E+01
DAV:  22    -0.159270828280E+04    0.16898E+00   -0.90322E-01  9224   0.468E+00    0.184E+01
DAV:  23    -0.159249792479E+04    0.21036E+00   -0.59647E-01  8904   0.321E+00    0.168E+01
DAV:  24    -0.159256152181E+04   -0.63597E-01   -0.47837E-01  9232   0.289E+00    0.198E+01
DAV:  25    -0.159225052578E+04    0.31100E+00   -0.24963E-01  9120   0.185E+00    0.163E+01
DAV:  26    -0.159198275223E+04    0.26777E+00   -0.28269E-01  9280   0.226E+00    0.124E+01
DAV:  27    -0.159216555013E+04   -0.18280E+00   -0.35861E-01  9440   0.272E+00    0.139E+01
DAV:  28    -0.159183891688E+04    0.32663E+00   -0.26372E-01  9448   0.225E+00    0.827E+00
DAV:  29    -0.159187374209E+04   -0.34825E-01   -0.22634E-01  9592   0.207E+00    0.926E+00
DAV:  30    -0.159178029575E+04    0.93446E-01   -0.12202E-01  9576   0.150E+00    0.760E+00
DAV:  31    -0.159170168350E+04    0.78612E-01   -0.62913E-02  9136   0.943E-01    0.579E+00
DAV:  32    -0.159169007318E+04    0.11610E-01   -0.42692E-02  9592   0.792E-01    0.520E+00
DAV:  33    -0.159166161843E+04    0.28455E-01   -0.37453E-02  9440   0.771E-01    0.421E+00
DAV:  34    -0.159166831383E+04   -0.66954E-02   -0.34586E-02 10408   0.712E-01    0.450E+00
DAV:  35    -0.159167987660E+04   -0.11563E-01   -0.26696E-02 10152   0.644E-01    0.558E+00
DAV:  36    -0.159166352535E+04    0.16351E-01   -0.19783E-02 10344   0.476E-01    0.428E+00
DAV:  37    -0.159165995141E+04    0.35739E-02   -0.20119E-02  9992   0.565E-01    0.432E+00
DAV:  38    -0.159165011466E+04    0.98368E-02   -0.94151E-03 12808   0.272E-01    0.376E+00
DAV:  39    -0.159164224152E+04    0.78731E-02   -0.26751E-03 10928   0.181E-01    0.333E+00
DAV:  40    -0.159163434255E+04    0.78990E-02   -0.24956E-03 11784   0.186E-01    0.283E+00
DAV:  41    -0.159163552088E+04   -0.11783E-02   -0.22320E-03 11512   0.210E-01    0.297E+00
DAV:  42    -0.159162606254E+04    0.94583E-02   -0.12948E-03 12336   0.132E-01    0.214E+00
DAV:  43    -0.159162052234E+04    0.55402E-02   -0.11580E-03 12488   0.984E-02    0.157E+00
DAV:  44    -0.159161709980E+04    0.34225E-02   -0.11287E-03 13304   0.923E-02    0.877E-01
DAV:  45    -0.159161675885E+04    0.34095E-03   -0.40537E-04  8672   0.380E-02    0.792E-01
DAV:  46    -0.159161611979E+04    0.63906E-03   -0.10915E-04  8904   0.296E-02    0.546E-01
DAV:  47    -0.159161570320E+04    0.41659E-03   -0.50125E-04 12136   0.719E-02    0.314E-01
DAV:  48    -0.159161572753E+04   -0.24326E-04   -0.36604E-04 13536   0.451E-02    0.302E-01
DAV:  49    -0.159161563257E+04    0.94963E-04   -0.12796E-04  9072   0.314E-02    0.165E-01
DAV:  50    -0.159161558350E+04    0.49069E-04   -0.31534E-05  7704   0.209E-02    0.837E-02
DAV:  51    -0.159161558060E+04    0.28969E-05   -0.11102E-05  4560   0.880E-03
   7 F= -.17039769E+04 E0= -.17032555E+04  d E =-.322022E+02
 curvature:   7.19 expect dE= 0.525E+03 dE for cont linesearch  0.134E+02
 ZBRENT: bracketing found
 ZBRENT: interpolating
 opt :   1.5690  next Energy= -1707.307929 (dE=-0.355E+02)
 bond charge predicted
       N       E                     dE             d eps       ncg     rms          rms(c)
DAV:   1    -0.157518390317E+04    0.16432E+02   -0.62801E+03  7892   0.764E+01    0.343E+01
DAV:   2    -0.216789151935E+04   -0.59271E+03   -0.18329E+02  9960   0.700E+01    0.280E+02
DAV:   3    -0.167458551124E+04    0.49331E+03   -0.14679E+02  9088   0.536E+01    0.129E+02
DAV:   4    -0.164887320279E+04    0.25712E+02   -0.33570E+01  9680   0.389E+01    0.993E+01
DAV:   5    -0.172737075067E+04   -0.78498E+02   -0.83890E+01 10728   0.483E+01    0.176E+02
DAV:   6    -0.164500994327E+04    0.82361E+02   -0.36531E+01  9640   0.257E+01    0.979E+01
DAV:   7    -0.161395537557E+04    0.31055E+02   -0.23908E+01  9704   0.260E+01    0.703E+01
DAV:   8    -0.162928100335E+04   -0.15326E+02   -0.26857E+01 10576   0.273E+01    0.955E+01
DAV:   9    -0.162131733596E+04    0.79637E+01   -0.17536E+01  9408   0.205E+01    0.870E+01
DAV:  10    -0.160226946648E+04    0.19048E+02   -0.14417E+01  9320   0.177E+01    0.440E+01
DAV:  11    -0.160116711226E+04    0.11024E+01   -0.71409E+00  9296   0.124E+01    0.449E+01
DAV:  12    -0.159824819033E+04    0.29189E+01   -0.65888E+00  9424   0.112E+01    0.333E+01
DAV:  13    -0.160003682071E+04   -0.17886E+01   -0.46550E+00  9472   0.986E+00    0.437E+01
DAV:  14    -0.159789112323E+04    0.21457E+01   -0.32221E+00  9424   0.785E+00    0.308E+01
DAV:  15    -0.159667428647E+04    0.12168E+01   -0.20901E+00  9280   0.609E+00    0.225E+01
DAV:  16    -0.159603282544E+04    0.64146E+00   -0.14895E+00  9248   0.558E+00    0.167E+01
DAV:  17    -0.159562033843E+04    0.41249E+00   -0.10063E+00  9200   0.490E+00    0.132E+01
DAV:  18    -0.159626263819E+04   -0.64230E+00   -0.11334E+00 10400   0.466E+00    0.201E+01
DAV:  19    -0.159567803231E+04    0.58461E+00   -0.85739E-01  9408   0.413E+00    0.153E+01
DAV:  20    -0.159537214959E+04    0.30588E+00   -0.53846E-01  9792   0.289E+00    0.117E+01
DAV:  21    -0.159554996638E+04   -0.17782E+00   -0.28403E-01  9368   0.213E+00    0.148E+01
DAV:  22    -0.159550460188E+04    0.45365E-01   -0.18238E-01  9416   0.196E+00    0.142E+01
DAV:  23    -0.159523230358E+04    0.27230E+00   -0.19534E-01  9216   0.175E+00    0.761E+00
DAV:  24    -0.159515138121E+04    0.80922E-01   -0.14486E-01  9576   0.155E+00    0.502E+00
DAV:  25    -0.159515915422E+04   -0.77730E-02   -0.87386E-02  9896   0.113E+00    0.524E+00
DAV:  26    -0.159510140196E+04    0.57752E-01   -0.51088E-02  9280   0.906E-01    0.300E+00
DAV:  27    -0.159510902385E+04   -0.76219E-02   -0.41872E-02 12272   0.594E-01    0.300E+00
DAV:  28    -0.159511021272E+04   -0.11889E-02   -0.27674E-02 10968   0.685E-01    0.320E+00
DAV:  29    -0.159509567094E+04    0.14542E-01   -0.18289E-02 10312   0.592E-01    0.210E+00
DAV:  30    -0.159509800877E+04   -0.23378E-02   -0.14416E-02 10784   0.469E-01    0.221E+00
DAV:  31    -0.159508762314E+04    0.10386E-01   -0.10079E-02 10272   0.434E-01    0.130E+00
DAV:  32    -0.159509524909E+04   -0.76259E-02   -0.75529E-03 11896   0.348E-01    0.216E+00
DAV:  33    -0.159509810345E+04   -0.28544E-02   -0.55173E-03 11152   0.319E-01    0.275E+00
DAV:  34    -0.159509404342E+04    0.40600E-02   -0.20763E-03 10344   0.181E-01    0.236E+00
DAV:  35    -0.159508766597E+04    0.63774E-02   -0.14675E-03  9920   0.135E-01    0.135E+00
DAV:  36    -0.159508674246E+04    0.92352E-03   -0.11093E-03 10920   0.138E-01    0.996E-01
DAV:  37    -0.159508658621E+04    0.15624E-03   -0.98859E-04 10448   0.134E-01    0.105E+00
DAV:  38    -0.159508668105E+04   -0.94834E-04   -0.54102E-04 12056   0.742E-02    0.108E+00
DAV:  39    -0.159508598665E+04    0.69440E-03   -0.22906E-04 10088   0.587E-02    0.891E-01
DAV:  40    -0.159508522239E+04    0.76426E-03   -0.16725E-04 11408   0.441E-02    0.563E-01
DAV:  41    -0.159508518376E+04    0.38635E-04   -0.99337E-05 10392   0.361E-02    0.505E-01
DAV:  42    -0.159508509837E+04    0.85384E-04   -0.81223E-05  9960   0.251E-02    0.315E-01
DAV:  43    -0.159508521382E+04   -0.11545E-03   -0.12196E-04  8272   0.415E-02    0.223E-01
DAV:  44    -0.159508521608E+04   -0.22599E-05   -0.11294E-04 11592   0.261E-02    0.851E-02
DAV:  45    -0.159508527794E+04   -0.61862E-04   -0.29803E-05  5656   0.195E-02    0.141E-01
DAV:  46    -0.159508536063E+04   -0.82688E-04   -0.11190E-05  5264   0.850E-03    0.211E-01
DAV:  47    -0.159508528758E+04    0.73053E-04   -0.29245E-05  5464   0.230E-02    0.327E-02
DAV:  48    -0.159508531309E+04   -0.25514E-04   -0.35523E-06  4648   0.608E-03    0.544E-02
DAV:  49    -0.159508533104E+04   -0.17950E-04   -0.30419E-06  4592   0.354E-03    0.428E-02
DAV:  50    -0.159508533986E+04   -0.88182E-05   -0.15914E-06  4336   0.323E-03    0.153E-02
DAV:  51    -0.159508534871E+04   -0.88466E-05   -0.13327E-06  4504   0.235E-03    0.898E-03
DAV:  52    -0.159508535544E+04   -0.67386E-05   -0.94691E-07  4328   0.204E-03    0.761E-03
DAV:  53    -0.159508536382E+04   -0.83707E-05   -0.85234E-07  4592   0.150E-03    0.523E-03
DAV:  54    -0.159508536734E+04   -0.35209E-05   -0.45024E-07  4216   0.129E-03
   8 F= -.17074046E+04 E0= -.17066362E+04  d E =-.356300E+02
 curvature:  -0.37 expect dE=-0.172E+02 dE for cont linesearch -0.305E-02
 trial: gam= 0.14298 g(F)=  0.469E+02 g(S)=  0.000E+00 ort = 0.139E+01 (trialstep = 0.111E+01)
 search vector abs. value=  0.520E+02
 bond charge predicted
       N       E                     dE             d eps       ncg     rms          rms(c)
DAV:   1    -0.159972812569E+04   -0.46428E+01   -0.10157E+04  7888   0.992E+01    0.588E+01
DAV:   2    -0.284599078884E+04   -0.12463E+04   -0.31353E+02  9472   0.129E+02    0.351E+02
DAV:   3    -0.184537846605E+04    0.10006E+04   -0.26500E+02 10232   0.631E+01    0.197E+02
DAV:   4    -0.174385585811E+04    0.10152E+03   -0.65911E+01 10024   0.531E+01    0.113E+02
DAV:   5    -0.187661346373E+04   -0.13276E+03   -0.13058E+02 10216   0.675E+01    0.188E+02
DAV:   6    -0.176439268244E+04    0.11222E+03   -0.10454E+02  9744   0.477E+01    0.166E+02
DAV:   7    -0.165728766800E+04    0.10711E+03   -0.58449E+01  9312   0.316E+01    0.669E+01
DAV:   8    -0.169536570045E+04   -0.38078E+02   -0.52968E+01  9816   0.384E+01    0.114E+02
DAV:   9    -0.171066451116E+04   -0.15299E+02   -0.35906E+01  9032   0.320E+01    0.125E+02
DAV:  10    -0.167799632017E+04    0.32668E+02   -0.28835E+01  9256   0.236E+01    0.955E+01
DAV:  11    -0.165310532548E+04    0.24891E+02   -0.17037E+01  8968   0.193E+01    0.562E+01
DAV:  12    -0.164888888901E+04    0.42164E+01   -0.10811E+01  9176   0.139E+01    0.595E+01
DAV:  13    -0.164714092614E+04    0.17480E+01   -0.88919E+00  9152   0.151E+01    0.542E+01
DAV:  14    -0.164217879699E+04    0.49621E+01   -0.71480E+00  8984   0.112E+01    0.391E+01
DAV:  15    -0.164217445460E+04    0.43424E-02   -0.50853E+00  8880   0.105E+01    0.388E+01
DAV:  16    -0.164331117628E+04   -0.11367E+01   -0.42943E+00  8928   0.110E+01    0.508E+01
DAV:  17    -0.164012739707E+04    0.31838E+01   -0.35308E+00  9256   0.935E+00    0.350E+01
DAV:  18    -0.163821283209E+04    0.19146E+01   -0.28151E+00  8960   0.784E+00    0.283E+01
DAV:  19    -0.163732452697E+04    0.88831E+00   -0.15920E+00  9032   0.586E+00    0.226E+01
DAV:  20    -0.163921761829E+04   -0.18931E+01   -0.13368E+00  9280   0.532E+00    0.372E+01
DAV:  21    -0.163776363408E+04    0.14540E+01   -0.13849E+00  9016   0.503E+00    0.309E+01
DAV:  22    -0.163622860489E+04    0.15350E+01   -0.85382E-01  9352   0.370E+00    0.230E+01
DAV:  23    -0.163585410114E+04    0.37450E+00   -0.80244E-01  9552   0.345E+00    0.200E+01
DAV:  24    -0.163515749761E+04    0.69660E+00   -0.32017E-01  9208   0.223E+00    0.149E+01
DAV:  25    -0.163577207317E+04   -0.61458E+00   -0.45712E-01 11608   0.249E+00    0.234E+01
DAV:  26    -0.163564784818E+04    0.12422E+00   -0.42139E-01 10696   0.234E+00    0.218E+01
DAV:  27    -0.163536124022E+04    0.28661E+00   -0.25521E-01  9440   0.170E+00    0.177E+01
DAV:  28    -0.163524415372E+04    0.11709E+00   -0.18341E-01  9528   0.153E+00    0.157E+01
DAV:  29    -0.163527964885E+04   -0.35495E-01   -0.18339E-01  9664   0.191E+00    0.158E+01
DAV:  30    -0.163528130281E+04   -0.16540E-02   -0.14937E-01 10000   0.172E+00    0.161E+01
DAV:  31    -0.163522535550E+04    0.55947E-01   -0.12568E-01  9896   0.168E+00    0.160E+01
DAV:  32    -0.163487738105E+04    0.34797E+00   -0.14819E-01  9840   0.143E+00    0.894E+00
DAV:  33    -0.163490911724E+04   -0.31736E-01   -0.15774E-01 10064   0.160E+00    0.121E+01
DAV:  34    -0.163483831097E+04    0.70806E-01   -0.73926E-02  9872   0.996E-01    0.935E+00
DAV:  35    -0.163487222042E+04   -0.33909E-01   -0.34449E-02  9568   0.744E-01    0.109E+01
DAV:  36    -0.163472472970E+04    0.14749E+00   -0.61227E-02 12584   0.791E-01    0.611E+00
DAV:  37    -0.163467922101E+04    0.45509E-01   -0.24114E-02 11848   0.581E-01    0.449E+00
DAV:  38    -0.163468018358E+04   -0.96257E-03   -0.20682E-02 12720   0.424E-01    0.503E+00
DAV:  39    -0.163466035031E+04    0.19833E-01   -0.84701E-03 11368   0.337E-01    0.375E+00
DAV:  40    -0.163464673497E+04    0.13615E-01   -0.82897E-03 12192   0.282E-01    0.279E+00
DAV:  41    -0.163463902568E+04    0.77093E-02   -0.62590E-03 12368   0.318E-01    0.207E+00
DAV:  42    -0.163463440503E+04    0.46206E-02   -0.55242E-03 12064   0.253E-01    0.157E+00
DAV:  43    -0.163463081611E+04    0.35889E-02   -0.39142E-03 10640   0.213E-01    0.110E+00
DAV:  44    -0.163463118022E+04   -0.36412E-03   -0.17446E-03 11944   0.772E-02    0.105E+00
DAV:  45    -0.163463067081E+04    0.50941E-03   -0.11126E-03 13888   0.130E-01    0.835E-01
DAV:  46    -0.163463001778E+04    0.65304E-03   -0.46514E-04 11272   0.607E-02    0.603E-01
DAV:  47    -0.163462941098E+04    0.60680E-03   -0.25942E-04 10616   0.657E-02    0.325E-01
DAV:  48    -0.163462930583E+04    0.10515E-03   -0.13103E-04 11648   0.312E-02    0.211E-01
DAV:  49    -0.163462932973E+04   -0.23897E-04   -0.59080E-05  8616   0.224E-02    0.222E-01
DAV:  50    -0.163462927543E+04    0.54294E-04   -0.44673E-05  7848   0.206E-02    0.113E-01
DAV:  51    -0.163462926345E+04    0.11982E-04   -0.10648E-05  4888   0.103E-02    0.458E-02
DAV:  52    -0.163462927413E+04   -0.10681E-04   -0.13569E-05  5064   0.119E-02    0.544E-02
DAV:  53    -0.163462928128E+04   -0.71432E-05   -0.76593E-06  4344   0.733E-03    0.650E-02
DAV:  54    -0.163462928486E+04   -0.35828E-05   -0.28338E-06  4088   0.425E-03
   9 F= -.17467389E+04 E0= -.17459502E+04  d E =-.393342E+02
 trial-energy change:  -39.334225  1 .order  -38.200369  -52.161979  -24.238759
 step:   1.7961(harm=  2.0683)  dis= 0.23779  next Energy= -1754.552126 (dE=-0.471E+02)
 bond charge predicted
       N       E                     dE             d eps       ncg     rms          rms(c)
DAV:   1    -0.163338162143E+04    0.12477E+01   -0.39427E+03  7888   0.607E+01    0.348E+01
DAV:   2    -0.202866715381E+04   -0.39529E+03   -0.97905E+01  9392   0.675E+01    0.240E+02
DAV:   3    -0.172998379031E+04    0.29868E+03   -0.78516E+01 10752   0.369E+01    0.138E+02
DAV:   4    -0.173556580823E+04   -0.55820E+01   -0.21137E+01  9688   0.371E+01    0.142E+02
DAV:   5    -0.171644145931E+04    0.19124E+02   -0.49296E+01 11384   0.347E+01    0.121E+02
DAV:   6    -0.171550106980E+04    0.94039E+00   -0.45760E+01 10976   0.291E+01    0.126E+02
DAV:   7    -0.167654571303E+04    0.38955E+02   -0.30180E+01 10240   0.285E+01    0.759E+01
DAV:   8    -0.166095533821E+04    0.15590E+02   -0.22576E+01 10464   0.221E+01    0.748E+01
DAV:   9    -0.166564101818E+04   -0.46857E+01   -0.18311E+01  9632   0.210E+01    0.759E+01
DAV:  10    -0.165513032961E+04    0.10511E+02   -0.15709E+01  9184   0.207E+01    0.503E+01
DAV:  11    -0.165217910848E+04    0.29512E+01   -0.86155E+00  9048   0.139E+01    0.463E+01
DAV:  12    -0.165011534770E+04    0.20638E+01   -0.51317E+00  9128   0.110E+01    0.454E+01
DAV:  13    -0.164541518500E+04    0.47002E+01   -0.37589E+00  9072   0.838E+00    0.253E+01
DAV:  14    -0.164566298116E+04   -0.24780E+00   -0.23235E+00  9264   0.649E+00    0.281E+01
DAV:  15    -0.164450532555E+04    0.11577E+01   -0.18235E+00  9096   0.645E+00    0.220E+01
DAV:  16    -0.164409912363E+04    0.40620E+00   -0.94768E-01  9152   0.392E+00    0.178E+01
DAV:  17    -0.164454373599E+04   -0.44461E+00   -0.85861E-01  9272   0.390E+00    0.213E+01
DAV:  18    -0.164397011070E+04    0.57363E+00   -0.78737E-01  9168   0.350E+00    0.142E+01
DAV:  19    -0.164448431225E+04   -0.51420E+00   -0.85384E-01 11560   0.391E+00    0.193E+01
DAV:  20    -0.164403919536E+04    0.44512E+00   -0.65503E-01 10296   0.359E+00    0.154E+01
DAV:  21    -0.164383287448E+04    0.20632E+00   -0.41198E-01  9784   0.270E+00    0.133E+01
DAV:  22    -0.164405437018E+04   -0.22150E+00   -0.47896E-01 10184   0.291E+00    0.161E+01
DAV:  23    -0.164352869998E+04    0.52567E+00   -0.44049E-01  9800   0.277E+00    0.876E+00
DAV:  24    -0.164350700083E+04    0.21699E-01   -0.17148E-01 10720   0.172E+00    0.744E+00
DAV:  25    -0.164337724762E+04    0.12975E+00   -0.11913E-01 10032   0.146E+00    0.437E+00
DAV:  26    -0.164337352808E+04    0.37195E-02   -0.57304E-02  9752   0.104E+00    0.385E+00
DAV:  27    -0.164339570983E+04   -0.22182E-01   -0.29127E-02  9672   0.663E-01    0.486E+00
DAV:  28    -0.164336457691E+04    0.31133E-01   -0.26260E-02  9536   0.613E-01    0.349E+00
DAV:  29    -0.164337545915E+04   -0.10882E-01   -0.24572E-02  9848   0.620E-01    0.486E+00
DAV:  30    -0.164336763464E+04    0.78245E-02   -0.13105E-02  9384   0.395E-01    0.420E+00
DAV:  31    -0.164336321061E+04    0.44240E-02   -0.74178E-03  9480   0.349E-01    0.386E+00
DAV:  32    -0.164336530831E+04   -0.20977E-02   -0.73420E-03 11680   0.300E-01    0.387E+00
DAV:  33    -0.164335672596E+04    0.85823E-02   -0.53938E-03 10336   0.305E-01    0.342E+00
DAV:  34    -0.164335651670E+04    0.20925E-03   -0.44393E-03 11432   0.255E-01    0.350E+00
DAV:  35    -0.164336657694E+04   -0.10060E-01   -0.49733E-03 11360   0.268E-01    0.465E+00
DAV:  36    -0.164335926905E+04    0.73079E-02   -0.16198E-03  9488   0.108E-01    0.412E+00
DAV:  37    -0.164335656119E+04    0.27079E-02   -0.76317E-04  8736   0.108E-01    0.394E+00
DAV:  38    -0.164334653986E+04    0.10021E-01   -0.74744E-04 11448   0.101E-01    0.313E+00
DAV:  39    -0.164334660351E+04   -0.63651E-04   -0.11791E-03 11720   0.142E-01    0.319E+00
DAV:  40    -0.164334444791E+04    0.21556E-02   -0.86658E-04 12192   0.126E-01    0.315E+00
DAV:  41    -0.164333551977E+04    0.89281E-02   -0.10339E-03 12464   0.109E-01    0.211E+00
DAV:  42    -0.164333325261E+04    0.22672E-02   -0.64324E-04 13528   0.718E-02    0.173E+00
DAV:  43    -0.164333160076E+04    0.16518E-02   -0.27435E-04 11216   0.608E-02    0.144E+00
DAV:  44    -0.164333000219E+04    0.15986E-02   -0.15628E-04 12504   0.345E-02    0.105E+00
DAV:  45    -0.164332958566E+04    0.41654E-03   -0.17194E-04 13016   0.390E-02    0.943E-01
DAV:  46    -0.164332820764E+04    0.13780E-02   -0.39306E-04 12424   0.731E-02    0.209E-01
DAV:  47    -0.164332823108E+04   -0.23442E-04   -0.20163E-04 13248   0.339E-02    0.221E-01
DAV:  48    -0.164332816843E+04    0.62653E-04   -0.79558E-05  8680   0.263E-02    0.736E-02
DAV:  49    -0.164332815956E+04    0.88718E-05   -0.17812E-05  5968   0.140E-02    0.337E-02
DAV:  50    -0.164332816161E+04   -0.20531E-05   -0.80791E-06  4208   0.845E-03
  10 F= -.17553414E+04 E0= -.17545464E+04  d E =-.479367E+02
 curvature:  -1.05 expect dE=-0.420E+02 dE for cont linesearch -0.176E+00
 trial: gam= 0.86830 g(F)=  0.400E+02 g(S)=  0.000E+00 ort = 0.295E+01 (trialstep = 0.768E+00)
 search vector abs. value=  0.843E+02
 bond charge predicted
       N       E                     dE             d eps       ncg     rms          rms(c)
DAV:   1    -0.163536124375E+04    0.79669E+01   -0.80025E+03  7888   0.866E+01    0.503E+01
DAV:   2    -0.197540037111E+04   -0.34004E+03   -0.29362E+02  9664   0.826E+01    0.204E+02
DAV:   3    -0.182181027926E+04    0.15359E+03   -0.15644E+02 10072   0.562E+01    0.167E+02
DAV:   4    -0.175456165061E+04    0.67249E+02   -0.54462E+01  9872   0.489E+01    0.132E+02
DAV:   5    -0.174126408134E+04    0.13298E+02   -0.51825E+01  9520   0.425E+01    0.114E+02
DAV:   6    -0.170866284988E+04    0.32601E+02   -0.46215E+01 10104   0.341E+01    0.120E+02
DAV:   7    -0.169731159791E+04    0.11351E+02   -0.25795E+01  9712   0.300E+01    0.922E+01
DAV:   8    -0.172397567440E+04   -0.26664E+02   -0.36976E+01  9800   0.351E+01    0.113E+02
DAV:   9    -0.170706838418E+04    0.16907E+02   -0.24506E+01  9712   0.240E+01    0.902E+01
DAV:  10    -0.169682602478E+04    0.10242E+02   -0.28486E+01  9448   0.280E+01    0.746E+01
DAV:  11    -0.170650994866E+04   -0.96839E+01   -0.33053E+01  9360   0.297E+01    0.109E+02
DAV:  12    -0.171298859860E+04   -0.64786E+01   -0.31853E+01  9384   0.264E+01    0.127E+02
DAV:  13    -0.168246676425E+04    0.30522E+02   -0.20375E+01  9176   0.218E+01    0.782E+01
DAV:  14    -0.167980117434E+04    0.26656E+01   -0.22029E+01  9464   0.194E+01    0.724E+01
DAV:  15    -0.168346008470E+04   -0.36589E+01   -0.13648E+01  9024   0.175E+01    0.776E+01
DAV:  16    -0.167908674251E+04    0.43733E+01   -0.75139E+00  9008   0.121E+01    0.806E+01
DAV:  17    -0.167060197957E+04    0.84848E+01   -0.42796E+00  9120   0.890E+00    0.553E+01
DAV:  18    -0.166535347479E+04    0.52485E+01   -0.39820E+00  9760   0.954E+00    0.331E+01
DAV:  19    -0.166531856134E+04    0.34913E-01   -0.29941E+00  9328   0.781E+00    0.372E+01
DAV:  20    -0.166396800992E+04    0.13506E+01   -0.24395E+00  9112   0.619E+00    0.297E+01
DAV:  21    -0.166287793090E+04    0.10901E+01   -0.14761E+00  8976   0.483E+00    0.205E+01
DAV:  22    -0.166253425235E+04    0.34368E+00   -0.11436E+00  9168   0.500E+00    0.209E+01
DAV:  23    -0.166211030170E+04    0.42395E+00   -0.56971E-01 10592   0.214E+00    0.164E+01
DAV:  24    -0.166211213340E+04   -0.18317E-02   -0.32616E-01  9176   0.211E+00    0.163E+01
DAV:  25    -0.166240636949E+04   -0.29424E+00   -0.55815E-01  9768   0.314E+00    0.174E+01
DAV:  26    -0.166239029275E+04    0.16077E-01   -0.54581E-01  9624   0.331E+00    0.162E+01
DAV:  27    -0.166218807482E+04    0.20222E+00   -0.34090E-01  9648   0.230E+00    0.149E+01
DAV:  28    -0.166182809296E+04    0.35998E+00   -0.21629E-01  9608   0.212E+00    0.105E+01
DAV:  29    -0.166170577622E+04    0.12232E+00   -0.21453E-01  9344   0.198E+00    0.745E+00
DAV:  30    -0.166174727852E+04   -0.41502E-01   -0.15684E-01  9688   0.175E+00    0.868E+00
DAV:  31    -0.166170334586E+04    0.43933E-01   -0.11425E-01  9552   0.149E+00    0.758E+00
DAV:  32    -0.166175873037E+04   -0.55385E-01   -0.63608E-02  9824   0.119E+00    0.939E+00
DAV:  33    -0.166171998086E+04    0.38750E-01   -0.57854E-02  9520   0.117E+00    0.905E+00
DAV:  34    -0.166167313090E+04    0.46850E-01   -0.42238E-02  9688   0.895E-01    0.729E+00
DAV:  35    -0.166163300512E+04    0.40126E-01   -0.32232E-02  9464   0.779E-01    0.662E+00
DAV:  36    -0.166164651195E+04   -0.13507E-01   -0.22491E-02 10720   0.576E-01    0.725E+00
DAV:  37    -0.166160770125E+04    0.38811E-01   -0.17371E-02 10144   0.526E-01    0.630E+00
DAV:  38    -0.166161181529E+04   -0.41140E-02   -0.13153E-02 12928   0.249E-01    0.672E+00
DAV:  39    -0.166158798937E+04    0.23826E-01   -0.35427E-03  9856   0.197E-01    0.552E+00
DAV:  40    -0.166156148887E+04    0.26500E-01   -0.32008E-03 10920   0.226E-01    0.430E+00
DAV:  41    -0.166154671519E+04    0.14774E-01   -0.33369E-03 13520   0.186E-01    0.326E+00
DAV:  42    -0.166153634002E+04    0.10375E-01   -0.20942E-03 12976   0.174E-01    0.239E+00
DAV:  43    -0.166153196985E+04    0.43702E-02   -0.12792E-03 13048   0.122E-01    0.202E+00
DAV:  44    -0.166152672191E+04    0.52479E-02   -0.90267E-04 12832   0.852E-02    0.113E+00
DAV:  45    -0.166152559216E+04    0.11298E-02   -0.71475E-04  9328   0.688E-02    0.876E-01
DAV:  46    -0.166152440146E+04    0.11907E-02   -0.33631E-04 10000   0.637E-02    0.259E-01
DAV:  47    -0.166152438375E+04    0.17710E-04   -0.28064E-04  8616   0.394E-02    0.225E-01
DAV:  48    -0.166152436530E+04    0.18449E-04   -0.10717E-04  8064   0.169E-02    0.205E-01
DAV:  49    -0.166152434650E+04    0.18792E-04   -0.76975E-06  4304   0.805E-03    0.192E-01
DAV:  50    -0.166152437719E+04   -0.30687E-04   -0.39307E-05  8688   0.223E-02    0.213E-01
DAV:  51    -0.166152437053E+04    0.66613E-05   -0.60015E-05 10208   0.303E-02    0.217E-01
DAV:  52    -0.166152432878E+04    0.41748E-04   -0.27070E-05  6640   0.151E-02    0.161E-01
DAV:  53    -0.166152430540E+04    0.23379E-04   -0.13020E-05  4824   0.824E-03    0.104E-01
DAV:  54    -0.166152429595E+04    0.94543E-05   -0.56441E-06  4064   0.705E-03    0.771E-02
DAV:  55    -0.166152428848E+04    0.74659E-05   -0.39676E-06  4072   0.632E-03    0.419E-02
DAV:  56    -0.166152428751E+04    0.97044E-06   -0.30486E-06  4048   0.379E-03
  11 F= -.17734120E+04 E0= -.17726312E+04  d E =-.180706E+02
 trial-energy change:  -18.070628  1 .order  -18.994274  -32.672913   -5.315634
 step:   0.9690(harm=  0.9177)  dis= 0.15821  next Energy= -1774.089161 (dE=-0.187E+02)
 bond charge predicted
       N       E                     dE             d eps       ncg     rms          rms(c)
DAV:   1    -0.166123823661E+04    0.28605E+00   -0.53702E+02  7888   0.217E+01    0.173E+01
DAV:   2    -0.167489283109E+04   -0.13655E+02   -0.14194E+01  9576   0.136E+01    0.567E+01
DAV:   3    -0.168543656569E+04   -0.10544E+02   -0.83902E+00  9240   0.221E+01    0.765E+01
DAV:   4    -0.176257450010E+04   -0.77138E+02   -0.16854E+01 10656   0.276E+01    0.148E+02
DAV:   5    -0.167968148831E+04    0.82893E+02   -0.11223E+01 10360   0.209E+01    0.699E+01
DAV:   6    -0.168398314049E+04   -0.43017E+01   -0.10016E+01 10720   0.172E+01    0.799E+01
DAV:   7    -0.167182187222E+04    0.12161E+02   -0.88178E+00 10256   0.167E+01    0.495E+01
DAV:   8    -0.166835749798E+04    0.34644E+01   -0.77418E+00 10408   0.141E+01    0.494E+01
DAV:   9    -0.166881419102E+04   -0.45669E+00   -0.55762E+00  9752   0.112E+01    0.458E+01
DAV:  10    -0.166410325188E+04    0.47109E+01   -0.37156E+00  9712   0.907E+00    0.237E+01
DAV:  11    -0.166359702315E+04    0.50623E+00   -0.15908E+00  9544   0.604E+00    0.224E+01
DAV:  12    -0.166356497932E+04    0.32044E-01   -0.12426E+00  9560   0.491E+00    0.191E+01
DAV:  13    -0.166260214681E+04    0.96283E+00   -0.82927E-01  9288   0.429E+00    0.121E+01
DAV:  14    -0.166240438100E+04    0.19777E+00   -0.36885E-01 10336   0.194E+00    0.943E+00
DAV:  15    -0.166241872145E+04   -0.14340E-01   -0.18729E-01  9464   0.179E+00    0.864E+00
DAV:  16    -0.166230781222E+04    0.11091E+00   -0.15148E-01  9360   0.162E+00    0.673E+00
DAV:  17    -0.166241983104E+04   -0.11202E+00   -0.15409E-01 10040   0.163E+00    0.942E+00
DAV:  18    -0.166230342207E+04    0.11641E+00   -0.10288E-01  9392   0.135E+00    0.737E+00
DAV:  19    -0.166229867466E+04    0.47474E-02   -0.71094E-02 10208   0.971E-01    0.636E+00
DAV:  20    -0.166229780667E+04    0.86800E-03   -0.13636E-01 10168   0.136E+00    0.537E+00
DAV:  21    -0.166223764805E+04    0.60159E-01   -0.71454E-02 10024   0.129E+00    0.385E+00
DAV:  22    -0.166225399856E+04   -0.16351E-01   -0.40572E-02 10912   0.820E-01    0.436E+00
DAV:  23    -0.166222433117E+04    0.29667E-01   -0.30651E-02 10384   0.729E-01    0.276E+00
DAV:  24    -0.166221333019E+04    0.11001E-01   -0.17551E-02 10144   0.562E-01    0.198E+00
DAV:  25    -0.166221762386E+04   -0.42937E-02   -0.11403E-02 10576   0.466E-01    0.255E+00
DAV:  26    -0.166221782777E+04   -0.20391E-03   -0.82783E-03 10048   0.382E-01    0.280E+00
DAV:  27    -0.166221909761E+04   -0.12698E-02   -0.45098E-03 10400   0.296E-01    0.287E+00
DAV:  28    -0.166221291024E+04    0.61874E-02   -0.29492E-03 10032   0.219E-01    0.226E+00
DAV:  29    -0.166220612290E+04    0.67873E-02   -0.27801E-03 10828   0.208E-01    0.839E-01
DAV:  30    -0.166220471054E+04    0.14124E-02   -0.15704E-03 10456   0.180E-01    0.657E-01
DAV:  31    -0.166220537741E+04   -0.66687E-03   -0.12454E-03 10484   0.153E-01    0.696E-01
DAV:  32    -0.166220462304E+04    0.75437E-03   -0.10217E-03 10240   0.139E-01    0.649E-01
DAV:  33    -0.166220457244E+04    0.50602E-04   -0.63497E-04 12192   0.779E-02    0.466E-01
DAV:  34    -0.166220404695E+04    0.52548E-03   -0.30427E-04 10392   0.725E-02    0.266E-01
DAV:  35    -0.166220404532E+04    0.16331E-05   -0.17656E-04 12040   0.367E-02    0.244E-01
DAV:  36    -0.166220397838E+04    0.66936E-04   -0.69531E-05  9280   0.321E-02    0.176E-01
DAV:  37    -0.166220395499E+04    0.23395E-04   -0.36074E-05  8448   0.231E-02    0.143E-01
DAV:  38    -0.166220393908E+04    0.15904E-04   -0.42253E-05  8160   0.270E-02    0.125E-01
DAV:  39    -0.166220390218E+04    0.36899E-04   -0.12209E-05  5088   0.173E-02    0.470E-02
DAV:  40    -0.166220390986E+04   -0.76774E-05   -0.12297E-05  4472   0.142E-02    0.624E-02
DAV:  41    -0.166220390911E+04    0.75297E-06   -0.94578E-06  4360   0.121E-02
  12 F= -.17740714E+04 E0= -.17732934E+04  d E =-.187300E+02
 curvature:  -0.80 expect dE=-0.178E+02 dE for cont linesearch -0.609E-03
 trial: gam= 0.64981 g(F)=  0.222E+02 g(S)=  0.000E+00 ort =-0.253E+00 (trialstep = 0.809E+00)
 search vector abs. value=  0.574E+02
 bond charge predicted
       N       E                     dE             d eps       ncg     rms          rms(c)
DAV:   1    -0.166221712037E+04   -0.13211E-01   -0.57540E+03  7896   0.734E+01    0.546E+01
DAV:   2    -0.207830078355E+04   -0.41608E+03   -0.17899E+02  9512   0.849E+01    0.257E+02
DAV:   3    -0.183798727993E+04    0.24031E+03   -0.11387E+02 10592   0.261E+01    0.145E+02
DAV:   4    -0.223224827809E+04   -0.39426E+03   -0.80836E+01 10600   0.755E+01    0.272E+02
DAV:   5    -0.182554987811E+04    0.40670E+03   -0.12319E+02 12656   0.456E+01    0.137E+02
DAV:   6    -0.171224227732E+04    0.11331E+03   -0.68080E+01 12016   0.346E+01    0.106E+02
DAV:   7    -0.171280423582E+04   -0.56196E+00   -0.43391E+01 10288   0.323E+01    0.931E+01
DAV:   8    -0.177818886091E+04   -0.65385E+02   -0.55694E+01 10360   0.392E+01    0.152E+02
DAV:   9    -0.173675368104E+04    0.41435E+02   -0.37584E+01  9184   0.289E+01    0.116E+02
DAV:  10    -0.173119298216E+04    0.55607E+01   -0.27014E+01  9608   0.224E+01    0.113E+02
DAV:  11    -0.170951015548E+04    0.21683E+02   -0.26021E+01 10016   0.251E+01    0.830E+01
DAV:  12    -0.169754513123E+04    0.11965E+02   -0.22826E+01  9440   0.233E+01    0.696E+01
DAV:  13    -0.169425053552E+04    0.32946E+01   -0.11568E+01  9112   0.195E+01    0.773E+01
DAV:  14    -0.169136767968E+04    0.28829E+01   -0.78892E+00  9120   0.112E+01    0.737E+01
DAV:  15    -0.168995667745E+04    0.14110E+01   -0.71553E+00  9288   0.114E+01    0.637E+01
DAV:  16    -0.168660132067E+04    0.33554E+01   -0.44322E+00  9072   0.837E+00    0.522E+01
DAV:  17    -0.168352115587E+04    0.30802E+01   -0.31735E+00  9336   0.730E+00    0.433E+01
DAV:  18    -0.168016539028E+04    0.33558E+01   -0.27473E+00  9672   0.774E+00    0.329E+01
DAV:  19    -0.168134144826E+04   -0.11761E+01   -0.26247E+00  9528   0.720E+00    0.420E+01
DAV:  20    -0.168062760806E+04    0.71384E+00   -0.15038E+00  9216   0.492E+00    0.409E+01
DAV:  21    -0.167977808085E+04    0.84953E+00   -0.91052E-01  8984   0.332E+00    0.380E+01
DAV:  22    -0.167916072190E+04    0.61736E+00   -0.56719E-01  9440   0.226E+00    0.343E+01
DAV:  23    -0.167829176492E+04    0.86896E+00   -0.48047E-01  9608   0.219E+00    0.266E+01
DAV:  24    -0.167810561686E+04    0.18615E+00   -0.34978E-01  9168   0.225E+00    0.242E+01
DAV:  25    -0.167812786574E+04   -0.22249E-01   -0.29165E-01  9328   0.186E+00    0.233E+01
DAV:  26    -0.167836559936E+04   -0.23773E+00   -0.49659E-01  9160   0.293E+00    0.236E+01
DAV:  27    -0.167842062440E+04   -0.55025E-01   -0.73554E-01  9448   0.383E+00    0.236E+01
DAV:  28    -0.167746140715E+04    0.95922E+00   -0.60450E-01  9224   0.360E+00    0.164E+01
DAV:  29    -0.167753745625E+04   -0.76049E-01   -0.26236E-01  9328   0.199E+00    0.189E+01
DAV:  30    -0.167765891644E+04   -0.12146E+00   -0.10311E-01  9344   0.124E+00    0.209E+01
DAV:  31    -0.167732830244E+04    0.33061E+00   -0.19778E-01 10176   0.169E+00    0.144E+01
DAV:  32    -0.167715356027E+04    0.17474E+00   -0.92470E-02 10088   0.129E+00    0.114E+01
DAV:  33    -0.167718320906E+04   -0.29649E-01   -0.65980E-02 11400   0.962E-01    0.122E+01
DAV:  34    -0.167718494532E+04   -0.17363E-02   -0.44949E-02 10768   0.845E-01    0.125E+01
DAV:  35    -0.167716290705E+04    0.22038E-01   -0.26239E-02 11664   0.616E-01    0.121E+01
DAV:  36    -0.167712246066E+04    0.40446E-01   -0.22988E-02 10624   0.627E-01    0.115E+01
DAV:  37    -0.167718829878E+04   -0.65838E-01   -0.26762E-02 12640   0.598E-01    0.133E+01
DAV:  38    -0.167718577535E+04    0.25234E-02   -0.11428E-02 11584   0.383E-01    0.133E+01
DAV:  39    -0.167708966112E+04    0.96114E-01   -0.96579E-03 10832   0.346E-01    0.113E+01
DAV:  40    -0.167698677943E+04    0.10288E+00   -0.15385E-02 14344   0.428E-01    0.858E+00
DAV:  41    -0.167696203897E+04    0.24740E-01   -0.85134E-03 13600   0.313E-01    0.795E+00
DAV:  42    -0.167694049498E+04    0.21544E-01   -0.23518E-03 12792   0.146E-01    0.742E+00
DAV:  43    -0.167694224046E+04   -0.17455E-02   -0.16138E-03  9488   0.106E-01    0.734E+00
DAV:  44    -0.167690680453E+04    0.35436E-01   -0.30928E-03 14720   0.208E-01    0.617E+00
DAV:  45    -0.167689158096E+04    0.15224E-01   -0.50745E-03 13696   0.206E-01    0.543E+00
DAV:  46    -0.167686849762E+04    0.23083E-01   -0.50447E-03 12384   0.229E-01    0.433E+00
DAV:  47    -0.167682539744E+04    0.43100E-01   -0.26054E-02 14384   0.652E-01    0.159E+00
DAV:  48    -0.167682722175E+04   -0.18243E-02   -0.21784E-02 10152   0.225E-01    0.141E+00
DAV:  49    -0.167682423880E+04    0.29830E-02   -0.22569E-03  9320   0.149E-01    0.830E-01
DAV:  50    -0.167682440932E+04   -0.17053E-03   -0.89921E-04 10096   0.889E-02    0.861E-01
DAV:  51    -0.167682390774E+04    0.50159E-03   -0.62183E-04  9240   0.759E-02    0.664E-01
DAV:  52    -0.167682445138E+04   -0.54365E-03   -0.50552E-04  9432   0.102E-01    0.804E-01
DAV:  53    -0.167682324063E+04    0.12108E-02   -0.29249E-04 11680   0.774E-02    0.317E-01
DAV:  54    -0.167682325572E+04   -0.15088E-04   -0.13300E-04  9528   0.295E-02    0.248E-01
DAV:  55    -0.167682317474E+04    0.80983E-04   -0.53663E-05  8984   0.221E-02    0.138E-01
DAV:  56    -0.167682317667E+04   -0.19288E-05   -0.25689E-05  7752   0.209E-02
  13 F= -.17885197E+04 E0= -.17877427E+04  d E =-.144483E+02
 trial-energy change:  -14.448315  1 .order  -13.595954  -17.779161   -9.412747
 step:   1.2722(harm=  1.7182)  dis= 0.19262  next Energy= -1791.379453 (dE=-0.173E+02)
 bond charge predicted
       N       E                     dE             d eps       ncg     rms          rms(c)
DAV:   1    -0.167559494690E+04    0.12282E+01   -0.19132E+03  7888   0.412E+01    0.423E+01
DAV:   2    -0.181352572327E+04   -0.13793E+03   -0.49963E+01  9480   0.450E+01    0.135E+02
DAV:   3    -0.178343126930E+04    0.30094E+02   -0.40438E+01 10312   0.488E+01    0.123E+02
DAV:   4    -0.181611253433E+04   -0.32681E+02   -0.26011E+01 10864   0.506E+01    0.164E+02
DAV:   5    -0.182156112788E+04   -0.54486E+01   -0.69833E+01 10848   0.391E+01    0.160E+02
DAV:   6    -0.176258868951E+04    0.58972E+02   -0.57786E+01 10848   0.353E+01    0.105E+02
DAV:   7    -0.176764586844E+04   -0.50572E+01   -0.33322E+01  9824   0.322E+01    0.155E+02
DAV:   8    -0.173025715646E+04    0.37389E+02   -0.28323E+01 10048   0.219E+01    0.106E+02
DAV:   9    -0.174237826230E+04   -0.12121E+02   -0.33004E+01  9984   0.288E+01    0.135E+02
DAV:  10    -0.171308425866E+04    0.29294E+02   -0.14837E+01  9240   0.172E+01    0.927E+01
DAV:  11    -0.170483545145E+04    0.82488E+01   -0.14296E+01  9288   0.137E+01    0.678E+01
DAV:  12    -0.169783453358E+04    0.70009E+01   -0.10274E+01  9440   0.148E+01    0.695E+01
DAV:  13    -0.168941159358E+04    0.84229E+01   -0.83532E+00  9304   0.118E+01    0.568E+01
DAV:  14    -0.168250365293E+04    0.69079E+01   -0.61059E+00  9416   0.101E+01    0.308E+01
DAV:  15    -0.168085989993E+04    0.16438E+01   -0.27968E+00  8784   0.673E+00    0.221E+01
DAV:  16    -0.168008919156E+04    0.77071E+00   -0.15229E+00  9120   0.466E+00    0.167E+01
DAV:  17    -0.167987010107E+04    0.21909E+00   -0.10680E+00  8888   0.392E+00    0.155E+01
DAV:  18    -0.167960576050E+04    0.26434E+00   -0.84421E-01  9128   0.360E+00    0.129E+01
DAV:  19    -0.168007259698E+04   -0.46684E+00   -0.64548E-01  9296   0.358E+00    0.213E+01
DAV:  20    -0.168142030902E+04   -0.13477E+01   -0.66487E-01  9208   0.385E+00    0.315E+01
DAV:  21    -0.168126788442E+04    0.15242E+00   -0.54256E-01  9264   0.318E+00    0.284E+01
DAV:  22    -0.168047640475E+04    0.79148E+00   -0.56816E-01  9328   0.330E+00    0.222E+01
DAV:  23    -0.167941748418E+04    0.10589E+01   -0.66753E-01  9336   0.313E+00    0.918E+00
DAV:  24    -0.167933648686E+04    0.80997E-01   -0.35426E-01 12288   0.182E+00    0.859E+00
DAV:  25    -0.167956300792E+04   -0.22652E+00   -0.29985E-01 11808   0.216E+00    0.153E+01
DAV:  26    -0.167993475390E+04   -0.37175E+00   -0.36828E-01 11256   0.232E+00    0.208E+01
DAV:  27    -0.167938481217E+04    0.54994E+00   -0.29960E-01  9976   0.233E+00    0.117E+01
DAV:  28    -0.167927198918E+04    0.11282E+00   -0.10904E-01  9704   0.124E+00    0.892E+00
DAV:  29    -0.167925401478E+04    0.17974E-01   -0.92407E-02 10184   0.130E+00    0.714E+00
DAV:  30    -0.167919382338E+04    0.60191E-01   -0.90108E-02  9992   0.121E+00    0.599E+00
DAV:  31    -0.167918972847E+04    0.40949E-02   -0.10097E-01 10312   0.142E+00    0.516E+00
DAV:  32    -0.167916577733E+04    0.23951E-01   -0.77115E-02 10064   0.123E+00    0.524E+00
DAV:  33    -0.167918442328E+04   -0.18646E-01   -0.27436E-02  9880   0.753E-01    0.673E+00
DAV:  34    -0.167912947038E+04    0.54953E-01   -0.14257E-02  9656   0.485E-01    0.333E+00
DAV:  35    -0.167911796674E+04    0.11504E-01   -0.89828E-03  9912   0.432E-01    0.247E+00
DAV:  36    -0.167910711565E+04    0.10851E-01   -0.62779E-03 10040   0.324E-01    0.105E+00
DAV:  37    -0.167910865458E+04   -0.15389E-02   -0.58940E-03 10840   0.271E-01    0.109E+00
DAV:  38    -0.167910813049E+04    0.52409E-03   -0.41910E-03 10568   0.260E-01    0.132E+00
DAV:  39    -0.167910835552E+04   -0.22504E-03   -0.21060E-03 11736   0.126E-01    0.130E+00
DAV:  40    -0.167910732345E+04    0.10321E-02   -0.10008E-03  9696   0.116E-01    0.108E+00
DAV:  41    -0.167910801825E+04   -0.69481E-03   -0.61099E-04 10216   0.100E-01    0.133E+00
DAV:  42    -0.167910626623E+04    0.17520E-02   -0.32763E-04 11776   0.561E-02    0.813E-01
DAV:  43    -0.167910646225E+04   -0.19602E-03   -0.17529E-04  8976   0.399E-02    0.903E-01
DAV:  44    -0.167910581602E+04    0.64623E-03   -0.57353E-05  8496   0.280E-02    0.628E-01
[...]
DAV:  16    -0.168748620228E+04    0.69720E-02   -0.64379E-03 10232   0.371E-01    0.190E+00
DAV:  17    -0.168748534569E+04    0.85659E-03   -0.51472E-03 10032   0.341E-01    0.148E+00
DAV:  18    -0.168748112945E+04    0.42162E-02   -0.38345E-03 10400   0.318E-01    0.804E-01
DAV:  19    -0.168748135341E+04   -0.22397E-03   -0.26949E-03 10328   0.211E-01    0.929E-01
DAV:  20    -0.168748139376E+04   -0.40345E-04   -0.15628E-03  9840   0.154E-01    0.989E-01
DAV:  21    -0.168748057957E+04    0.81419E-03   -0.89840E-04  9792   0.117E-01    0.790E-01
DAV:  22    -0.168748026296E+04    0.31661E-03   -0.40815E-04  9688   0.844E-02    0.577E-01
DAV:  23    -0.168747960677E+04    0.65620E-03   -0.31893E-04  9576   0.874E-02    0.272E-01
DAV:  24    -0.168747967998E+04   -0.73210E-04   -0.17211E-04  9272   0.524E-02    0.325E-01
DAV:  25    -0.168747969379E+04   -0.13817E-04   -0.19657E-04  8912   0.552E-02    0.311E-01
DAV:  26    -0.168747953370E+04    0.16009E-03   -0.13570E-04  8808   0.489E-02    0.180E-01
DAV:  27    -0.168747953249E+04    0.12117E-05   -0.74070E-05  9320   0.340E-02    0.113E-01
DAV:  28    -0.168747951014E+04    0.22350E-04   -0.40937E-05  8272   0.285E-02    0.113E-01
DAV:  29    -0.168747951230E+04   -0.21593E-05   -0.21606E-05  6112   0.141E-02
  16 F= -.17992091E+04 E0= -.17984327E+04  d E =-.838752E+01
 curvature:  -0.77 expect dE=-0.374E+02 dE for cont linesearch -0.519E-04
 trial: gam= 0.62781 g(F)=  0.487E+02 g(S)=  0.000E+00 ort =-0.929E-01 (trialstep = 0.413E+00)
 search vector abs. value=  0.988E+02
 bond charge predicted
       N       E                     dE             d eps       ncg     rms          rms(c)
DAV:   1    -0.169264674628E+04   -0.51672E+01   -0.29052E+03  7888   0.502E+01    0.380E+01
DAV:   2    -0.174748435537E+04   -0.54838E+02   -0.86643E+01  9392   0.264E+01    0.106E+02
DAV:   3    -0.173680796759E+04    0.10676E+02   -0.36725E+01  9168   0.360E+01    0.978E+01
DAV:   4    -0.191738922191E+04   -0.18058E+03   -0.29523E+01 10296   0.427E+01    0.175E+02
DAV:   5    -0.174450131939E+04    0.17289E+03   -0.33741E+01 10280   0.395E+01    0.119E+02
DAV:   6    -0.172001815955E+04    0.24483E+02   -0.22067E+01  9368   0.203E+01    0.726E+01
DAV:   7    -0.171690252505E+04    0.31156E+01   -0.19240E+01  9984   0.247E+01    0.594E+01
DAV:   8    -0.175513901227E+04   -0.38236E+02   -0.25735E+01 10232   0.307E+01    0.121E+02
DAV:   9    -0.171955521990E+04    0.35584E+02   -0.24142E+01  9312   0.265E+01    0.625E+01
DAV:  10    -0.171635337888E+04    0.32018E+01   -0.19948E+01  9400   0.219E+01    0.592E+01
DAV:  11    -0.172723328931E+04   -0.10880E+02   -0.17459E+01  9464   0.207E+01    0.863E+01
DAV:  12    -0.171875045669E+04    0.84828E+01   -0.12615E+01  9248   0.168E+01    0.672E+01
DAV:  13    -0.170984337842E+04    0.89071E+01   -0.91548E+00  9324   0.141E+01    0.465E+01
DAV:  14    -0.170964032348E+04    0.20305E+00   -0.59463E+00  9248   0.121E+01    0.568E+01
DAV:  15    -0.170619280960E+04    0.34475E+01   -0.33282E+00  9120   0.824E+00    0.415E+01
DAV:  16    -0.170389503404E+04    0.22978E+01   -0.17025E+00  9248   0.537E+00    0.314E+01
DAV:  17    -0.170384040642E+04    0.54628E-01   -0.10112E+00  9344   0.400E+00    0.329E+01
DAV:  18    -0.170271367252E+04    0.11267E+01   -0.83981E-01  9160   0.364E+00    0.256E+01
DAV:  19    -0.170181859794E+04    0.89507E+00   -0.61460E-01  9376   0.311E+00    0.195E+01
DAV:  20    -0.170098352333E+04    0.83507E+00   -0.39088E-01  9376   0.299E+00    0.126E+01
DAV:  21    -0.170075828849E+04    0.22523E+00   -0.28748E-01  9896   0.178E+00    0.971E+00
DAV:  22    -0.170068906618E+04    0.69222E-01   -0.17814E-01  9272   0.134E+00    0.760E+00
DAV:  23    -0.170077246685E+04   -0.83401E-01   -0.13751E-01  9512   0.144E+00    0.101E+01
DAV:  24    -0.170088192448E+04   -0.10946E+00   -0.11697E-01  9136   0.136E+00    0.133E+01
DAV:  25    -0.170083065026E+04    0.51274E-01   -0.13654E-01 10336   0.165E+00    0.111E+01
DAV:  26    -0.170083546351E+04   -0.48132E-02   -0.18342E-01 10424   0.190E+00    0.122E+01
DAV:  27    -0.170076815188E+04    0.67312E-01   -0.15561E-01 10144   0.170E+00    0.880E+00
DAV:  28    -0.170067550658E+04    0.92645E-01   -0.16055E-01  9744   0.173E+00    0.913E+00
DAV:  29    -0.170060334975E+04    0.72157E-01   -0.74180E-02  9952   0.113E+00    0.631E+00
DAV:  30    -0.170053090539E+04    0.72444E-01   -0.63300E-02  9776   0.120E+00    0.275E+00
DAV:  31    -0.170054896990E+04   -0.18065E-01   -0.37452E-02  9736   0.678E-01    0.373E+00
DAV:  32    -0.170052636232E+04    0.22608E-01   -0.30476E-02  9408   0.695E-01    0.211E+00
DAV:  33    -0.170052021534E+04    0.61470E-02   -0.11454E-02 10888   0.330E-01    0.109E+00
DAV:  34    -0.170052688107E+04   -0.66657E-02   -0.80332E-03 10224   0.379E-01    0.218E+00
DAV:  35    -0.170052732730E+04   -0.44623E-03   -0.54128E-03  9496   0.287E-01    0.251E+00
DAV:  36    -0.170052508591E+04    0.22414E-02   -0.33454E-03  9216   0.219E-01    0.219E+00
DAV:  37    -0.170051769709E+04    0.73888E-02   -0.27412E-03  9168   0.213E-01    0.872E-01
DAV:  38    -0.170051836558E+04   -0.66849E-03   -0.14740E-03 10368   0.151E-01    0.892E-01
DAV:  39    -0.170051697180E+04    0.13938E-02   -0.11497E-03  9648   0.138E-01    0.589E-01
DAV:  40    -0.170051732477E+04   -0.35297E-03   -0.79386E-04 11440   0.101E-01    0.737E-01
DAV:  41    -0.170051691946E+04    0.40531E-03   -0.39138E-04 10240   0.806E-02    0.611E-01
DAV:  42    -0.170051643309E+04    0.48637E-03   -0.14308E-04 10472   0.380E-02    0.304E-01
DAV:  43    -0.170051632853E+04    0.10455E-03   -0.59657E-05  9488   0.238E-02    0.909E-02
DAV:  44    -0.170051637099E+04   -0.42452E-04   -0.44740E-05  7824   0.136E-02    0.116E-01
DAV:  45    -0.170051636299E+04    0.79968E-05   -0.85673E-06  4744   0.789E-03    0.688E-02
DAV:  46    -0.170051636914E+04   -0.61500E-05   -0.47031E-06  4840   0.111E-02    0.304E-02
DAV:  47    -0.170051637331E+04   -0.41695E-05   -0.67931E-06  4600   0.676E-03
  17 F= -.18122397E+04 E0= -.18114658E+04  d E =-.130307E+02
 trial-energy change:  -13.030679  1 .order  -13.370363  -20.071769   -6.668957
 step:   0.6878(harm=  0.6181)  dis= 0.13051  next Energy= -1814.361507 (dE=-0.152E+02)
 bond charge predicted
       N       E                     dE             d eps       ncg     rms          rms(c)
DAV:   1    -0.169990017207E+04    0.61620E+00   -0.12711E+03  7888   0.330E+01    0.280E+01
DAV:   2    -0.172753717755E+04   -0.27637E+02   -0.32492E+01  9208   0.173E+01    0.802E+01
DAV:   3    -0.175972961714E+04   -0.32192E+02   -0.18741E+01  9472   0.315E+01    0.118E+02
DAV:   4    -0.186650836595E+04   -0.10678E+03   -0.18702E+01 10288   0.397E+01    0.170E+02
DAV:   5    -0.179443394264E+04    0.72074E+02   -0.30441E+01 11872   0.373E+01    0.155E+02
DAV:   6    -0.173926810577E+04    0.55166E+02   -0.25043E+01  9736   0.219E+01    0.895E+01
DAV:   7    -0.171491631544E+04    0.24352E+02   -0.14275E+01  9864   0.205E+01    0.548E+01
DAV:   8    -0.171867923740E+04   -0.37629E+01   -0.14597E+01 10152   0.194E+01    0.602E+01
DAV:   9    -0.171798536007E+04    0.69388E+00   -0.14168E+01  9712   0.188E+01    0.603E+01
DAV:  10    -0.170775093732E+04    0.10234E+02   -0.82788E+00  9136   0.155E+01    0.319E+01
DAV:  11    -0.170649979028E+04    0.12511E+01   -0.43385E+00  9392   0.926E+00    0.295E+01
DAV:  12    -0.170524193084E+04    0.12579E+01   -0.28380E+00  9160   0.720E+00    0.267E+01
DAV:  13    -0.170413111934E+04    0.11108E+01   -0.16274E+00  9184   0.562E+00    0.201E+01
DAV:  14    -0.170361707750E+04    0.51404E+00   -0.11513E+00  9288   0.462E+00    0.172E+01
DAV:  15    -0.170306784594E+04    0.54923E+00   -0.78458E-01  9216   0.371E+00    0.131E+01
DAV:  16    -0.170297710941E+04    0.90737E-01   -0.45429E-01  9416   0.267E+00    0.106E+01
DAV:  17    -0.170281842270E+04    0.15869E+00   -0.35163E-01  9416   0.228E+00    0.792E+00
DAV:  18    -0.170291982606E+04   -0.10140E+00   -0.33393E-01  9560   0.247E+00    0.123E+01
DAV:  19    -0.170318638037E+04   -0.26655E+00   -0.37751E-01  9288   0.270E+00    0.151E+01
DAV:  20    -0.170286646479E+04    0.31992E+00   -0.26824E-01  9408   0.232E+00    0.940E+00
DAV:  21    -0.170277860816E+04    0.87857E-01   -0.18528E-01  9416   0.198E+00    0.670E+00
DAV:  22    -0.170295228172E+04   -0.17367E+00   -0.21679E-01  9768   0.202E+00    0.125E+01
DAV:  23    -0.170297831814E+04   -0.26036E-01   -0.16250E-01  9544   0.175E+00    0.141E+01
DAV:  24    -0.170289548317E+04    0.82835E-01   -0.10839E-01  9424   0.127E+00    0.116E+01
DAV:  25    -0.170269655822E+04    0.19892E+00   -0.73336E-02  9200   0.116E+00    0.654E+00
DAV:  26    -0.170266220913E+04    0.34349E-01   -0.57914E-02 11968   0.866E-01    0.376E+00
DAV:  27    -0.170263909355E+04    0.23116E-01   -0.29548E-02 11504   0.642E-01    0.347E+00
DAV:  28    -0.170263797272E+04    0.11208E-02   -0.17803E-02  9992   0.473E-01    0.273E+00
DAV:  29    -0.170262754894E+04    0.10424E-01   -0.13178E-02  9736   0.463E-01    0.202E+00
DAV:  30    -0.170262845878E+04   -0.90984E-03   -0.78434E-03 11584   0.330E-01    0.212E+00
DAV:  31    -0.170262462037E+04    0.38384E-02   -0.63262E-03 10768   0.338E-01    0.193E+00
DAV:  32    -0.170263270667E+04   -0.80863E-02   -0.72596E-03 12928   0.314E-01    0.255E+00
DAV:  33    -0.170262528849E+04    0.74182E-02   -0.48397E-03 10864   0.279E-01    0.217E+00
DAV:  34    -0.170262075196E+04    0.45365E-02   -0.24384E-03 11664   0.192E-01    0.114E+00
DAV:  35    -0.170261865882E+04    0.20931E-02   -0.21829E-03 11568   0.193E-01    0.605E-01
DAV:  36    -0.170261924718E+04   -0.58837E-03   -0.93563E-04 12592   0.962E-02    0.791E-01
DAV:  37    -0.170261956533E+04   -0.31815E-03   -0.46434E-04  9608   0.816E-02    0.961E-01
DAV:  38    -0.170261869437E+04    0.87096E-03   -0.26526E-04  8632   0.618E-02    0.606E-01
DAV:  39    -0.170261835718E+04    0.33719E-03   -0.11870E-04  8360   0.486E-02    0.438E-01
DAV:  40    -0.170261833595E+04    0.21235E-04   -0.57893E-05  8256   0.207E-02    0.424E-01
DAV:  41    -0.170261832022E+04    0.15728E-04   -0.39852E-05  8016   0.249E-02    0.397E-01
DAV:  42    -0.170261824730E+04    0.72918E-04   -0.37973E-05  8008   0.269E-02    0.333E-01
DAV:  43    -0.170261812492E+04    0.12238E-03   -0.19078E-05  5968   0.177E-02    0.168E-01
DAV:  44    -0.170261811917E+04    0.57551E-05   -0.21489E-05  6672   0.587E-03    0.141E-01
DAV:  45    -0.170261810778E+04    0.11384E-04   -0.39276E-06  4240   0.435E-03    0.934E-02
DAV:  46    -0.170261810557E+04    0.22124E-05   -0.19092E-06  4728   0.442E-03
  18 F= -.18143519E+04 E0= -.18135777E+04  d E =-.151428E+02
 curvature:  -0.56 expect dE=-0.116E+02 dE for cont linesearch -0.163E-03
 trial: gam= 0.44692 g(F)=  0.209E+02 g(S)=  0.000E+00 ort =-0.170E+00 (trialstep = 0.468E+00)
 search vector abs. value=  0.404E+02
 bond charge predicted
       N       E                     dE             d eps       ncg     rms          rms(c)
DAV:   1    -0.170625403037E+04   -0.36359E+01   -0.14967E+03  7888   0.367E+01    0.255E+01
DAV:   2    -0.173484806026E+04   -0.28594E+02   -0.39315E+01  9520   0.184E+01    0.822E+01
DAV:   3    -0.173799318374E+04   -0.31451E+01   -0.18458E+01  9216   0.277E+01    0.871E+01
DAV:   4    -0.188135539169E+04   -0.14336E+03   -0.34221E+01 10072   0.383E+01    0.160E+02
DAV:   5    -0.176355163050E+04    0.11780E+03   -0.25477E+01 11208   0.404E+01    0.125E+02
DAV:   6    -0.173362952632E+04    0.29922E+02   -0.16135E+01  9768   0.203E+01    0.880E+01
DAV:   7    -0.171875950637E+04    0.14870E+02   -0.13068E+01 10152   0.195E+01    0.448E+01
DAV:   8    -0.173250073570E+04   -0.13741E+02   -0.14183E+01 10152   0.206E+01    0.814E+01
DAV:   9    -0.171906568689E+04    0.13435E+02   -0.85477E+00  9496   0.133E+01    0.500E+01
DAV:  10    -0.171237594294E+04    0.66897E+01   -0.48961E+00  9792   0.112E+01    0.348E+01
DAV:  11    -0.171301510538E+04   -0.63916E+00   -0.30557E+00  9936   0.731E+00    0.343E+01
DAV:  12    -0.171165254795E+04    0.13626E+01   -0.24877E+00  9680   0.658E+00    0.272E+01
DAV:  13    -0.171108443713E+04    0.56811E+00   -0.13035E+00  9488   0.535E+00    0.200E+01
DAV:  14    -0.171120672527E+04   -0.12229E+00   -0.10534E+00  9400   0.524E+00    0.275E+01
DAV:  15    -0.171103180959E+04    0.17492E+00   -0.84612E-01  9400   0.385E+00    0.257E+01
DAV:  16    -0.171055916491E+04    0.47264E+00   -0.60989E-01  9256   0.309E+00    0.190E+01
DAV:  17    -0.171009859741E+04    0.46057E+00   -0.52638E-01  9384   0.260E+00    0.125E+01
DAV:  18    -0.170995323592E+04    0.14536E+00   -0.25757E-01  9688   0.221E+00    0.105E+01
DAV:  19    -0.170998808436E+04   -0.34848E-01   -0.22261E-01  9408   0.216E+00    0.127E+01
DAV:  20    -0.171039901572E+04   -0.41093E+00   -0.22829E-01  9616   0.222E+00    0.210E+01
DAV:  21    -0.171016868132E+04    0.23033E+00   -0.19303E-01  9088   0.158E+00    0.164E+01
DAV:  22    -0.170981265401E+04    0.35603E+00   -0.13058E-01  9160   0.132E+00    0.986E+00
DAV:  23    -0.170974876872E+04    0.63885E-01   -0.12247E-01 11512   0.130E+00    0.626E+00
DAV:  24    -0.170968814646E+04    0.60622E-01   -0.74764E-02 11032   0.122E+00    0.475E+00
DAV:  25    -0.170972584605E+04   -0.37700E-01   -0.87030E-02 10656   0.114E+00    0.566E+00
DAV:  26    -0.170970757010E+04    0.18276E-01   -0.77484E-02 10168   0.118E+00    0.656E+00
DAV:  27    -0.170968657466E+04    0.20995E-01   -0.29718E-02 10088   0.741E-01    0.577E+00
DAV:  28    -0.170965779181E+04    0.28783E-01   -0.19179E-02  9944   0.539E-01    0.389E+00
DAV:  29    -0.170963050859E+04    0.27283E-01   -0.11874E-02  9760   0.453E-01    0.127E+00
DAV:  30    -0.170963419499E+04   -0.36864E-02   -0.97714E-03 12968   0.298E-01    0.134E+00
DAV:  31    -0.170962968546E+04    0.45095E-02   -0.60285E-03 11088   0.295E-01    0.622E-01
DAV:  32    -0.170963131557E+04   -0.16301E-02   -0.32209E-03 11584   0.220E-01    0.998E-01
DAV:  33    -0.170962906161E+04    0.22540E-02   -0.18983E-03 10416   0.186E-01    0.397E-01
DAV:  34    -0.170963066569E+04   -0.16041E-02   -0.15530E-03 11680   0.156E-01    0.842E-01
DAV:  35    -0.170962945384E+04    0.12118E-02   -0.98306E-04 10848   0.136E-01    0.650E-01
DAV:  36    -0.170962912658E+04    0.32727E-03   -0.53044E-04 11920   0.834E-02    0.355E-01
DAV:  37    -0.170962916454E+04   -0.37965E-04   -0.44200E-04 10088   0.853E-02    0.481E-01
DAV:  38    -0.170962909724E+04    0.67297E-04   -0.15449E-04 12208   0.322E-02    0.435E-01
DAV:  39    -0.170962919881E+04   -0.10156E-03   -0.80962E-05  9528   0.360E-02    0.492E-01
DAV:  40    -0.170962913334E+04    0.65468E-04   -0.30937E-05  7720   0.218E-02    0.456E-01
DAV:  41    -0.170962897424E+04    0.15910E-03   -0.18751E-05  4760   0.172E-02    0.320E-01
DAV:  42    -0.170962884031E+04    0.13393E-03   -0.31900E-05  5016   0.226E-02    0.887E-02
DAV:  43    -0.170962884621E+04   -0.59032E-05   -0.24776E-05  7416   0.865E-03    0.512E-02
DAV:  44    -0.170962885053E+04   -0.43130E-05   -0.56796E-06  4392   0.460E-03
  19 F= -.18213616E+04 E0= -.18205878E+04  d E =-.700977E+01
 trial-energy change:   -7.009775  1 .order   -7.081741   -9.722828   -4.440655
 step:   0.9381(harm=  0.8610)  dis= 0.10764  next Energy= -1823.521095 (dE=-0.917E+01)
 bond charge predicted
       N       E                     dE             d eps       ncg     rms          rms(c)
DAV:   1    -0.170840954666E+04    0.12193E+01   -0.15045E+03  7888   0.370E+01    0.281E+01
DAV:   2    -0.174013652505E+04   -0.31727E+02   -0.37516E+01  9352   0.192E+01    0.865E+01
DAV:   3    -0.174370747674E+04   -0.35710E+01   -0.24404E+01  9144   0.315E+01    0.764E+01
DAV:   4    -0.198175224149E+04   -0.23804E+03   -0.51654E+01 11016   0.525E+01    0.189E+02
DAV:   5    -0.181588996039E+04    0.16586E+03   -0.28448E+01 10736   0.546E+01    0.156E+02
DAV:   6    -0.174413788499E+04    0.71752E+02   -0.21516E+01 10008   0.236E+01    0.981E+01
DAV:   7    -0.171835282298E+04    0.25785E+02   -0.14767E+01  9672   0.186E+01    0.441E+01
DAV:   8    -0.173063602298E+04   -0.12283E+02   -0.13581E+01  9800   0.197E+01    0.810E+01
DAV:   9    -0.171590292692E+04    0.14733E+02   -0.11640E+01  9296   0.142E+01    0.296E+01
DAV:  10    -0.171567811077E+04    0.22482E+00   -0.58295E+00  9352   0.125E+01    0.386E+01
DAV:  11    -0.171327443509E+04    0.24037E+01   -0.28794E+00  9360   0.600E+00    0.253E+01
DAV:  12    -0.171311518219E+04    0.15925E+00   -0.18172E+00  9312   0.517E+00    0.263E+01
DAV:  13    -0.171293659749E+04    0.17858E+00   -0.11725E+00  9488   0.456E+00    0.212E+01
DAV:  14    -0.171225203055E+04    0.68457E+00   -0.81299E-01  9312   0.375E+00    0.129E+01
DAV:  15    -0.171259520074E+04   -0.34317E+00   -0.63349E-01  9624   0.364E+00    0.198E+01
DAV:  16    -0.171282289420E+04   -0.22769E+00   -0.70539E-01  9216   0.327E+00    0.217E+01
DAV:  17    -0.171235827144E+04    0.46462E+00   -0.43753E-01  9208   0.252E+00    0.154E+01
DAV:  18    -0.171208255455E+04    0.27572E+00   -0.21125E-01  9416   0.200E+00    0.108E+01
DAV:  19    -0.171206172142E+04    0.20833E-01   -0.22811E-01  9264   0.208E+00    0.935E+00
DAV:  20    -0.171274253317E+04   -0.68081E+00   -0.31484E-01  9856   0.283E+00    0.233E+01
DAV:  21    -0.171247645450E+04    0.26608E+00   -0.22751E-01  9880   0.185E+00    0.192E+01
DAV:  22    -0.171201976804E+04    0.45669E+00   -0.16501E-01  9472   0.190E+00    0.126E+01
DAV:  23    -0.171204655599E+04   -0.26788E-01   -0.90694E-02  9464   0.130E+00    0.131E+01
DAV:  24    -0.171176797970E+04    0.27858E+00   -0.12883E-01  9232   0.136E+00    0.355E+00
DAV:  25    -0.171174648692E+04    0.21493E-01   -0.43175E-02  9416   0.783E-01    0.243E+00
DAV:  26    -0.171175438190E+04   -0.78950E-02   -0.27774E-02  9352   0.543E-01    0.307E+00
DAV:  27    -0.171174033720E+04    0.14045E-01   -0.17605E-02  9200   0.477E-01    0.183E+00
DAV:  28    -0.171175035034E+04   -0.10013E-01   -0.11567E-02 10072   0.395E-01    0.281E+00
DAV:  29    -0.171174006923E+04    0.10281E-01   -0.85840E-03  9664   0.413E-01    0.166E+00
DAV:  30    -0.171174141746E+04   -0.13482E-02   -0.80224E-03 10108   0.348E-01    0.176E+00
DAV:  31    -0.171173963923E+04    0.17782E-02   -0.10907E-02 10176   0.399E-01    0.189E+00
DAV:  32    -0.171173399552E+04    0.56437E-02   -0.46910E-03  9712   0.246E-01    0.978E-01
DAV:  33    -0.171173507891E+04   -0.10834E-02   -0.37744E-03 10080   0.175E-01    0.122E+00
DAV:  34    -0.171173664329E+04   -0.15644E-02   -0.21149E-03  9224   0.152E-01    0.155E+00
DAV:  35    -0.171173552801E+04    0.11153E-02   -0.10644E-03  9424   0.944E-02    0.134E+00
DAV:  36    -0.171173753004E+04   -0.20020E-02   -0.83078E-04  9456   0.115E-01    0.169E+00
DAV:  37    -0.171173491783E+04    0.26122E-02   -0.49458E-04  8952   0.956E-02    0.124E+00
DAV:  38    -0.171173386765E+04    0.10502E-02   -0.34033E-04 11704   0.494E-02    0.897E-01
DAV:  39    -0.171173341575E+04    0.45190E-03   -0.12550E-04  9448   0.432E-02    0.716E-01
DAV:  40    -0.171173296295E+04    0.45279E-03   -0.79857E-05  9384   0.318E-02    0.428E-01
DAV:  41    -0.171173296461E+04   -0.16564E-05   -0.71637E-05  8784   0.307E-02    0.428E-01
DAV:  42    -0.171173272086E+04    0.24375E-03   -0.47014E-05  6104   0.269E-02    0.108E-01
DAV:  43    -0.171173273308E+04   -0.12215E-04   -0.53326E-05  9752   0.147E-02    0.608E-02
DAV:  44    -0.171173275575E+04   -0.22674E-04   -0.10964E-05  4824   0.853E-03    0.979E-02
DAV:  45    -0.171173276731E+04   -0.11559E-04   -0.81422E-06  4840   0.766E-03    0.883E-02
DAV:  46    -0.171173276818E+04   -0.87405E-06   -0.54850E-06  4368   0.612E-03
  20 F= -.18234851E+04 E0= -.18227123E+04  d E =-.913321E+01
 curvature:  -0.81 expect dE=-0.107E+02 dE for cont linesearch -0.939E-03
 trial: gam= 0.77131 g(F)=  0.132E+02 g(S)=  0.000E+00 ort =-0.217E+00 (trialstep = 0.562E+00)
 search vector abs. value=  0.370E+02
