NiAl                                    
            1
    15.146222    0.000000    0.000000
     7.573111   13.117013    0.000000
     0.000000    0.000000   37.600000
   Ni   O 
   252   128
Direct configuration=     1
   0.44444444  0.44444444  0.06001064
   0.44444444  0.77777778  0.06001064
   0.44444444  0.11111111  0.06001064
   0.77777778  0.44444444  0.06001064
   0.77777778  0.77777778  0.06001064
   0.77777778  0.11111111  0.06001064
   0.11111111  0.44444444  0.06001064
   0.11111111  0.77777778  0.06001064
   0.11111111  0.11111111  0.06001064
   0.55555556  0.55555556  0.12088808
   0.55555556  0.88888889  0.12088808
   0.55555556  0.22222222  0.12088808
   0.88888889  0.55555556  0.12088808
   0.88888889  0.88888889  0.12088808
   0.88888889  0.22222222  0.12088808
   0.22222222  0.55555556  0.12088808
   0.22222222  0.88888889  0.12088808
   0.22222222  0.22222222  0.12088808
   0.66666667  0.66666667  0.17979892
   0.66666667  0.00000000  0.17979892
   0.66666667  0.33333333  0.17979892
   0.00000000  0.66666667  0.17979892
   0.00000000  0.00000000  0.17979892
   0.00000000  0.33333333  0.17979892
   0.33333333  0.66666667  0.17979892
   0.33333333  0.00000000  0.17979892
   0.33333333  0.33333333  0.17979892
   0.77777778  0.77777778  0.24043056
   0.77777778  0.11111111  0.24043056
   0.77777778  0.44444444  0.24043056
   0.11111111  0.77777778  0.24043056
   0.11111111  0.11111111  0.24043056
   0.11111111  0.44444444  0.24043056
   0.44444444  0.77777778  0.24043056
   0.44444444  0.11111111  0.24043056
   0.44444444  0.44444444  0.24043056
   0.88888889  0.88888889  0.30106220
   0.88888889  0.22222222  0.30106220
   0.88888889  0.55555556  0.30106220
   0.22222222  0.88888889  0.30106220
   0.22222222  0.22222222  0.30106220
   0.22222222  0.55555556  0.30106220
   0.55555556  0.88888889  0.30106220
   0.55555556  0.22222222  0.30106220
   0.55555556  0.55555556  0.30106220
   0.00000000  0.00000000  0.35997303
   0.00000000  0.33333333  0.35997303
   0.00000000  0.66666667  0.35997303
   0.33333333  0.00000000  0.35997303
   0.33333333  0.33333333  0.35997303
   0.33333333  0.66666667  0.35997303
   0.66666667  0.00000000  0.35997303
   0.66666667  0.33333333  0.35997303
   0.66666667  0.66666667  0.35997303
   0.11111111  0.11111111  0.42085048
   0.11111111  0.44444444  0.42085048
   0.11111111  0.77777778  0.42085048
   0.44444444  0.11111111  0.42085048
   0.44444444  0.44444444  0.42085048
   0.44444444  0.77777778  0.42085048
   0.77777778  0.11111111  0.42085048
   0.77777778  0.44444444  0.42085048
   0.77777778  0.77777778  0.42085048
   0.27777778  0.27777778  0.06001064
   0.27777778  0.61111111  0.06001064
   0.27777778  0.94444444  0.06001064
   0.61111111  0.27777778  0.06001064
   0.61111111  0.61111111  0.06001064
   0.61111111  0.94444444  0.06001064
   0.94444444  0.27777778  0.06001064
   0.94444444  0.61111111  0.06001064
   0.94444444  0.94444444  0.06001064
   0.38888889  0.38888889  0.12088808
   0.38888889  0.72222222  0.12088808
   0.38888889  0.05555556  0.12088808
   0.72222222  0.38888889  0.12088808
   0.72222222  0.72222222  0.12088808
   0.72222222  0.05555556  0.12088808
   0.05555556  0.38888889  0.12088808
   0.05555556  0.72222222  0.12088808
   0.05555556  0.05555556  0.12088808
   0.50000000  0.50000000  0.17979892
   0.50000000  0.83333333  0.17979892
   0.50000000  0.16666667  0.17979892
   0.83333333  0.50000000  0.17979892
   0.83333333  0.83333333  0.17979892
   0.83333333  0.16666667  0.17979892
   0.16666667  0.50000000  0.17979892
   0.16666667  0.83333333  0.17979892
   0.16666667  0.16666667  0.17979892
   0.61111111  0.61111111  0.24043056
   0.61111111  0.94444444  0.24043056
   0.61111111  0.27777778  0.24043056
   0.94444444  0.61111111  0.24043056
   0.94444444  0.94444444  0.24043056
   0.94444444  0.27777778  0.24043056
   0.27777778  0.61111111  0.24043056
   0.27777778  0.94444444  0.24043056
   0.27777778  0.27777778  0.24043056
   0.72222222  0.72222222  0.30106220
   0.72222222  0.05555556  0.30106220
   0.72222222  0.38888889  0.30106220
   0.05555556  0.72222222  0.30106220
   0.05555556  0.05555556  0.30106220
   0.05555556  0.38888889  0.30106220
   0.38888889  0.72222222  0.30106220
   0.38888889  0.05555556  0.30106220
   0.38888889  0.38888889  0.30106220
   0.83333333  0.83333333  0.35997303
   0.83333333  0.16666667  0.35997303
   0.83333333  0.50000000  0.35997303
   0.16666667  0.83333333  0.35997303
   0.16666667  0.16666667  0.35997303
   0.16666667  0.50000000  0.35997303
   0.50000000  0.83333333  0.35997303
   0.50000000  0.16666667  0.35997303
   0.50000000  0.50000000  0.35997303
   0.94444444  0.94444444  0.42085048
   0.94444444  0.27777778  0.42085048
   0.94444444  0.61111111  0.42085048
   0.27777778  0.94444444  0.42085048
   0.27777778  0.27777778  0.42085048
   0.27777778  0.61111111  0.42085048
   0.61111111  0.94444444  0.42085048
   0.61111111  0.27777778  0.42085048
   0.61111111  0.61111111  0.42085048
   0.27777778  0.44444444  0.06001064
   0.27777778  0.77777778  0.06001064
   0.27777778  0.11111111  0.06001064
   0.61111111  0.44444444  0.06001064
   0.61111111  0.77777778  0.06001064
   0.61111111  0.11111111  0.06001064
   0.94444444  0.44444444  0.06001064
   0.94444444  0.77777778  0.06001064
   0.94444444  0.11111111  0.06001064
   0.38888889  0.55555556  0.12088808
   0.38888889  0.88888889  0.12088808
   0.38888889  0.22222222  0.12088808
   0.72222222  0.55555556  0.12088808
   0.72222222  0.88888889  0.12088808
   0.72222222  0.22222222  0.12088808
   0.05555556  0.55555556  0.12088808
   0.05555556  0.88888889  0.12088808
   0.05555556  0.22222222  0.12088808
   0.50000000  0.66666667  0.17979892
   0.50000000  0.00000000  0.17979892
   0.50000000  0.33333333  0.17979892
   0.83333333  0.66666667  0.17979892
   0.83333333  0.00000000  0.17979892
   0.83333333  0.33333333  0.17979892
   0.16666667  0.66666667  0.17979892
   0.16666667  0.00000000  0.17979892
   0.16666667  0.33333333  0.17979892
   0.61111111  0.77777778  0.24043056
   0.61111111  0.11111111  0.24043056
   0.61111111  0.44444444  0.24043056
   0.94444444  0.77777778  0.24043056
   0.94444444  0.11111111  0.24043056
   0.94444444  0.44444444  0.24043056
   0.27777778  0.77777778  0.24043056
   0.27777778  0.11111111  0.24043056
   0.27777778  0.44444444  0.24043056
   0.72222222  0.88888889  0.30106220
   0.72222222  0.22222222  0.30106220
   0.72222222  0.55555556  0.30106220
   0.05555556  0.88888889  0.30106220
   0.05555556  0.22222222  0.30106220
   0.05555556  0.55555556  0.30106220
   0.38888889  0.88888889  0.30106220
   0.38888889  0.22222222  0.30106220
   0.38888889  0.55555556  0.30106220
   0.83333333  0.00000000  0.35997303
   0.83333333  0.33333333  0.35997303
   0.83333333  0.66666667  0.35997303
   0.16666667  0.00000000  0.35997303
   0.16666667  0.33333333  0.35997303
   0.16666667  0.66666667  0.35997303
   0.50000000  0.00000000  0.35997303
   0.50000000  0.33333333  0.35997303
   0.50000000  0.66666667  0.35997303
   0.94444444  0.11111111  0.42085048
   0.94444444  0.44444444  0.42085048
   0.94444444  0.77777778  0.42085048
   0.27777778  0.11111111  0.42085048
   0.27777778  0.44444444  0.42085048
   0.27777778  0.77777778  0.42085048
   0.61111111  0.11111111  0.42085048
   0.61111111  0.44444444  0.42085048
   0.61111111  0.77777778  0.42085048
   0.44444444  0.27777778  0.06001064
   0.44444444  0.61111111  0.06001064
   0.44444444  0.94444444  0.06001064
   0.77777778  0.27777778  0.06001064
   0.77777778  0.61111111  0.06001064
   0.77777778  0.94444444  0.06001064
   0.11111111  0.27777778  0.06001064
   0.11111111  0.61111111  0.06001064
   0.11111111  0.94444444  0.06001064
   0.55555556  0.38888889  0.12088808
   0.55555556  0.72222222  0.12088808
   0.55555556  0.05555556  0.12088808
   0.88888889  0.38888889  0.12088808
   0.88888889  0.72222222  0.12088808
   0.88888889  0.05555556  0.12088808
   0.22222222  0.38888889  0.12088808
   0.22222222  0.72222222  0.12088808
   0.22222222  0.05555556  0.12088808
   0.66666667  0.50000000  0.17979892
   0.66666667  0.83333333  0.17979892
   0.66666667  0.16666667  0.17979892
   0.00000000  0.50000000  0.17979892
   0.00000000  0.83333333  0.17979892
   0.00000000  0.16666667  0.17979892
   0.33333333  0.50000000  0.17979892
   0.33333333  0.83333333  0.17979892
   0.33333333  0.16666667  0.17979892
   0.77777778  0.61111111  0.24043056
   0.77777778  0.94444444  0.24043056
   0.77777778  0.27777778  0.24043056
   0.11111111  0.61111111  0.24043056
   0.11111111  0.94444444  0.24043056
   0.11111111  0.27777778  0.24043056
   0.44444444  0.61111111  0.24043056
   0.44444444  0.94444444  0.24043056
   0.44444444  0.27777778  0.24043056
   0.88888889  0.72222222  0.30106220
   0.88888889  0.05555556  0.30106220
   0.88888889  0.38888889  0.30106220
   0.22222222  0.72222222  0.30106220
   0.22222222  0.05555556  0.30106220
   0.22222222  0.38888889  0.30106220
   0.55555556  0.72222222  0.30106220
   0.55555556  0.05555556  0.30106220
   0.55555556  0.38888889  0.30106220
   0.00000000  0.83333333  0.35997303
   0.00000000  0.16666667  0.35997303
   0.00000000  0.50000000  0.35997303
   0.33333333  0.83333333  0.35997303
   0.33333333  0.16666667  0.35997303
   0.33333333  0.50000000  0.35997303
   0.66666667  0.83333333  0.35997303
   0.66666667  0.16666667  0.35997303
   0.66666667  0.50000000  0.35997303
   0.11111111  0.94444444  0.42085048
   0.11111111  0.27777778  0.42085048
   0.11111111  0.61111111  0.42085048
   0.44444444  0.94444444  0.42085048
   0.44444444  0.27777778  0.42085048
   0.44444444  0.61111111  0.42085048
   0.77777778  0.94444444  0.42085048
   0.77777778  0.27777778  0.42085048
   0.77777778  0.61111111  0.42085048
   0.00000000  0.00000000  0.45808452
   0.00000000  0.00000000  0.48999941
   0.00000000  0.12500000  0.45808452
   0.00000000  0.12500000  0.48999941
   0.00000000  0.25000000  0.45808452
   0.00000000  0.25000000  0.48999941
   0.00000000  0.37500000  0.45808452
   0.00000000  0.37500000  0.48999941
   0.00000000  0.50000000  0.45808452
   0.00000000  0.50000000  0.48999941
   0.00000000  0.62500000  0.45808452
   0.00000000  0.62500000  0.48999941
   0.00000000  0.75000000  0.45808452
   0.00000000  0.75000000  0.48999941
   0.00000000  0.87500000  0.45808452
   0.00000000  0.87500000  0.48999941
   0.12500000  0.00000000  0.45808452
   0.12500000  0.00000000  0.48999941
   0.12500000  0.12500000  0.45808452
   0.12500000  0.12500000  0.48999941
   0.12500000  0.25000000  0.45808452
   0.12500000  0.25000000  0.48999941
   0.12500000  0.37500000  0.45808452
   0.12500000  0.37500000  0.48999941
   0.12500000  0.50000000  0.45808452
   0.12500000  0.50000000  0.48999941
   0.12500000  0.62500000  0.45808452
   0.12500000  0.62500000  0.48999941
   0.12500000  0.75000000  0.45808452
   0.12500000  0.75000000  0.48999941
   0.12500000  0.87500000  0.45808452
   0.12500000  0.87500000  0.48999941
   0.25000000  0.00000000  0.45808452
   0.25000000  0.00000000  0.48999941
   0.25000000  0.12500000  0.45808452
   0.25000000  0.12500000  0.48999941
   0.25000000  0.25000000  0.45808452
   0.25000000  0.25000000  0.48999941
   0.25000000  0.37500000  0.45808452
   0.25000000  0.37500000  0.48999941
   0.25000000  0.50000000  0.45808452
   0.25000000  0.50000000  0.48999941
   0.25000000  0.62500000  0.45808452
   0.25000000  0.62500000  0.48999941
   0.25000000  0.75000000  0.45808452
   0.25000000  0.75000000  0.48999941
   0.25000000  0.87500000  0.45808452
   0.25000000  0.87500000  0.48999941
   0.37500000  0.00000000  0.45808452
   0.37500000  0.00000000  0.48999941
   0.37500000  0.12500000  0.45808452
   0.37500000  0.12500000  0.48999941
   0.37500000  0.25000000  0.45808452
   0.37500000  0.25000000  0.48999941
   0.37500000  0.37500000  0.45808452
   0.37500000  0.37500000  0.48999941
   0.37500000  0.50000000  0.45808452
   0.37500000  0.50000000  0.48999941
   0.37500000  0.62500000  0.45808452
   0.37500000  0.62500000  0.48999941
   0.37500000  0.75000000  0.45808452
   0.37500000  0.75000000  0.48999941
   0.37500000  0.87500000  0.45808452
   0.37500000  0.87500000  0.48999941
   0.50000000  0.00000000  0.45808452
   0.50000000  0.00000000  0.48999941
   0.50000000  0.12500000  0.45808452
   0.50000000  0.12500000  0.48999941
   0.50000000  0.25000000  0.45808452
   0.50000000  0.25000000  0.48999941
   0.50000000  0.37500000  0.45808452
   0.50000000  0.37500000  0.48999941
   0.50000000  0.50000000  0.45808452
   0.50000000  0.50000000  0.48999941
   0.50000000  0.62500000  0.45808452
   0.50000000  0.62500000  0.48999941
   0.50000000  0.75000000  0.45808452
   0.50000000  0.75000000  0.48999941
   0.50000000  0.87500000  0.45808452
   0.50000000  0.87500000  0.48999941
   0.62500000  0.00000000  0.45808452
   0.62500000  0.00000000  0.48999941
   0.62500000  0.12500000  0.45808452
   0.62500000  0.12500000  0.48999941
   0.62500000  0.25000000  0.45808452
   0.62500000  0.25000000  0.48999941
   0.62500000  0.37500000  0.45808452
   0.62500000  0.37500000  0.48999941
   0.62500000  0.50000000  0.45808452
   0.62500000  0.50000000  0.48999941
   0.62500000  0.62500000  0.45808452
   0.62500000  0.62500000  0.48999941
   0.62500000  0.75000000  0.45808452
   0.62500000  0.75000000  0.48999941
   0.62500000  0.87500000  0.45808452
   0.62500000  0.87500000  0.48999941
   0.75000000  0.00000000  0.45808452
   0.75000000  0.00000000  0.48999941
   0.75000000  0.12500000  0.45808452
   0.75000000  0.12500000  0.48999941
   0.75000000  0.25000000  0.45808452
   0.75000000  0.25000000  0.48999941
   0.75000000  0.37500000  0.45808452
   0.75000000  0.37500000  0.48999941
   0.75000000  0.50000000  0.45808452
   0.75000000  0.50000000  0.48999941
   0.75000000  0.62500000  0.45808452
   0.75000000  0.62500000  0.48999941
   0.75000000  0.75000000  0.45808452
   0.75000000  0.75000000  0.48999941
   0.75000000  0.87500000  0.45808452
   0.75000000  0.87500000  0.48999941
   0.87500000  0.00000000  0.45808452
   0.87500000  0.00000000  0.48999941
   0.87500000  0.12500000  0.45808452
   0.87500000  0.12500000  0.48999941
   0.87500000  0.25000000  0.45808452
   0.87500000  0.25000000  0.48999941
   0.87500000  0.37500000  0.45808452
   0.87500000  0.37500000  0.48999941
   0.87500000  0.50000000  0.45808452
   0.87500000  0.50000000  0.48999941
   0.87500000  0.62500000  0.45808452
   0.87500000  0.62500000  0.48999941
   0.87500000  0.75000000  0.45808452
   0.87500000  0.75000000  0.48999941
   0.87500000  0.87500000  0.45808452
   0.87500000  0.87500000  0.48999941
Direct configuration=     2
   0.44449295  0.44449295  0.06061256
   0.44439087  0.77780457  0.06064167
   0.44449295  0.11101410  0.06061256
   0.77780457  0.44439087  0.06064167
   0.77780457  0.77780457  0.06064167
   0.77789278  0.11105361  0.06057223
   0.11101410  0.44449295  0.06061256
   0.11105361  0.77789278  0.06057223
   0.11105361  0.11105361  0.06057223
   0.55549182  0.55549182  0.12090149
   0.55549182  0.88901636  0.12090149
   0.55539078  0.22230461  0.12089442
   0.88901636  0.55549182  0.12090149
   0.88870446  0.88870446  0.12099345
   0.88870446  0.22259108  0.12099345
   0.22230461  0.55539078  0.12089442
   0.22259108  0.88870446  0.12099345
   0.22230461  0.22230461  0.12089442
   0.66666667  0.66666667  0.17987672
   0.66677723 -0.00021395  0.17990826
   0.66677723  0.33343672  0.17990826
  -0.00021395  0.66677723  0.17990826
   0.00000000 -0.00000000  0.17995164
  -0.00021395  0.33343672  0.17990826
   0.33343672  0.66677723  0.17990826
   0.33343672 -0.00021395  0.17990826
   0.33333333  0.33333333  0.17984819
   0.77789537  0.77789537  0.24032610
   0.77807904  0.11096048  0.24029047
   0.77789537  0.44420926  0.24032610
   0.11096048  0.77807904  0.24029047
   0.11096048  0.11096048  0.24029047
   0.11100511  0.44449744  0.24035953
   0.44420926  0.77789537  0.24032610
   0.44449744  0.11100511  0.24035953
   0.44449744  0.44449744  0.24035953
   0.88884922  0.88884922  0.30094748
   0.88884922  0.22230155  0.30094748
   0.88957395  0.55521303  0.30088826
   0.22230155  0.88884922  0.30094748
   0.22244885  0.22244885  0.30101327
   0.22244885  0.55510230  0.30101327
   0.55521303  0.88957395  0.30088826
   0.55510230  0.22244885  0.30101327
   0.55521303  0.55521303  0.30088826
   0.00000000 -0.00000000  0.36014342
  -0.00033538  0.33358080  0.36004024
  -0.00033538  0.66675459  0.36004024
   0.33358080 -0.00033538  0.36004024
   0.33333333  0.33333333  0.36009994
   0.33358080  0.66675459  0.36004024
   0.66675459 -0.00033538  0.36004024
   0.66675459  0.33358080  0.36004024
   0.66666667  0.66666667  0.35992035
   0.10886633  0.10886633  0.41026455
   0.11097334  0.44451333  0.41597580
   0.10886633  0.78226734  0.41026455
   0.44451333  0.11097334  0.41597580
   0.44451333  0.44451333  0.41597580
   0.44079226  0.77960387  0.41472693
   0.78226734  0.10886633  0.41026455
   0.77960387  0.44079226  0.41472693
   0.77960387  0.77960387  0.41472693
   0.27780457  0.27780457  0.06064167
   0.27789278  0.61105361  0.06057223
   0.27780457  0.94439087  0.06064167
   0.61105361  0.27789278  0.06057223
   0.61105361  0.61105361  0.06057223
   0.61101410  0.94449295  0.06061256
   0.94439087  0.27780457  0.06064167
   0.94449295  0.61101410  0.06061256
   0.94449295  0.94449295  0.06061256
   0.38870446  0.38870446  0.12099345
   0.38870446  0.72259108  0.12099345
   0.38901636  0.05549182  0.12090149
   0.72259108  0.38870446  0.12099345
   0.72230461  0.72230461  0.12089442
   0.72230461  0.05539078  0.12089442
   0.05549182  0.38901636  0.12090149
   0.05539078  0.72230461  0.12089442
   0.05549182  0.05549182  0.12090149
   0.50000000  0.50000000  0.17995164
   0.49978605  0.83343672  0.17990826
   0.49978605  0.16677723  0.17990826
   0.83343672  0.49978605  0.17990826
   0.83333333  0.83333333  0.17984819
   0.83343672  0.16677723  0.17990826
   0.16677723  0.49978605  0.17990826
   0.16677723  0.83343672  0.17990826
   0.16666667  0.16666667  0.17987672
   0.61096048  0.61096048  0.24029047
   0.61100511  0.94449744  0.24035953
   0.61096048  0.27807904  0.24029047
   0.94449744  0.61100511  0.24035953
   0.94449744  0.94449744  0.24035953
   0.94420926  0.27789537  0.24032610
   0.27807904  0.61096048  0.24029047
   0.27789537  0.94420926  0.24032610
   0.27789537  0.27789537  0.24032610
   0.72244885  0.72244885  0.30101327
   0.72244885  0.05510230  0.30101327
   0.72230155  0.38884922  0.30094748
   0.05510230  0.72244885  0.30101327
   0.05521303  0.05521303  0.30088826
   0.05521303  0.38957395  0.30088826
   0.38884922  0.72230155  0.30094748
   0.38957395  0.05521303  0.30088826
   0.38884922  0.38884922  0.30094748
   0.83333333  0.83333333  0.36009994
   0.83358080  0.16675459  0.36004024
   0.83358080  0.49966462  0.36004024
   0.16675459  0.83358080  0.36004024
   0.16666667  0.16666667  0.35992035
   0.16675459  0.49966462  0.36004024
   0.49966462  0.83358080  0.36004024
   0.49966462  0.16675459  0.36004024
   0.50000000  0.50000000  0.36014342
   0.94451333  0.94451333  0.41597580
   0.94079226  0.27960387  0.41472693
   0.94451333  0.61097334  0.41597580
   0.27960387  0.94079226  0.41472693
   0.27960387  0.27960387  0.41472693
   0.28226734  0.60886633  0.41026455
   0.61097334  0.94451333  0.41597580
   0.60886633  0.28226734  0.41026455
   0.60886633  0.60886633  0.41026455
   0.27780457  0.44439087  0.06064167
   0.27780457  0.77780457  0.06064167
   0.27789278  0.11105361  0.06057223
   0.61101410  0.44449295  0.06061256
   0.61105361  0.77789278  0.06057223
   0.61105361  0.11105361  0.06057223
   0.94449295  0.44449295  0.06061256
   0.94439087  0.77780457  0.06064167
   0.94449295  0.11101410  0.06061256
   0.38901636  0.55549182  0.12090149
   0.38870446  0.88870446  0.12099345
   0.38870446  0.22259108  0.12099345
   0.72230461  0.55539078  0.12089442
   0.72259108  0.88870446  0.12099345
   0.72230461  0.22230461  0.12089442
   0.05549182  0.55549182  0.12090149
   0.05549182  0.88901636  0.12090149
   0.05539078  0.22230461  0.12089442
   0.49978605  0.66677723  0.17990826
   0.50000000 -0.00000000  0.17995164
   0.49978605  0.33343672  0.17990826
   0.83343672  0.66677723  0.17990826
   0.83343672 -0.00021395  0.17990826
   0.83333333  0.33333333  0.17984819
   0.16666667  0.66666667  0.17987672
   0.16677723 -0.00021395  0.17990826
   0.16677723  0.33343672  0.17990826
   0.61096048  0.77807904  0.24029047
   0.61096048  0.11096048  0.24029047
   0.61100511  0.44449744  0.24035953
   0.94420926  0.77789537  0.24032610
   0.94449744  0.11100511  0.24035953
   0.94449744  0.44449744  0.24035953
   0.27789537  0.77789537  0.24032610
   0.27807904  0.11096048  0.24029047
   0.27789537  0.44420926  0.24032610
   0.72230155  0.88884922  0.30094748
   0.72244885  0.22244885  0.30101327
   0.72244885  0.55510230  0.30101327
   0.05521303  0.88957395  0.30088826
   0.05510230  0.22244885  0.30101327
   0.05521303  0.55521303  0.30088826
   0.38884922  0.88884922  0.30094748
   0.38884922  0.22230155  0.30094748
   0.38957395  0.55521303  0.30088826
   0.83358080 -0.00033538  0.36004024
   0.83333333  0.33333333  0.36009994
   0.83358080  0.66675459  0.36004024
   0.16675459 -0.00033538  0.36004024
   0.16675459  0.33358080  0.36004024
   0.16666667  0.66666667  0.35992035
   0.50000000 -0.00000000  0.36014342
   0.49966462  0.33358080  0.36004024
   0.49966462  0.66675459  0.36004024
   0.94451333  0.11097334  0.41597580
   0.94451333  0.44451333  0.41597580
   0.94079226  0.77960387  0.41472693
   0.28226734  0.10886633  0.41026455
   0.27960387  0.44079226  0.41472693
   0.27960387  0.77960387  0.41472693
   0.60886633  0.10886633  0.41026455
   0.61097334  0.44451333  0.41597580
   0.60886633  0.78226734  0.41026455
   0.44439087  0.27780457  0.06064167
   0.44449295  0.61101410  0.06061256
   0.44449295  0.94449295  0.06061256
   0.77780457  0.27780457  0.06064167
   0.77789278  0.61105361  0.06057223
   0.77780457  0.94439087  0.06064167
   0.11105361  0.27789278  0.06057223
   0.11105361  0.61105361  0.06057223
   0.11101410  0.94449295  0.06061256
   0.55549182  0.38901636  0.12090149
   0.55539078  0.72230461  0.12089442
   0.55549182  0.05549182  0.12090149
   0.88870446  0.38870446  0.12099345
   0.88870446  0.72259108  0.12099345
   0.88901636  0.05549182  0.12090149
   0.22259108  0.38870446  0.12099345
   0.22230461  0.72230461  0.12089442
   0.22230461  0.05539078  0.12089442
   0.66677723  0.49978605  0.17990826
   0.66677723  0.83343672  0.17990826
   0.66666667  0.16666667  0.17987672
   0.00000000  0.50000000  0.17995164
  -0.00021395  0.83343672  0.17990826
  -0.00021395  0.16677723  0.17990826
   0.33343672  0.49978605  0.17990826
   0.33333333  0.83333333  0.17984819
   0.33343672  0.16677723  0.17990826
   0.77807904  0.61096048  0.24029047
   0.77789537  0.94420926  0.24032610
   0.77789537  0.27789537  0.24032610
   0.11096048  0.61096048  0.24029047
   0.11100511  0.94449744  0.24035953
   0.11096048  0.27807904  0.24029047
   0.44449744  0.61100511  0.24035953
   0.44449744  0.94449744  0.24035953
   0.44420926  0.27789537  0.24032610
   0.88884922  0.72230155  0.30094748
   0.88957395  0.05521303  0.30088826
   0.88884922  0.38884922  0.30094748
   0.22244885  0.72244885  0.30101327
   0.22244885  0.05510230  0.30101327
   0.22230155  0.38884922  0.30094748
   0.55510230  0.72244885  0.30101327
   0.55521303  0.05521303  0.30088826
   0.55521303  0.38957395  0.30088826
  -0.00033538  0.83358080  0.36004024
  -0.00033538  0.16675459  0.36004024
   0.00000000  0.50000000  0.36014342
   0.33333333  0.83333333  0.36009994
   0.33358080  0.16675459  0.36004024
   0.33358080  0.49966462  0.36004024
   0.66675459  0.83358080  0.36004024
   0.66666667  0.16666667  0.35992035
   0.66675459  0.49966462  0.36004024
   0.11097334  0.94451333  0.41597580
   0.10886633  0.28226734  0.41026455
   0.10886633  0.60886633  0.41026455
   0.44451333  0.94451333  0.41597580
   0.44079226  0.27960387  0.41472693
   0.44451333  0.61097334  0.41597580
   0.77960387  0.94079226  0.41472693
   0.77960387  0.27960387  0.41472693
   0.78226734  0.60886633  0.41026455
   0.00000000 -0.00000000  0.45745068
   0.00000000 -0.00000000  0.49227808
   0.00314381  0.12601174  0.45814807
  -0.00085696  0.12471736  0.49243888
   0.00754686  0.24622657  0.46001388
  -0.00111179  0.25055590  0.49245812
   0.00314381  0.37084445  0.45814807
  -0.00085696  0.37613961  0.49243888
   0.00000000  0.50000000  0.45745068
   0.00000000  0.50000000  0.49227808
   0.00314381  0.62601174  0.45814807
  -0.00085696  0.62471736  0.49243888
   0.00754686  0.74622657  0.46001388
  -0.00111179  0.75055590  0.49245812
   0.00314381  0.87084445  0.45814807
  -0.00085696  0.87613961  0.49243888
   0.12601174  0.00314381  0.45814807
   0.12471736 -0.00085696  0.49243888
   0.12941407  0.12941407  0.46392697
   0.12468237  0.12468237  0.49212104
   0.12941407  0.24117186  0.46392697
   0.12468237  0.25063526  0.49212104
   0.12601174  0.37084445  0.45814807
   0.12471736  0.37613961  0.49243888
   0.12601174  0.50314381  0.45814807
   0.12471736  0.49914304  0.49243888
   0.12941407  0.62941407  0.46392697
   0.12468237  0.62468237  0.49212104
   0.12941407  0.74117186  0.46392697
   0.12468237  0.75063526  0.49212104
   0.12601174  0.87084445  0.45814807
   0.12471736  0.87613961  0.49243888
   0.24622657  0.00754686  0.46001388
   0.25055590 -0.00111179  0.49245812
   0.24117186  0.12941407  0.46392697
   0.25063526  0.12468237  0.49212104
   0.24622657  0.24622657  0.46001388
   0.25055590  0.25055590  0.49245812
   0.24915092  0.37542454  0.45757792
   0.25067651  0.37466174  0.49238931
   0.24622657  0.50754686  0.46001388
   0.25055590  0.49888821  0.49245812
   0.24117186  0.62941407  0.46392697
   0.25063526  0.62468237  0.49212104
   0.24622657  0.74622657  0.46001388
   0.25055590  0.75055590  0.49245812
   0.24915092  0.87542454  0.45757792
   0.25067651  0.87466174  0.49238931
   0.37084445  0.00314381  0.45814807
   0.37613961 -0.00085696  0.49243888
   0.37084445  0.12601174  0.45814807
   0.37613961  0.12471736  0.49243888
   0.37542454  0.24915092  0.45757792
   0.37466174  0.25067651  0.49238931
   0.37542454  0.37542454  0.45757792
   0.37466174  0.37466174  0.49238931
   0.37084445  0.50314381  0.45814807
   0.37613961  0.49914304  0.49243888
   0.37084445  0.62601174  0.45814807
   0.37613961  0.62471736  0.49243888
   0.37542454  0.74915092  0.45757792
   0.37466174  0.75067651  0.49238931
   0.37542454  0.87542454  0.45757792
   0.37466174  0.87466174  0.49238931
   0.50000000 -0.00000000  0.45745068
   0.50000000 -0.00000000  0.49227808
   0.50314381  0.12601174  0.45814807
   0.49914304  0.12471736  0.49243888
   0.50754686  0.24622657  0.46001388
   0.49888821  0.25055590  0.49245812
   0.50314381  0.37084445  0.45814807
   0.49914304  0.37613961  0.49243888
   0.50000000  0.50000000  0.45745068
   0.50000000  0.50000000  0.49227808
   0.50314381  0.62601174  0.45814807
   0.49914304  0.62471736  0.49243888
   0.50754686  0.74622657  0.46001388
   0.49888821  0.75055590  0.49245812
   0.50314381  0.87084445  0.45814807
   0.49914304  0.87613961  0.49243888
   0.62601174  0.00314381  0.45814807
   0.62471736 -0.00085696  0.49243888
   0.62941407  0.12941407  0.46392697
   0.62468237  0.12468237  0.49212104
   0.62941407  0.24117186  0.46392697
   0.62468237  0.25063526  0.49212104
   0.62601174  0.37084445  0.45814807
   0.62471736  0.37613961  0.49243888
   0.62601174  0.50314381  0.45814807
   0.62471736  0.49914304  0.49243888
   0.62941407  0.62941407  0.46392697
   0.62468237  0.62468237  0.49212104
   0.62941407  0.74117186  0.46392697
   0.62468237  0.75063526  0.49212104
   0.62601174  0.87084445  0.45814807
   0.62471736  0.87613961  0.49243888
   0.74622657  0.00754686  0.46001388
   0.75055590 -0.00111179  0.49245812
   0.74117186  0.12941407  0.46392697
   0.75063526  0.12468237  0.49212104
   0.74622657  0.24622657  0.46001388
   0.75055590  0.25055590  0.49245812
   0.74915092  0.37542454  0.45757792
   0.75067651  0.37466174  0.49238931
   0.74622657  0.50754686  0.46001388
   0.75055590  0.49888821  0.49245812
   0.74117186  0.62941407  0.46392697
   0.75063526  0.62468237  0.49212104
   0.74622657  0.74622657  0.46001388
   0.75055590  0.75055590  0.49245812
   0.74915092  0.87542454  0.45757792
   0.75067651  0.87466174  0.49238931
   0.87084445  0.00314381  0.45814807
   0.87613961 -0.00085696  0.49243888
   0.87084445  0.12601174  0.45814807
   0.87613961  0.12471736  0.49243888
   0.87542454  0.24915092  0.45757792
   0.87466174  0.25067651  0.49238931
   0.87542454  0.37542454  0.45757792
   0.87466174  0.37466174  0.49238931
   0.87084445  0.50314381  0.45814807
   0.87613961  0.49914304  0.49243888
   0.87084445  0.62601174  0.45814807
   0.87613961  0.62471736  0.49243888
   0.87542454  0.74915092  0.45757792
   0.87466174  0.75067651  0.49238931
   0.87542454  0.87542454  0.45757792
   0.87466174  0.87466174  0.49238931
Direct configuration=     3
   0.44449095  0.44449095  0.06058774
   0.44439308  0.77780346  0.06061565
   0.44449095  0.11101810  0.06058774
   0.77780346  0.44439308  0.06061565
   0.77780346  0.77780346  0.06061565
   0.77788804  0.11105598  0.06054908
   0.11101810  0.44449095  0.06058774
   0.11105598  0.77788804  0.06054908
   0.11105598  0.11105598  0.06054908
   0.55549445  0.55549445  0.12090093
   0.55549445  0.88901110  0.12090093
   0.55539758  0.22230121  0.12089416
   0.88901110  0.55549445  0.12090093
   0.88871206  0.88871206  0.12098910
   0.88871206  0.22257587  0.12098910
   0.22230121  0.55539758  0.12089416
   0.22257587  0.88871206  0.12098910
   0.22230121  0.22230121  0.12089416
   0.66666667  0.66666667  0.17987352
   0.66677268 -0.00020513  0.17990375
   0.66677268  0.33343246  0.17990375
  -0.00020513  0.66677268  0.17990375