NiAl                                    
            1
    15.146222    0.000000    0.000000
     7.573111   13.117013    0.000000
     0.000000    0.000000   37.600000
   Ni   O 
   252   128
Direct configuration=     1
   0.44444444  0.44444444  0.06001064
   0.44444444  0.77777778  0.06001064
   0.44444444  0.11111111  0.06001064
   0.77777778  0.44444444  0.06001064
   0.77777778  0.77777778  0.06001064
   0.77777778  0.11111111  0.06001064
   0.11111111  0.44444444  0.06001064
   0.11111111  0.77777778  0.06001064
   0.11111111  0.11111111  0.06001064
   0.55555556  0.55555556  0.12088808
   0.55555556  0.88888889  0.12088808
   0.55555556  0.22222222  0.12088808
   0.88888889  0.55555556  0.12088808
   0.88888889  0.88888889  0.12088808
   0.88888889  0.22222222  0.12088808
   0.22222222  0.55555556  0.12088808
   0.22222222  0.88888889  0.12088808
   0.22222222  0.22222222  0.12088808
   0.66666667  0.66666667  0.17979892
   0.66666667  0.00000000  0.17979892
   0.66666667  0.33333333  0.17979892
   0.00000000  0.66666667  0.17979892
   0.00000000  0.00000000  0.17979892
   0.00000000  0.33333333  0.17979892
   0.33333333  0.66666667  0.17979892
   0.33333333  0.00000000  0.17979892
   0.33333333  0.33333333  0.17979892
   0.77777778  0.77777778  0.24043056
   0.77777778  0.11111111  0.24043056
   0.77777778  0.44444444  0.24043056
   0.11111111  0.77777778  0.24043056
   0.11111111  0.11111111  0.24043056
   0.11111111  0.44444444  0.24043056
   0.44444444  0.77777778  0.24043056
   0.44444444  0.11111111  0.24043056
   0.44444444  0.44444444  0.24043056
   0.88888889  0.88888889  0.30106220
   0.88888889  0.22222222  0.30106220
   0.88888889  0.55555556  0.30106220
   0.22222222  0.88888889  0.30106220
   0.22222222  0.22222222  0.30106220
   0.22222222  0.55555556  0.30106220
   0.55555556  0.88888889  0.30106220
   0.55555556  0.22222222  0.30106220
   0.55555556  0.55555556  0.30106220
   0.00000000  0.00000000  0.35997303
   0.00000000  0.33333333  0.35997303
   0.00000000  0.66666667  0.35997303
   0.33333333  0.00000000  0.35997303
   0.33333333  0.33333333  0.35997303
   0.33333333  0.66666667  0.35997303
   0.66666667  0.00000000  0.35997303
   0.66666667  0.33333333  0.35997303
   0.66666667  0.66666667  0.35997303
   0.11111111  0.11111111  0.42085048
   0.11111111  0.44444444  0.42085048
   0.11111111  0.77777778  0.42085048
   0.44444444  0.11111111  0.42085048
   0.44444444  0.44444444  0.42085048
   0.44444444  0.77777778  0.42085048
   0.77777778  0.11111111  0.42085048
   0.77777778  0.44444444  0.42085048
   0.77777778  0.77777778  0.42085048
   0.27777778  0.27777778  0.06001064
   0.27777778  0.61111111  0.06001064
   0.27777778  0.94444444  0.06001064
   0.61111111  0.27777778  0.06001064
   0.61111111  0.61111111  0.06001064
   0.61111111  0.94444444  0.06001064
   0.94444444  0.27777778  0.06001064
   0.94444444  0.61111111  0.06001064
   0.94444444  0.94444444  0.06001064
   0.38888889  0.38888889  0.12088808
   0.38888889  0.72222222  0.12088808
   0.38888889  0.05555556  0.12088808
   0.72222222  0.38888889  0.12088808
   0.72222222  0.72222222  0.12088808
   0.72222222  0.05555556  0.12088808
   0.05555556  0.38888889  0.12088808
   0.05555556  0.72222222  0.12088808
   0.05555556  0.05555556  0.12088808
   0.50000000  0.50000000  0.17979892
   0.50000000  0.83333333  0.17979892
   0.50000000  0.16666667  0.17979892
   0.83333333  0.50000000  0.17979892
   0.83333333  0.83333333  0.17979892
   0.83333333  0.16666667  0.17979892
   0.16666667  0.50000000  0.17979892
   0.16666667  0.83333333  0.17979892
   0.16666667  0.16666667  0.17979892
   0.61111111  0.61111111  0.24043056
   0.61111111  0.94444444  0.24043056
   0.61111111  0.27777778  0.24043056
   0.94444444  0.61111111  0.24043056
   0.94444444  0.94444444  0.24043056
   0.94444444  0.27777778  0.24043056
   0.27777778  0.61111111  0.24043056
   0.27777778  0.94444444  0.24043056
   0.27777778  0.27777778  0.24043056
   0.72222222  0.72222222  0.30106220
   0.72222222  0.05555556  0.30106220
   0.72222222  0.38888889  0.30106220
   0.05555556  0.72222222  0.30106220
   0.05555556  0.05555556  0.30106220
   0.05555556  0.38888889  0.30106220
   0.38888889  0.72222222  0.30106220
   0.38888889  0.05555556  0.30106220
   0.38888889  0.38888889  0.30106220
   0.83333333  0.83333333  0.35997303
   0.83333333  0.16666667  0.35997303
   0.83333333  0.50000000  0.35997303
   0.16666667  0.83333333  0.35997303
   0.16666667  0.16666667  0.35997303
   0.16666667  0.50000000  0.35997303
   0.50000000  0.83333333  0.35997303
   0.50000000  0.16666667  0.35997303
   0.50000000  0.50000000  0.35997303
   0.94444444  0.94444444  0.42085048
   0.94444444  0.27777778  0.42085048
   0.94444444  0.61111111  0.42085048
   0.27777778  0.94444444  0.42085048
   0.27777778  0.27777778  0.42085048
   0.27777778  0.61111111  0.42085048
   0.61111111  0.94444444  0.42085048
   0.61111111  0.27777778  0.42085048
   0.61111111  0.61111111  0.42085048
   0.27777778  0.44444444  0.06001064
   0.27777778  0.77777778  0.06001064
   0.27777778  0.11111111  0.06001064
   0.61111111  0.44444444  0.06001064
   0.61111111  0.77777778  0.06001064
   0.61111111  0.11111111  0.06001064
   0.94444444  0.44444444  0.06001064
   0.94444444  0.77777778  0.06001064
   0.94444444  0.11111111  0.06001064
   0.38888889  0.55555556  0.12088808
   0.38888889  0.88888889  0.12088808
   0.38888889  0.22222222  0.12088808
   0.72222222  0.55555556  0.12088808
   0.72222222  0.88888889  0.12088808
   0.72222222  0.22222222  0.12088808
   0.05555556  0.55555556  0.12088808
   0.05555556  0.88888889  0.12088808
   0.05555556  0.22222222  0.12088808
   0.50000000  0.66666667  0.17979892
   0.50000000  0.00000000  0.17979892
   0.50000000  0.33333333  0.17979892
   0.83333333  0.66666667  0.17979892
   0.83333333  0.00000000  0.17979892
   0.83333333  0.33333333  0.17979892
   0.16666667  0.66666667  0.17979892
   0.16666667  0.00000000  0.17979892
   0.16666667  0.33333333  0.17979892
   0.61111111  0.77777778  0.24043056
   0.61111111  0.11111111  0.24043056
   0.61111111  0.44444444  0.24043056
   0.94444444  0.77777778  0.24043056
   0.94444444  0.11111111  0.24043056
   0.94444444  0.44444444  0.24043056
   0.27777778  0.77777778  0.24043056
   0.27777778  0.11111111  0.24043056
   0.27777778  0.44444444  0.24043056
   0.72222222  0.88888889  0.30106220
   0.72222222  0.22222222  0.30106220
   0.72222222  0.55555556  0.30106220
   0.05555556  0.88888889  0.30106220
   0.05555556  0.22222222  0.30106220
   0.05555556  0.55555556  0.30106220
   0.38888889  0.88888889  0.30106220
   0.38888889  0.22222222  0.30106220
   0.38888889  0.55555556  0.30106220
   0.83333333  0.00000000  0.35997303
   0.83333333  0.33333333  0.35997303
   0.83333333  0.66666667  0.35997303
   0.16666667  0.00000000  0.35997303
   0.16666667  0.33333333  0.35997303
   0.16666667  0.66666667  0.35997303
   0.50000000  0.00000000  0.35997303
   0.50000000  0.33333333  0.35997303
   0.50000000  0.66666667  0.35997303
   0.94444444  0.11111111  0.42085048
   0.94444444  0.44444444  0.42085048
   0.94444444  0.77777778  0.42085048
   0.27777778  0.11111111  0.42085048
   0.27777778  0.44444444  0.42085048
   0.27777778  0.77777778  0.42085048
   0.61111111  0.11111111  0.42085048
   0.61111111  0.44444444  0.42085048
   0.61111111  0.77777778  0.42085048
   0.44444444  0.27777778  0.06001064
   0.44444444  0.61111111  0.06001064
   0.44444444  0.94444444  0.06001064
   0.77777778  0.27777778  0.06001064
   0.77777778  0.61111111  0.06001064
   0.77777778  0.94444444  0.06001064
   0.11111111  0.27777778  0.06001064
   0.11111111  0.61111111  0.06001064
   0.11111111  0.94444444  0.06001064
   0.55555556  0.38888889  0.12088808
   0.55555556  0.72222222  0.12088808
   0.55555556  0.05555556  0.12088808
   0.88888889  0.38888889  0.12088808
   0.88888889  0.72222222  0.12088808
   0.88888889  0.05555556  0.12088808
   0.22222222  0.38888889  0.12088808
   0.22222222  0.72222222  0.12088808
   0.22222222  0.05555556  0.12088808
   0.66666667  0.50000000  0.17979892
   0.66666667  0.83333333  0.17979892
   0.66666667  0.16666667  0.17979892
   0.00000000  0.50000000  0.17979892
   0.00000000  0.83333333  0.17979892
   0.00000000  0.16666667  0.17979892
   0.33333333  0.50000000  0.17979892
   0.33333333  0.83333333  0.17979892
   0.33333333  0.16666667  0.17979892
   0.77777778  0.61111111  0.24043056
   0.77777778  0.94444444  0.24043056
   0.77777778  0.27777778  0.24043056
   0.11111111  0.61111111  0.24043056
   0.11111111  0.94444444  0.24043056
   0.11111111  0.27777778  0.24043056
   0.44444444  0.61111111  0.24043056
   0.44444444  0.94444444  0.24043056
   0.44444444  0.27777778  0.24043056
   0.88888889  0.72222222  0.30106220
   0.88888889  0.05555556  0.30106220
   0.88888889  0.38888889  0.30106220
   0.22222222  0.72222222  0.30106220
   0.22222222  0.05555556  0.30106220
   0.22222222  0.38888889  0.30106220
   0.55555556  0.72222222  0.30106220
   0.55555556  0.05555556  0.30106220
   0.55555556  0.38888889  0.30106220
   0.00000000  0.83333333  0.35997303
   0.00000000  0.16666667  0.35997303
   0.00000000  0.50000000  0.35997303
   0.33333333  0.83333333  0.35997303
   0.33333333  0.16666667  0.35997303
   0.33333333  0.50000000  0.35997303
   0.66666667  0.83333333  0.35997303
   0.66666667  0.16666667  0.35997303
   0.66666667  0.50000000  0.35997303
   0.11111111  0.94444444  0.42085048
   0.11111111  0.27777778  0.42085048
   0.11111111  0.61111111  0.42085048
   0.44444444  0.94444444  0.42085048
   0.44444444  0.27777778  0.42085048
   0.44444444  0.61111111  0.42085048
   0.77777778  0.94444444  0.42085048
   0.77777778  0.27777778  0.42085048
   0.77777778  0.61111111  0.42085048
   0.00000000  0.00000000  0.45808452
   0.00000000  0.00000000  0.48999941
   0.00000000  0.12500000  0.45808452
   0.00000000  0.12500000  0.48999941
   0.00000000  0.25000000  0.45808452
   0.00000000  0.25000000  0.48999941
   0.00000000  0.37500000  0.45808452
   0.00000000  0.37500000  0.48999941
   0.00000000  0.50000000  0.45808452
   0.00000000  0.50000000  0.48999941
   0.00000000  0.62500000  0.45808452
   0.00000000  0.62500000  0.48999941
   0.00000000  0.75000000  0.45808452
   0.00000000  0.75000000  0.48999941
   0.00000000  0.87500000  0.45808452
   0.00000000  0.87500000  0.48999941
   0.12500000  0.00000000  0.45808452
   0.12500000  0.00000000  0.48999941
   0.12500000  0.12500000  0.45808452
   0.12500000  0.12500000  0.48999941
   0.12500000  0.25000000  0.45808452
   0.12500000  0.25000000  0.48999941
   0.12500000  0.37500000  0.45808452
   0.12500000  0.37500000  0.48999941
   0.12500000  0.50000000  0.45808452
   0.12500000  0.50000000  0.48999941
   0.12500000  0.62500000  0.45808452
   0.12500000  0.62500000  0.48999941
   0.12500000  0.75000000  0.45808452
   0.12500000  0.75000000  0.48999941
   0.12500000  0.87500000  0.45808452
   0.12500000  0.87500000  0.48999941
   0.25000000  0.00000000  0.45808452
   0.25000000  0.00000000  0.48999941
   0.25000000  0.12500000  0.45808452
   0.25000000  0.12500000  0.48999941
   0.25000000  0.25000000  0.45808452
   0.25000000  0.25000000  0.48999941
   0.25000000  0.37500000  0.45808452
   0.25000000  0.37500000  0.48999941
   0.25000000  0.50000000  0.45808452
   0.25000000  0.50000000  0.48999941
   0.25000000  0.62500000  0.45808452
   0.25000000  0.62500000  0.48999941
   0.25000000  0.75000000  0.45808452
   0.25000000  0.75000000  0.48999941
   0.25000000  0.87500000  0.45808452
   0.25000000  0.87500000  0.48999941
   0.37500000  0.00000000  0.45808452
   0.37500000  0.00000000  0.48999941
   0.37500000  0.12500000  0.45808452
   0.37500000  0.12500000  0.48999941
   0.37500000  0.25000000  0.45808452
   0.37500000  0.25000000  0.48999941
   0.37500000  0.37500000  0.45808452
   0.37500000  0.37500000  0.48999941
   0.37500000  0.50000000  0.45808452
   0.37500000  0.50000000  0.48999941
   0.37500000  0.62500000  0.45808452
   0.37500000  0.62500000  0.48999941
   0.37500000  0.75000000  0.45808452
   0.37500000  0.75000000  0.48999941
   0.37500000  0.87500000  0.45808452
   0.37500000  0.87500000  0.48999941
   0.50000000  0.00000000  0.45808452
   0.50000000  0.00000000  0.48999941
   0.50000000  0.12500000  0.45808452
   0.50000000  0.12500000  0.48999941
   0.50000000  0.25000000  0.45808452
   0.50000000  0.25000000  0.48999941
   0.50000000  0.37500000  0.45808452
   0.50000000  0.37500000  0.48999941
   0.50000000  0.50000000  0.45808452
   0.50000000  0.50000000  0.48999941
   0.50000000  0.62500000  0.45808452
   0.50000000  0.62500000  0.48999941
   0.50000000  0.75000000  0.45808452
   0.50000000  0.75000000  0.48999941
   0.50000000  0.87500000  0.45808452
   0.50000000  0.87500000  0.48999941
   0.62500000  0.00000000  0.45808452
   0.62500000  0.00000000  0.48999941
   0.62500000  0.12500000  0.45808452
   0.62500000  0.12500000  0.48999941
   0.62500000  0.25000000  0.45808452
   0.62500000  0.25000000  0.48999941
   0.62500000  0.37500000  0.45808452
   0.62500000  0.37500000  0.48999941
   0.62500000  0.50000000  0.45808452
   0.62500000  0.50000000  0.48999941
   0.62500000  0.62500000  0.45808452
   0.62500000  0.62500000  0.48999941
   0.62500000  0.75000000  0.45808452
   0.62500000  0.75000000  0.48999941
   0.62500000  0.87500000  0.45808452
   0.62500000  0.87500000  0.48999941
   0.75000000  0.00000000  0.45808452
   0.75000000  0.00000000  0.48999941
   0.75000000  0.12500000  0.45808452
   0.75000000  0.12500000  0.48999941
   0.75000000  0.25000000  0.45808452
   0.75000000  0.25000000  0.48999941
   0.75000000  0.37500000  0.45808452
   0.75000000  0.37500000  0.48999941
   0.75000000  0.50000000  0.45808452
   0.75000000  0.50000000  0.48999941
   0.75000000  0.62500000  0.45808452
   0.75000000  0.62500000  0.48999941
   0.75000000  0.75000000  0.45808452
   0.75000000  0.75000000  0.48999941
   0.75000000  0.87500000  0.45808452
   0.75000000  0.87500000  0.48999941
   0.87500000  0.00000000  0.45808452
   0.87500000  0.00000000  0.48999941
   0.87500000  0.12500000  0.45808452
   0.87500000  0.12500000  0.48999941
   0.87500000  0.25000000  0.45808452
   0.87500000  0.25000000  0.48999941
   0.87500000  0.37500000  0.45808452
   0.87500000  0.37500000  0.48999941
   0.87500000  0.50000000  0.45808452
   0.87500000  0.50000000  0.48999941
   0.87500000  0.62500000  0.45808452
   0.87500000  0.62500000  0.48999941
   0.87500000  0.75000000  0.45808452
   0.87500000  0.75000000  0.48999941
   0.87500000  0.87500000  0.45808452
   0.87500000  0.87500000  0.48999941
Direct configuration=     2
   0.44444303  0.44444303  0.06057218
   0.44444434  0.77777783  0.06057748
   0.44444303  0.11111395  0.06057218
   0.77777783  0.44444434  0.06057748
   0.77777783  0.77777783  0.06057748
   0.77777651  0.11111174  0.06057830
   0.11111395  0.44444303  0.06057218
   0.11111174  0.77777651  0.06057830
   0.11111174  0.11111174  0.06057830
   0.55555941  0.55555941  0.12081537
   0.55555941  0.88888119  0.12081537
   0.55555616  0.22222192  0.12082102
   0.88888119  0.55555941  0.12081537
   0.88888833  0.88888833  0.12081924
   0.88888833  0.22222334  0.12081924
   0.22222192  0.55555616  0.12082102
   0.22222334  0.88888833  0.12081924
   0.22222192  0.22222192  0.12082102
   0.66666667  0.66666667  0.17986714
   0.66667708 -0.00000282  0.17987440
   0.66667708  0.33332575  0.17987440
  -0.00000282  0.66667708  0.17987440
  -0.00000000  0.00000000  0.17987992
  -0.00000282  0.33332575  0.17987440
   0.33332575  0.66667708  0.17987440
   0.33332575 -0.00000282  0.17987440
   0.33333333  0.33333333  0.17986230
   0.77777972  0.77777972  0.24042147
   0.77778479  0.11110761  0.24042242
   0.77777972  0.44444056  0.24042147
   0.11110761  0.77778479  0.24042242
   0.11110761  0.11110761  0.24042242
   0.11111258  0.44444371  0.24042621
   0.44444056  0.77777972  0.24042147
   0.44444371  0.11111258  0.24042621
   0.44444371  0.44444371  0.24042621
   0.88888688  0.88888688  0.30101374
   0.88888688  0.22222625  0.30101374
   0.88889795  0.55555103  0.30100800
   0.22222625  0.88888688  0.30101374
   0.22221530  0.22221530  0.30100897
   0.22221530  0.55556940  0.30100897
   0.55555103  0.88889795  0.30100800
   0.55556940  0.22221530  0.30100897
   0.55555103  0.55555103  0.30100800
  -0.00000000  0.00000000  0.36003858
   0.00002583  0.33335021  0.36004356
   0.00002583  0.66662396  0.36004356
   0.33335021  0.00002583  0.36004356
   0.33333333  0.33333333  0.36009284
   0.33335021  0.66662396  0.36004356
   0.66662396  0.00002583  0.36004356
   0.66662396  0.33335021  0.36004356
   0.66666667  0.66666667  0.35998158
   0.10867638  0.10867638  0.41011944
   0.11056412  0.44471794  0.41566601
   0.10867638  0.78264724  0.41011944
   0.44471794  0.11056412  0.41566601
   0.44471794  0.44471794  0.41566601
   0.44078659  0.77960671  0.41464155
   0.78264724  0.10867638  0.41011944
   0.77960671  0.44078659  0.41464155
   0.77960671  0.77960671  0.41464155
   0.27777783  0.27777783  0.06057748
   0.27777651  0.61111174  0.06057830
   0.27777783  0.94444434  0.06057748
   0.61111174  0.27777651  0.06057830
   0.61111174  0.61111174  0.06057830
   0.61111395  0.94444303  0.06057218
   0.94444434  0.27777783  0.06057748
   0.94444303  0.61111395  0.06057218
   0.94444303  0.94444303  0.06057218
   0.38888833  0.38888833  0.12081924
   0.38888833  0.72222334  0.12081924
   0.38888119  0.05555941  0.12081537
   0.72222334  0.38888833  0.12081924
   0.72222192  0.72222192  0.12082102
   0.72222192  0.05555616  0.12082102
   0.05555941  0.38888119  0.12081537
   0.05555616  0.72222192  0.12082102
   0.05555941  0.05555941  0.12081537
   0.50000000  0.50000000  0.17987992
   0.49999718  0.83332575  0.17987440
   0.49999718  0.16667708  0.17987440
   0.83332575  0.49999718  0.17987440
   0.83333333  0.83333333  0.17986230
   0.83332575  0.16667708  0.17987440
   0.16667708  0.49999718  0.17987440
   0.16667708  0.83332575  0.17987440
   0.16666667  0.16666667  0.17986714
   0.61110761  0.61110761  0.24042242
   0.61111258  0.94444371  0.24042621
   0.61110761  0.27778479  0.24042242
   0.94444371  0.61111258  0.24042621
   0.94444371  0.94444371  0.24042621
   0.94444056  0.27777972  0.24042147
   0.27778479  0.61110761  0.24042242
   0.27777972  0.94444056  0.24042147
   0.27777972  0.27777972  0.24042147
   0.72221530  0.72221530  0.30100897
   0.72221530  0.05556940  0.30100897
   0.72222625  0.38888688  0.30101374
   0.05556940  0.72221530  0.30100897
   0.05555103  0.05555103  0.30100800
   0.05555103  0.38889795  0.30100800
   0.38888688  0.72222625  0.30101374
   0.38889795  0.05555103  0.30100800
   0.38888688  0.38888688  0.30101374
   0.83333333  0.83333333  0.36009284
   0.83335021  0.16662396  0.36004356
   0.83335021  0.50002583  0.36004356
   0.16662396  0.83335021  0.36004356
   0.16666667  0.16666667  0.35998158
   0.16662396  0.50002583  0.36004356
   0.50002583  0.83335021  0.36004356
   0.50002583  0.16662396  0.36004356
   0.50000000  0.50000000  0.36003858
   0.94471794  0.94471794  0.41566601
   0.94078659  0.27960671  0.41464155
   0.94471794  0.61056412  0.41566601
   0.27960671  0.94078659  0.41464155
   0.27960671  0.27960671  0.41464155
   0.28264724  0.60867638  0.41011944
   0.61056412  0.94471794  0.41566601
   0.60867638  0.28264724  0.41011944
   0.60867638  0.60867638  0.41011944
   0.27777783  0.44444434  0.06057748
   0.27777783  0.77777783  0.06057748
   0.27777651  0.11111174  0.06057830
   0.61111395  0.44444303  0.06057218
   0.61111174  0.77777651  0.06057830
   0.61111174  0.11111174  0.06057830
   0.94444303  0.44444303  0.06057218
   0.94444434  0.77777783  0.06057748
   0.94444303  0.11111395  0.06057218
   0.38888119  0.55555941  0.12081537
   0.38888833  0.88888833  0.12081924
   0.38888833  0.22222334  0.12081924
   0.72222192  0.55555616  0.12082102
   0.72222334  0.88888833  0.12081924
   0.72222192  0.22222192  0.12082102
   0.05555941  0.55555941  0.12081537
   0.05555941  0.88888119  0.12081537
   0.05555616  0.22222192  0.12082102
   0.49999718  0.66667708  0.17987440
   0.50000000  0.00000000  0.17987992
   0.49999718  0.33332575  0.17987440
   0.83332575  0.66667708  0.17987440
   0.83332575 -0.00000282  0.17987440
   0.83333333  0.33333333  0.17986230
   0.16666667  0.66666667  0.17986714
   0.16667708 -0.00000282  0.17987440
   0.16667708  0.33332575  0.17987440
   0.61110761  0.77778479  0.24042242
   0.61110761  0.11110761  0.24042242
   0.61111258  0.44444371  0.24042621
   0.94444056  0.77777972  0.24042147
   0.94444371  0.11111258  0.24042621
   0.94444371  0.44444371  0.24042621
   0.27777972  0.77777972  0.24042147
   0.27778479  0.11110761  0.24042242
   0.27777972  0.44444056  0.24042147
   0.72222625  0.88888688  0.30101374
   0.72221530  0.22221530  0.30100897
   0.72221530  0.55556940  0.30100897
   0.05555103  0.88889795  0.30100800
   0.05556940  0.22221530  0.30100897
   0.05555103  0.55555103  0.30100800
   0.38888688  0.88888688  0.30101374
   0.38888688  0.22222625  0.30101374
   0.38889795  0.55555103  0.30100800
   0.83335021  0.00002583  0.36004356
   0.83333333  0.33333333  0.36009284
   0.83335021  0.66662396  0.36004356
   0.16662396  0.00002583  0.36004356
   0.16662396  0.33335021  0.36004356
   0.16666667  0.66666667  0.35998158
   0.50000000  0.00000000  0.36003858
   0.50002583  0.33335021  0.36004356
   0.50002583  0.66662396  0.36004356
   0.94471794  0.11056412  0.41566601
   0.94471794  0.44471794  0.41566601
   0.94078659  0.77960671  0.41464155
   0.28264724  0.10867638  0.41011944
   0.27960671  0.44078659  0.41464155
   0.27960671  0.77960671  0.41464155
   0.60867638  0.10867638  0.41011944
   0.61056412  0.44471794  0.41566601
   0.60867638  0.78264724  0.41011944
   0.44444434  0.27777783  0.06057748
   0.44444303  0.61111395  0.06057218
   0.44444303  0.94444303  0.06057218
   0.77777783  0.27777783  0.06057748
   0.77777651  0.61111174  0.06057830
   0.77777783  0.94444434  0.06057748
   0.11111174  0.27777651  0.06057830
   0.11111174  0.61111174  0.06057830
   0.11111395  0.94444303  0.06057218
   0.55555941  0.38888119  0.12081537
   0.55555616  0.72222192  0.12082102
   0.55555941  0.05555941  0.12081537
   0.88888833  0.38888833  0.12081924
   0.88888833  0.72222334  0.12081924
   0.88888119  0.05555941  0.12081537
   0.22222334  0.38888833  0.12081924
   0.22222192  0.72222192  0.12082102
   0.22222192  0.05555616  0.12082102
   0.66667708  0.49999718  0.17987440
   0.66667708  0.83332575  0.17987440
   0.66666667  0.16666667  0.17986714
  -0.00000000  0.50000000  0.17987992
  -0.00000282  0.83332575  0.17987440
  -0.00000282  0.16667708  0.17987440
   0.33332575  0.49999718  0.17987440
   0.33333333  0.83333333  0.17986230
   0.33332575  0.16667708  0.17987440
   0.77778479  0.61110761  0.24042242
   0.77777972  0.94444056  0.24042147
   0.77777972  0.27777972  0.24042147
   0.11110761  0.61110761  0.24042242
   0.11111258  0.94444371  0.24042621
   0.11110761  0.27778479  0.24042242
   0.44444371  0.61111258  0.24042621
   0.44444371  0.94444371  0.24042621
   0.44444056  0.27777972  0.24042147
   0.88888688  0.72222625  0.30101374
   0.88889795  0.05555103  0.30100800
   0.88888688  0.38888688  0.30101374
   0.22221530  0.72221530  0.30100897
   0.22221530  0.05556940  0.30100897
   0.22222625  0.38888688  0.30101374
   0.55556940  0.72221530  0.30100897
   0.55555103  0.05555103  0.30100800
   0.55555103  0.38889795  0.30100800
   0.00002583  0.83335021  0.36004356
   0.00002583  0.16662396  0.36004356
  -0.00000000  0.50000000  0.36003858
   0.33333333  0.83333333  0.36009284
   0.33335021  0.16662396  0.36004356
   0.33335021  0.50002583  0.36004356
   0.66662396  0.83335021  0.36004356
   0.66666667  0.16666667  0.35998158
   0.66662396  0.50002583  0.36004356
   0.11056412  0.94471794  0.41566601
   0.10867638  0.28264724  0.41011944
   0.10867638  0.60867638  0.41011944
   0.44471794  0.94471794  0.41566601
   0.44078659  0.27960671  0.41464155
   0.44471794  0.61056412  0.41566601
   0.77960671  0.94078659  0.41464155
   0.77960671  0.27960671  0.41464155
   0.78264724  0.60867638  0.41011944
  -0.00000000  0.00000000  0.45744047
  -0.00000000  0.00000000  0.49250053
   0.00296155  0.12600431  0.45816914
  -0.00082344  0.12468243  0.49258986
   0.00757825  0.24621088  0.45985974
  -0.00102542  0.25051271  0.49265176
   0.00296155  0.37103414  0.45816914
  -0.00082344  0.37614101  0.49258986
  -0.00000000  0.50000000  0.45744047
  -0.00000000  0.50000000  0.49250053
   0.00296155  0.62600431  0.45816914
  -0.00082344  0.62468243  0.49258986
   0.00757825  0.74621088  0.45985974
  -0.00102542  0.75051271  0.49265176
   0.00296155  0.87103414  0.45816914
  -0.00082344  0.87614101  0.49258986
   0.12600431  0.00296155  0.45816914
   0.12468243 -0.00082344  0.49258986
   0.12944853  0.12944853  0.46375851
   0.12472409  0.12472409  0.49244738
   0.12944853  0.24110294  0.46375851
   0.12472409  0.25055182  0.49244738
   0.12600431  0.37103414  0.45816914
   0.12468243  0.37614101  0.49258986
   0.12600431  0.50296155  0.45816914
   0.12468243  0.49917656  0.49258986
   0.12944853  0.62944853  0.46375851
   0.12472409  0.62472409  0.49244738
   0.12944853  0.74110294  0.46375851
   0.12472409  0.75055182  0.49244738
   0.12600431  0.87103414  0.45816914
   0.12468243  0.87614101  0.49258986
   0.24621088  0.00757825  0.45985974
   0.25051271 -0.00102542  0.49265176
   0.24110294  0.12944853  0.46375851
   0.25055182  0.12472409  0.49244738
   0.24621088  0.24621088  0.45985974
   0.25051271  0.25051271  0.49265176
   0.24903240  0.37548380  0.45741513
   0.25060416  0.37469792  0.49253706
   0.24621088  0.50757825  0.45985974
   0.25051271  0.49897458  0.49265176
   0.24110294  0.62944853  0.46375851
   0.25055182  0.62472409  0.49244738
   0.24621088  0.74621088  0.45985974
   0.25051271  0.75051271  0.49265176
   0.24903240  0.87548380  0.45741513
   0.25060416  0.87469792  0.49253706
   0.37103414  0.00296155  0.45816914
   0.37614101 -0.00082344  0.49258986
   0.37103414  0.12600431  0.45816914
   0.37614101  0.12468243  0.49258986
   0.37548380  0.24903240  0.45741513
   0.37469792  0.25060416  0.49253706
   0.37548380  0.37548380  0.45741513
   0.37469792  0.37469792  0.49253706
   0.37103414  0.50296155  0.45816914
   0.37614101  0.49917656  0.49258986
   0.37103414  0.62600431  0.45816914
   0.37614101  0.62468243  0.49258986
   0.37548380  0.74903240  0.45741513
   0.37469792  0.75060416  0.49253706
   0.37548380  0.87548380  0.45741513
   0.37469792  0.87469792  0.49253706
   0.50000000  0.00000000  0.45744047
   0.50000000  0.00000000  0.49250053
   0.50296155  0.12600431  0.45816914
   0.49917656  0.12468243  0.49258986
   0.50757825  0.24621088  0.45985974
   0.49897458  0.25051271  0.49265176
   0.50296155  0.37103414  0.45816914
   0.49917656  0.37614101  0.49258986
   0.50000000  0.50000000  0.45744047
   0.50000000  0.50000000  0.49250053
   0.50296155  0.62600431  0.45816914
   0.49917656  0.62468243  0.49258986
   0.50757825  0.74621088  0.45985974
   0.49897458  0.75051271  0.49265176
   0.50296155  0.87103414  0.45816914
   0.49917656  0.87614101  0.49258986
   0.62600431  0.00296155  0.45816914
   0.62468243 -0.00082344  0.49258986
   0.62944853  0.12944853  0.46375851
   0.62472409  0.12472409  0.49244738
   0.62944853  0.24110294  0.46375851
   0.62472409  0.25055182  0.49244738
   0.62600431  0.37103414  0.45816914
   0.62468243  0.37614101  0.49258986
   0.62600431  0.50296155  0.45816914
   0.62468243  0.49917656  0.49258986
   0.62944853  0.62944853  0.46375851
   0.62472409  0.62472409  0.49244738
   0.62944853  0.74110294  0.46375851
   0.62472409  0.75055182  0.49244738
   0.62600431  0.87103414  0.45816914
   0.62468243  0.87614101  0.49258986
   0.74621088  0.00757825  0.45985974
   0.75051271 -0.00102542  0.49265176
   0.74110294  0.12944853  0.46375851
   0.75055182  0.12472409  0.49244738
   0.74621088  0.24621088  0.45985974
   0.75051271  0.25051271  0.49265176
   0.74903240  0.37548380  0.45741513
   0.75060416  0.37469792  0.49253706
   0.74621088  0.50757825  0.45985974
   0.75051271  0.49897458  0.49265176
   0.74110294  0.62944853  0.46375851
   0.75055182  0.62472409  0.49244738
   0.74621088  0.74621088  0.45985974
   0.75051271  0.75051271  0.49265176
   0.74903240  0.87548380  0.45741513
   0.75060416  0.87469792  0.49253706
   0.87103414  0.00296155  0.45816914
   0.87614101 -0.00082344  0.49258986
   0.87103414  0.12600431  0.45816914
   0.87614101  0.12468243  0.49258986
   0.87548380  0.24903240  0.45741513
   0.87469792  0.25060416  0.49253706
   0.87548380  0.37548380  0.45741513
   0.87469792  0.37469792  0.49253706
   0.87103414  0.50296155  0.45816914
   0.87614101  0.49917656  0.49258986
   0.87103414  0.62600431  0.45816914
   0.87614101  0.62468243  0.49258986
   0.87548380  0.74903240  0.45741513
   0.87469792  0.75060416  0.49253706
   0.87548380  0.87548380  0.45741513
   0.87469792  0.87469792  0.49253706
Direct configuration=     3
   0.44444302  0.44444302  0.06057581
   0.44444434  0.77777783  0.06058114
   0.44444302  0.11111396  0.06057581
   0.77777783  0.44444434  0.06058114
   0.77777783  0.77777783  0.06058114
   0.77777650  0.11111175  0.06058196
   0.11111396  0.44444302  0.06057581
   0.11111175  0.77777650  0.06058196
   0.11111175  0.11111175  0.06058196
   0.55555943  0.55555943  0.12081490
   0.55555943  0.88888114  0.12081490
   0.55555616  0.22222192  0.12082059
   0.88888114  0.55555943  0.12081490
   0.88888833  0.88888833  0.12081880
   0.88888833  0.22222335  0.12081880
   0.22222192  0.55555616  0.12082059
   0.22222335  0.88888833  0.12081880
   0.22222192  0.22222192  0.12082059
   0.66666667  0.66666667  0.17986758
   0.66667714 -0.00000284  0.17987489
   0.66667714  0.33332570  0.17987489
  -0.00000284  0.66667714  0.17987489