       N       E                     dE             d eps       ncg     rms          rms(c)
DAV:   1     0.223358116522E+05    0.22336E+05   -0.98539E+05 12200   0.134E+03
DAV:   2     0.965006349415E+02   -0.22239E+05   -0.21251E+05 12152   0.469E+02
DAV:   3    -0.133595230361E+04   -0.14325E+04   -0.12013E+04 13504   0.131E+02
DAV:   4    -0.155741107849E+04   -0.22146E+03   -0.18725E+03 21080   0.489E+01
DAV:   5    -0.157074868423E+04   -0.13338E+02   -0.12131E+02 19952   0.117E+01    0.145E+02
DAV:   6    -0.194364482556E+04   -0.37290E+03   -0.27901E+03 15760   0.167E+02    0.289E+02
DAV:   7    -0.176104283533E+04    0.18260E+03   -0.10482E+03 13352   0.144E+02    0.239E+02
DAV:   8    -0.228298051194E+04   -0.52194E+03   -0.60142E+02 16728   0.137E+02    0.334E+02
DAV:   9    -0.176579064311E+04    0.51719E+03   -0.27139E+02 14792   0.912E+01    0.254E+02
DAV:  10    -0.170017084683E+04    0.65620E+02   -0.26805E+02 15376   0.760E+01    0.223E+02
DAV:  11    -0.151367304618E+04    0.18650E+03   -0.25773E+02 13992   0.694E+01    0.170E+02
DAV:  12    -0.159051574893E+04   -0.76843E+02   -0.53353E+02 16864   0.107E+02    0.203E+02
DAV:  13    -0.152606256761E+04    0.64453E+02   -0.24961E+02 15040   0.565E+01    0.179E+02
DAV:  14    -0.153862829957E+04   -0.12566E+02   -0.16576E+02 13304   0.802E+01    0.173E+02
DAV:  15    -0.150152549851E+04    0.37103E+02   -0.97002E+01 13136   0.605E+01    0.166E+02
DAV:  16    -0.148197145120E+04    0.19554E+02   -0.82947E+01 13120   0.615E+01    0.172E+02
DAV:  17    -0.145143105196E+04    0.30540E+02   -0.53290E+01 12832   0.405E+01    0.155E+02
DAV:  18    -0.141985243350E+04    0.31579E+02   -0.60828E+01 12768   0.473E+01    0.145E+02
DAV:  19    -0.138691655030E+04    0.32936E+02   -0.38430E+01 13008   0.365E+01    0.128E+02
DAV:  20    -0.136575403410E+04    0.21163E+02   -0.30479E+01 12920   0.322E+01    0.104E+02
DAV:  21    -0.135273188052E+04    0.13022E+02   -0.17745E+01 13024   0.247E+01    0.848E+01
DAV:  22    -0.134470507041E+04    0.80268E+01   -0.12206E+01 13000   0.205E+01    0.706E+01
DAV:  23    -0.133996562684E+04    0.47394E+01   -0.71224E+00 13488   0.117E+01    0.608E+01
DAV:  24    -0.133715229120E+04    0.28133E+01   -0.49276E+00 13352   0.927E+00    0.572E+01
DAV:  25    -0.133547036754E+04    0.16819E+01   -0.31925E+00 14176   0.753E+00    0.521E+01
DAV:  26    -0.133551822258E+04   -0.47855E-01   -0.25086E+00 13392   0.848E+00    0.540E+01
DAV:  27    -0.133398795797E+04    0.15303E+01   -0.24060E+00 13464   0.819E+00    0.477E+01
DAV:  28    -0.133213335400E+04    0.18546E+01   -0.20006E+00 13328   0.862E+00    0.426E+01
DAV:  29    -0.133071659173E+04    0.14168E+01   -0.15641E+00 13336   0.712E+00    0.402E+01
DAV:  30    -0.132926086309E+04    0.14557E+01   -0.13674E+00 13408   0.604E+00    0.344E+01
DAV:  31    -0.133013571616E+04   -0.87485E+00   -0.13483E+00 13312   0.688E+00    0.403E+01
DAV:  32    -0.133122178644E+04   -0.10861E+01   -0.15163E+00 13352   0.760E+00    0.483E+01
DAV:  33    -0.133011219378E+04    0.11096E+01   -0.14083E+00 13344   0.685E+00    0.448E+01
DAV:  34    -0.132893310726E+04    0.11791E+01   -0.11927E+00 13360   0.612E+00    0.379E+01
DAV:  35    -0.132753221720E+04    0.14009E+01   -0.12667E+00 13360   0.643E+00    0.303E+01
DAV:  36    -0.132631345738E+04    0.12188E+01   -0.97829E-01 13344   0.533E+00    0.197E+01
DAV:  37    -0.132635718710E+04   -0.43730E-01   -0.98060E-01 13440   0.495E+00    0.201E+01
DAV:  38    -0.132694605426E+04   -0.58887E+00   -0.81634E-01 13392   0.499E+00    0.280E+01
DAV:  39    -0.132641511997E+04    0.53093E+00   -0.76648E-01 13376   0.479E+00    0.241E+01
DAV:  40    -0.132672046357E+04   -0.30534E+00   -0.69846E-01 13456   0.487E+00    0.276E+01
DAV:  41    -0.132703367098E+04   -0.31321E+00   -0.10655E+00 13456   0.632E+00    0.272E+01
DAV:  42    -0.132638700259E+04    0.64667E+00   -0.87160E-01 13472   0.558E+00    0.226E+01
DAV:  43    -0.132631664816E+04    0.70354E-01   -0.62559E-01 13392   0.418E+00    0.233E+01
DAV:  44    -0.132600508203E+04    0.31157E+00   -0.46879E-01 13440   0.339E+00    0.198E+01
DAV:  45    -0.132561278009E+04    0.39230E+00   -0.28903E-01 13416   0.273E+00    0.157E+01
DAV:  46    -0.132547845324E+04    0.13433E+00   -0.24520E-01 13384   0.253E+00    0.134E+01
DAV:  47    -0.132539113855E+04    0.87315E-01   -0.21634E-01 13385   0.234E+00    0.115E+01
DAV:  48    -0.132543257491E+04   -0.41436E-01   -0.23846E-01 13400   0.250E+00    0.118E+01
DAV:  49    -0.132538946334E+04    0.43112E-01   -0.15050E-01 13408   0.216E+00    0.108E+01
DAV:  50    -0.132533788896E+04    0.51574E-01   -0.91732E-02 13400   0.162E+00    0.916E+00
DAV:  51    -0.132547188922E+04   -0.13400E+00   -0.22759E-01 15616   0.236E+00    0.117E+01
DAV:  52    -0.132527991614E+04    0.19197E+00   -0.15544E-01 13648   0.202E+00    0.786E+00
DAV:  53    -0.132523719658E+04    0.42720E-01   -0.97040E-02 13832   0.160E+00    0.704E+00
DAV:  54    -0.132524819279E+04   -0.10996E-01   -0.12496E-01 13536   0.164E+00    0.713E+00
DAV:  55    -0.132516191750E+04    0.86275E-01   -0.77264E-02 13488   0.137E+00    0.432E+00
DAV:  56    -0.132521854566E+04   -0.56628E-01   -0.69882E-02 13696   0.137E+00    0.553E+00
DAV:  57    -0.132521308909E+04    0.54566E-02   -0.52652E-02 13536   0.117E+00    0.588E+00
DAV:  58    -0.132518761523E+04    0.25474E-01   -0.51619E-02 13568   0.108E+00    0.467E+00
DAV:  59    -0.132518582144E+04    0.17938E-02   -0.32172E-02 13544   0.999E-01    0.399E+00
DAV:  60    -0.132520513997E+04   -0.19319E-01   -0.32996E-02 13584   0.105E+00    0.433E+00
DAV:  61    -0.132524590332E+04   -0.40763E-01   -0.57597E-02 13800   0.151E+00    0.625E+00
DAV:  62    -0.132517347217E+04    0.72431E-01   -0.54061E-02 13616   0.134E+00    0.384E+00
DAV:  63    -0.132517644048E+04   -0.29683E-02   -0.20271E-02 13544   0.829E-01    0.330E+00
DAV:  64    -0.132518067127E+04   -0.42308E-02   -0.18205E-02 13488   0.781E-01    0.326E+00
DAV:  65    -0.132516191032E+04    0.18761E-01   -0.13335E-02 13488   0.665E-01    0.215E+00
DAV:  66    -0.132520456110E+04   -0.42651E-01   -0.35930E-02 18448   0.103E+00    0.389E+00
DAV:  67    -0.132516734301E+04    0.37218E-01   -0.27187E-02 16312   0.956E-01    0.177E+00
DAV:  68    -0.132516578232E+04    0.15607E-02   -0.75059E-03 15896   0.429E-01    0.103E+00
DAV:  69    -0.132516700810E+04   -0.12258E-02   -0.38864E-03 15016   0.318E-01    0.111E+00
DAV:  70    -0.132516629622E+04    0.71188E-03   -0.30120E-03 14328   0.299E-01    0.884E-01
DAV:  71    -0.132519261995E+04   -0.26324E-01   -0.92788E-03 15544   0.616E-01    0.360E+00
DAV:  72    -0.132517030063E+04    0.22319E-01   -0.12044E-02 14248   0.624E-01    0.147E+00
DAV:  73    -0.132516724344E+04    0.30572E-02   -0.30807E-03 13792   0.315E-01    0.854E-01
DAV:  74    -0.132516681447E+04    0.42897E-03   -0.14292E-03 13552   0.207E-01    0.686E-01
DAV:  75    -0.132516737088E+04   -0.55641E-03   -0.85224E-04 13544   0.162E-01    0.563E-01
DAV:  76    -0.132517075015E+04   -0.33793E-02   -0.16143E-03 13864   0.256E-01    0.128E+00
DAV:  77    -0.132516796204E+04    0.27881E-02   -0.16952E-03 13664   0.239E-01    0.455E-01
DAV:  78    -0.132516790985E+04    0.52192E-04   -0.41970E-04 13600   0.110E-01    0.314E-01
DAV:  79    -0.132516829671E+04   -0.38686E-03   -0.27670E-04 13504   0.859E-02    0.360E-01
DAV:  80    -0.132516859103E+04   -0.29433E-03   -0.23152E-04 13424   0.792E-02    0.274E-01
DAV:  81    -0.132516953568E+04   -0.94465E-03   -0.36473E-04 13760   0.108E-01    0.541E-01
DAV:  82    -0.132516877886E+04    0.75682E-03   -0.32212E-04 13656   0.954E-02    0.176E-01
DAV:  83    -0.132516921541E+04   -0.43655E-03   -0.99950E-05 14736   0.439E-02    0.162E-01
DAV:  84    -0.132516953586E+04   -0.32045E-03   -0.68896E-05 13400   0.387E-02    0.151E-01
DAV:  85    -0.132516976572E+04   -0.22986E-03   -0.68172E-05 13192   0.366E-02    0.148E-01
DAV:  86    -0.132517025738E+04   -0.49166E-03   -0.11064E-04 14168   0.468E-02    0.239E-01
DAV:  87    -0.132517033287E+04   -0.75486E-04   -0.78333E-05 13600   0.467E-02    0.135E-01
DAV:  88    -0.132517050270E+04   -0.16983E-03   -0.30458E-05 10664   0.289E-02    0.104E-01
DAV:  89    -0.132517084021E+04   -0.33751E-03   -0.28705E-05 11264   0.276E-02    0.111E-01
DAV:  90    -0.132517116480E+04   -0.32459E-03   -0.30689E-05 11560   0.256E-02    0.989E-02
DAV:  91    -0.132517123881E+04   -0.74009E-04   -0.33696E-05 10672   0.328E-02    0.163E-01
DAV:  92    -0.132517146489E+04   -0.22608E-03   -0.36302E-05 10832   0.315E-02    0.960E-02
DAV:  93    -0.132517170149E+04   -0.23660E-03   -0.23323E-05 10856   0.219E-02    0.759E-02
DAV:  94    -0.132517195555E+04   -0.25406E-03   -0.29431E-05 12072   0.217E-02    0.791E-02
DAV:  95    -0.132517204075E+04   -0.85198E-04   -0.16779E-05  9592   0.203E-02    0.872E-02
DAV:  96    -0.132517195393E+04    0.86824E-04   -0.26080E-05  9040   0.300E-02    0.147E-01
DAV:  97    -0.132517210273E+04   -0.14881E-03   -0.32123E-05  9600   0.283E-02    0.672E-02
DAV:  98    -0.132517226978E+04   -0.16704E-03   -0.23112E-05 11136   0.181E-02    0.540E-02
DAV:  99    -0.132517231192E+04   -0.42138E-04   -0.96913E-06  8776   0.137E-02    0.444E-02
DAV: 100    -0.132517232953E+04   -0.17612E-04   -0.68972E-06  7624   0.113E-02    0.358E-02
DAV: 101    -0.132517232857E+04    0.96066E-06   -0.14858E-05  7401   0.213E-02
   1 F= -.14224688E+04 E0= -.14217071E+04  d E =-.152348E+01
