 254 254   0   0
  0.3019211E+02  0.1718057E-08  0.1718057E-08  0.3000000E-08  0.5000000E-15
   1.0000000000000000E-004
  CAR 
 NiAl                                    
      5.77505987    -30.24107219  301      1.79267608      1.00000000
    -30.241  0.0000E+00  0.0000E+00
    -30.121  0.0000E+00  0.0000E+00
    -30.001  0.0000E+00  0.0000E+00
    -29.881  0.0000E+00  0.0000E+00
    -29.761  0.0000E+00  0.0000E+00
    -29.641  0.0000E+00  0.0000E+00
    -29.521  0.0000E+00  0.0000E+00
    -29.401  0.0000E+00  0.0000E+00
    -29.281  0.0000E+00  0.0000E+00
    -29.161  0.0000E+00  0.0000E+00
    -29.041  0.0000E+00  0.0000E+00
    -28.920  0.0000E+00  0.0000E+00
    -28.800  0.2012E-06  0.2415E-07
    -28.680  0.2413E+00  0.2896E-01
    -28.560  0.1454E+02  0.1774E+01
    -28.440  0.1881E+01  0.2000E+01
    -28.320  0.3408E-04  0.2000E+01
    -28.200  0.0000E+00  0.2000E+01
    -28.080  0.0000E+00  0.2000E+01
    -27.960  0.0000E+00  0.2000E+01
    -27.840  0.0000E+00  0.2000E+01
    -27.720  0.0000E+00  0.2000E+01
    -27.600  0.0000E+00  0.2000E+01
    -27.480  0.0000E+00  0.2000E+01
    -27.360  0.0000E+00  0.2000E+01
    -27.240  0.0000E+00  0.2000E+01
    -27.120  0.0000E+00  0.2000E+01
    -27.000  0.0000E+00  0.2000E+01
    -26.880  0.0000E+00  0.2000E+01
    -26.760  0.0000E+00  0.2000E+01
    -26.639  0.0000E+00  0.2000E+01
    -26.519  0.0000E+00  0.2000E+01
    -26.399  0.0000E+00  0.2000E+01
    -26.279  0.0000E+00  0.2000E+01
    -26.159  0.0000E+00  0.2000E+01
    -26.039  0.0000E+00  0.2000E+01
    -25.919  0.0000E+00  0.2000E+01
    -25.799  0.0000E+00  0.2000E+01
    -25.679  0.0000E+00  0.2000E+01
    -25.559  0.0000E+00  0.2000E+01
    -25.439  0.0000E+00  0.2000E+01
    -25.319  0.0000E+00  0.2000E+01
    -25.199  0.0000E+00  0.2000E+01
    -25.079  0.0000E+00  0.2000E+01
    -24.959  0.0000E+00  0.2000E+01
    -24.839  0.0000E+00  0.2000E+01
    -24.719  0.0000E+00  0.2000E+01
    -24.599  0.0000E+00  0.2000E+01
    -24.478  0.0000E+00  0.2000E+01
    -24.358  0.0000E+00  0.2000E+01
    -24.238  0.0000E+00  0.2000E+01
    -24.118  0.0000E+00  0.2000E+01
    -23.998  0.0000E+00  0.2000E+01
    -23.878  0.0000E+00  0.2000E+01
    -23.758  0.0000E+00  0.2000E+01
    -23.638  0.0000E+00  0.2000E+01
    -23.518  0.0000E+00  0.2000E+01
    -23.398  0.0000E+00  0.2000E+01
    -23.278  0.0000E+00  0.2000E+01
    -23.158  0.0000E+00  0.2000E+01
    -23.038  0.0000E+00  0.2000E+01
    -22.918  0.0000E+00  0.2000E+01
    -22.798  0.0000E+00  0.2000E+01
    -22.678  0.0000E+00  0.2000E+01
    -22.558  0.0000E+00  0.2000E+01
    -22.438  0.0000E+00  0.2000E+01
    -22.318  0.0000E+00  0.2000E+01
    -22.197  0.0000E+00  0.2000E+01
    -22.077  0.0000E+00  0.2000E+01
    -21.957  0.0000E+00  0.2000E+01
    -21.837  0.0000E+00  0.2000E+01
    -21.717  0.0000E+00  0.2000E+01
    -21.597  0.0000E+00  0.2000E+01
    -21.477  0.0000E+00  0.2000E+01
    -21.357  0.0000E+00  0.2000E+01
    -21.237  0.0000E+00  0.2000E+01
    -21.117  0.0000E+00  0.2000E+01
    -20.997  0.0000E+00  0.2000E+01
    -20.877  0.0000E+00  0.2000E+01
    -20.757  0.0000E+00  0.2000E+01
    -20.637  0.0000E+00  0.2000E+01
    -20.517  0.0000E+00  0.2000E+01
    -20.397  0.0000E+00  0.2000E+01
    -20.277  0.0000E+00  0.2000E+01
    -20.157  0.0000E+00  0.2000E+01
    -20.037  0.0000E+00  0.2000E+01
    -19.916  0.0000E+00  0.2000E+01
    -19.796  0.0000E+00  0.2000E+01
    -19.676  0.0000E+00  0.2000E+01
    -19.556  0.0000E+00  0.2000E+01
    -19.436  0.0000E+00  0.2000E+01
    -19.316  0.0000E+00  0.2000E+01
    -19.196  0.0000E+00  0.2000E+01
    -19.076  0.0000E+00  0.2000E+01
    -18.956  0.0000E+00  0.2000E+01
    -18.836  0.0000E+00  0.2000E+01
    -18.716  0.0000E+00  0.2000E+01
    -18.596  0.0000E+00  0.2000E+01
    -18.476  0.0000E+00  0.2000E+01
    -18.356  0.0000E+00  0.2000E+01
    -18.236  0.0000E+00  0.2000E+01
    -18.116  0.0000E+00  0.2000E+01
    -17.996  0.0000E+00  0.2000E+01
    -17.876  0.0000E+00  0.2000E+01
    -17.755  0.0000E+00  0.2000E+01
    -17.635  0.0000E+00  0.2000E+01
    -17.515  0.0000E+00  0.2000E+01
    -17.395  0.0000E+00  0.2000E+01
    -17.275  0.0000E+00  0.2000E+01
    -17.155  0.0000E+00  0.2000E+01
    -17.035  0.0000E+00  0.2000E+01
    -16.915  0.0000E+00  0.2000E+01
    -16.795  0.0000E+00  0.2000E+01
    -16.675  0.0000E+00  0.2000E+01
    -16.555  0.0000E+00  0.2000E+01
    -16.435  0.0000E+00  0.2000E+01
    -16.315  0.0000E+00  0.2000E+01
    -16.195  0.0000E+00  0.2000E+01
    -16.075  0.0000E+00  0.2000E+01
    -15.955  0.0000E+00  0.2000E+01
    -15.835  0.0000E+00  0.2000E+01
    -15.715  0.0000E+00  0.2000E+01
    -15.595  0.0000E+00  0.2000E+01
    -15.474  0.0000E+00  0.2000E+01
    -15.354  0.0000E+00  0.2000E+01
    -15.234  0.0000E+00  0.2000E+01
    -15.114  0.0000E+00  0.2000E+01
    -14.994  0.0000E+00  0.2000E+01
    -14.874  0.0000E+00  0.2000E+01
    -14.754  0.0000E+00  0.2000E+01
    -14.634  0.0000E+00  0.2000E+01
    -14.514  0.0000E+00  0.2000E+01
    -14.394  0.0000E+00  0.2000E+01
    -14.274  0.0000E+00  0.2000E+01
    -14.154  0.0000E+00  0.2000E+01
    -14.034  0.0000E+00  0.2000E+01
    -13.914  0.0000E+00  0.2000E+01
    -13.794  0.0000E+00  0.2000E+01
    -13.674  0.0000E+00  0.2000E+01
    -13.554  0.0000E+00  0.2000E+01
    -13.434  0.0000E+00  0.2000E+01
    -13.313  0.0000E+00  0.2000E+01
    -13.193  0.0000E+00  0.2000E+01
    -13.073  0.0000E+00  0.2000E+01
    -12.953  0.0000E+00  0.2000E+01
    -12.833  0.0000E+00  0.2000E+01
    -12.713  0.0000E+00  0.2000E+01
    -12.593  0.1660E-07  0.2000E+01
    -12.473  0.7703E-01  0.2009E+01
    -12.353  0.1302E+02  0.3572E+01
    -12.233  0.3564E+01  0.4000E+01
    -12.113  0.2340E-03  0.4000E+01
    -11.993  0.2788E-12  0.4000E+01
    -11.873  0.0000E+00  0.4000E+01
    -11.753  0.0000E+00  0.4000E+01
    -11.633  0.0000E+00  0.4000E+01
    -11.513  0.0000E+00  0.4000E+01
    -11.393  0.0000E+00  0.4000E+01
    -11.273  0.0000E+00  0.4000E+01
    -11.153  0.0000E+00  0.4000E+01
    -11.032  0.0000E+00  0.4000E+01
    -10.912  0.0000E+00  0.4000E+01
    -10.792  0.0000E+00  0.4000E+01
    -10.672  0.0000E+00  0.4000E+01
    -10.552  0.0000E+00  0.4000E+01
    -10.432  0.0000E+00  0.4000E+01
    -10.312  0.0000E+00  0.4000E+01
    -10.192  0.0000E+00  0.4000E+01
    -10.072  0.0000E+00  0.4000E+01
     -9.952  0.0000E+00  0.4000E+01
     -9.832  0.0000E+00  0.4000E+01
     -9.712  0.0000E+00  0.4000E+01
     -9.592  0.0000E+00  0.4000E+01
     -9.472  0.0000E+00  0.4000E+01
     -9.352  0.3772E-09  0.4000E+01
     -9.232  0.5985E-02  0.4001E+01
     -9.112  0.2746E+01  0.4330E+01
     -8.992  0.5945E+01  0.5044E+01
     -8.872  0.2030E+02  0.7482E+01
     -8.751  0.3149E+01  0.7860E+01
     -8.631  0.1796E+02  0.1002E+02
     -8.511  0.3489E+02  0.1420E+02
     -8.391  0.2264E+02  0.1692E+02
     -8.271  0.1361E+02  0.1856E+02
     -8.151  0.1533E+02  0.2040E+02
     -8.031  0.2696E+02  0.2363E+02
     -7.911  0.6678E+02  0.3165E+02
     -7.791  0.7080E+01  0.3250E+02
     -7.671  0.7170E+01  0.3336E+02
     -7.551  0.8957E+02  0.4411E+02
     -7.431  0.2255E+02  0.4682E+02
     -7.311  0.4191E+02  0.5185E+02
     -7.191  0.2845E+02  0.5527E+02
     -7.071  0.4568E+02  0.6075E+02
     -6.951  0.6752E+02  0.6886E+02
     -6.831  0.4325E+02  0.7405E+02
     -6.711  0.5785E+02  0.8100E+02
     -6.590  0.8430E+02  0.9112E+02
     -6.470  0.3047E+02  0.9478E+02
     -6.350  0.1021E+02  0.9600E+02
     -6.230  0.3590E+01  0.9643E+02
     -6.110  0.8526E+02  0.1067E+03
     -5.990  0.7974E+02  0.1162E+03
     -5.870  0.6168E+02  0.1236E+03
     -5.750  0.3935E+02  0.1284E+03
     -5.630  0.8564E+02  0.1387E+03
     -5.510  0.5439E+02  0.1452E+03
     -5.390  0.2080E+02  0.1477E+03
     -5.270  0.6683E+02  0.1557E+03
     -5.150  0.4429E+02  0.1610E+03
     -5.030  0.7774E+02  0.1704E+03
     -4.910  0.6284E+02  0.1779E+03
     -4.790  0.2482E+02  0.1809E+03
     -4.670  0.9471E+02  0.1922E+03
     -4.550  0.6840E+02  0.2005E+03
     -4.430  0.5873E+02  0.2075E+03
     -4.309  0.4488E+02  0.2129E+03
     -4.189  0.8316E+02  0.2229E+03
     -4.069  0.1130E+03  0.2364E+03
     -3.949  0.6285E+02  0.2440E+03
     -3.829  0.6069E+02  0.2513E+03
     -3.709  0.7194E+02  0.2599E+03
     -3.589  0.7185E+02  0.2685E+03
     -3.469  0.6451E+02  0.2763E+03
     -3.349  0.1074E+02  0.2776E+03
     -3.229  0.5328E+02  0.2840E+03
     -3.109  0.8500E+02  0.2942E+03
     -2.989  0.1085E+03  0.3072E+03
     -2.869  0.1038E+03  0.3197E+03
     -2.749  0.1728E+03  0.3404E+03
     -2.629  0.7566E+02  0.3495E+03
     -2.509  0.1606E+01  0.3497E+03
     -2.389  0.4757E+02  0.3554E+03
     -2.269  0.1246E+03  0.3703E+03
     -2.148  0.6872E+02  0.3786E+03
     -2.028  0.8515E+02  0.3888E+03
     -1.908  0.6180E+02  0.3962E+03
     -1.788  0.1257E+03  0.4113E+03
     -1.668  0.8994E+02  0.4221E+03
     -1.548  0.5662E+02  0.4289E+03
     -1.428  0.6821E+02  0.4371E+03
     -1.308  0.1637E+03  0.4568E+03
     -1.188  0.9768E+02  0.4685E+03
     -1.068  0.8440E+02  0.4786E+03
     -0.948  0.7363E+02  0.4875E+03
     -0.828  0.1337E+03  0.5035E+03
     -0.708  0.7448E+02  0.5125E+03
     -0.588  0.3958E+02  0.5172E+03
     -0.468  0.9912E+02  0.5291E+03
     -0.348  0.1836E+03  0.5511E+03
     -0.228  0.1164E+03  0.5651E+03
     -0.108  0.6654E+02  0.5731E+03
      0.012  0.3459E+02  0.5773E+03
      0.133  0.1096E+03  0.5904E+03
      0.253  0.8994E+02  0.6012E+03
      0.373  0.7643E+02  0.6104E+03
      0.493  0.1235E+03  0.6252E+03
      0.613  0.8416E+02  0.6353E+03
      0.733  0.5174E+02  0.6415E+03
      0.853  0.5168E+02  0.6477E+03
      0.973  0.1737E+03  0.6686E+03
      1.093  0.1813E+03  0.6904E+03
      1.213  0.8955E+02  0.7011E+03
      1.333  0.6766E+02  0.7092E+03
      1.453  0.8351E+02  0.7193E+03
      1.573  0.1325E+03  0.7352E+03
      1.693  0.1852E+03  0.7574E+03
      1.813  0.9979E+02  0.7694E+03
      1.933  0.6652E+02  0.7774E+03
      2.053  0.1667E+03  0.7974E+03
      2.173  0.7083E+02  0.8059E+03
      2.294  0.6941E+02  0.8142E+03
      2.414  0.8544E+02  0.8245E+03
      2.534  0.9374E+02  0.8357E+03
      2.654  0.1396E+03  0.8525E+03
      2.774  0.6991E+02  0.8609E+03
      2.894  0.1186E+03  0.8751E+03
      3.014  0.2921E+03  0.9102E+03
      3.134  0.7651E+02  0.9194E+03
      3.254  0.8142E+02  0.9291E+03
      3.374  0.1205E+03  0.9436E+03
      3.494  0.1483E+03  0.9614E+03
      3.614  0.7216E+02  0.9701E+03
      3.734  0.1102E+03  0.9833E+03
      3.854  0.6919E+02  0.9916E+03
      3.974  0.1562E+03  0.1010E+04
      4.094  0.1040E+03  0.1023E+04
      4.214  0.9595E+01  0.1024E+04
      4.334  0.7101E-01  0.1024E+04
      4.454  0.5784E-07  0.1024E+04
      4.575  0.0000E+00  0.1024E+04
      4.695  0.0000E+00  0.1024E+04
      4.815  0.0000E+00  0.1024E+04
      4.935  0.0000E+00  0.1024E+04
      5.055  0.0000E+00  0.1024E+04
      5.175  0.0000E+00  0.1024E+04
      5.295  0.0000E+00  0.1024E+04
      5.415  0.0000E+00  0.1024E+04
      5.535  0.0000E+00  0.1024E+04
      5.655  0.0000E+00  0.1024E+04
      5.775  0.0000E+00  0.1024E+04
