       N       E                     dE             d eps       ncg     rms          rms(c)
DAV:   1     0.239801753093E+04    0.23980E+04   -0.20438E+05  3072   0.854E+02
DAV:   2    -0.702167785637E+03   -0.31002E+04   -0.29277E+04  4192   0.202E+02
DAV:   3    -0.946102077536E+03   -0.24393E+03   -0.23484E+03  4560   0.447E+01
DAV:   4    -0.956404120841E+03   -0.10302E+02   -0.10072E+02  4424   0.882E+00
DAV:   5    -0.956889048289E+03   -0.48493E+00   -0.48250E+00  4944   0.218E+00    0.534E+01
DAV:   6    -0.979551333554E+03   -0.22662E+02   -0.32802E+02  4800   0.181E+01    0.418E+01
DAV:   7    -0.948358783952E+03    0.31193E+02   -0.40266E+02  4024   0.251E+01    0.354E+01
DAV:   8    -0.975757100922E+03   -0.27398E+02   -0.18989E+02  4408   0.203E+01    0.256E+01
DAV:   9    -0.100345617230E+04   -0.27699E+02   -0.77855E+01  4392   0.267E+01    0.262E+01
DAV:  10    -0.929450987604E+03    0.74005E+02   -0.15445E+02  4792   0.176E+01    0.142E+01
DAV:  11    -0.925623108642E+03    0.38279E+01   -0.38172E+01  4176   0.606E+00    0.617E+00
DAV:  12    -0.929756494099E+03   -0.41334E+01   -0.19950E+01  4240   0.239E+00    0.115E+01
DAV:  13    -0.928759750404E+03    0.99674E+00   -0.56467E+00  4192   0.117E+00    0.118E+01
DAV:  14    -0.928790735158E+03   -0.30985E-01   -0.59238E-01  4064   0.408E-01    0.115E+01
DAV:  15    -0.928846541366E+03   -0.55806E-01   -0.36833E-02  4944   0.113E-01    0.116E+01
DAV:  16    -0.927850706155E+03    0.99584E+00   -0.77629E-02  3896   0.289E-01    0.110E+01
DAV:  17    -0.930243338223E+03   -0.23926E+01   -0.11826E+00  3752   0.103E+00    0.123E+01
DAV:  18    -0.927880485181E+03    0.23629E+01   -0.38980E-01  3904   0.667E-01    0.113E+01
DAV:  19    -0.927737180257E+03    0.14330E+00   -0.33338E-01  3880   0.502E-01    0.116E+01
DAV:  20    -0.928370255140E+03   -0.63307E+00   -0.42602E-01  3648   0.643E-01    0.113E+01
DAV:  21    -0.927158165391E+03    0.12121E+01   -0.86326E-02  3640   0.349E-01    0.943E+00
DAV:  22    -0.927607792412E+03   -0.44963E+00   -0.51733E+00  3624   0.228E-01    0.126E+01
DAV:  23    -0.927750233885E+03   -0.14244E+00   -0.92132E-02  3408   0.264E-01    0.137E+01
DAV:  24    -0.927608145316E+03    0.14209E+00   -0.94904E-03  4096   0.940E-02    0.139E+01
DAV:  25    -0.927586485216E+03    0.21660E-01   -0.80059E-04  3856   0.275E-02    0.138E+01
DAV:  26    -0.927413398864E+03    0.17309E+00   -0.12356E-02  3920   0.827E-02    0.131E+01
DAV:  27    -0.927253198057E+03    0.16020E+00   -0.50217E-02  3672   0.160E-01    0.117E+01
DAV:  28    -0.927470144172E+03   -0.21695E+00   -0.44133E-03  3840   0.906E-02    0.119E+01
DAV:  29    -0.926959124149E+03    0.51102E+00   -0.11552E-01  4032   0.261E-01    0.609E+00
DAV:  30    -0.927240241278E+03   -0.28112E+00   -0.33810E-01  3480   0.132E-01    0.105E+01
DAV:  31    -0.927102004938E+03    0.13824E+00   -0.10757E-01  3896   0.233E-01    0.996E+00
DAV:  32    -0.927067672212E+03    0.34333E-01   -0.13029E-01  3376   0.156E-01    0.630E+00
DAV:  33    -0.927028301119E+03    0.39371E-01   -0.20914E-02  3968   0.657E-02    0.141E+00
DAV:  34    -0.927093546483E+03   -0.65245E-01   -0.12005E-02  3416   0.770E-02    0.272E+00
DAV:  35    -0.927097813967E+03   -0.42675E-02   -0.33354E-02  3616   0.554E-02    0.454E+00
DAV:  36    -0.927079609693E+03    0.18204E-01   -0.26828E-03  3240   0.483E-02    0.366E+00
DAV:  37    -0.927071048759E+03    0.85609E-02   -0.15128E-02  3784   0.341E-02    0.288E+00
DAV:  38    -0.927090675176E+03   -0.19626E-01   -0.28683E-03  3216   0.482E-02    0.191E-01
DAV:  39    -0.927108617255E+03   -0.17942E-01   -0.92190E-04  3184   0.214E-02    0.178E+00
DAV:  40    -0.927094193271E+03    0.14424E-01   -0.74462E-04  3064   0.155E-02    0.280E-01
DAV:  41    -0.927107480575E+03   -0.13287E-01   -0.38082E-04  3152   0.175E-02    0.454E-01
DAV:  42    -0.927108106133E+03   -0.62556E-03   -0.12690E-04  3056   0.125E-02    0.290E-01
DAV:  43    -0.927108360066E+03   -0.25393E-03   -0.26369E-05  2480   0.550E-03    0.234E-01
DAV:  44    -0.927108978731E+03   -0.61866E-03   -0.69482E-05  2840   0.635E-03    0.300E-01
DAV:  45    -0.927108931146E+03    0.47584E-04   -0.63412E-05  2408   0.704E-03    0.325E-01
DAV:  46    -0.927109139776E+03   -0.20863E-03   -0.29321E-05  2336   0.506E-03    0.903E-02
DAV:  47    -0.927109326123E+03   -0.18635E-03   -0.65650E-06  2104   0.274E-03    0.285E-02
DAV:  48    -0.927109427786E+03   -0.10166E-03   -0.14032E-06  1944   0.137E-03    0.216E-02
DAV:  49    -0.927109507888E+03   -0.80102E-04   -0.13716E-06  1928   0.126E-03    0.304E-02
DAV:  50    -0.927109528686E+03   -0.20798E-04   -0.83819E-07  1880   0.109E-03    0.100E-02
DAV:  51    -0.927109537430E+03   -0.87439E-05   -0.50033E-07  1768   0.736E-04    0.371E-02
DAV:  52    -0.927109531393E+03    0.60368E-05   -0.19675E-07  1752   0.618E-04    0.234E-02
DAV:  53    -0.927109534744E+03   -0.33513E-05   -0.18451E-07  1752   0.405E-04
   1 F= -.99975854E+03 E0= -.99970987E+03  d E =-.973357E-01
