LAMMPS (24 Mar 2022)
OMP_NUM_THREADS environment is not set. Defaulting to 1 thread. (src/comm.cpp:98)
  using 1 OpenMP thread(s) per MPI task
Reading data file ...
  triclinic box = (0 0 0) to (14.415084 12.483828 32.516254) with tilt (-7.207542 0 0)
  1 by 1 by 1 MPI processor grid
  reading atoms ...
  108 atoms
  read_data CPU = 0.000 seconds
WARNING: Using 'neigh_modify every 1 delay 0 check yes' setting during minimization (src/min.cpp:187)
Neighbor list info ...
  update every 1 steps, delay 0 steps, check yes
  max neighbors/atom: 2000, page size: 100000
  master list distance cutoff = 8.28721
  ghost atom cutoff = 8.28721
  binsize = 4.143605, bins = 6 4 8
  1 neighbor lists, perpetual/occasional/extra = 1 0 0
  (1) pair eam/alloy, perpetual
      attributes: half, newton on
      pair build: half/bin/newton/tri
      stencil: half/bin/3d/tri
      bin: standard
Setting up cg style minimization ...
  Unit style    : metal
  Current step  : 0
Per MPI rank memory allocation (min/avg/max) = 4.472 | 4.472 | 4.472 Mbytes
   Step          Temp          E_pair         E_mol          TotEng         Press     
         0   0             -306.42108      0             -306.42108     -30158.468    
Loop time of 2.01e-06 on 1 procs for 0 steps with 108 atoms

149.3% CPU use with 1 MPI tasks x 1 OpenMP threads

Minimization stats:
  Stopping criterion = max iterations
  Energy initial, next-to-last, final = 
     -306.421076482624                  0  -306.421076482624
  Force two-norm initial, final = 8.924505 8.924505
  Force max component initial, final = 1.2992934 1.2992934
  Final line search alpha, max atom move = 0 0
  Iterations, force evaluations = 0 0

MPI task timing breakdown:
Section |  min time  |  avg time  |  max time  |%varavg| %total
---------------------------------------------------------------
Pair    | 0          | 0          | 0          |   0.0 |  0.00
Neigh   | 0          | 0          | 0          |   0.0 |  0.00
Comm    | 0          | 0          | 0          |   0.0 |  0.00
Output  | 0          | 0          | 0          |   0.0 |  0.00
Modify  | 0          | 0          | 0          |   0.0 |  0.00
Other   |            | 2.01e-06   |            |       |100.00

Nlocal:            108 ave         108 max         108 min
Histogram: 1 0 0 0 0 0 0 0 0 0
Nghost:            745 ave         745 max         745 min
Histogram: 1 0 0 0 0 0 0 0 0 0
Neighs:           4524 ave        4524 max        4524 min
Histogram: 1 0 0 0 0 0 0 0 0 0

Total # of neighbors = 4524
Ave neighs/atom = 41.888889
Neighbor list builds = 0
Dangerous builds = 0
Setting up Verlet run ...
  Unit style    : metal
  Current step  : 0
  Time step     : 0.01
Per MPI rank memory allocation (min/avg/max) = 4.351 | 4.351 | 4.351 Mbytes
   Step          Temp          E_pair         E_mol          TotEng         Press     
         0   300           -306.42108      0             -302.27183     -29401.071    
       100   924.6483      -315.25594      0             -302.46728     -1364.2181    
       200   1086.8963     -317.51867      0             -302.48598     -5547.3691    
       300   1068.3853     -317.29525      0             -302.51859     -3959.2396    
       400   1105.2684     -317.72247      0             -302.43569     -3833.8567    
       500   1031.994      -316.76444      0             -302.4911      -5160.5584    
       600   814.38755     -313.60954      0             -302.34588     -3474.1545    
       700   861.96978     -314.30341      0             -302.38164     -5553.6296    
       800   912.2276      -315.02529      0             -302.40842     -4042.1174    
       900   918.70013     -315.1055       0             -302.39911     -739.02313    
      1000   1044.6354     -316.88467      0             -302.43649     -3060.3173    
      1100   1039.5707     -316.76728      0             -302.38914     -2868.9112    
      1200   918.99453     -315.14347      0             -302.433       -4977.4916    
      1300   1048.4469     -316.98105      0             -302.48016     -7658.4193    
      1400   1018.1265     -316.56314      0             -302.4816      -6810.1795    
      1500   976.54211     -315.88989      0             -302.3835      -2874.7216    
      1600   972.88567     -315.94457      0             -302.48875     -3556.349     
      1700   983.34198     -316.07213      0             -302.47169     -5008.962     
      1800   1040.5046     -316.89389      0             -302.50284     -4506.1018    
      1900   938.24774     -315.46864      0             -302.49189     -3604.0651    
      2000   962.25139     -315.84703      0             -302.53829     -2224.5627    
      2100   1013.0723     -316.54905      0             -302.53741     -1571.8351    
      2200   1021.3249     -316.69266      0             -302.56688     -3955.6285    
      2300   1064.7808     -317.26095      0             -302.53414     -6460.1985    
      2400   980.25164     -316.08287      0             -302.52517     -8587.0449    
      2500   1027.8717     -316.65018      0             -302.43386     -2002.6461    
      2600   991.75186     -316.20071      0             -302.48395     -3788.7183    
      2700   991.26403     -316.18227      0             -302.47226     -3475.6279    
      2800   1007.6879     -316.48615      0             -302.54898     -5799.2602    
      2900   956.47598     -315.71471      0             -302.48584      302.18946    
      3000   1014.7506     -316.56899      0             -302.53414     -1055.31      
      3100   1090.1069     -317.63237      0             -302.55528     -3198.2786    
      3200   896.22719     -314.90044      0             -302.50487      79.555921    
      3300   976.12305     -315.96904      0             -302.46845     -3770.8797    
      3400   925.32023     -315.31008      0             -302.51213     -4399.3394    
      3500   965.85289     -315.8957       0             -302.53715     -236.81858    
      3600   954.23027     -315.65431      0             -302.45651     -5479.1236    
      3700   950.70877     -315.66509      0             -302.51599     -7173.3313    
      3800   1124.4402     -318.12954      0             -302.57759     -3943.9427    
      3900   1043.9543     -316.92995      0             -302.49119      1250.7291    
      4000   951.50734     -315.64954      0             -302.4894      -3433.1027    
      4100   1072.8179     -317.39055      0             -302.55258     -3338.1894    
      4200   1111.0275     -317.88655      0             -302.52011     -3785.446     
      4300   1038.0101     -316.85682      0             -302.50028     -8572.8491    
      4400   1052.2619     -317.04435      0             -302.49069     -4972.4961    
      4500   1052.72       -316.9933       0             -302.43331     -620.90018    
      4600   1031.5433     -316.72962      0             -302.46251     -1732.7217    
      4700   1028.3033     -316.72183      0             -302.49953     -2507.6359    
      4800   1063.7456     -317.27899      0             -302.5665      -4256.5728    
      4900   935.43371     -315.33289      0             -302.39506     -3454.5544    
      5000   999.88981     -316.2886       0             -302.45929     -4874.7265    
      5100   889.89616     -314.71336      0             -302.40535     -1220.0335    
      5200   974.78933     -315.98151      0             -302.49936     -7408.3701    
      5300   899.94442     -314.84121      0             -302.39423     -2674.7372    
      5400   1034.4881     -316.77097      0             -302.46313     -2472.8262    
      5500   1006.3318     -316.36672      0             -302.44832     -4094.7964    
      5600   952.8918      -315.6355       0             -302.45621     -4043.5917    
      5700   1005.7918     -316.33989      0             -302.42895     -4349.0596    
      5800   1008.7449     -316.4264       0             -302.47462     -4034.4074    
      5900   959.11702     -315.71301      0             -302.44762     -6106.3218    
      6000   1093.3542     -317.59072      0             -302.46872     -6916.9404    
      6100   1059.4484     -317.15849      0             -302.50544     -6998.0844    
      6200   936.43163     -315.35546      0             -302.40383     -2042.0531    
      6300   1005.5706     -316.37101      0             -302.46313     -3104.0442    
      6400   1009.3479     -316.4447       0             -302.48458     -3695.6948    
      6500   1017.4436     -316.54936      0             -302.47726     -2357.2874    
      6600   926.93812     -315.315        0             -302.49467     -2929.9966    
      6700   1156.989      -318.53713      0             -302.53501     -3362.7088    
      6800   991.18249     -316.19309      0             -302.48421     -6878.741     
      6900   947.62659     -315.64702      0             -302.54055     -6283.4791    
      7000   1006.2685     -316.44098      0             -302.52344     -6480.7067    
      7100   949.38455     -315.64837      0             -302.51759     -5893.6394    
      7200   1005.5131     -316.46299      0             -302.55591     -2655.9511    
      7300   984.00254     -316.13444      0             -302.52486     -1728.1307    
      7400   1080.8019     -317.54311      0             -302.59472     -2355.2435    
      7500   1000.9051     -316.44355      0             -302.6002      -914.91058    
      7600   890.2944      -314.86692      0             -302.55341     -6662.5337    
      7700   1036.8796     -316.93964      0             -302.59872     -4834.3561    
      7800   955.76965     -315.83224      0             -302.61315     -2860.6655    
      7900   1032.2208     -316.92443      0             -302.64795     -3019.3031    
      8000   872.94491     -314.66966      0             -302.5961      -1989.003     
      8100   938.65453     -315.60682      0             -302.62444     -5990.5918    
      8200   972.2707      -316.1513       0             -302.70398      2761.3028    
      8300   958.86551     -316.03571      0             -302.77379     -1522.4786    
      8400   994.23864     -316.52618      0             -302.77503     -4269.9863    
      8500   1002.9984     -316.59573      0             -302.72342     -1278.6317    
      8600   941.66636     -315.7643       0             -302.74027     -4769.4357    
      8700   925.1902      -315.54041      0             -302.74426     -3586.9787    
      8800   1049.0964     -317.3387       0             -302.82882     -6325.3622    
      8900   949.74878     -315.828        0             -302.69218     -2860.9475    
      9000   966.9322      -316.11153      0             -302.73804     -5080.6734    
      9100   1005.8834     -316.58165      0             -302.66944     -2545.1165    
      9200   993.3285      -316.38361      0             -302.64505     -482.49566    
      9300   1079.1275     -317.68297      0             -302.75773      243.14545    
      9400   1058.5936     -317.36485      0             -302.72362     -5268.4014    
      9500   1020.4883     -316.81903      0             -302.70482     -188.22086    
      9600   964.67318     -315.91981      0             -302.57758     -1720.9629    
      9700   971.09733     -315.93947      0             -302.50839     -4559.4227    
      9800   929.07954     -315.48131      0             -302.63136     -5356.6015    
      9900   970.93242     -316.06024      0             -302.63143     -3869.5062    
     10000   926.00768     -315.34936      0             -302.5419      -2013.0085    
Loop time of 2.16147 on 1 procs for 10000 steps with 108 atoms

Performance: 3997.277 ns/day, 0.006 hours/ns, 4626.478 timesteps/s
99.3% CPU use with 1 MPI tasks x 1 OpenMP threads

MPI task timing breakdown:
Section |  min time  |  avg time  |  max time  |%varavg| %total
---------------------------------------------------------------
Pair    | 1.7926     | 1.7926     | 1.7926     |   0.0 | 82.93
Neigh   | 0.21543    | 0.21543    | 0.21543    |   0.0 |  9.97
Comm    | 0.050335   | 0.050335   | 0.050335   |   0.0 |  2.33
Output  | 0.081131   | 0.081131   | 0.081131   |   0.0 |  3.75
Modify  | 0.010642   | 0.010642   | 0.010642   |   0.0 |  0.49
Other   |            | 0.01132    |            |       |  0.52

Nlocal:            108 ave         108 max         108 min
Histogram: 1 0 0 0 0 0 0 0 0 0
Nghost:            871 ave         871 max         871 min
Histogram: 1 0 0 0 0 0 0 0 0 0
Neighs:           5025 ave        5025 max        5025 min
Histogram: 1 0 0 0 0 0 0 0 0 0

Total # of neighbors = 5025
Ave neighs/atom = 46.527778
Neighbor list builds = 999
Dangerous builds = 998
System init for write_restart ...
Total wall time: 0:00:02
