ITEM: TIMESTEP
0
ITEM: NUMBER OF ATOMS
12
ITEM: BOX BOUNDS xy xz yz pp pp pp
-2.4025139800000002e+00 4.8050279600000003e+00 -2.4025139800000002e+00
0.0000000000000000e+00 4.1612762800000000e+00 0.0000000000000000e+00
0.0000000000000000e+00 1.3116253850000000e+01 0.0000000000000000e+00
ITEM: ATOMS id type xs ys zs
1 1 0 0 0.147848
2 1 0.333333 0.666667 0.0188184
3 1 0.333333 0.666667 0.314515
4 1 0.666667 0.333333 0.185485
5 1 0.666667 0.333333 0.481182
6 1 0 0 0.352152
7 1 0 0 0.647848
8 1 0.333333 0.666667 0.518818
9 1 0.333333 0.666667 0.814515
10 1 0.666667 0.333333 0.685485
11 1 0.666667 0.333333 0.981182
12 1 0 0 0.852152
ITEM: TIMESTEP
10
ITEM: NUMBER OF ATOMS
12
ITEM: BOX BOUNDS xy xz yz pp pp pp
-2.4025139800000002e+00 4.8050279600000003e+00 -2.4025139800000002e+00
0.0000000000000000e+00 4.1612762800000000e+00 0.0000000000000000e+00
0.0000000000000000e+00 1.3116253850000000e+01 0.0000000000000000e+00
ITEM: ATOMS id type xs ys zs
1 1 -0.032024 -0.0622134 0.110817
2 1 0.331434 0.687526 0.0456939
3 1 0.327367 0.684765 0.292031
4 1 0.633761 0.319839 0.234039
5 1 0.675884 0.33709 0.431935
6 1 0.0146947 0.020426 0.370635
7 1 0.0100114 -0.0274365 0.610405
8 1 0.312325 0.599818 0.574208
9 1 0.330454 0.667508 0.776406
10 1 0.666723 0.312821 0.737315
11 1 0.693754 0.41099 0.926734
12 1 0.0356162 0.0488659 0.889781
ITEM: TIMESTEP
20
ITEM: NUMBER OF ATOMS
12
ITEM: BOX BOUNDS xy xz yz pp pp pp
-2.4025139800000002e+00 4.8050279600000003e+00 -2.4025139800000002e+00
0.0000000000000000e+00 4.1612762800000000e+00 0.0000000000000000e+00
0.0000000000000000e+00 1.3116253850000000e+01 0.0000000000000000e+00
ITEM: ATOMS id type xs ys zs
1 1 -0.0367156 -0.0059837 0.134314
2 1 0.312518 0.617844 0.0736982
3 1 0.305152 0.657176 0.296456
4 1 0.665838 0.313918 0.181477
5 1 0.669337 0.342991 0.458202
6 1 0.00402288 0.000460068 0.350723
7 1 -0.00544837 -0.0797507 0.610006
8 1 0.29436 0.60614 0.510266
9 1 0.388762 0.801048 0.848036
10 1 0.637402 0.235554 0.66883
11 1 0.736644 0.423917 0.970147
12 1 0.0281276 0.0866872 0.897846
ITEM: TIMESTEP
30
ITEM: NUMBER OF ATOMS
12
ITEM: BOX BOUNDS xy xz yz pp pp pp
-2.4025139800000002e+00 4.8050279600000003e+00 -2.4025139800000002e+00
0.0000000000000000e+00 4.1612762800000000e+00 0.0000000000000000e+00
0.0000000000000000e+00 1.3116253850000000e+01 0.0000000000000000e+00
ITEM: ATOMS id type xs ys zs
1 1 1.03955 0.93856 0.149266
2 1 0.310171 0.603701 0.0852329
3 1 0.257894 0.628824 0.305096
4 1 0.642665 0.29119 0.202371
5 1 0.606815 0.331706 0.404682
6 1 0.915175 -0.0557129 0.349565
7 1 1.01813 0.910614 0.564644
8 1 0.319235 0.569093 0.509277
9 1 0.398817 0.809481 0.878889
10 1 0.631336 0.268726 0.618266
11 1 0.757336 0.523354 0.98963
12 1 0.102883 0.180463 0.943081
ITEM: TIMESTEP
40
ITEM: NUMBER OF ATOMS
12
ITEM: BOX BOUNDS xy xz yz pp pp pp
-2.4025139800000002e+00 4.8050279600000003e+00 -2.4025139800000002e+00
0.0000000000000000e+00 4.1612762800000000e+00 0.0000000000000000e+00
0.0000000000000000e+00 1.3116253850000000e+01 0.0000000000000000e+00
ITEM: ATOMS id type xs ys zs
1 1 1.08067 0.979852 0.112442
2 1 0.429099 0.657936 0.10755
3 1 0.168431 0.598645 0.317695
4 1 0.717853 0.297811 0.162555
5 1 0.561973 0.293659 0.412516
6 1 0.798746 -0.0988275 0.368654
7 1 0.976955 0.940816 0.555254
8 1 0.322774 0.640327 0.53353
9 1 0.4275 0.855102 0.895732
10 1 0.617787 0.158496 0.664243
11 1 0.747197 0.471542 0.963076
12 1 0.15102 0.204642 0.906752
ITEM: TIMESTEP
50
ITEM: NUMBER OF ATOMS
12
ITEM: BOX BOUNDS xy xz yz pp pp pp
-2.4025139800000002e+00 4.8050279600000003e+00 -2.4025139800000002e+00
0.0000000000000000e+00 4.1612762800000000e+00 0.0000000000000000e+00
0.0000000000000000e+00 1.3116253850000000e+01 0.0000000000000000e+00
ITEM: ATOMS id type xs ys zs
1 1 0.116248 0.944715 0.10939
2 1 0.448991 0.604158 0.0969393
3 1 0.15904 0.617871 0.320306
4 1 0.747602 0.257751 0.152118
5 1 0.442431 0.234563 0.41216
6 1 0.772704 0.959521 0.323103
7 1 0.967067 0.963118 0.634983
8 1 0.376401 0.663813 0.535701
9 1 0.456036 0.830778 0.901967
10 1 0.560564 0.171697 0.723585
11 1 0.835489 0.549808 0.941048
12 1 0.117427 0.202206 0.848699
ITEM: TIMESTEP
60
ITEM: NUMBER OF ATOMS
12
ITEM: BOX BOUNDS xy xz yz pp pp pp
-2.4025139800000002e+00 4.8050279600000003e+00 -2.4025139800000002e+00
0.0000000000000000e+00 4.1612762800000000e+00 0.0000000000000000e+00
0.0000000000000000e+00 1.3116253850000000e+01 0.0000000000000000e+00
ITEM: ATOMS id type xs ys zs
1 1 0.124212 0.923136 0.139042
2 1 0.437734 0.540938 0.139466
3 1 0.106264 0.507431 0.296954
4 1 0.776931 0.204286 0.0871981
5 1 0.417735 0.20392 0.376394
6 1 0.724749 0.877652 0.310696
7 1 0.971575 0.967978 0.643931
8 1 0.349844 0.766272 0.572673
9 1 0.415953 0.842016 0.935632
10 1 0.744262 0.342197 0.703852
11 1 0.801905 0.611834 0.919648
12 1 0.128837 0.21234 0.874514
ITEM: TIMESTEP
70
ITEM: NUMBER OF ATOMS
12
ITEM: BOX BOUNDS xy xz yz pp pp pp
-2.4025139800000002e+00 4.8050279600000003e+00 -2.4025139800000002e+00
0.0000000000000000e+00 4.1612762800000000e+00 0.0000000000000000e+00
0.0000000000000000e+00 1.3116253850000000e+01 0.0000000000000000e+00
ITEM: ATOMS id type xs ys zs
1 1 0.277964 0.88347 0.158324
2 1 0.548341 0.512994 0.105856
3 1 0.969576 0.423901 0.349006
4 1 0.91215 0.1593 0.0937192
5 1 0.311995 0.127561 0.384554
6 1 0.66131 0.798189 0.288142
7 1 0.0620307 0.0593737 0.644865
8 1 0.376934 0.692431 0.568098
9 1 0.418684 0.976002 0.927432
10 1 0.657284 0.448164 0.728735
11 1 0.745603 0.631993 0.912669
12 1 0.0581292 0.286621 0.838601
ITEM: TIMESTEP
80
ITEM: NUMBER OF ATOMS
12
ITEM: BOX BOUNDS xy xz yz pp pp pp
-2.4025139800000002e+00 4.8050279600000003e+00 -2.4025139800000002e+00
0.0000000000000000e+00 4.1612762800000000e+00 0.0000000000000000e+00
0.0000000000000000e+00 1.3116253850000000e+01 0.0000000000000000e+00
ITEM: ATOMS id type xs ys zs
1 1 0.173508 0.745501 0.205579
2 1 0.561224 0.409093 0.108772
3 1 0.957181 0.408836 0.38564
4 1 0.960309 0.10502 0.0882815
5 1 0.348287 0.139224 0.417847
6 1 0.673369 0.764009 0.328962
7 1 -0.0123501 0.0412871 0.588788
8 1 0.34237 0.655831 0.545792
9 1 0.471945 1.13707 0.916336
10 1 0.588552 0.338464 0.691356
11 1 0.77025 0.740485 0.893912
12 1 0.165356 0.515183 0.828735
ITEM: TIMESTEP
90
ITEM: NUMBER OF ATOMS
12
ITEM: BOX BOUNDS xy xz yz pp pp pp
-2.4025139800000002e+00 4.8050279600000003e+00 -2.4025139800000002e+00
0.0000000000000000e+00 4.1612762800000000e+00 0.0000000000000000e+00
0.0000000000000000e+00 1.3116253850000000e+01 0.0000000000000000e+00
ITEM: ATOMS id type xs ys zs
1 1 0.237038 0.744926 0.180312
2 1 0.572356 0.365167 0.182833
3 1 0.980348 0.400155 0.411605
4 1 0.826906 0.077677 0.0746213
5 1 0.335041 0.0330006 0.385379
6 1 0.659575 0.697064 0.378368
7 1 0.987235 0.00433199 0.587421
8 1 0.265419 0.657421 0.604135
9 1 0.503883 0.260764 0.902544
10 1 0.650714 0.343273 0.648641
11 1 0.825409 0.90558 0.856144
12 1 0.156076 0.510641 0.787996
ITEM: TIMESTEP
100
ITEM: NUMBER OF ATOMS
12
ITEM: BOX BOUNDS xy xz yz pp pp pp
-2.4025139800000002e+00 4.8050279600000003e+00 -2.4025139800000002e+00
0.0000000000000000e+00 4.1612762800000000e+00 0.0000000000000000e+00
0.0000000000000000e+00 1.3116253850000000e+01 0.0000000000000000e+00
ITEM: ATOMS id type xs ys zs
1 1 0.182515 0.727752 0.14997
2 1 0.532227 0.413627 0.210055
3 1 0.919594 0.325085 0.403172
4 1 0.933417 0.0735433 0.0552619
5 1 0.250383 -0.0465042 0.372831
6 1 0.623154 0.632079 0.418679
7 1 1.05036 0.0821825 0.622523
8 1 0.322384 0.761171 0.563689
9 1 0.478695 0.149237 0.903289
10 1 0.689421 0.39993 0.665831
11 1 0.854627 0.911923 0.817778
12 1 0.163228 0.569974 0.816922
ITEM: TIMESTEP
110
ITEM: NUMBER OF ATOMS
12
ITEM: BOX BOUNDS xy xz yz pp pp pp
-2.4025139800000002e+00 4.8050279600000003e+00 -2.4025139800000002e+00
0.0000000000000000e+00 4.1612762800000000e+00 0.0000000000000000e+00
0.0000000000000000e+00 1.3116253850000000e+01 0.0000000000000000e+00
ITEM: ATOMS id type xs ys zs
1 1 0.293064 0.76974 0.111435
2 1 0.645855 0.487526 0.184337
3 1 0.891783 0.246036 0.379194
4 1 0.934131 0.153511 0.0379684
5 1 0.185017 0.838214 0.337765
6 1 0.527097 0.508331 0.459602
7 1 0.012298 0.141079 0.597029
8 1 0.417981 0.90423 0.618202
9 1 0.485732 0.195379 0.92235
10 1 0.641971 0.50184 0.669019
11 1 0.825782 0.802316 0.862974
12 1 0.139289 0.4518 0.820123
ITEM: TIMESTEP
120
ITEM: NUMBER OF ATOMS
12
ITEM: BOX BOUNDS xy xz yz pp pp pp
-2.4025139800000002e+00 4.8050279600000003e+00 -2.4025139800000002e+00
0.0000000000000000e+00 4.1612762800000000e+00 0.0000000000000000e+00
0.0000000000000000e+00 1.3116253850000000e+01 0.0000000000000000e+00
ITEM: ATOMS id type xs ys zs
1 1 0.410342 0.857724 0.114206
2 1 0.716048 0.505548 0.167937
3 1 0.829373 0.121218 0.363239
4 1 0.115414 0.198191 0.0788372
5 1 0.178832 0.872976 0.306213
6 1 0.527973 0.495551 0.449025
7 1 0.916184 0.199865 0.599602
8 1 0.287067 0.878459 0.618058
9 1 0.47772 0.132613 0.878142
10 1 0.640347 0.509856 0.695652
11 1 0.746027 0.791475 0.918981
12 1 0.154673 0.436526 0.810107
ITEM: TIMESTEP
130
ITEM: NUMBER OF ATOMS
12
ITEM: BOX BOUNDS xy xz yz pp pp pp
-2.4025139800000002e+00 4.8050279600000003e+00 -2.4025139800000002e+00
0.0000000000000000e+00 4.1612762800000000e+00 0.0000000000000000e+00
0.0000000000000000e+00 1.3116253850000000e+01 0.0000000000000000e+00
ITEM: ATOMS id type xs ys zs
1 1 0.512921 0.837072 0.125652
2 1 0.907596 0.490111 0.148247
3 1 0.928275 0.318413 0.359077
4 1 0.19724 0.172029 0.0782905
5 1 0.295767 1.0137 0.308624
6 1 0.442793 0.413733 0.474633
7 1 0.906533 0.180659 0.596381
8 1 0.228867 0.847393 0.599904
9 1 0.324118 0.0381052 0.860419
10 1 0.576326 0.580326 0.674264
11 1 0.69614 0.701958 0.934785
12 1 -0.0165765 0.406496 0.839722
ITEM: TIMESTEP
140
ITEM: NUMBER OF ATOMS
12
ITEM: BOX BOUNDS xy xz yz pp pp pp
-2.4025139800000002e+00 4.8050279600000003e+00 -2.4025139800000002e+00
0.0000000000000000e+00 4.1612762800000000e+00 0.0000000000000000e+00
0.0000000000000000e+00 1.3116253850000000e+01 0.0000000000000000e+00
ITEM: ATOMS id type xs ys zs
1 1 0.658695 0.864592 0.153044
2 1 1.00548 0.487744 0.150456
3 1 1.03411 0.505985 0.377905
4 1 0.300394 0.167035 0.0538169
5 1 0.34084 0.127017 0.262131
6 1 0.547331 0.533324 0.513148
7 1 0.819574 0.131622 0.578615
8 1 0.110996 0.82255 0.637968
9 1 0.182379 -0.0991184 0.848062
10 1 0.520418 0.489425 0.725173
11 1 0.563954 0.701922 0.921067
12 1 0.915834 0.267902 0.778614
ITEM: TIMESTEP
150
ITEM: NUMBER OF ATOMS
12
ITEM: BOX BOUNDS xy xz yz pp pp pp
-2.4025139800000002e+00 4.8050279600000003e+00 -2.4025139800000002e+00
0.0000000000000000e+00 4.1612762800000000e+00 0.0000000000000000e+00
0.0000000000000000e+00 1.3116253850000000e+01 0.0000000000000000e+00
ITEM: ATOMS id type xs ys zs
1 1 0.804485 0.834066 0.178896
2 1 0.087237 0.452107 0.147827
3 1 0.0384892 0.665079 0.377338
4 1 0.362138 0.122498 0.0586572
5 1 0.354042 0.284991 0.289116
6 1 0.456064 0.458586 0.475581
7 1 0.86176 0.243984 0.560547
8 1 0.245425 0.872508 0.597149
9 1 0.078526 0.752646 0.846861
10 1 0.471132 0.48859 0.715794
11 1 0.564551 0.746046 0.971186
12 1 0.676151 0.0788999 0.781046
ITEM: TIMESTEP
160
ITEM: NUMBER OF ATOMS
12
ITEM: BOX BOUNDS xy xz yz pp pp pp
-2.4025139800000002e+00 4.8050279600000003e+00 -2.4025139800000002e+00
0.0000000000000000e+00 4.1612762800000000e+00 0.0000000000000000e+00
0.0000000000000000e+00 1.3116253850000000e+01 0.0000000000000000e+00
ITEM: ATOMS id type xs ys zs
1 1 0.799958 0.914078 0.182797
2 1 0.087378 0.545906 0.116279
3 1 0.0484349 0.622148 0.373041
4 1 0.474814 0.140458 0.0904172
5 1 0.414469 0.263594 0.301469
6 1 0.589009 0.663724 0.511146
7 1 0.838626 0.258432 0.567865
8 1 0.189447 0.896878 0.570029
9 1 0.0195882 0.678189 0.807744
10 1 0.311117 0.335312 0.726795
11 1 0.547903 0.690023 0.969604
12 1 0.679255 -0.00874251 0.782814
ITEM: TIMESTEP
170
ITEM: NUMBER OF ATOMS
12
ITEM: BOX BOUNDS xy xz yz pp pp pp
-2.4025139800000002e+00 4.8050279600000003e+00 -2.4025139800000002e+00
0.0000000000000000e+00 4.1612762800000000e+00 0.0000000000000000e+00
0.0000000000000000e+00 1.3116253850000000e+01 0.0000000000000000e+00
ITEM: ATOMS id type xs ys zs
1 1 0.808432 0.86653 0.200149
2 1 0.171667 0.572033 0.160899
3 1 0.0129254 0.541086 0.361122
4 1 0.429034 0.164291 0.0825903
5 1 0.450433 0.227692 0.283173
6 1 0.497734 0.626953 0.506982
7 1 0.894931 0.300593 0.591871
8 1 0.195563 0.968394 0.575399
9 1 0.0165173 0.677972 0.782826
10 1 0.338302 0.333113 0.771935
11 1 0.499959 0.734569 0.940949
12 1 0.684502 0.986773 0.742105
ITEM: TIMESTEP
180
ITEM: NUMBER OF ATOMS
12
ITEM: BOX BOUNDS xy xz yz pp pp pp
-2.4025139800000002e+00 4.8050279600000003e+00 -2.4025139800000002e+00
0.0000000000000000e+00 4.1612762800000000e+00 0.0000000000000000e+00
0.0000000000000000e+00 1.3116253850000000e+01 0.0000000000000000e+00
ITEM: ATOMS id type xs ys zs
1 1 0.740374 0.792517 0.196418
2 1 0.121051 0.488257 0.171197
3 1 0.00609744 0.676046 0.370463
4 1 0.600977 0.32552 0.0711243
5 1 0.496993 0.193803 0.271094
6 1 0.531022 0.662195 0.519538
7 1 0.927917 0.302161 0.541118
8 1 0.262475 1.04066 0.585959
9 1 -0.0918864 0.578325 0.833814
10 1 0.301041 0.304497 0.761085
11 1 0.437784 0.653999 0.958084
12 1 0.666154 0.982023 0.720105
ITEM: TIMESTEP
190
ITEM: NUMBER OF ATOMS
12
ITEM: BOX BOUNDS xy xz yz pp pp pp
-2.4025139800000002e+00 4.8050279600000003e+00 -2.4025139800000002e+00
0.0000000000000000e+00 4.1612762800000000e+00 0.0000000000000000e+00
0.0000000000000000e+00 1.3116253850000000e+01 0.0000000000000000e+00
ITEM: ATOMS id type xs ys zs
1 1 0.907955 0.887746 0.138598
2 1 0.243034 0.599117 0.184727
3 1 0.0146417 0.76549 0.377803
4 1 0.650905 0.269468 0.0472141
5 1 0.545723 0.229432 0.245785
6 1 0.505571 0.626741 0.536962
7 1 0.83165 0.261615 0.536066
8 1 0.193691 -0.0135399 0.601487
9 1 0.911151 0.620778 0.852333
10 1 0.245676 0.256163 0.768851
11 1 0.395179 0.582785 0.966895
12 1 0.554824 0.914207 0.743279
ITEM: TIMESTEP
200
ITEM: NUMBER OF ATOMS
12
ITEM: BOX BOUNDS xy xz yz pp pp pp
-2.4025139800000002e+00 4.8050279600000003e+00 -2.4025139800000002e+00
0.0000000000000000e+00 4.1612762800000000e+00 0.0000000000000000e+00
0.0000000000000000e+00 1.3116253850000000e+01 0.0000000000000000e+00
ITEM: ATOMS id type xs ys zs
1 1 1.07284 0.95309 0.0954323
2 1 0.357372 0.690429 0.197442
3 1 1.05779 0.816582 0.405589
4 1 0.687224 0.277384 0.0285835
5 1 0.578339 0.289898 0.268765
6 1 0.426727 0.562867 0.533557
7 1 0.674006 0.194242 0.544881
8 1 0.0568435 0.848275 0.620278
9 1 0.860601 0.576821 0.81898
10 1 0.253931 0.262453 0.775127
11 1 0.400592 0.59168 0.970286
12 1 0.573737 0.93628 0.741079
ITEM: TIMESTEP
210
ITEM: NUMBER OF ATOMS
12
ITEM: BOX BOUNDS xy xz yz pp pp pp
-2.4025139800000002e+00 4.8050279600000003e+00 -2.4025139800000002e+00
0.0000000000000000e+00 4.1612762800000000e+00 0.0000000000000000e+00
0.0000000000000000e+00 1.3116253850000000e+01 0.0000000000000000e+00
ITEM: ATOMS id type xs ys zs
1 1 0.0671193 1.01443 0.0697091
2 1 0.339121 0.653418 0.182653
3 1 0.075652 0.871851 0.397505
4 1 0.825039 0.37945 0.0704971
5 1 0.714815 0.325527 0.29003
6 1 0.305102 0.441236 0.551327
7 1 0.634743 0.102733 0.506511
8 1 0.860146 0.704765 0.610952
9 1 0.903142 0.61077 0.847768
10 1 0.235059 0.24787 0.77032
11 1 0.466076 0.687951 0.96348
12 1 0.573987 0.960004 0.739247
ITEM: TIMESTEP
220
ITEM: NUMBER OF ATOMS
12
ITEM: BOX BOUNDS xy xz yz pp pp pp
-2.4025139800000002e+00 4.8050279600000003e+00 -2.4025139800000002e+00
0.0000000000000000e+00 4.1612762800000000e+00 0.0000000000000000e+00
0.0000000000000000e+00 1.3116253850000000e+01 0.0000000000000000e+00
ITEM: ATOMS id type xs ys zs
1 1 0.0239525 0.950089 0.0275105
2 1 0.392242 0.693929 0.193446
3 1 0.102464 0.976624 0.366517
4 1 0.810359 0.364802 0.0868051
5 1 0.775576 0.29137 0.300735
6 1 0.222935 0.293832 0.566362
7 1 0.490178 0.910592 0.500945
8 1 0.973862 0.716455 0.636317
9 1 0.912973 0.661112 0.852291
10 1 0.25526 0.390561 0.79636
11 1 0.42663 0.747868 0.958794
12 1 0.613569 1.00277 0.713917
ITEM: TIMESTEP
230
ITEM: NUMBER OF ATOMS
12
ITEM: BOX BOUNDS xy xz yz pp pp pp
-2.4025139800000002e+00 4.8050279600000003e+00 -2.4025139800000002e+00
0.0000000000000000e+00 4.1612762800000000e+00 0.0000000000000000e+00
0.0000000000000000e+00 1.3116253850000000e+01 0.0000000000000000e+00
ITEM: ATOMS id type xs ys zs
1 1 0.0770203 1.0581 0.0633182
2 1 0.418065 0.649296 0.171284
3 1 0.142973 1.08669 0.348202
4 1 0.71152 0.388076 0.0875594
5 1 0.811789 0.405573 0.297418
6 1 0.214214 0.185754 0.56921
7 1 0.642662 0.928818 0.515931
8 1 0.880386 0.577286 0.621021
9 1 0.884795 0.698417 0.85394
10 1 0.243871 0.309743 0.773859
11 1 0.413766 0.747387 0.946555
12 1 0.558939 0.964863 0.751702
ITEM: TIMESTEP
240
ITEM: NUMBER OF ATOMS
12
ITEM: BOX BOUNDS xy xz yz pp pp pp
-2.4025139800000002e+00 4.8050279600000003e+00 -2.4025139800000002e+00
0.0000000000000000e+00 4.1612762800000000e+00 0.0000000000000000e+00
0.0000000000000000e+00 1.3116253850000000e+01 0.0000000000000000e+00
ITEM: ATOMS id type xs ys zs
1 1 0.0820867 0.0130022 0.0869689
2 1 0.437844 0.879566 0.205466
3 1 0.158879 0.0951616 0.354374
4 1 0.731839 0.326986 0.0461518
5 1 0.73804 0.495005 0.259777
6 1 0.352099 0.267501 0.565639
7 1 0.559499 0.864793 0.489542
8 1 1.01503 0.537763 0.624761
9 1 0.858678 0.626008 0.83842
10 1 0.147453 0.245926 0.801535
11 1 0.392784 0.634583 0.983557
12 1 0.525771 1.01371 0.743807
ITEM: TIMESTEP
250
ITEM: NUMBER OF ATOMS
12
ITEM: BOX BOUNDS xy xz yz pp pp pp
-2.4025139800000002e+00 4.8050279600000003e+00 -2.4025139800000002e+00
0.0000000000000000e+00 4.1612762800000000e+00 0.0000000000000000e+00
0.0000000000000000e+00 1.3116253850000000e+01 0.0000000000000000e+00
ITEM: ATOMS id type xs ys zs
1 1 0.0520904 0.964501 0.0651933
2 1 0.532063 0.93589 0.261685
3 1 0.199943 0.128669 0.380842
4 1 0.741231 0.313965 0.0390677
5 1 0.743469 0.560814 0.243856
6 1 0.330312 0.252231 0.58352
7 1 0.614562 0.836468 0.483369
8 1 -0.0269888 0.522607 0.603051
9 1 0.827457 0.602167 0.838116
10 1 0.129577 0.266324 0.787182
11 1 0.369314 0.683157 0.964656
12 1 0.486971 0.933207 0.74946
ITEM: TIMESTEP
260
ITEM: NUMBER OF ATOMS
12
ITEM: BOX BOUNDS xy xz yz pp pp pp
-2.4025139800000002e+00 4.8050279600000003e+00 -2.4025139800000002e+00
0.0000000000000000e+00 4.1612762800000000e+00 0.0000000000000000e+00
0.0000000000000000e+00 1.3116253850000000e+01 0.0000000000000000e+00
ITEM: ATOMS id type xs ys zs
1 1 0.0012864 0.0142343 0.0194443
2 1 0.638539 0.942328 0.311411
3 1 0.227155 0.308957 0.349936
4 1 0.696971 0.350596 0.0695577
5 1 0.886538 0.521765 0.263165
6 1 0.237287 0.113531 0.5511
7 1 0.623519 0.832791 0.520027
8 1 0.910127 0.478469 0.599016
9 1 0.836454 0.60156 0.841144
10 1 0.115497 0.256253 0.780269
11 1 0.357335 0.670865 0.952916
12 1 0.469292 0.908652 0.742014
ITEM: TIMESTEP
270
ITEM: NUMBER OF ATOMS
12
ITEM: BOX BOUNDS xy xz yz pp pp pp
-2.4025139800000002e+00 4.8050279600000003e+00 -2.4025139800000002e+00
0.0000000000000000e+00 4.1612762800000000e+00 0.0000000000000000e+00
0.0000000000000000e+00 1.3116253850000000e+01 0.0000000000000000e+00
ITEM: ATOMS id type xs ys zs
1 1 0.939422 0.0157071 0.993664
2 1 0.637388 0.0578291 0.361351
3 1 0.278151 0.325769 0.329534
4 1 0.628259 0.332066 0.0398828
5 1 0.0608329 0.70431 0.247874
6 1 0.253647 0.0126401 0.540729
7 1 0.587067 0.732735 0.539998
8 1 0.952303 0.439489 0.617402
9 1 0.819502 0.58208 0.824374
10 1 0.0817886 0.242682 0.789013
11 1 0.31173 0.641812 0.97389
12 1 0.44991 0.91288 0.742289
ITEM: TIMESTEP
280
ITEM: NUMBER OF ATOMS
12
ITEM: BOX BOUNDS xy xz yz pp pp pp
-2.4025139800000002e+00 4.8050279600000003e+00 -2.4025139800000002e+00
0.0000000000000000e+00 4.1612762800000000e+00 0.0000000000000000e+00
0.0000000000000000e+00 1.3116253850000000e+01 0.0000000000000000e+00
ITEM: ATOMS id type xs ys zs
1 1 0.945205 0.031954 0.0165693
2 1 0.72018 0.141757 0.388838
3 1 0.418951 0.467387 0.338573
4 1 0.599572 0.289377 0.0626819
5 1 0.114517 0.877721 0.183887
6 1 0.217125 -0.0347987 0.527532
7 1 0.575339 0.659422 0.549041
8 1 0.912816 0.288685 0.602177
9 1 0.72321 0.585181 0.845166
10 1 0.0906208 0.180771 0.787419
11 1 0.228655 0.64213 0.964399
12 1 0.453809 0.870414 0.733716
ITEM: TIMESTEP
290
ITEM: NUMBER OF ATOMS
12
ITEM: BOX BOUNDS xy xz yz pp pp pp
-2.4025139800000002e+00 4.8050279600000003e+00 -2.4025139800000002e+00
0.0000000000000000e+00 4.1612762800000000e+00 0.0000000000000000e+00
0.0000000000000000e+00 1.3116253850000000e+01 0.0000000000000000e+00
ITEM: ATOMS id type xs ys zs
1 1 0.960853 0.0489564 0.00152073
2 1 0.911755 0.215696 0.406163
3 1 0.486355 0.573297 0.274564
4 1 0.582784 0.418178 0.0914063
5 1 0.120311 0.847515 0.239978
6 1 0.216912 0.929809 0.490046
7 1 0.539425 0.600812 0.492992
8 1 0.829829 0.249005 0.615397
9 1 0.678374 0.395685 0.853093
10 1 0.0945127 0.192482 0.791892
11 1 0.238819 0.6935 0.991902
12 1 0.340068 0.835066 0.751046
ITEM: TIMESTEP
300
ITEM: NUMBER OF ATOMS
12
ITEM: BOX BOUNDS xy xz yz pp pp pp
-2.4025139800000002e+00 4.8050279600000003e+00 -2.4025139800000002e+00
0.0000000000000000e+00 4.1612762800000000e+00 0.0000000000000000e+00
0.0000000000000000e+00 1.3116253850000000e+01 0.0000000000000000e+00
ITEM: ATOMS id type xs ys zs
1 1 0.928568 0.0452453 0.0536125
2 1 0.877945 0.292797 0.351175
3 1 0.5454 0.679441 0.263226
4 1 0.609967 0.417384 0.0948329
5 1 0.16313 1.00075 0.229419
6 1 0.255842 0.925349 0.47196
7 1 0.562182 0.525713 0.492786
8 1 0.803163 0.190485 0.585128
9 1 0.680249 0.449926 0.889202
10 1 -0.0414952 0.0223138 0.809302
11 1 0.2973 0.772812 0.990699
12 1 0.31775 0.677788 0.768657
ITEM: TIMESTEP
310
ITEM: NUMBER OF ATOMS
12
ITEM: BOX BOUNDS xy xz yz pp pp pp
-2.4025139800000002e+00 4.8050279600000003e+00 -2.4025139800000002e+00
0.0000000000000000e+00 4.1612762800000000e+00 0.0000000000000000e+00
0.0000000000000000e+00 1.3116253850000000e+01 0.0000000000000000e+00
ITEM: ATOMS id type xs ys zs
1 1 0.966063 0.114932 0.0347302
2 1 0.792654 0.351625 0.297023
3 1 0.515004 0.723746 0.316983
4 1 0.712558 0.523583 0.106822
5 1 0.140945 0.0535003 0.222114
6 1 0.174133 0.886259 0.446652
7 1 0.581625 0.536753 0.507519
8 1 1.02217 0.14081 0.605461
9 1 0.622912 0.291903 0.885441
10 1 0.907482 -0.0521392 0.830186
11 1 0.293672 0.740221 0.992127
12 1 0.270777 0.688809 0.754943
ITEM: TIMESTEP
320
ITEM: NUMBER OF ATOMS
12
ITEM: BOX BOUNDS xy xz yz pp pp pp
-2.4025139800000002e+00 4.8050279600000003e+00 -2.4025139800000002e+00
0.0000000000000000e+00 4.1612762800000000e+00 0.0000000000000000e+00
0.0000000000000000e+00 1.3116253850000000e+01 0.0000000000000000e+00
ITEM: ATOMS id type xs ys zs
1 1 1.03752 0.232528 0.0170239
2 1 0.805527 0.392942 0.312767
3 1 0.448263 0.665971 0.317532
4 1 0.635259 0.469755 0.0792632
5 1 0.136134 -0.0320125 0.212414
6 1 0.182225 1.01378 0.423196
7 1 0.68713 0.479039 0.554725
8 1 0.0843182 0.0550686 0.635822
9 1 0.549888 0.294051 0.85054
10 1 0.90742 0.9644 0.844995
11 1 0.321187 0.83472 0.987128
12 1 0.205125 0.629755 0.764593
ITEM: TIMESTEP
330
ITEM: NUMBER OF ATOMS
12
ITEM: BOX BOUNDS xy xz yz pp pp pp
-2.4025139800000002e+00 4.8050279600000003e+00 -2.4025139800000002e+00
0.0000000000000000e+00 4.1612762800000000e+00 0.0000000000000000e+00
0.0000000000000000e+00 1.3116253850000000e+01 0.0000000000000000e+00
ITEM: ATOMS id type xs ys zs
1 1 0.940633 0.219007 0.0579972
2 1 0.835153 0.395413 0.330661
3 1 0.504092 0.621476 0.318532
4 1 0.556973 0.542151 0.077069
5 1 0.255011 0.950993 0.221707
6 1 0.149003 0.0251677 0.411345
7 1 0.922977 0.442793 0.545175
8 1 0.164199 0.127503 0.628978
9 1 0.46004 0.241104 0.802462
10 1 0.790258 0.932199 0.850077
11 1 0.299304 0.890265 0.982451
12 1 0.122356 0.611927 0.773545
ITEM: TIMESTEP
340
ITEM: NUMBER OF ATOMS
12
ITEM: BOX BOUNDS xy xz yz pp pp pp
-2.4025139800000002e+00 4.8050279600000003e+00 -2.4025139800000002e+00
0.0000000000000000e+00 4.1612762800000000e+00 0.0000000000000000e+00
0.0000000000000000e+00 1.3116253850000000e+01 0.0000000000000000e+00
ITEM: ATOMS id type xs ys zs
1 1 0.926827 0.283367 0.0867193
2 1 0.849973 0.295362 0.30166
3 1 0.545355 0.635483 0.31612
4 1 0.57209 0.644306 0.0945793
5 1 0.262683 0.040455 0.187118
6 1 0.197238 0.00707578 0.378459
7 1 1.04975 0.45035 0.517193
8 1 0.145982 0.0521048 0.648544
9 1 0.437816 0.262171 0.840989
10 1 0.707176 0.949929 0.876913
11 1 0.18908 0.849232 0.988444
12 1 0.116035 0.530165 0.76326
ITEM: TIMESTEP
350
ITEM: NUMBER OF ATOMS
12
ITEM: BOX BOUNDS xy xz yz pp pp pp
-2.4025139800000002e+00 4.8050279600000003e+00 -2.4025139800000002e+00
0.0000000000000000e+00 4.1612762800000000e+00 0.0000000000000000e+00
0.0000000000000000e+00 1.3116253850000000e+01 0.0000000000000000e+00
ITEM: ATOMS id type xs ys zs
1 1 0.814831 0.24914 0.0613699
2 1 0.86215 0.313096 0.288854
3 1 0.577409 0.680819 0.306258
4 1 0.522841 0.583521 0.0776813
5 1 0.174253 0.981801 0.20128
6 1 0.242285 0.980351 0.411716
7 1 0.180549 0.400523 0.503537
8 1 0.045928 0.966623 0.648057
9 1 0.446023 0.305277 0.84388
10 1 0.785367 1.0023 0.860035
11 1 0.25543 0.908748 0.993431
12 1 0.0929321 0.627806 0.803901
ITEM: TIMESTEP
360
ITEM: NUMBER OF ATOMS
12
ITEM: BOX BOUNDS xy xz yz pp pp pp
-2.4025139800000002e+00 4.8050279600000003e+00 -2.4025139800000002e+00
0.0000000000000000e+00 4.1612762800000000e+00 0.0000000000000000e+00
0.0000000000000000e+00 1.3116253850000000e+01 0.0000000000000000e+00
ITEM: ATOMS id type xs ys zs
1 1 0.800669 0.175855 0.0650511
2 1 0.927388 0.308008 0.337311
3 1 0.594874 0.654684 0.289863
4 1 0.551075 0.555384 0.0718905
5 1 0.25539 0.988653 0.194649
6 1 0.284106 0.0607136 0.410725
7 1 0.230285 0.546665 0.56288
8 1 0.92727 0.887349 0.625179
9 1 0.453783 0.341598 0.784645
10 1 0.783444 0.00979054 0.848448
11 1 0.114002 0.817565 0.997709
12 1 0.0777137 0.653735 0.811648
ITEM: TIMESTEP
370
ITEM: NUMBER OF ATOMS
12
ITEM: BOX BOUNDS xy xz yz pp pp pp
-2.4025139800000002e+00 4.8050279600000003e+00 -2.4025139800000002e+00
0.0000000000000000e+00 4.1612762800000000e+00 0.0000000000000000e+00
0.0000000000000000e+00 1.3116253850000000e+01 0.0000000000000000e+00
ITEM: ATOMS id type xs ys zs
1 1 0.803037 0.195149 0.121744
2 1 0.96769 0.421343 0.357603
3 1 0.641391 0.746938 0.293042
4 1 0.50611 0.548878 0.0827551
5 1 0.252727 0.913421 0.221105
6 1 0.311668 0.0941631 0.448321
7 1 0.170708 0.540042 0.53858
8 1 0.843633 0.845173 0.618407
9 1 0.440152 0.254513 0.727616
10 1 0.759767 -0.0837583 0.858618
11 1 0.230272 0.959789 0.964014
12 1 0.0728431 0.564349 0.768194
ITEM: TIMESTEP
380
ITEM: NUMBER OF ATOMS
12
ITEM: BOX BOUNDS xy xz yz pp pp pp
-2.4025139800000002e+00 4.8050279600000003e+00 -2.4025139800000002e+00
0.0000000000000000e+00 4.1612762800000000e+00 0.0000000000000000e+00
0.0000000000000000e+00 1.3116253850000000e+01 0.0000000000000000e+00
ITEM: ATOMS id type xs ys zs
1 1 0.931438 0.349028 0.107864
2 1 0.973697 0.432019 0.337814
3 1 0.600962 0.738998 0.333297
4 1 0.618456 0.64637 0.0559729
5 1 0.202757 0.973112 0.193255
6 1 0.283341 0.0815015 0.392103
7 1 0.153293 0.549889 0.581947
8 1 0.788267 0.901963 0.620739
9 1 0.359189 0.102339 0.735317
10 1 0.747232 0.808194 0.84474
11 1 0.308349 0.956249 0.986909
12 1 0.0330197 0.460338 0.810041
ITEM: TIMESTEP
390
ITEM: NUMBER OF ATOMS
12
ITEM: BOX BOUNDS xy xz yz pp pp pp
-2.4025139800000002e+00 4.8050279600000003e+00 -2.4025139800000002e+00
0.0000000000000000e+00 4.1612762800000000e+00 0.0000000000000000e+00
0.0000000000000000e+00 1.3116253850000000e+01 0.0000000000000000e+00
ITEM: ATOMS id type xs ys zs
1 1 0.934263 0.279281 0.0139841
2 1 0.928242 0.45887 0.360714
3 1 0.60314 0.789414 0.298483
4 1 0.615688 0.619204 0.124723
5 1 0.294062 0.987358 0.168373
6 1 0.249662 0.147685 0.454935
7 1 0.135204 0.592808 0.568147
8 1 0.812136 0.963615 0.640764
9 1 0.361926 0.0481318 0.742809
10 1 0.669604 0.671306 0.873245
11 1 0.357985 1.05953 0.947961
12 1 1.03809 0.382794 0.805862
ITEM: TIMESTEP
400
ITEM: NUMBER OF ATOMS
12
ITEM: BOX BOUNDS xy xz yz pp pp pp
-2.4025139800000002e+00 4.8050279600000003e+00 -2.4025139800000002e+00
0.0000000000000000e+00 4.1612762800000000e+00 0.0000000000000000e+00
0.0000000000000000e+00 1.3116253850000000e+01 0.0000000000000000e+00
ITEM: ATOMS id type xs ys zs
1 1 0.946739 0.283347 0.0279201
2 1 0.905158 0.559092 0.361075
3 1 0.57753 0.919727 0.391709
4 1 0.560939 0.547335 0.0660193
5 1 0.265379 0.79929 0.184322
6 1 0.248684 0.210562 0.440551
7 1 0.189884 0.667637 0.569178
8 1 0.803974 0.896634 0.622976
9 1 0.412208 0.129304 0.751656
10 1 0.727485 0.716305 0.864804
11 1 0.331538 0.877142 0.933657
12 1 0.0304808 0.393625 0.786131
ITEM: TIMESTEP
410
ITEM: NUMBER OF ATOMS
12
ITEM: BOX BOUNDS xy xz yz pp pp pp
-2.4025139800000002e+00 4.8050279600000003e+00 -2.4025139800000002e+00
0.0000000000000000e+00 4.1612762800000000e+00 0.0000000000000000e+00
0.0000000000000000e+00 1.3116253850000000e+01 0.0000000000000000e+00
ITEM: ATOMS id type xs ys zs
1 1 0.92424 0.107624 0.0505421
2 1 0.89224 0.644738 0.373541
3 1 0.543875 0.979895 0.429222
4 1 0.583419 0.421381 0.0325626
5 1 0.342546 0.74522 0.186849
6 1 0.226527 0.30206 0.417381
7 1 0.103894 0.599685 0.58916
8 1 0.861829 1.00249 0.613162
9 1 0.471758 0.121196 0.718078
10 1 0.746285 0.799552 0.823197
11 1 0.15497 0.78618 0.971886
12 1 0.148416 0.489979 0.79442
ITEM: TIMESTEP
420
ITEM: NUMBER OF ATOMS
12
ITEM: BOX BOUNDS xy xz yz pp pp pp
-2.4025139800000002e+00 4.8050279600000003e+00 -2.4025139800000002e+00
0.0000000000000000e+00 4.1612762800000000e+00 0.0000000000000000e+00
0.0000000000000000e+00 1.3116253850000000e+01 0.0000000000000000e+00
ITEM: ATOMS id type xs ys zs
1 1 0.865732 0.06611 0.094491
2 1 0.865267 0.747423 0.347204
3 1 0.558695 1.09142 0.409404
4 1 0.535355 0.338652 0.0355527
5 1 0.367502 0.613082 0.22136
6 1 0.207511 0.388081 0.387083
7 1 0.190601 0.640501 0.578702
8 1 0.820847 0.970726 0.592361
9 1 0.49218 0.326874 0.683758
10 1 0.797738 0.738853 0.882448
11 1 0.247627 0.692748 0.98672
12 1 0.0509451 0.385534 0.780914
ITEM: TIMESTEP
430
ITEM: NUMBER OF ATOMS
12
ITEM: BOX BOUNDS xy xz yz pp pp pp
-2.4025139800000002e+00 4.8050279600000003e+00 -2.4025139800000002e+00
0.0000000000000000e+00 4.1612762800000000e+00 0.0000000000000000e+00
0.0000000000000000e+00 1.3116253850000000e+01 0.0000000000000000e+00