<?xml version="1.0" encoding="ISO-8859-1"?>
<modeling>
 <generator>
  <i name="program" type="string">vasp </i>
  <i name="version" type="string">6.3.1  </i>
  <i name="subversion" type="string">04May22 (build Jun  1 2022 15:53:57) complex                          parallel </i>
  <i name="platform" type="string">LinuxNV </i>
  <i name="date" type="string">2022 09 12 </i>
  <i name="time" type="string">13:37:13 </i>
 </generator>
 <incar>
  <i type="string" name="SYSTEM">NiAl</i>
  <i type="int" name="ISTART">     0</i>
  <i type="string" name="PREC">Accurate</i>
  <i type="int" name="NELMIN">     6</i>
  <i type="int" name="IBRION">     2</i>
  <i name="EDIFF">      0.00000010</i>
  <i type="int" name="NSW">    40</i>
  <i type="int" name="ISIF">     2</i>
  <i name="ENCUT">    360.00000000</i>
  <i name="POTIM">      0.20000000</i>
  <i type="string" name="LREAL">Auto</i>
  <i type="logical" name="LPLANE"> T  </i>
  <i type="int" name="ISMEAR">     0</i>
  <i name="SIGMA">      0.05000000</i>
  <i type="logical" name="LWAVE"> F  </i>
  <i type="logical" name="LCHARG"> F  </i>
  <i type="int" name="IVDW">    12</i>
 </incar>
 <primitive_cell>
  <structure name="primitive_cell" >
   <crystal>
    <varray name="basis" >
     <v>       2.10830981      -2.10830981       0.00000000 </v>
     <v>       2.10830981       0.00000000       2.10830981 </v>
     <v>       0.00000000      -2.10830981       2.10830980 </v>
    </varray>
    <i name="volume">     18.74274882 </i>
    <varray name="rec_basis" >
     <v>       0.23715680      -0.23715680      -0.23715680 </v>
     <v>       0.23715680       0.23715680       0.23715680 </v>
     <v>      -0.23715680      -0.23715680       0.23715680 </v>
    </varray>
   </crystal>
   <varray name="positions" >
    <v>       0.00000000       0.00000000       0.00000000 </v>
    <v>       0.50000000       0.50000000       0.50000000 </v>
   </varray>
  </structure>
  <varray name="primitive_index" >
   <v type="int" >        1 </v>
   <v type="int" >      109 </v>
  </varray>
 </primitive_cell>
 <kpoints>
  <generation param="Gamma">
   <v type="int" name="divisions">       2        2        2 </v>
   <v name="usershift">      0.00000000       0.00000000       0.00000000 </v>
   <v name="genvec1">      0.50000000       0.00000000       0.00000000 </v>
   <v name="genvec2">      0.00000000       0.50000000       0.00000000 </v>
   <v name="genvec3">      0.00000000       0.00000000       0.50000000 </v>
   <v name="shift">      0.00000000       0.00000000       0.00000000 </v>
  </generation>
  <varray name="kpointlist" >
   <v>       0.00000000       0.00000000       0.00000000 </v>
   <v>       0.50000000       0.00000000       0.00000000 </v>
   <v>       0.50000000       0.50000000       0.00000000 </v>
   <v>       0.50000000       0.50000000       0.50000000 </v>
  </varray>
  <varray name="weights" >
   <v>       0.12500000 </v>
   <v>       0.37500000 </v>
   <v>       0.37500000 </v>
   <v>       0.12500000 </v>
  </varray>
 </kpoints>
 <parameters>
  <separator name="general" >
   <i type="string" name="SYSTEM">NiAl</i>
   <i type="logical" name="LCOMPAT"> F  </i>
  </separator>
  <separator name="electronic" >
   <i type="string" name="PREC">accura</i>
   <i name="ENMAX">    360.00000000</i>
   <i name="ENAUG">   1139.60900000</i>
   <i name="EDIFF">      0.00000010</i>
   <i type="int" name="IALGO">    38</i>
   <i type="int" name="IWAVPR">    11</i>
   <i type="int" name="NBANDS">  1036</i>
   <i type="int" name="NBANDSLOW">    -1</i>
   <i type="int" name="NBANDSHIGH">    -1</i>
   <i name="NELECT">   1728.00000000</i>
   <i type="int" name="TURBO">     0</i>
   <i type="int" name="IRESTART">     0</i>
   <i type="int" name="NREBOOT">     0</i>
   <i type="int" name="NMIN">     0</i>
   <i name="EREF">      0.00000000</i>
   <separator name="electronic smearing" >
    <i type="int" name="ISMEAR">     0</i>
    <i name="SIGMA">      0.05000000</i>
    <i name="KSPACING">      0.50000000</i>
    <i type="logical" name="KGAMMA"> T  </i>
    <i type="logical" name="KBLOWUP"> T  </i>
   </separator>
   <separator name="electronic projectors" >
    <i type="logical" name="LREAL"> T  </i>
    <v name="ROPT">     -0.00025000     -0.00025000</v>
    <i type="int" name="LMAXPAW">  -100</i>
    <i type="int" name="LMAXMIX">     2</i>
    <i type="logical" name="NLSPLINE"> F  </i>
   </separator>
   <separator name="electronic startup" >
    <i type="int" name="ISTART">     0</i>
    <i type="int" name="ICHARG">     2</i>
    <i type="int" name="INIWAV">     1</i>
   </separator>
   <separator name="electronic spin" >
    <i type="int" name="ISPIN">     1</i>
    <i type="logical" name="LNONCOLLINEAR"> F  </i>
    <v name="MAGMOM">      1.00000000      1.00000000      1.00000000      1.00000000      1.00000000      1.00000000      1.00000000      1.00000000      1.00000000      1.00000000      1.00000000      1.00000000      1.00000000      1.00000000      1.00000000      1.00000000      1.00000000      1.00000000      1.00000000      1.00000000
      1.00000000      1.00000000      1.00000000      1.00000000      1.00000000      1.00000000      1.00000000      1.00000000      1.00000000      1.00000000      1.00000000      1.00000000      1.00000000      1.00000000      1.00000000      1.00000000      1.00000000      1.00000000      1.00000000      1.00000000
      1.00000000      1.00000000      1.00000000      1.00000000      1.00000000      1.00000000      1.00000000      1.00000000      1.00000000      1.00000000      1.00000000      1.00000000      1.00000000      1.00000000      1.00000000      1.00000000      1.00000000      1.00000000      1.00000000      1.00000000
      1.00000000      1.00000000      1.00000000      1.00000000      1.00000000      1.00000000      1.00000000      1.00000000      1.00000000      1.00000000      1.00000000      1.00000000      1.00000000      1.00000000      1.00000000      1.00000000      1.00000000      1.00000000      1.00000000      1.00000000
      1.00000000      1.00000000      1.00000000      1.00000000      1.00000000      1.00000000      1.00000000      1.00000000      1.00000000      1.00000000      1.00000000      1.00000000      1.00000000      1.00000000      1.00000000      1.00000000      1.00000000      1.00000000      1.00000000      1.00000000
      1.00000000      1.00000000      1.00000000      1.00000000      1.00000000      1.00000000      1.00000000      1.00000000      1.00000000      1.00000000      1.00000000      1.00000000      1.00000000      1.00000000      1.00000000      1.00000000      1.00000000      1.00000000      1.00000000      1.00000000
      1.00000000      1.00000000      1.00000000      1.00000000      1.00000000      1.00000000      1.00000000      1.00000000      1.00000000      1.00000000      1.00000000      1.00000000      1.00000000      1.00000000      1.00000000      1.00000000      1.00000000      1.00000000      1.00000000      1.00000000
      1.00000000      1.00000000      1.00000000      1.00000000      1.00000000      1.00000000      1.00000000      1.00000000      1.00000000      1.00000000      1.00000000      1.00000000      1.00000000      1.00000000      1.00000000      1.00000000      1.00000000      1.00000000      1.00000000      1.00000000
      1.00000000      1.00000000      1.00000000      1.00000000      1.00000000      1.00000000      1.00000000      1.00000000      1.00000000      1.00000000      1.00000000      1.00000000      1.00000000      1.00000000      1.00000000      1.00000000      1.00000000      1.00000000      1.00000000      1.00000000
      1.00000000      1.00000000      1.00000000      1.00000000      1.00000000      1.00000000      1.00000000      1.00000000      1.00000000      1.00000000      1.00000000      1.00000000      1.00000000      1.00000000      1.00000000      1.00000000      1.00000000      1.00000000      1.00000000      1.00000000
      1.00000000      1.00000000      1.00000000      1.00000000      1.00000000      1.00000000      1.00000000      1.00000000      1.00000000      1.00000000      1.00000000      1.00000000      1.00000000      1.00000000      1.00000000      1.00000000</v>
    <i name="NUPDOWN">     -1.00000000</i>
    <i type="logical" name="LSORBIT"> F  </i>
    <v name="SAXIS">      0.00000000      0.00000000      1.00000000</v>
    <i type="logical" name="LSPIRAL"> F  </i>
    <v name="QSPIRAL">      0.00000000      0.00000000      0.00000000</v>
    <i type="logical" name="LZEROZ"> F  </i>
   </separator>
   <separator name="electronic exchange-correlation" >
    <i type="logical" name="LASPH"> F  </i>
    <i type="logical" name="LMETAGGA"> F  </i>
   </separator>
   <separator name="electronic convergence" >
    <i type="int" name="NELM">    60</i>
    <i type="int" name="NELMDL">    -5</i>
    <i type="int" name="NELMIN">     6</i>
    <i name="ENINI">    360.00000000</i>
    <separator name="electronic convergence detail" >
     <i type="logical" name="LDIAG"> T  </i>
     <i type="logical" name="LSUBROT"> F  </i>
     <i name="WEIMIN">      0.00100000</i>
     <i name="EBREAK">      0.00000000</i>
     <i name="DEPER">      0.30000000</i>
     <i type="int" name="NRMM">     4</i>
     <i name="TIME">      0.40000000</i>
    </separator>
   </separator>
   <separator name="electronic mixer" >
    <i name="AMIX">      0.40000000</i>
    <i name="BMIX">      1.00000000</i>
    <i name="AMIN">      0.10000000</i>
    <i name="AMIX_MAG">      1.60000000</i>
    <i name="BMIX_MAG">      1.00000000</i>
    <separator name="electronic mixer details" >
     <i type="int" name="IMIX">     4</i>
     <i type="logical" name="MIXFIRST"> F  </i>
     <i type="int" name="MAXMIX">   -45</i>
     <i name="WC">    100.00000000</i>
     <i type="int" name="INIMIX">     1</i>
     <i type="int" name="MIXPRE">     1</i>
     <i type="int" name="MREMOVE">     5</i>
    </separator>
   </separator>
   <separator name="electronic dipolcorrection" >
    <i type="logical" name="LDIPOL"> F  </i>
    <i type="logical" name="LMONO"> F  </i>
    <i type="int" name="IDIPOL">     0</i>
    <i name="EPSILON">      1.00000000</i>
    <v name="DIPOL">   -100.00000000   -100.00000000   -100.00000000</v>
    <i name="EFIELD">      0.00000000</i>
   </separator>
  </separator>
  <separator name="grids" >
   <i type="int" name="NGX">    80</i>
   <i type="int" name="NGY">    80</i>
   <i type="int" name="NGZ">    80</i>
   <i type="int" name="NGXF">   160</i>
   <i type="int" name="NGYF">   160</i>
   <i type="int" name="NGZF">   160</i>
   <i type="logical" name="ADDGRID"> F  </i>
  </separator>
  <separator name="ionic" >
   <i type="int" name="NSW">    40</i>
   <i type="int" name="IBRION">     2</i>
   <i type="int" name="MDALGO">     0</i>
   <i type="int" name="ISIF">     2</i>
   <i name="PSTRESS">      0.00000000</i>
   <i name="EDIFFG">      0.00000100</i>
   <i type="int" name="NFREE">     1</i>
   <i name="POTIM">      0.20000000</i>
   <i name="SMASS">     -3.00000000</i>
   <i name="SCALEE">      1.00000000</i>
  </separator>
  <separator name="ionic md" >
   <i name="TEBEG">      0.00010000</i>
   <i name="TEEND">      0.00010000</i>
   <i type="int" name="NBLOCK">     1</i>
   <i type="int" name="KBLOCK">    40</i>
   <i type="int" name="NPACO">   256</i>
   <i name="APACO">     10.00000000</i>
  </separator>
  <separator name="symmetry" >
   <i type="int" name="ISYM">     2</i>
   <i name="SYMPREC">      0.00001000</i>
  </separator>
  <separator name="dos" >
   <i type="int" name="LORBIT">     0</i>
   <v name="RWIGS">     -1.00000000     -1.00000000</v>
   <i type="int" name="NEDOS">   301</i>
   <i name="EMIN">     10.00000000</i>
   <i name="EMAX">    -10.00000000</i>
   <i name="EFERMI">      0.00000000</i>
  </separator>
  <separator name="writing" >
   <i type="int" name="NWRITE">     2</i>
   <i type="logical" name="LWAVE"> F  </i>
   <i type="logical" name="LDOWNSAMPLE"> F  </i>
   <i type="logical" name="LCHARG"> F  </i>
   <i type="logical" name="LPARD"> F  </i>
   <i type="logical" name="LVTOT"> F  </i>
   <i type="logical" name="LVHAR"> F  </i>
   <i type="logical" name="LELF"> F  </i>
   <i type="logical" name="LOPTICS"> F  </i>
   <v name="STM">      0.00000000      0.00000000      0.00000000      0.00000000      0.00000000      0.00000000      0.00000000</v>
  </separator>
  <separator name="performance" >
   <i type="int" name="NPAR">     1</i>
   <i type="int" name="NSIM">     4</i>
   <i type="int" name="NBLK">    -1</i>
   <i type="logical" name="LPLANE"> T  </i>
   <i type="logical" name="LSCALAPACK"> T  </i>
   <i type="logical" name="LSCAAWARE"> F  </i>
   <i type="logical" name="LSCALU"> F  </i>
   <i type="logical" name="LASYNC"> F  </i>
   <i type="logical" name="LORBITALREAL"> F  </i>
  </separator>
  <separator name="miscellaneous" >
   <i type="int" name="IDIOT">     3</i>
   <i type="int" name="PHON_NSTRUCT">    -1</i>
   <i type="logical" name="LMUSIC"> F  </i>
   <v name="POMASS">     58.69000000     16.00000000</v>
   <v name="DARWINR">      0.00000000      0.00000000</v>
   <v name="DARWINV">      1.00000000      1.00000000</v>
   <i type="logical" name="LCORR"> T  </i>
  </separator>
  <i type="logical" name="GGA_COMPAT"> T  </i>
  <i type="logical" name="LBERRY"> F  </i>
  <i type="int" name="ICORELEVEL">     0</i>
  <i type="logical" name="LDAU"> F  </i>
  <i type="int" name="I_CONSTRAINED_M">     0</i>
  <separator name="electronic exchange-correlation" >
   <i type="string" name="GGA">--</i>
   <i type="int" name="VOSKOWN">     0</i>
   <i type="logical" name="LHFCALC"> F  </i>
   <i type="string" name="PRECFOCK"></i>
   <i type="logical" name="LSYMGRAD"> F  </i>
   <i type="logical" name="LHFONE"> F  </i>
   <i type="logical" name="LRHFCALC"> F  </i>
   <i type="logical" name="LTHOMAS"> F  </i>
   <i type="logical" name="LMODELHF"> F  </i>
   <i type="logical" name="LFOCKACE"> F  </i>
   <i name="ENCUT4O">     -1.00000000</i>
   <i type="int" name="EXXOEP">     0</i>
   <i type="int" name="FOURORBIT">     0</i>
   <i name="AEXX">      0.00000000</i>
   <i name="HFALPHA">      0.00000000</i>
   <i name="MCALPHA">      0.00000000</i>
   <i name="ALDAX">      1.00000000</i>
   <i name="AGGAX">      1.00000000</i>
   <i name="ALDAC">      1.00000000</i>
   <i name="AGGAC">      1.00000000</i>
   <i type="int" name="NKREDX">     1</i>
   <i type="int" name="NKREDY">     1</i>
   <i type="int" name="NKREDZ">     1</i>
   <i type="logical" name="SHIFTRED"> F  </i>
   <i type="logical" name="ODDONLY"> F  </i>
   <i type="logical" name="EVENONLY"> F  </i>
   <i type="int" name="LMAXFOCK">     0</i>
   <i type="int" name="NMAXFOCKAE">     0</i>
   <i type="logical" name="LFOCKAEDFT"> F  </i>
   <i name="HFSCREEN">      0.00000000</i>
   <i name="HFSCREENC">      0.00000000</i>
   <i type="int" name="NBANDSGWLOW">     0</i>
  </separator>
  <separator name="vdW DFT" >
   <i type="logical" name="LUSE_VDW"> F  </i>
   <i name="Zab_VDW">     -0.84910000</i>
   <i name="PARAM1">      0.12340000</i>
   <i name="PARAM2">      1.00000000</i>
   <i name="PARAM3">      0.00000000</i>
  </separator>
  <separator name="model GW" >
   <i type="int" name="MODEL_GW">     0</i>
   <i name="MODEL_EPS0">      5.62282412</i>
   <i name="MODEL_ALPHA">      1.00000000</i>
  </separator>
  <separator name="linear response parameters" >
   <i type="logical" name="LEPSILON"> F  </i>
   <i type="logical" name="LRPA"> F  </i>
   <i type="logical" name="LNABLA"> F  </i>
   <i type="logical" name="LVEL"> F  </i>
   <i name="CSHIFT">      0.10000000</i>
   <i name="OMEGAMAX">     -1.00000000</i>
   <i name="DEG_THRESHOLD">      0.00200000</i>
   <i name="RTIME">     -0.10000000</i>
   <i name="WPLASMAI">      0.00000000</i>
   <v name="DFIELD">      0.00000000      0.00000000      0.00000000</v>
   <v name="WPLASMA">      0.00000000      0.00000000      0.00000000      0.00000000      0.00000000      0.00000000      0.00000000      0.00000000      0.00000000</v>
  </separator>
  <separator name="orbital magnetization" >
   <i type="logical" name="NUCIND"> F  </i>
   <v name="MAGPOS">      0.00000000      0.00000000      0.00000000</v>
   <i type="logical" name="LNICSALL"> T  </i>
   <i type="logical" name="ORBITALMAG"> F  </i>
   <i type="logical" name="LMAGBLOCH"> F  </i>
   <i type="logical" name="LCHIMAG"> F  </i>
   <i type="logical" name="LGAUGE"> T  </i>
   <i type="int" name="MAGATOM">     0</i>
   <v name="MAGDIPOL">      0.00000000      0.00000000      0.00000000</v>
   <v name="AVECCONST">      0.00000000      0.00000000      0.00000000</v>
  </separator>
  <separator name="response functions" >
   <i type="logical" name="LFINITE_TEMPERATURE"> F  </i>
   <i type="logical" name="LADDER"> F  </i>
   <i type="logical" name="LRPAFORCE"> F  </i>
   <i type="logical" name="LFXC"> F  </i>
   <i type="logical" name="LHARTREE"> T  </i>
   <i type="int" name="IBSE">     0</i>
   <v type="int" name="KPOINT">    -1     0     0     0</v>
   <i type="logical" name="LTCTC"> F  </i>
   <i type="logical" name="LTCTE"> F  </i>
   <i type="logical" name="LTETE"> F  </i>
   <i type="logical" name="LTRIPLET"> F  </i>
   <i type="logical" name="LFXCEPS"> F  </i>
   <i type="logical" name="LFXHEG"> F  </i>
   <i type="int" name="NATURALO">     2</i>
   <i type="logical" name="LHOLEGF"> F  </i>
   <i type="logical" name="L2ORDER"> F  </i>
   <i type="logical" name="LDMP1"> F  </i>
   <i type="logical" name="LMP2LT"> F  </i>
   <i type="logical" name="LSMP2LT"> F  </i>
   <i type="logical" name="LGWLF"> F  </i>
   <i name="ENCUTGW">     -2.00000000</i>
   <i name="ENCUTGWSOFT">     -2.00000000</i>
   <i name="ENCUTLF">     -1.00000000</i>
   <i type="logical" name="LESF_SPLINES"> F  </i>
   <i type="int" name="LMAXMP2">    -1</i>
   <i name="SCISSOR">      0.00000000</i>
   <i type="int" name="NOMEGA">     0</i>
   <i type="int" name="NOMEGAR">     0</i>
   <i type="int" name="NBANDSGW">    -1</i>
   <i type="int" name="NBANDSO">    -1</i>
   <i type="int" name="NBANDSV">    -1</i>
   <i type="int" name="NELMGW">     1</i>
   <i type="int" name="NELMHF">     1</i>
   <i type="int" name="DIM">     3</i>
   <i type="int" name="IESPILON">     4</i>
   <i type="int" name="ANTIRES">     0</i>
   <i name="OMEGAMAX">    -30.00000000</i>
   <i name="OMEGAMIN">    -30.00000000</i>
   <i name="OMEGATL">   -200.00000000</i>
   <i type="int" name="OMEGAGRID">     0</i>
   <i name="CSHIFT">     -0.10000000</i>
   <i type="logical" name="LSELFENERGY"> F  </i>
   <i type="logical" name="LSPECTRAL"> F  </i>
   <i type="logical" name="LSPECTRALGW"> F  </i>
   <i type="logical" name="LSINGLES"> F  </i>
   <i type="logical" name="LFERMIGW"> F  </i>
   <i type="logical" name="ODDONLYGW"> F  </i>
   <i type="logical" name="EVENONLYGW"> F  </i>
   <i type="int" name="NKREDLFX">     1</i>
   <i type="int" name="NKREDLFY">     1</i>
   <i type="int" name="NKREDLFZ">     1</i>
   <i type="int" name="MAXMEM">  2800</i>
   <i type="int" name="TELESCOPE">     0</i>
   <i type="int" name="NTAUPAR">    -1</i>
   <i type="int" name="NOMEGAPAR">    -1</i>
   <i name="DAMP_NEWTON">      0.80000001</i>
   <i name="LAMBDA">      1.00000000</i>
  </separator>
  <separator name="External order field" >
   <i name="OFIELD_KAPPA">      0.00000000</i>
   <v name="OFIELD_K">      0.00000000      0.00000000      0.00000000</v>
   <i name="OFIELD_Q6_NEAR">      0.00000000</i>
   <i name="OFIELD_Q6_FAR">      0.00000000</i>
   <i name="OFIELD_A">      0.00000000</i>
  </separator>
  <separator name="optional k-points parameters" >
   <i type="int" name="KPOINTS_OPT_MODE">     1</i>
   <i type="logical" name="LKPOINTS_OPT"> F  </i>
  </separator>
  <separator name="solvation model" >
   <i type="logical" name="LSOL"> F  </i>
  </separator>
 </parameters>
 <atominfo>
  <atoms>     216 </atoms>
  <types>       2 </types>
  <array name="atoms" >
   <dimension dim="1">ion</dimension>
   <field type="string">element</field>
   <field type="int">atomtype</field>
   <set>
    <rc><c>Ni</c><c>   1</c></rc>
    <rc><c>Ni</c><c>   1</c></rc>
    <rc><c>Ni</c><c>   1</c></rc>
    <rc><c>Ni</c><c>   1</c></rc>
    <rc><c>Ni</c><c>   1</c></rc>
    <rc><c>Ni</c><c>   1</c></rc>
    <rc><c>Ni</c><c>   1</c></rc>
    <rc><c>Ni</c><c>   1</c></rc>
    <rc><c>Ni</c><c>   1</c></rc>
    <rc><c>Ni</c><c>   1</c></rc>
    <rc><c>Ni</c><c>   1</c></rc>
    <rc><c>Ni</c><c>   1</c></rc>
    <rc><c>Ni</c><c>   1</c></rc>
    <rc><c>Ni</c><c>   1</c></rc>
    <rc><c>Ni</c><c>   1</c></rc>
    <rc><c>Ni</c><c>   1</c></rc>
    <rc><c>Ni</c><c>   1</c></rc>
    <rc><c>Ni</c><c>   1</c></rc>
    <rc><c>Ni</c><c>   1</c></rc>
    <rc><c>Ni</c><c>   1</c></rc>
    <rc><c>Ni</c><c>   1</c></rc>
    <rc><c>Ni</c><c>   1</c></rc>
    <rc><c>Ni</c><c>   1</c></rc>
    <rc><c>Ni</c><c>   1</c></rc>
    <rc><c>Ni</c><c>   1</c></rc>
    <rc><c>Ni</c><c>   1</c></rc>
    <rc><c>Ni</c><c>   1</c></rc>
    <rc><c>Ni</c><c>   1</c></rc>
    <rc><c>Ni</c><c>   1</c></rc>
    <rc><c>Ni</c><c>   1</c></rc>
    <rc><c>Ni</c><c>   1</c></rc>
    <rc><c>Ni</c><c>   1</c></rc>
    <rc><c>Ni</c><c>   1</c></rc>
    <rc><c>Ni</c><c>   1</c></rc>
    <rc><c>Ni</c><c>   1</c></rc>
    <rc><c>Ni</c><c>   1</c></rc>
    <rc><c>Ni</c><c>   1</c></rc>
    <rc><c>Ni</c><c>   1</c></rc>
    <rc><c>Ni</c><c>   1</c></rc>
    <rc><c>Ni</c><c>   1</c></rc>
    <rc><c>Ni</c><c>   1</c></rc>
    <rc><c>Ni</c><c>   1</c></rc>
    <rc><c>Ni</c><c>   1</c></rc>
    <rc><c>Ni</c><c>   1</c></rc>
    <rc><c>Ni</c><c>   1</c></rc>
    <rc><c>Ni</c><c>   1</c></rc>
    <rc><c>Ni</c><c>   1</c></rc>
    <rc><c>Ni</c><c>   1</c></rc>
    <rc><c>Ni</c><c>   1</c></rc>
    <rc><c>Ni</c><c>   1</c></rc>
    <rc><c>Ni</c><c>   1</c></rc>
    <rc><c>Ni</c><c>   1</c></rc>
    <rc><c>Ni</c><c>   1</c></rc>
    <rc><c>Ni</c><c>   1</c></rc>
    <rc><c>Ni</c><c>   1</c></rc>
    <rc><c>Ni</c><c>   1</c></rc>
    <rc><c>Ni</c><c>   1</c></rc>
    <rc><c>Ni</c><c>   1</c></rc>
    <rc><c>Ni</c><c>   1</c></rc>
    <rc><c>Ni</c><c>   1</c></rc>
    <rc><c>Ni</c><c>   1</c></rc>
    <rc><c>Ni</c><c>   1</c></rc>
    <rc><c>Ni</c><c>   1</c></rc>
    <rc><c>Ni</c><c>   1</c></rc>
    <rc><c>Ni</c><c>   1</c></rc>
    <rc><c>Ni</c><c>   1</c></rc>
    <rc><c>Ni</c><c>   1</c></rc>
    <rc><c>Ni</c><c>   1</c></rc>
    <rc><c>Ni</c><c>   1</c></rc>
    <rc><c>Ni</c><c>   1</c></rc>
    <rc><c>Ni</c><c>   1</c></rc>
    <rc><c>Ni</c><c>   1</c></rc>
    <rc><c>Ni</c><c>   1</c></rc>
    <rc><c>Ni</c><c>   1</c></rc>
    <rc><c>Ni</c><c>   1</c></rc>
    <rc><c>Ni</c><c>   1</c></rc>
    <rc><c>Ni</c><c>   1</c></rc>
    <rc><c>Ni</c><c>   1</c></rc>
    <rc><c>Ni</c><c>   1</c></rc>
    <rc><c>Ni</c><c>   1</c></rc>
    <rc><c>Ni</c><c>   1</c></rc>
    <rc><c>Ni</c><c>   1</c></rc>
    <rc><c>Ni</c><c>   1</c></rc>
    <rc><c>Ni</c><c>   1</c></rc>
    <rc><c>Ni</c><c>   1</c></rc>
    <rc><c>Ni</c><c>   1</c></rc>
    <rc><c>Ni</c><c>   1</c></rc>
    <rc><c>Ni</c><c>   1</c></rc>
    <rc><c>Ni</c><c>   1</c></rc>
    <rc><c>Ni</c><c>   1</c></rc>
    <rc><c>Ni</c><c>   1</c></rc>
    <rc><c>Ni</c><c>   1</c></rc>
    <rc><c>Ni</c><c>   1</c></rc>
    <rc><c>Ni</c><c>   1</c></rc>
    <rc><c>Ni</c><c>   1</c></rc>
    <rc><c>Ni</c><c>   1</c></rc>
    <rc><c>Ni</c><c>   1</c></rc>
    <rc><c>Ni</c><c>   1</c></rc>
    <rc><c>Ni</c><c>   1</c></rc>
    <rc><c>Ni</c><c>   1</c></rc>
    <rc><c>Ni</c><c>   1</c></rc>
    <rc><c>Ni</c><c>   1</c></rc>
    <rc><c>Ni</c><c>   1</c></rc>
    <rc><c>Ni</c><c>   1</c></rc>
    <rc><c>Ni</c><c>   1</c></rc>
    <rc><c>Ni</c><c>   1</c></rc>
    <rc><c>Ni</c><c>   1</c></rc>
    <rc><c>Ni</c><c>   1</c></rc>
    <rc><c>O </c><c>   2</c></rc>
    <rc><c>O </c><c>   2</c></rc>
    <rc><c>O </c><c>   2</c></rc>
    <rc><c>O </c><c>   2</c></rc>
    <rc><c>O </c><c>   2</c></rc>
    <rc><c>O </c><c>   2</c></rc>
    <rc><c>O </c><c>   2</c></rc>
    <rc><c>O </c><c>   2</c></rc>
    <rc><c>O </c><c>   2</c></rc>
    <rc><c>O </c><c>   2</c></rc>
    <rc><c>O </c><c>   2</c></rc>
    <rc><c>O </c><c>   2</c></rc>
    <rc><c>O </c><c>   2</c></rc>
    <rc><c>O </c><c>   2</c></rc>
    <rc><c>O </c><c>   2</c></rc>
    <rc><c>O </c><c>   2</c></rc>
    <rc><c>O </c><c>   2</c></rc>
    <rc><c>O </c><c>   2</c></rc>
    <rc><c>O </c><c>   2</c></rc>
    <rc><c>O </c><c>   2</c></rc>
    <rc><c>O </c><c>   2</c></rc>
    <rc><c>O </c><c>   2</c></rc>
    <rc><c>O </c><c>   2</c></rc>
    <rc><c>O </c><c>   2</c></rc>
    <rc><c>O </c><c>   2</c></rc>
    <rc><c>O </c><c>   2</c></rc>
    <rc><c>O </c><c>   2</c></rc>
    <rc><c>O </c><c>   2</c></rc>
    <rc><c>O </c><c>   2</c></rc>
    <rc><c>O </c><c>   2</c></rc>
    <rc><c>O </c><c>   2</c></rc>
    <rc><c>O </c><c>   2</c></rc>
    <rc><c>O </c><c>   2</c></rc>
    <rc><c>O </c><c>   2</c></rc>
    <rc><c>O </c><c>   2</c></rc>
    <rc><c>O </c><c>   2</c></rc>
    <rc><c>O </c><c>   2</c></rc>
    <rc><c>O </c><c>   2</c></rc>
    <rc><c>O </c><c>   2</c></rc>
    <rc><c>O </c><c>   2</c></rc>
    <rc><c>O </c><c>   2</c></rc>
    <rc><c>O </c><c>   2</c></rc>
    <rc><c>O </c><c>   2</c></rc>
    <rc><c>O </c><c>   2</c></rc>
    <rc><c>O </c><c>   2</c></rc>
    <rc><c>O </c><c>   2</c></rc>
    <rc><c>O </c><c>   2</c></rc>
    <rc><c>O </c><c>   2</c></rc>
    <rc><c>O </c><c>   2</c></rc>
    <rc><c>O </c><c>   2</c></rc>
    <rc><c>O </c><c>   2</c></rc>
    <rc><c>O </c><c>   2</c></rc>
    <rc><c>O </c><c>   2</c></rc>
    <rc><c>O </c><c>   2</c></rc>
    <rc><c>O </c><c>   2</c></rc>
    <rc><c>O </c><c>   2</c></rc>
    <rc><c>O </c><c>   2</c></rc>
    <rc><c>O </c><c>   2</c></rc>
    <rc><c>O </c><c>   2</c></rc>
    <rc><c>O </c><c>   2</c></rc>
    <rc><c>O </c><c>   2</c></rc>
    <rc><c>O </c><c>   2</c></rc>
    <rc><c>O </c><c>   2</c></rc>
    <rc><c>O </c><c>   2</c></rc>
    <rc><c>O </c><c>   2</c></rc>
    <rc><c>O </c><c>   2</c></rc>
    <rc><c>O </c><c>   2</c></rc>
    <rc><c>O </c><c>   2</c></rc>
    <rc><c>O </c><c>   2</c></rc>
    <rc><c>O </c><c>   2</c></rc>
    <rc><c>O </c><c>   2</c></rc>
    <rc><c>O </c><c>   2</c></rc>
    <rc><c>O </c><c>   2</c></rc>
    <rc><c>O </c><c>   2</c></rc>
    <rc><c>O </c><c>   2</c></rc>
    <rc><c>O </c><c>   2</c></rc>
    <rc><c>O </c><c>   2</c></rc>
    <rc><c>O </c><c>   2</c></rc>
    <rc><c>O </c><c>   2</c></rc>
    <rc><c>O </c><c>   2</c></rc>
    <rc><c>O </c><c>   2</c></rc>
    <rc><c>O </c><c>   2</c></rc>
    <rc><c>O </c><c>   2</c></rc>
    <rc><c>O </c><c>   2</c></rc>
    <rc><c>O </c><c>   2</c></rc>
    <rc><c>O </c><c>   2</c></rc>
    <rc><c>O </c><c>   2</c></rc>
    <rc><c>O </c><c>   2</c></rc>
    <rc><c>O </c><c>   2</c></rc>
    <rc><c>O </c><c>   2</c></rc>
    <rc><c>O </c><c>   2</c></rc>
    <rc><c>O </c><c>   2</c></rc>
    <rc><c>O </c><c>   2</c></rc>
    <rc><c>O </c><c>   2</c></rc>
    <rc><c>O </c><c>   2</c></rc>
    <rc><c>O </c><c>   2</c></rc>
    <rc><c>O </c><c>   2</c></rc>
    <rc><c>O </c><c>   2</c></rc>
    <rc><c>O </c><c>   2</c></rc>
    <rc><c>O </c><c>   2</c></rc>
    <rc><c>O </c><c>   2</c></rc>
    <rc><c>O </c><c>   2</c></rc>
    <rc><c>O </c><c>   2</c></rc>
    <rc><c>O </c><c>   2</c></rc>
    <rc><c>O </c><c>   2</c></rc>
    <rc><c>O </c><c>   2</c></rc>
    <rc><c>O </c><c>   2</c></rc>
    <rc><c>O </c><c>   2</c></rc>
   </set>
  </array>
  <array name="atomtypes" >
   <dimension dim="1">type</dimension>
   <field type="int">atomspertype</field>
   <field type="string">element</field>
   <field>mass</field>
   <field>valence</field>
   <field type="string">pseudopotential</field>
   <set>
    <rc><c> 108</c><c>Ni</c><c>     58.69000000</c><c>     10.00000000</c><c>  PAW Ni_GW 31Mar2010                   </c></rc>
    <rc><c> 108</c><c>O </c><c>     16.00000000</c><c>      6.00000000</c><c>  PAW O_GW 19Mar2012                    </c></rc>
   </set>
  </array>
 </atominfo>
 <structure name="initialpos" >
  <crystal>
   <varray name="basis" >
    <v>      12.64985847       0.00000000       0.00000000 </v>
    <v>       0.00000000      12.64985847       0.00000000 </v>
    <v>       0.00000000       0.00000000      12.64985847 </v>
   </varray>
   <i name="volume">   2024.21668406 </i>
   <varray name="rec_basis" >
    <v>       0.07905227       0.00000000       0.00000000 </v>
    <v>       0.00000000       0.07905227       0.00000000 </v>
    <v>       0.00000000       0.00000000       0.07905227 </v>
   </varray>
  </crystal>
  <varray name="positions" >
   <v>       0.00000000       0.00000000       0.00000000 </v>
   <v>       0.00000000       0.00000000       0.33333334 </v>
   <v>       0.00000000       0.00000000       0.66666669 </v>
   <v>       0.00000000       0.33333334       0.00000000 </v>
   <v>       0.00000000       0.33333334       0.33333334 </v>
   <v>       0.00000000       0.33333334       0.66666669 </v>
   <v>       0.00000000       0.66666669       0.00000000 </v>
   <v>       0.00000000       0.66666669       0.33333334 </v>
   <v>       0.00000000       0.66666669       0.66666669 </v>
   <v>       0.33333334       0.00000000       0.00000000 </v>
   <v>       0.33333334       0.00000000       0.33333334 </v>
   <v>       0.33333334       0.00000000       0.66666669 </v>
   <v>       0.33333334       0.33333334       0.00000000 </v>
   <v>       0.33333334       0.33333334       0.33333334 </v>
   <v>       0.33333334       0.33333334       0.66666669 </v>
   <v>       0.33333334       0.66666669       0.00000000 </v>
   <v>       0.33333334       0.66666669       0.33333334 </v>
   <v>       0.33333334       0.66666669       0.66666669 </v>
   <v>       0.66666669       0.00000000       0.00000000 </v>
   <v>       0.66666669       0.00000000       0.33333334 </v>
   <v>       0.66666669       0.00000000       0.66666669 </v>
   <v>       0.66666669       0.33333334       0.00000000 </v>
   <v>       0.66666669       0.33333334       0.33333334 </v>
   <v>       0.66666669       0.33333334       0.66666669 </v>
   <v>       0.66666669       0.66666669       0.00000000 </v>
   <v>       0.66666669       0.66666669       0.33333334 </v>
   <v>       0.66666669       0.66666669       0.66666669 </v>
   <v>       0.00000000       0.16666667       0.16666667 </v>
   <v>       0.00000000       0.16666667       0.50000000 </v>
   <v>       0.00000000       0.16666667       0.83333331 </v>
   <v>       0.00000000       0.50000000       0.16666667 </v>
   <v>       0.00000000       0.50000000       0.50000000 </v>
   <v>       0.00000000       0.50000000       0.83333331 </v>
   <v>       0.00000000       0.83333331       0.16666667 </v>
   <v>       0.00000000       0.83333331       0.50000000 </v>
   <v>       0.00000000       0.83333331       0.83333331 </v>
   <v>       0.33333334       0.16666667       0.16666667 </v>
   <v>       0.33333334       0.16666667       0.50000000 </v>
   <v>       0.33333334       0.16666667       0.83333331 </v>
   <v>       0.33333334       0.50000000       0.16666667 </v>
   <v>       0.33333334       0.50000000       0.50000000 </v>
   <v>       0.33333334       0.50000000       0.83333331 </v>
   <v>       0.33333334       0.83333331       0.16666667 </v>
   <v>       0.33333334       0.83333331       0.50000000 </v>
   <v>       0.33333334       0.83333331       0.83333331 </v>
   <v>       0.66666669       0.16666667       0.16666667 </v>
   <v>       0.66666669       0.16666667       0.50000000 </v>
   <v>       0.66666669       0.16666667       0.83333331 </v>
   <v>       0.66666669       0.50000000       0.16666667 </v>
   <v>       0.66666669       0.50000000       0.50000000 </v>
   <v>       0.66666669       0.50000000       0.83333331 </v>
   <v>       0.66666669       0.83333331       0.16666667 </v>
   <v>       0.66666669       0.83333331       0.50000000 </v>
   <v>       0.66666669       0.83333331       0.83333331 </v>
   <v>       0.16666667       0.00000000       0.16666667 </v>
   <v>       0.16666667       0.00000000       0.50000000 </v>
   <v>       0.16666667       0.00000000       0.83333331 </v>
   <v>       0.16666667       0.33333334       0.16666667 </v>
   <v>       0.16666667       0.33333334       0.50000000 </v>
   <v>       0.16666667       0.33333334       0.83333331 </v>
   <v>       0.16666667       0.66666669       0.16666667 </v>
   <v>       0.16666667       0.66666669       0.50000000 </v>
   <v>       0.16666667       0.66666669       0.83333331 </v>
   <v>       0.50000000       0.00000000       0.16666667 </v>
   <v>       0.50000000       0.00000000       0.50000000 </v>
   <v>       0.50000000       0.00000000       0.83333331 </v>
   <v>       0.50000000       0.33333334       0.16666667 </v>
   <v>       0.50000000       0.33333334       0.50000000 </v>
   <v>       0.50000000       0.33333334       0.83333331 </v>
   <v>       0.50000000       0.66666669       0.16666667 </v>
   <v>       0.50000000       0.66666669       0.50000000 </v>
   <v>       0.50000000       0.66666669       0.83333331 </v>
   <v>       0.83333331       0.00000000       0.16666667 </v>
   <v>       0.83333331       0.00000000       0.50000000 </v>
   <v>       0.83333331       0.00000000       0.83333331 </v>
   <v>       0.83333331       0.33333334       0.16666667 </v>
   <v>       0.83333331       0.33333334       0.50000000 </v>
   <v>       0.83333331       0.33333334       0.83333331 </v>
   <v>       0.83333331       0.66666669       0.16666667 </v>
   <v>       0.83333331       0.66666669       0.50000000 </v>
   <v>       0.83333331       0.66666669       0.83333331 </v>
   <v>       0.16666667       0.16666667       0.00000000 </v>
   <v>       0.16666667       0.16666667       0.33333334 </v>
   <v>       0.16666667       0.16666667       0.66666669 </v>
   <v>       0.16666667       0.50000000       0.00000000 </v>
   <v>       0.16666667       0.50000000       0.33333334 </v>
   <v>       0.16666667       0.50000000       0.66666669 </v>
   <v>       0.16666667       0.83333331       0.00000000 </v>
   <v>       0.16666667       0.83333331       0.33333334 </v>
   <v>       0.16666667       0.83333331       0.66666669 </v>
   <v>       0.50000000       0.16666667       0.00000000 </v>
   <v>       0.50000000       0.16666667       0.33333334 </v>
   <v>       0.50000000       0.16666667       0.66666669 </v>
   <v>       0.50000000       0.50000000       0.00000000 </v>
   <v>       0.50000000       0.50000000       0.33333334 </v>
   <v>       0.50000000       0.50000000       0.66666669 </v>
   <v>       0.50000000       0.83333331       0.00000000 </v>
   <v>       0.50000000       0.83333331       0.33333334 </v>
   <v>       0.50000000       0.83333331       0.66666669 </v>
   <v>       0.83333331       0.16666667       0.00000000 </v>
   <v>       0.83333331       0.16666667       0.33333334 </v>
   <v>       0.83333331       0.16666667       0.66666669 </v>
   <v>       0.83333331       0.50000000       0.00000000 </v>
   <v>       0.83333331       0.50000000       0.33333334 </v>
   <v>       0.83333331       0.50000000       0.66666669 </v>
   <v>       0.83333331       0.83333331       0.00000000 </v>
   <v>       0.83333331       0.83333331       0.33333334 </v>
   <v>       0.83333331       0.83333331       0.66666669 </v>
   <v>       0.16666667       0.00000000       0.00000000 </v>
   <v>       0.16666667       0.00000000       0.33333334 </v>
   <v>       0.16666667       0.00000000       0.66666669 </v>
   <v>       0.16666667       0.33333334       0.00000000 </v>
   <v>       0.16666667       0.33333334       0.33333334 </v>
   <v>       0.16666667       0.33333334       0.66666669 </v>
   <v>       0.16666667       0.66666669       0.00000000 </v>
   <v>       0.16666667       0.66666669       0.33333334 </v>
   <v>       0.16666667       0.66666669       0.66666669 </v>
   <v>       0.50000000       0.00000000       0.00000000 </v>
   <v>       0.50000000       0.00000000       0.33333334 </v>
   <v>       0.50000000       0.00000000       0.66666669 </v>
   <v>       0.50000000       0.33333334       0.00000000 </v>
   <v>       0.50000000       0.33333334       0.33333334 </v>
   <v>       0.50000000       0.33333334       0.66666669 </v>
   <v>       0.50000000       0.66666669       0.00000000 </v>
   <v>       0.50000000       0.66666669       0.33333334 </v>
   <v>       0.50000000       0.66666669       0.66666669 </v>
   <v>       0.83333331       0.00000000       0.00000000 </v>
   <v>       0.83333331       0.00000000       0.33333334 </v>
   <v>       0.83333331       0.00000000       0.66666669 </v>
   <v>       0.83333331       0.33333334       0.00000000 </v>
   <v>       0.83333331       0.33333334       0.33333334 </v>
   <v>       0.83333331       0.33333334       0.66666669 </v>
   <v>       0.83333331       0.66666669       0.00000000 </v>
   <v>       0.83333331       0.66666669       0.33333334 </v>
   <v>       0.83333331       0.66666669       0.66666669 </v>
   <v>       0.16666667       0.16666667       0.16666667 </v>
   <v>       0.16666667       0.16666667       0.50000000 </v>
   <v>       0.16666667       0.16666667       0.83333331 </v>
   <v>       0.16666667       0.50000000       0.16666667 </v>
   <v>       0.16666667       0.50000000       0.50000000 </v>
   <v>       0.16666667       0.50000000       0.83333331 </v>
   <v>       0.16666667       0.83333331       0.16666667 </v>
   <v>       0.16666667       0.83333331       0.50000000 </v>
   <v>       0.16666667       0.83333331       0.83333331 </v>
   <v>       0.50000000       0.16666667       0.16666667 </v>
   <v>       0.50000000       0.16666667       0.50000000 </v>
   <v>       0.50000000       0.16666667       0.83333331 </v>
   <v>       0.50000000       0.50000000       0.16666667 </v>
   <v>       0.50000000       0.50000000       0.50000000 </v>
   <v>       0.50000000       0.50000000       0.83333331 </v>
   <v>       0.50000000       0.83333331       0.16666667 </v>
   <v>       0.50000000       0.83333331       0.50000000 </v>
   <v>       0.50000000       0.83333331       0.83333331 </v>
   <v>       0.83333331       0.16666667       0.16666667 </v>
   <v>       0.83333331       0.16666667       0.50000000 </v>
   <v>       0.83333331       0.16666667       0.83333331 </v>
   <v>       0.83333331       0.50000000       0.16666667 </v>
   <v>       0.83333331       0.50000000       0.50000000 </v>
   <v>       0.83333331       0.50000000       0.83333331 </v>
   <v>       0.83333331       0.83333331       0.16666667 </v>
   <v>       0.83333331       0.83333331       0.50000000 </v>
   <v>       0.83333331       0.83333331       0.83333331 </v>
   <v>       0.00000000       0.00000000       0.16666667 </v>
   <v>       0.00000000       0.00000000       0.50000000 </v>
   <v>       0.00000000       0.00000000       0.83333331 </v>
   <v>       0.00000000       0.33333334       0.16666667 </v>
   <v>       0.00000000       0.33333334       0.50000000 </v>
   <v>       0.00000000       0.33333334       0.83333331 </v>
   <v>       0.00000000       0.66666669       0.16666667 </v>
   <v>       0.00000000       0.66666669       0.50000000 </v>
   <v>       0.00000000       0.66666669       0.83333331 </v>
   <v>       0.33333334       0.00000000       0.16666667 </v>
   <v>       0.33333334       0.00000000       0.50000000 </v>
   <v>       0.33333334       0.00000000       0.83333331 </v>
   <v>       0.33333334       0.33333334       0.16666667 </v>
   <v>       0.33333334       0.33333334       0.50000000 </v>
   <v>       0.33333334       0.33333334       0.83333331 </v>
   <v>       0.33333334       0.66666669       0.16666667 </v>
   <v>       0.33333334       0.66666669       0.50000000 </v>
   <v>       0.33333334       0.66666669       0.83333331 </v>
   <v>       0.66666669       0.00000000       0.16666667 </v>
   <v>       0.66666669       0.00000000       0.50000000 </v>
   <v>       0.66666669       0.00000000       0.83333331 </v>
   <v>       0.66666669       0.33333334       0.16666667 </v>
   <v>       0.66666669       0.33333334       0.50000000 </v>
   <v>       0.66666669       0.33333334       0.83333331 </v>
   <v>       0.66666669       0.66666669       0.16666667 </v>
   <v>       0.66666669       0.66666669       0.50000000 </v>
   <v>       0.66666669       0.66666669       0.83333331 </v>
   <v>       0.00000000       0.16666667       0.00000000 </v>
   <v>       0.00000000       0.16666667       0.33333334 </v>
   <v>       0.00000000       0.16666667       0.66666669 </v>
   <v>       0.00000000       0.50000000       0.00000000 </v>
   <v>       0.00000000       0.50000000       0.33333334 </v>
   <v>       0.00000000       0.50000000       0.66666669 </v>
   <v>       0.00000000       0.83333331       0.00000000 </v>
   <v>       0.00000000       0.83333331       0.33333334 </v>
   <v>       0.00000000       0.83333331       0.66666669 </v>
   <v>       0.33333334       0.16666667       0.00000000 </v>
   <v>       0.33333334       0.16666667       0.33333334 </v>
   <v>       0.33333334       0.16666667       0.66666669 </v>
   <v>       0.33333334       0.50000000       0.00000000 </v>
   <v>       0.33333334       0.50000000       0.33333334 </v>
   <v>       0.33333334       0.50000000       0.66666669 </v>
   <v>       0.33333334       0.83333331       0.00000000 </v>
   <v>       0.33333334       0.83333331       0.33333334 </v>
   <v>       0.33333334       0.83333331       0.66666669 </v>
   <v>       0.66666669       0.16666667       0.00000000 </v>
   <v>       0.66666669       0.16666667       0.33333334 </v>
   <v>       0.66666669       0.16666667       0.66666669 </v>
   <v>       0.66666669       0.50000000       0.00000000 </v>
   <v>       0.66666669       0.50000000       0.33333334 </v>
   <v>       0.66666669       0.50000000       0.66666669 </v>
   <v>       0.66666669       0.83333331       0.00000000 </v>
   <v>       0.66666669       0.83333331       0.33333334 </v>
   <v>       0.66666669       0.83333331       0.66666669 </v>
  </varray>
 </structure>
 <calculation>
  <scstep>
   <time name="dav">   17.71   17.86</time>
   <time name="total">   18.14   18.30</time>
   <energy>
    <i name="alphaZ">  11022.90964078 </i>
    <i name="ewald">-139102.51371124 </i>
    <i name="hartreedc"> -33173.23799414 </i>
    <i name="XCdc">   4037.82050523 </i>
    <i name="pawpsdc"> 140542.89823795 </i>
    <i name="pawaedc">-148839.50927836 </i>
    <i name="eentropy">     -0.05608934 </i>
    <i name="bandstr">  21728.24168063 </i>
    <i name="atom"> 163037.43952548 </i>
    <i name="e_fr_energy">  19253.99251700 </i>
    <i name="e_wo_entrp">  19254.04860634 </i>
    <i name="e_0_energy">  19254.02056167 </i>
   </energy>
  </scstep>
  <scstep>
   <time name="dav">   17.34   17.49</time>
   <time name="total">   17.35   17.49</time>
   <energy>
    <i name="e_fr_energy">   1814.95281304 </i>
    <i name="e_wo_entrp">   1815.05522326 </i>
    <i name="e_0_energy">   1815.00401815 </i>
   </energy>
  </scstep>
  <scstep>
   <time name="dav">   22.49   22.66</time>
   <time name="total">   22.50   22.67</time>
   <energy>
    <i name="e_fr_energy">  -1093.86351986 </i>
    <i name="e_wo_entrp">  -1093.54301534 </i>
    <i name="e_0_energy">  -1093.70326760 </i>
   </energy>
  </scstep>
  <scstep>
   <time name="dav">   25.29   25.48</time>
   <time name="total">   25.30   25.49</time>
   <energy>
    <i name="e_fr_energy">  -1422.47394788 </i>
    <i name="e_wo_entrp">  -1421.96796872 </i>
    <i name="e_0_energy">  -1422.22095830 </i>
   </energy>
  </scstep>
  <scstep>
   <time name="dav">   25.22   25.41</time>
   <time name="total">   26.92   27.13</time>
   <energy>
    <i name="e_fr_energy">  -1437.83606678 </i>
    <i name="e_wo_entrp">  -1437.31678897 </i>
    <i name="e_0_energy">  -1437.57642788 </i>
   </energy>
  </scstep>
  <scstep>
   <time name="dav">   22.55   22.72</time>
   <time name="total">   24.66   24.84</time>
   <energy>
    <i name="e_fr_energy">  -1380.30672874 </i>
    <i name="e_wo_entrp">  -1380.13016027 </i>
    <i name="e_0_energy">  -1380.21844450 </i>
   </energy>
  </scstep>
  <scstep>
   <time name="dav">   19.58   19.73</time>
   <time name="total">   21.69   21.86</time>
   <energy>
    <i name="e_fr_energy">  -1198.57222525 </i>
    <i name="e_wo_entrp">  -1197.96912501 </i>
    <i name="e_0_energy">  -1198.27067513 </i>
   </energy>
  </scstep>
  <scstep>
   <time name="dav">   21.89   22.04</time>
   <time name="total">   24.01   24.20</time>
   <energy>
    <i name="e_fr_energy">  -1208.32169475 </i>
    <i name="e_wo_entrp">  -1207.73694562 </i>
    <i name="e_0_energy">  -1208.02932019 </i>
   </energy>
  </scstep>
  <scstep>
   <time name="dav">   19.33   19.47</time>
   <time name="total">   21.44   21.59</time>
   <energy>
    <i name="e_fr_energy">  -1207.11008897 </i>
    <i name="e_wo_entrp">  -1206.54160810 </i>
    <i name="e_0_energy">  -1206.82584853 </i>
   </energy>
  </scstep>
  <scstep>
   <time name="dav">   21.28   21.44</time>
   <time name="total">   23.39   23.57</time>
   <energy>
    <i name="e_fr_energy">  -1206.35790449 </i>
    <i name="e_wo_entrp">  -1205.75944417 </i>
    <i name="e_0_energy">  -1206.05867433 </i>
   </energy>
  </scstep>
  <scstep>
   <time name="dav">   23.92   24.09</time>
   <time name="total">   26.04   26.23</time>
   <energy>
    <i name="e_fr_energy">  -1206.33416481 </i>
    <i name="e_wo_entrp">  -1205.73209110 </i>
    <i name="e_0_energy">  -1206.03312795 </i>
   </energy>
  </scstep>
  <scstep>
   <time name="dav">   24.78   24.96</time>
   <time name="total">   26.90   27.10</time>
   <energy>
    <i name="e_fr_energy">  -1206.33113550 </i>
    <i name="e_wo_entrp">  -1205.73188123 </i>
    <i name="e_0_energy">  -1206.03150837 </i>
   </energy>
  </scstep>
  <scstep>
   <time name="dav">   19.55   19.71</time>
   <time name="total">   21.68   21.86</time>
   <energy>
    <i name="e_fr_energy">  -1206.33114297 </i>
    <i name="e_wo_entrp">  -1205.72980666 </i>
    <i name="e_0_energy">  -1206.03047481 </i>
   </energy>
  </scstep>
  <scstep>
   <time name="dav">   18.72   18.87</time>
   <time name="total">   20.85   21.02</time>
   <energy>
    <i name="e_fr_energy">  -1206.33041769 </i>
    <i name="e_wo_entrp">  -1205.72996341 </i>
    <i name="e_0_energy">  -1206.03019055 </i>
   </energy>
  </scstep>
  <scstep>
   <time name="dav">   24.18   24.35</time>
   <time name="total">   26.32   26.53</time>
   <energy>
    <i name="e_fr_energy">  -1206.33044039 </i>
    <i name="e_wo_entrp">  -1205.72997137 </i>
    <i name="e_0_energy">  -1206.03020588 </i>
   </energy>
  </scstep>
  <scstep>
   <time name="dav">   25.34   25.53</time>
   <time name="total">   27.47   27.68</time>
   <energy>
    <i name="e_fr_energy">  -1206.33043544 </i>
    <i name="e_wo_entrp">  -1205.73002695 </i>
    <i name="e_0_energy">  -1206.03023120 </i>
   </energy>
  </scstep>
  <scstep>
   <time name="dav">   20.28   20.42</time>
   <time name="total">   22.41   22.58</time>
   <energy>
    <i name="e_fr_energy">  -1206.33043289 </i>
    <i name="e_wo_entrp">  -1205.73002662 </i>
    <i name="e_0_energy">  -1206.03022975 </i>
   </energy>
  </scstep>
  <scstep>
   <time name="dav">   12.39   12.50</time>
   <time name="total">   12.81   12.92</time>
   <energy>
    <i name="alphaZ">  11022.90964078 </i>
    <i name="ewald">-139102.51371124 </i>
    <i name="hartreedc"> -32441.15073058 </i>
    <i name="XCdc">   4047.42140869 </i>
    <i name="pawpsdc"> 182818.92811015 </i>
    <i name="pawaedc">-191234.32783251 </i>
    <i name="eentropy">     -0.60040987 </i>
    <i name="bandstr">    645.56356628 </i>
    <i name="atom"> 163037.43952548 </i>
    <i name="e_fr_energy">  -1206.33043282 </i>
    <i name="e_wo_entrp">  -1205.73002295 </i>
    <i name="e_0_energy">  -1206.03022788 </i>
   </energy>
  </scstep>
  <structure>
   <crystal>
    <varray name="basis" >
     <v>      12.64985847       0.00000000       0.00000000 </v>
     <v>       0.00000000      12.64985847       0.00000000 </v>
     <v>       0.00000000       0.00000000      12.64985847 </v>
    </varray>
    <i name="volume">   2024.21668406 </i>
    <varray name="rec_basis" >
     <v>       0.07905227       0.00000000       0.00000000 </v>
     <v>       0.00000000       0.07905227       0.00000000 </v>
     <v>       0.00000000       0.00000000       0.07905227 </v>
    </varray>
   </crystal>
   <varray name="positions" >
    <v>       0.00000000       0.00000000       0.00000000 </v>
    <v>       0.00000000       0.00000000       0.33333334 </v>
    <v>       0.00000000       0.00000000       0.66666669 </v>
    <v>       0.00000000       0.33333334       0.00000000 </v>
    <v>       0.00000000       0.33333334       0.33333334 </v>
    <v>       0.00000000       0.33333334       0.66666669 </v>
    <v>       0.00000000       0.66666669       0.00000000 </v>
    <v>       0.00000000       0.66666669       0.33333334 </v>
    <v>       0.00000000       0.66666669       0.66666669 </v>
    <v>       0.33333334       0.00000000       0.00000000 </v>
    <v>       0.33333334       0.00000000       0.33333334 </v>
    <v>       0.33333334       0.00000000       0.66666669 </v>
    <v>       0.33333334       0.33333334       0.00000000 </v>
    <v>       0.33333334       0.33333334       0.33333334 </v>
    <v>       0.33333334       0.33333334       0.66666669 </v>
    <v>       0.33333334       0.66666669       0.00000000 </v>
    <v>       0.33333334       0.66666669       0.33333334 </v>
    <v>       0.33333334       0.66666669       0.66666669 </v>
    <v>       0.66666669       0.00000000       0.00000000 </v>
    <v>       0.66666669       0.00000000       0.33333334 </v>
    <v>       0.66666669       0.00000000       0.66666669 </v>
    <v>       0.66666669       0.33333334       0.00000000 </v>
    <v>       0.66666669       0.33333334       0.33333334 </v>
    <v>       0.66666669       0.33333334       0.66666669 </v>
    <v>       0.66666669       0.66666669       0.00000000 </v>
    <v>       0.66666669       0.66666669       0.33333334 </v>
    <v>       0.66666669       0.66666669       0.66666669 </v>
    <v>       0.00000000       0.16666667       0.16666667 </v>
    <v>       0.00000000       0.16666667       0.50000000 </v>
    <v>       0.00000000       0.16666667       0.83333331 </v>
    <v>       0.00000000       0.50000000       0.16666667 </v>
    <v>       0.00000000       0.50000000       0.50000000 </v>
    <v>       0.00000000       0.50000000       0.83333331 </v>
    <v>       0.00000000       0.83333331       0.16666667 </v>
    <v>       0.00000000       0.83333331       0.50000000 </v>
    <v>       0.00000000       0.83333331       0.83333331 </v>
    <v>       0.33333334       0.16666667       0.16666667 </v>
    <v>       0.33333334       0.16666667       0.50000000 </v>
    <v>       0.33333334       0.16666667       0.83333331 </v>
    <v>       0.33333334       0.50000000       0.16666667 </v>
    <v>       0.33333334       0.50000000       0.50000000 </v>
    <v>       0.33333334       0.50000000       0.83333331 </v>
    <v>       0.33333334       0.83333331       0.16666667 </v>
    <v>       0.33333334       0.83333331       0.50000000 </v>
    <v>       0.33333334       0.83333331       0.83333331 </v>
    <v>       0.66666669       0.16666667       0.16666667 </v>
    <v>       0.66666669       0.16666667       0.50000000 </v>
    <v>       0.66666669       0.16666667       0.83333331 </v>
    <v>       0.66666669       0.50000000       0.16666667 </v>
    <v>       0.66666669       0.50000000       0.50000000 </v>
    <v>       0.66666669       0.50000000       0.83333331 </v>
    <v>       0.66666669       0.83333331       0.16666667 </v>
    <v>       0.66666669       0.83333331       0.50000000 </v>
    <v>       0.66666669       0.83333331       0.83333331 </v>
    <v>       0.16666667       0.00000000       0.16666667 </v>
    <v>       0.16666667       0.00000000       0.50000000 </v>
    <v>       0.16666667       0.00000000       0.83333331 </v>
    <v>       0.16666667       0.33333334       0.16666667 </v>
    <v>       0.16666667       0.33333334       0.50000000 </v>
    <v>       0.16666667       0.33333334       0.83333331 </v>
    <v>       0.16666667       0.66666669       0.16666667 </v>
    <v>       0.16666667       0.66666669       0.50000000 </v>
    <v>       0.16666667       0.66666669       0.83333331 </v>
    <v>       0.50000000       0.00000000       0.16666667 </v>
    <v>       0.50000000       0.00000000       0.50000000 </v>
    <v>       0.50000000       0.00000000       0.83333331 </v>
    <v>       0.50000000       0.33333334       0.16666667 </v>
    <v>       0.50000000       0.33333334       0.50000000 </v>
    <v>       0.50000000       0.33333334       0.83333331 </v>
    <v>       0.50000000       0.66666669       0.16666667 </v>
    <v>       0.50000000       0.66666669       0.50000000 </v>
    <v>       0.50000000       0.66666669       0.83333331 </v>
    <v>       0.83333331       0.00000000       0.16666667 </v>
    <v>       0.83333331       0.00000000       0.50000000 </v>
    <v>       0.83333331       0.00000000       0.83333331 </v>
    <v>       0.83333331       0.33333334       0.16666667 </v>
    <v>       0.83333331       0.33333334       0.50000000 </v>
    <v>       0.83333331       0.33333334       0.83333331 </v>
    <v>       0.83333331       0.66666669       0.16666667 </v>
    <v>       0.83333331       0.66666669       0.50000000 </v>
    <v>       0.83333331       0.66666669       0.83333331 </v>
    <v>       0.16666667       0.16666667       0.00000000 </v>
    <v>       0.16666667       0.16666667       0.33333334 </v>
    <v>       0.16666667       0.16666667       0.66666669 </v>
    <v>       0.16666667       0.50000000       0.00000000 </v>
    <v>       0.16666667       0.50000000       0.33333334 </v>
    <v>       0.16666667       0.50000000       0.66666669 </v>
    <v>       0.16666667       0.83333331       0.00000000 </v>
    <v>       0.16666667       0.83333331       0.33333334 </v>
    <v>       0.16666667       0.83333331       0.66666669 </v>
    <v>       0.50000000       0.16666667       0.00000000 </v>
    <v>       0.50000000       0.16666667       0.33333334 </v>
    <v>       0.50000000       0.16666667       0.66666669 </v>
    <v>       0.50000000       0.50000000       0.00000000 </v>
    <v>       0.50000000       0.50000000       0.33333334 </v>
    <v>       0.50000000       0.50000000       0.66666669 </v>
    <v>       0.50000000       0.83333331       0.00000000 </v>
    <v>       0.50000000       0.83333331       0.33333334 </v>
    <v>       0.50000000       0.83333331       0.66666669 </v>
    <v>       0.83333331       0.16666667       0.00000000 </v>
    <v>       0.83333331       0.16666667       0.33333334 </v>
    <v>       0.83333331       0.16666667       0.66666669 </v>
    <v>       0.83333331       0.50000000       0.00000000 </v>
    <v>       0.83333331       0.50000000       0.33333334 </v>
    <v>       0.83333331       0.50000000       0.66666669 </v>
    <v>       0.83333331       0.83333331       0.00000000 </v>
    <v>       0.83333331       0.83333331       0.33333334 </v>
    <v>       0.83333331       0.83333331       0.66666669 </v>
    <v>       0.16666667       0.00000000       0.00000000 </v>
    <v>       0.16666667       0.00000000       0.33333334 </v>
    <v>       0.16666667       0.00000000       0.66666669 </v>
    <v>       0.16666667       0.33333334       0.00000000 </v>
    <v>       0.16666667       0.33333334       0.33333334 </v>
    <v>       0.16666667       0.33333334       0.66666669 </v>
    <v>       0.16666667       0.66666669       0.00000000 </v>
    <v>       0.16666667       0.66666669       0.33333334 </v>
    <v>       0.16666667       0.66666669       0.66666669 </v>
    <v>       0.50000000       0.00000000       0.00000000 </v>
    <v>       0.50000000       0.00000000       0.33333334 </v>
    <v>       0.50000000       0.00000000       0.66666669 </v>
    <v>       0.50000000       0.33333334       0.00000000 </v>
    <v>       0.50000000       0.33333334       0.33333334 </v>
    <v>       0.50000000       0.33333334       0.66666669 </v>
    <v>       0.50000000       0.66666669       0.00000000 </v>
    <v>       0.50000000       0.66666669       0.33333334 </v>
    <v>       0.50000000       0.66666669       0.66666669 </v>
    <v>       0.83333331       0.00000000       0.00000000 </v>
    <v>       0.83333331       0.00000000       0.33333334 </v>
    <v>       0.83333331       0.00000000       0.66666669 </v>
    <v>       0.83333331       0.33333334       0.00000000 </v>
    <v>       0.83333331       0.33333334       0.33333334 </v>
    <v>       0.83333331       0.33333334       0.66666669 </v>
    <v>       0.83333331       0.66666669       0.00000000 </v>
    <v>       0.83333331       0.66666669       0.33333334 </v>
    <v>       0.83333331       0.66666669       0.66666669 </v>
    <v>       0.16666667       0.16666667       0.16666667 </v>
    <v>       0.16666667       0.16666667       0.50000000 </v>
    <v>       0.16666667       0.16666667       0.83333331 </v>
    <v>       0.16666667       0.50000000       0.16666667 </v>
    <v>       0.16666667       0.50000000       0.50000000 </v>
    <v>       0.16666667       0.50000000       0.83333331 </v>
    <v>       0.16666667       0.83333331       0.16666667 </v>
    <v>       0.16666667       0.83333331       0.50000000 </v>
    <v>       0.16666667       0.83333331       0.83333331 </v>
    <v>       0.50000000       0.16666667       0.16666667 </v>
    <v>       0.50000000       0.16666667       0.50000000 </v>
    <v>       0.50000000       0.16666667       0.83333331 </v>
    <v>       0.50000000       0.50000000       0.16666667 </v>
    <v>       0.50000000       0.50000000       0.50000000 </v>
    <v>       0.50000000       0.50000000       0.83333331 </v>
    <v>       0.50000000       0.83333331       0.16666667 </v>
    <v>       0.50000000       0.83333331       0.50000000 </v>
    <v>       0.50000000       0.83333331       0.83333331 </v>
    <v>       0.83333331       0.16666667       0.16666667 </v>
    <v>       0.83333331       0.16666667       0.50000000 </v>
    <v>       0.83333331       0.16666667       0.83333331 </v>
    <v>       0.83333331       0.50000000       0.16666667 </v>
    <v>       0.83333331       0.50000000       0.50000000 </v>
    <v>       0.83333331       0.50000000       0.83333331 </v>
    <v>       0.83333331       0.83333331       0.16666667 </v>
    <v>       0.83333331       0.83333331       0.50000000 </v>
    <v>       0.83333331       0.83333331       0.83333331 </v>
    <v>       0.00000000       0.00000000       0.16666667 </v>
    <v>       0.00000000       0.00000000       0.50000000 </v>
    <v>       0.00000000       0.00000000       0.83333331 </v>
    <v>       0.00000000       0.33333334       0.16666667 </v>
    <v>       0.00000000       0.33333334       0.50000000 </v>
    <v>       0.00000000       0.33333334       0.83333331 </v>
    <v>       0.00000000       0.66666669       0.16666667 </v>
    <v>       0.00000000       0.66666669       0.50000000 </v>
    <v>       0.00000000       0.66666669       0.83333331 </v>
    <v>       0.33333334       0.00000000       0.16666667 </v>
    <v>       0.33333334       0.00000000       0.50000000 </v>
    <v>       0.33333334       0.00000000       0.83333331 </v>
    <v>       0.33333334       0.33333334       0.16666667 </v>
    <v>       0.33333334       0.33333334       0.50000000 </v>
    <v>       0.33333334       0.33333334       0.83333331 </v>
    <v>       0.33333334       0.66666669       0.16666667 </v>
    <v>       0.33333334       0.66666669       0.50000000 </v>
    <v>       0.33333334       0.66666669       0.83333331 </v>
    <v>       0.66666669       0.00000000       0.16666667 </v>
    <v>       0.66666669       0.00000000       0.50000000 </v>
    <v>       0.66666669       0.00000000       0.83333331 </v>
    <v>       0.66666669       0.33333334       0.16666667 </v>
    <v>       0.66666669       0.33333334       0.50000000 </v>
    <v>       0.66666669       0.33333334       0.83333331 </v>
    <v>       0.66666669       0.66666669       0.16666667 </v>
    <v>       0.66666669       0.66666669       0.50000000 </v>
    <v>       0.66666669       0.66666669       0.83333331 </v>
    <v>       0.00000000       0.16666667       0.00000000 </v>
    <v>       0.00000000       0.16666667       0.33333334 </v>
    <v>       0.00000000       0.16666667       0.66666669 </v>
    <v>       0.00000000       0.50000000       0.00000000 </v>
    <v>       0.00000000       0.50000000       0.33333334 </v>
    <v>       0.00000000       0.50000000       0.66666669 </v>
    <v>       0.00000000       0.83333331       0.00000000 </v>
    <v>       0.00000000       0.83333331       0.33333334 </v>
    <v>       0.00000000       0.83333331       0.66666669 </v>
    <v>       0.33333334       0.16666667       0.00000000 </v>
    <v>       0.33333334       0.16666667       0.33333334 </v>
    <v>       0.33333334       0.16666667       0.66666669 </v>
    <v>       0.33333334       0.50000000       0.00000000 </v>
    <v>       0.33333334       0.50000000       0.33333334 </v>
    <v>       0.33333334       0.50000000       0.66666669 </v>
    <v>       0.33333334       0.83333331       0.00000000 </v>
    <v>       0.33333334       0.83333331       0.33333334 </v>
    <v>       0.33333334       0.83333331       0.66666669 </v>
    <v>       0.66666669       0.16666667       0.00000000 </v>
    <v>       0.66666669       0.16666667       0.33333334 </v>
    <v>       0.66666669       0.16666667       0.66666669 </v>
    <v>       0.66666669       0.50000000       0.00000000 </v>
    <v>       0.66666669       0.50000000       0.33333334 </v>
    <v>       0.66666669       0.50000000       0.66666669 </v>
    <v>       0.66666669       0.83333331       0.00000000 </v>
    <v>       0.66666669       0.83333331       0.33333334 </v>
    <v>       0.66666669       0.83333331       0.66666669 </v>
   </varray>
  </structure>
  <varray name="forces" >
   <v>      -0.00000000       0.00000000       0.00000000 </v>
   <v>       0.00000000       0.00000000      -0.00000000 </v>
   <v>      -0.00000000       0.00000000       0.00000000 </v>
   <v>      -0.00000000      -0.00000000      -0.00000000 </v>
   <v>       0.00000000      -0.00000000       0.00000000 </v>
   <v>       0.00000000      -0.00000000       0.00000000 </v>
   <v>       0.00000000       0.00000000      -0.00000000 </v>
   <v>      -0.00000000      -0.00000000       0.00000000 </v>
   <v>      -0.00000000       0.00000000       0.00000000 </v>
   <v>       0.00000000       0.00000000       0.00000000 </v>
   <v>      -0.00000000       0.00000000       0.00000000 </v>
   <v>       0.00000000       0.00000000      -0.00000000 </v>
   <v>      -0.00000000      -0.00000000       0.00000000 </v>
   <v>       0.00000000      -0.00000000      -0.00000000 </v>
   <v>      -0.00000000      -0.00000000      -0.00000000 </v>
   <v>      -0.00000000       0.00000000      -0.00000000 </v>
   <v>      -0.00000000       0.00000000      -0.00000000 </v>
   <v>      -0.00000000       0.00000000       0.00000000 </v>
   <v>       0.00000000       0.00000000      -0.00000000 </v>
   <v>      -0.00000000       0.00000000       0.00000000 </v>
   <v>      -0.00000000       0.00000000       0.00000000 </v>
   <v>      -0.00000000      -0.00000000       0.00000000 </v>
   <v>      -0.00000000      -0.00000000       0.00000000 </v>
   <v>       0.00000000      -0.00000000       0.00000000 </v>
   <v>      -0.00000000       0.00000000       0.00000000 </v>
   <v>      -0.00000000       0.00000000       0.00000000 </v>
   <v>      -0.00000000       0.00000000       0.00000000 </v>
   <v>      -0.00000000      -0.00000000      -0.00000000 </v>
   <v>       0.00000000      -0.00000000       0.00000000 </v>
   <v>      -0.00000000      -0.00000000       0.00000000 </v>
   <v>       0.00000000       0.00000000       0.00000000 </v>
   <v>      -0.00000000       0.00000000       0.00000000 </v>
   <v>       0.00000000      -0.00000000      -0.00000000 </v>
   <v>       0.00000000      -0.00000000       0.00000000 </v>
   <v>       0.00000000      -0.00000000       0.00000000 </v>
   <v>      -0.00000000      -0.00000000       0.00000000 </v>
   <v>       0.00000000      -0.00000000      -0.00000000 </v>
   <v>      -0.00000000      -0.00000000      -0.00000000 </v>
   <v>      -0.00000000      -0.00000000      -0.00000000 </v>
   <v>      -0.00000000       0.00000000      -0.00000000 </v>
   <v>       0.00000000       0.00000000       0.00000000 </v>
   <v>      -0.00000000       0.00000000       0.00000000 </v>
   <v>       0.00000000      -0.00000000       0.00000000 </v>
   <v>      -0.00000000       0.00000000      -0.00000000 </v>
   <v>       0.00000000       0.00000000      -0.00000000 </v>
   <v>       0.00000000      -0.00000000       0.00000000 </v>
   <v>      -0.00000000      -0.00000000      -0.00000000 </v>
   <v>       0.00000000      -0.00000000      -0.00000000 </v>
   <v>      -0.00000000       0.00000000      -0.00000000 </v>
   <v>       0.00000000      -0.00000000       0.00000000 </v>
   <v>      -0.00000000       0.00000000       0.00000000 </v>
   <v>      -0.00000000      -0.00000000       0.00000000 </v>
   <v>       0.00000000      -0.00000000       0.00000000 </v>
   <v>      -0.00000000      -0.00000000       0.00000000 </v>
   <v>      -0.00000000       0.00000000      -0.00000000 </v>
   <v>      -0.00000000       0.00000000       0.00000000 </v>
   <v>       0.00000000       0.00000000      -0.00000000 </v>
   <v>       0.00000000      -0.00000000      -0.00000000 </v>
   <v>       0.00000000      -0.00000000      -0.00000000 </v>
   <v>      -0.00000000       0.00000000       0.00000000 </v>
   <v>      -0.00000000       0.00000000      -0.00000000 </v>
   <v>       0.00000000      -0.00000000       0.00000000 </v>
   <v>       0.00000000       0.00000000      -0.00000000 </v>
   <v>       0.00000000       0.00000000      -0.00000000 </v>
   <v>       0.00000000       0.00000000       0.00000000 </v>
   <v>       0.00000000       0.00000000      -0.00000000 </v>
   <v>       0.00000000       0.00000000       0.00000000 </v>
   <v>       0.00000000      -0.00000000      -0.00000000 </v>
   <v>       0.00000000      -0.00000000       0.00000000 </v>
   <v>       0.00000000       0.00000000       0.00000000 </v>
   <v>      -0.00000000       0.00000000       0.00000000 </v>
   <v>      -0.00000000       0.00000000       0.00000000 </v>
   <v>       0.00000000      -0.00000000       0.00000000 </v>
   <v>      -0.00000000       0.00000000       0.00000000 </v>
   <v>      -0.00000000      -0.00000000       0.00000000 </v>
   <v>      -0.00000000      -0.00000000      -0.00000000 </v>
   <v>       0.00000000      -0.00000000       0.00000000 </v>
   <v>       0.00000000      -0.00000000      -0.00000000 </v>
   <v>       0.00000000       0.00000000       0.00000000 </v>
   <v>      -0.00000000       0.00000000      -0.00000000 </v>
   <v>       0.00000000       0.00000000       0.00000000 </v>
   <v>      -0.00000000      -0.00000000      -0.00000000 </v>
   <v>       0.00000000      -0.00000000      -0.00000000 </v>
   <v>      -0.00000000      -0.00000000       0.00000000 </v>
   <v>      -0.00000000      -0.00000000      -0.00000000 </v>
   <v>       0.00000000      -0.00000000      -0.00000000 </v>
   <v>       0.00000000       0.00000000       0.00000000 </v>
   <v>      -0.00000000      -0.00000000       0.00000000 </v>
   <v>      -0.00000000      -0.00000000       0.00000000 </v>
   <v>       0.00000000      -0.00000000      -0.00000000 </v>
   <v>      -0.00000000      -0.00000000      -0.00000000 </v>
   <v>      -0.00000000      -0.00000000       0.00000000 </v>
   <v>       0.00000000      -0.00000000       0.00000000 </v>
   <v>       0.00000000       0.00000000       0.00000000 </v>
   <v>       0.00000000       0.00000000       0.00000000 </v>
   <v>       0.00000000       0.00000000       0.00000000 </v>
   <v>       0.00000000      -0.00000000       0.00000000 </v>
   <v>       0.00000000      -0.00000000       0.00000000 </v>
   <v>      -0.00000000      -0.00000000       0.00000000 </v>
   <v>       0.00000000      -0.00000000       0.00000000 </v>
   <v>       0.00000000      -0.00000000       0.00000000 </v>
   <v>       0.00000000      -0.00000000      -0.00000000 </v>
   <v>       0.00000000       0.00000000       0.00000000 </v>
   <v>      -0.00000000       0.00000000       0.00000000 </v>
   <v>       0.00000000      -0.00000000       0.00000000 </v>
   <v>      -0.00000000      -0.00000000       0.00000000 </v>
   <v>       0.00000000      -0.00000000      -0.00000000 </v>
   <v>      -0.00000000      -0.00000000       0.00000000 </v>
   <v>       0.00000000       0.00000000      -0.00000000 </v>
   <v>      -0.00000000      -0.00000000      -0.00000000 </v>
   <v>       0.00000000       0.00000000      -0.00000000 </v>
   <v>       0.00000000       0.00000000       0.00000000 </v>
   <v>       0.00000000       0.00000000      -0.00000000 </v>
   <v>      -0.00000000       0.00000000      -0.00000000 </v>
   <v>       0.00000000      -0.00000000       0.00000000 </v>
   <v>      -0.00000000       0.00000000       0.00000000 </v>
   <v>      -0.00000000      -0.00000000      -0.00000000 </v>
   <v>       0.00000000       0.00000000       0.00000000 </v>
   <v>       0.00000000       0.00000000       0.00000000 </v>
   <v>       0.00000000       0.00000000      -0.00000000 </v>
   <v>      -0.00000000       0.00000000       0.00000000 </v>
   <v>       0.00000000      -0.00000000       0.00000000 </v>
   <v>       0.00000000       0.00000000      -0.00000000 </v>
   <v>       0.00000000      -0.00000000      -0.00000000 </v>
   <v>       0.00000000      -0.00000000       0.00000000 </v>
   <v>       0.00000000      -0.00000000      -0.00000000 </v>
   <v>      -0.00000000       0.00000000       0.00000000 </v>
   <v>       0.00000000       0.00000000       0.00000000 </v>
   <v>      -0.00000000       0.00000000       0.00000000 </v>
   <v>      -0.00000000       0.00000000       0.00000000 </v>
   <v>      -0.00000000       0.00000000      -0.00000000 </v>
   <v>       0.00000000      -0.00000000      -0.00000000 </v>
   <v>       0.00000000       0.00000000       0.00000000 </v>
   <v>      -0.00000000      -0.00000000       0.00000000 </v>
   <v>      -0.00000000      -0.00000000      -0.00000000 </v>
   <v>       0.00000000       0.00000000      -0.00000000 </v>
   <v>       0.00000000      -0.00000000      -0.00000000 </v>
   <v>       0.00000000       0.00000000      -0.00000000 </v>
   <v>       0.00000000      -0.00000000      -0.00000000 </v>
   <v>       0.00000000      -0.00000000       0.00000000 </v>
   <v>      -0.00000000      -0.00000000       0.00000000 </v>
   <v>      -0.00000000      -0.00000000       0.00000000 </v>
   <v>      -0.00000000      -0.00000000      -0.00000000 </v>
   <v>       0.00000000      -0.00000000       0.00000000 </v>
   <v>       0.00000000       0.00000000      -0.00000000 </v>
   <v>       0.00000000       0.00000000       0.00000000 </v>
   <v>      -0.00000000      -0.00000000       0.00000000 </v>
   <v>      -0.00000000       0.00000000       0.00000000 </v>
   <v>       0.00000000      -0.00000000      -0.00000000 </v>
   <v>       0.00000000      -0.00000000      -0.00000000 </v>
   <v>       0.00000000      -0.00000000      -0.00000000 </v>
   <v>       0.00000000      -0.00000000       0.00000000 </v>
   <v>       0.00000000       0.00000000      -0.00000000 </v>
   <v>       0.00000000      -0.00000000       0.00000000 </v>
   <v>       0.00000000       0.00000000      -0.00000000 </v>
   <v>       0.00000000       0.00000000      -0.00000000 </v>
   <v>      -0.00000000      -0.00000000      -0.00000000 </v>
   <v>      -0.00000000      -0.00000000      -0.00000000 </v>
   <v>       0.00000000      -0.00000000       0.00000000 </v>
   <v>       0.00000000       0.00000000      -0.00000000 </v>
   <v>       0.00000000      -0.00000000       0.00000000 </v>
   <v>       0.00000000      -0.00000000       0.00000000 </v>
   <v>      -0.00000000       0.00000000      -0.00000000 </v>
   <v>       0.00000000       0.00000000      -0.00000000 </v>
   <v>      -0.00000000       0.00000000       0.00000000 </v>
   <v>      -0.00000000       0.00000000       0.00000000 </v>
   <v>       0.00000000       0.00000000       0.00000000 </v>
   <v>       0.00000000      -0.00000000      -0.00000000 </v>
   <v>      -0.00000000      -0.00000000      -0.00000000 </v>
   <v>      -0.00000000      -0.00000000       0.00000000 </v>
   <v>      -0.00000000      -0.00000000       0.00000000 </v>
   <v>       0.00000000       0.00000000      -0.00000000 </v>
   <v>       0.00000000       0.00000000       0.00000000 </v>
   <v>       0.00000000       0.00000000      -0.00000000 </v>
   <v>       0.00000000       0.00000000      -0.00000000 </v>
   <v>      -0.00000000       0.00000000      -0.00000000 </v>
   <v>      -0.00000000       0.00000000       0.00000000 </v>
   <v>      -0.00000000      -0.00000000       0.00000000 </v>
   <v>      -0.00000000       0.00000000      -0.00000000 </v>
   <v>      -0.00000000      -0.00000000      -0.00000000 </v>
   <v>       0.00000000       0.00000000      -0.00000000 </v>
   <v>      -0.00000000       0.00000000       0.00000000 </v>
   <v>       0.00000000      -0.00000000       0.00000000 </v>
   <v>      -0.00000000       0.00000000       0.00000000 </v>
   <v>       0.00000000      -0.00000000      -0.00000000 </v>
   <v>      -0.00000000      -0.00000000      -0.00000000 </v>
   <v>      -0.00000000      -0.00000000      -0.00000000 </v>
   <v>      -0.00000000      -0.00000000       0.00000000 </v>
   <v>       0.00000000       0.00000000      -0.00000000 </v>
   <v>       0.00000000       0.00000000      -0.00000000 </v>
   <v>       0.00000000       0.00000000      -0.00000000 </v>
   <v>       0.00000000       0.00000000      -0.00000000 </v>
   <v>       0.00000000      -0.00000000       0.00000000 </v>
   <v>      -0.00000000      -0.00000000       0.00000000 </v>
   <v>       0.00000000       0.00000000      -0.00000000 </v>
   <v>      -0.00000000      -0.00000000       0.00000000 </v>
   <v>       0.00000000      -0.00000000       0.00000000 </v>
   <v>      -0.00000000      -0.00000000       0.00000000 </v>
   <v>       0.00000000       0.00000000      -0.00000000 </v>
   <v>       0.00000000       0.00000000      -0.00000000 </v>
   <v>      -0.00000000       0.00000000      -0.00000000 </v>
   <v>      -0.00000000       0.00000000       0.00000000 </v>
   <v>       0.00000000       0.00000000       0.00000000 </v>
   <v>       0.00000000      -0.00000000      -0.00000000 </v>
   <v>       0.00000000      -0.00000000       0.00000000 </v>
   <v>      -0.00000000      -0.00000000      -0.00000000 </v>
   <v>       0.00000000       0.00000000      -0.00000000 </v>
   <v>       0.00000000       0.00000000       0.00000000 </v>
   <v>      -0.00000000       0.00000000      -0.00000000 </v>
   <v>      -0.00000000       0.00000000       0.00000000 </v>
   <v>      -0.00000000      -0.00000000      -0.00000000 </v>
   <v>       0.00000000       0.00000000      -0.00000000 </v>
   <v>       0.00000000      -0.00000000       0.00000000 </v>
   <v>       0.00000000      -0.00000000       0.00000000 </v>
   <v>      -0.00000000      -0.00000000       0.00000000 </v>
   <v>       0.00000000      -0.00000000      -0.00000000 </v>
  </varray>
  <varray name="stress" >
   <v>    -392.96089698      -0.00000000      -0.00000000 </v>
   <v>      -0.00000000    -392.96089698       0.00000000 </v>
   <v>       0.00000000       0.00000000    -392.96089698 </v>
  </varray>
  <energy>
   <i name="e_fr_energy">  -1262.42247110 </i>
   <i name="e_wo_entrp">  -1261.82206123 </i>
   <i name="e_0_energy">  -1262.12226616 </i>
  </energy>
  <time name="totalsc">  462.05  465.51</time>
  <eigenvalues>
   <array>
    <dimension dim="1">band</dimension>
    <dimension dim="2">kpoint</dimension>
    <dimension dim="3">spin</dimension>
    <field>eigene</field>
    <field>occ</field>
    <set>
     <set comment="spin 1">
      <set comment="kpoint 1">
       <r>  -14.9584    1.0000 </r>
       <r>  -14.6055    1.0000 </r>
       <r>  -14.6055    1.0000 </r>
       <r>  -14.6055    1.0000 </r>
       <r>  -14.6055    1.0000 </r>
       <r>  -14.6055    1.0000 </r>
       <r>  -14.6055    1.0000 </r>
       <r>  -14.3017    1.0000 </r>
       <r>  -14.3017    1.0000 </r>
       <r>  -14.3017    1.0000 </r>
       <r>  -14.3017    1.0000 </r>
       <r>  -14.3017    1.0000 </r>
       <r>  -14.3017    1.0000 </r>
       <r>  -14.3017    1.0000 </r>
       <r>  -14.3017    1.0000 </r>
       <r>  -14.3017    1.0000 </r>
       <r>  -14.3016    1.0000 </r>
       <r>  -14.3016    1.0000 </r>
       <r>  -14.3016    1.0000 </r>
       <r>  -14.0579    1.0000 </r>
       <r>  -14.0579    1.0000 </r>
       <r>  -14.0579    1.0000 </r>
       <r>  -14.0579    1.0000 </r>
       <r>  -14.0579    1.0000 </r>
       <r>  -14.0579    1.0000 </r>
       <r>  -14.0579    1.0000 </r>
       <r>  -14.0579    1.0000 </r>
       <r>  -13.9309    1.0000 </r>
       <r>  -13.9309    1.0000 </r>
       <r>  -13.9309    1.0000 </r>
       <r>  -13.9309    1.0000 </r>
       <r>  -13.9309    1.0000 </r>
       <r>  -13.9309    1.0000 </r>
       <r>  -13.7656    1.0000 </r>
       <r>  -13.7656    1.0000 </r>
       <r>  -13.7656    1.0000 </r>
       <r>  -13.7656    1.0000 </r>
       <r>  -13.7656    1.0000 </r>
       <r>  -13.7656    1.0000 </r>
       <r>  -13.7656    1.0000 </r>
       <r>  -13.7656    1.0000 </r>
       <r>  -13.7656    1.0000 </r>
       <r>  -13.7656    1.0000 </r>
       <r>  -13.7656    1.0000 </r>
       <r>  -13.7656    1.0000 </r>
       <r>  -13.7656    1.0000 </r>
       <r>  -13.7656    1.0000 </r>
       <r>  -13.7656    1.0000 </r>
       <r>  -13.7656    1.0000 </r>
       <r>  -13.7656    1.0000 </r>
       <r>  -13.7656    1.0000 </r>
       <r>  -13.7656    1.0000 </r>
       <r>  -13.7656    1.0000 </r>
       <r>  -13.7656    1.0000 </r>
       <r>  -13.7656    1.0000 </r>
       <r>  -13.7656    1.0000 </r>
       <r>  -13.7656    1.0000 </r>
       <r>  -13.6884    1.0000 </r>
       <r>  -13.6884    1.0000 </r>
       <r>  -13.6884    1.0000 </r>
       <r>  -13.6884    1.0000 </r>
       <r>  -13.6884    1.0000 </r>
       <r>  -13.6884    1.0000 </r>
       <r>  -13.6884    1.0000 </r>
       <r>  -13.6884    1.0000 </r>
       <r>  -13.6884    1.0000 </r>
       <r>  -13.6884    1.0000 </r>
       <r>  -13.6884    1.0000 </r>
       <r>  -13.6884    1.0000 </r>
       <r>  -13.6884    1.0000 </r>
       <r>  -13.6884    1.0000 </r>
       <r>  -13.6884    1.0000 </r>
       <r>  -13.6884    1.0000 </r>
       <r>  -13.6884    1.0000 </r>
       <r>  -13.6884    1.0000 </r>
       <r>  -13.6884    1.0000 </r>
       <r>  -13.6884    1.0000 </r>
       <r>  -13.6884    1.0000 </r>
       <r>  -13.6884    1.0000 </r>
       <r>  -13.6884    1.0000 </r>
       <r>  -13.6884    1.0000 </r>
       <r>  -13.6299    1.0000 </r>
       <r>  -13.6299    1.0000 </r>
       <r>  -13.6299    1.0000 </r>
       <r>  -13.5749    1.0000 </r>
       <r>  -13.5749    1.0000 </r>
       <r>  -13.5749    1.0000 </r>
[...]
       <r>     2.2865     1.2766   863.3784 </r>
       <r>     2.3871     5.9616   863.9783 </r>
       <r>     2.4877     0.2156   864.0000 </r>
       <r>     2.5884     0.3164   864.0318 </r>
       <r>     2.6890    10.3362   865.0720 </r>
       <r>     2.7896    11.6523   866.2446 </r>
       <r>     2.8903    10.0687   867.2579 </r>
       <r>     2.9909     5.8821   867.8498 </r>
       <r>     3.0915    53.5672   873.2404 </r>
       <r>     3.1922    64.4857   879.7298 </r>
       <r>     3.2928    96.8754   889.4787 </r>
       <r>     3.3934   114.3654   900.9876 </r>
       <r>     3.4941    69.0465   907.9360 </r>
       <r>     3.5947   109.1846   918.9236 </r>
       <r>     3.6953    99.5801   928.9446 </r>
       <r>     3.7960   356.9429   964.8649 </r>
       <r>     3.8966   372.3596  1002.3365 </r>
       <r>     3.9972   278.7480  1030.3878 </r>
       <r>     4.0979   303.6166  1060.9417 </r>
       <r>     4.1985   558.3902  1117.1342 </r>
       <r>     4.2991   877.0043  1205.3898 </r>
       <r>     4.3998   818.9348  1287.8017 </r>
       <r>     4.5004   546.9463  1342.8425 </r>
       <r>     4.6010   750.5436  1418.3720 </r>
       <r>     4.7017  1442.5923  1563.5445 </r>
       <r>     4.8023   474.5798  1611.3029 </r>
       <r>     4.9029   235.4341  1634.9953 </r>
       <r>     5.0036   378.0570  1673.0403 </r>
       <r>     5.1042    60.0974  1679.0881 </r>
       <r>     5.2048   268.7285  1706.1311 </r>
       <r>     5.3055   424.7182  1748.8718 </r>
       <r>     5.4061   268.7436  1775.9163 </r>
       <r>     5.5067   158.8008  1791.8969 </r>
       <r>     5.6074   102.3107  1802.1927 </r>
       <r>     5.7080    44.1997  1806.6406 </r>
       <r>     5.8086    67.2182  1813.4050 </r>
       <r>     5.9093   307.5192  1844.3516 </r>
       <r>     6.0099   196.3751  1864.1134 </r>
       <r>     6.1105   155.2765  1879.7394 </r>
       <r>     6.2112   339.5043  1913.9047 </r>
       <r>     6.3118   112.1938  1925.1951 </r>
       <r>     6.4124    28.1774  1928.0307 </r>
       <r>     6.5131   108.9342  1938.9931 </r>
       <r>     6.6137    49.2185  1943.9461 </r>
       <r>     6.7143     1.2332  1944.0702 </r>
       <r>     6.8150     1.7576  1944.2471 </r>
       <r>     6.9156     0.0291  1944.2500 </r>
       <r>     7.0162     0.0000  1944.2500 </r>
       <r>     7.1169     0.0000  1944.2500 </r>
       <r>     7.2175     0.0000  1944.2500 </r>
       <r>     7.3181     0.0499  1944.2550 </r>
       <r>     7.4188     8.2022  1945.0804 </r>
       <r>     7.5194     6.6321  1945.7478 </r>
       <r>     7.6200     0.0214  1945.7500 </r>
       <r>     7.7207     0.0000  1945.7500 </r>
       <r>     7.8213     0.3078  1945.7810 </r>
       <r>     7.9219    20.6389  1947.8579 </r>
       <r>     8.0226     8.8537  1948.7489 </r>
       <r>     8.1232     0.0109  1948.7500 </r>
       <r>     8.2238     0.6327  1948.8137 </r>
       <r>     8.3245    16.0490  1950.4287 </r>
       <r>     8.4251     3.1913  1950.7499 </r>
       <r>     8.5257     0.0012  1950.7500 </r>
       <r>     8.6264     0.0000  1950.7500 </r>
       <r>     8.7270     0.0000  1950.7500 </r>
       <r>     8.8276     0.0000  1950.7500 </r>
       <r>     8.9283     0.5000  1950.8003 </r>
       <r>     9.0289    12.0953  1952.0175 </r>
       <r>     9.1295     2.4790  1952.2670 </r>
       <r>     9.2302    31.5658  1955.4435 </r>
       <r>     9.3308    28.3562  1958.2971 </r>
       <r>     9.4314    40.8257  1962.4055 </r>
       <r>     9.5321    18.3046  1964.2476 </r>
       <r>     9.6327     0.0241  1964.2500 </r>
       <r>     9.7333     0.0000  1964.2500 </r>
       <r>     9.8340     0.0000  1964.2500 </r>
       <r>     9.9346     0.1726  1964.2674 </r>
       <r>    10.0352    29.6714  1967.2533 </r>
       <r>    10.1359    58.1015  1973.1002 </r>
       <r>    10.2365     1.5889  1973.2601 </r>
       <r>    10.3371    11.9890  1974.4666 </r>
       <r>    10.4378     7.7668  1975.2482 </r>
       <r>    10.5384     1.0085  1975.3497 </r>
       <r>    10.6390    12.6271  1976.6204 </r>
       <r>    10.7397    23.7768  1979.0131 </r>
       <r>    10.8403    63.6620  1985.4196 </r>
       <r>    10.9409    42.5042  1989.6970 </r>
       <r>    11.0416    23.2201  1992.0337 </r>
       <r>    11.1422    43.9014  1996.4516 </r>
       <r>    11.2428   135.5363  2010.0910 </r>
       <r>    11.3435    93.9791  2019.5484 </r>
       <r>    11.4441     2.0597  2019.7557 </r>
       <r>    11.5447     9.2576  2020.6873 </r>
       <r>    11.6454    17.7542  2022.4740 </r>
       <r>    11.7460    12.2870  2023.7105 </r>
       <r>    11.8466    51.1205  2028.8549 </r>
       <r>    11.9473    78.2383  2036.7282 </r>
       <r>    12.0479   152.6429  2052.0892 </r>
       <r>    12.1485    49.4932  2057.0698 </r>
       <r>    12.2492    64.6214  2063.5729 </r>
       <r>    12.3498    23.6239  2065.9502 </r>
       <r>    12.4504    41.3883  2070.1152 </r>
       <r>    12.5511    18.3842  2071.9653 </r>
       <r>    12.6517     0.3449  2072.0000 </r>
       <r>    12.7523     0.0000  2072.0000 </r>
       <r>    12.8530     0.0000  2072.0000 </r>
       <r>    12.9536     0.0000  2072.0000 </r>
       <r>    13.0542     0.0000  2072.0000 </r>
       <r>    13.1549     0.0000  2072.0000 </r>
       <r>    13.2555     0.0000  2072.0000 </r>
       <r>    13.3561     0.0000  2072.0000 </r>
       <r>    13.4567     0.0000  2072.0000 </r>
       <r>    13.5574     0.0000  2072.0000 </r>
       <r>    13.6580     0.0000  2072.0000 </r>
       <r>    13.7586     0.0000  2072.0000 </r>
       <r>    13.8593     0.0000  2072.0000 </r>
      </set>
     </set>
    </array>
   </total>
  </dos>
 </calculation>
 <structure name="finalpos" >
  <crystal>
   <varray name="basis" >
    <v>      12.64985847       0.00000000       0.00000000 </v>
    <v>       0.00000000      12.64985847       0.00000000 </v>
    <v>       0.00000000       0.00000000      12.64985847 </v>
   </varray>
   <i name="volume">   2024.21668406 </i>
   <varray name="rec_basis" >
    <v>       0.07905227       0.00000000       0.00000000 </v>
    <v>       0.00000000       0.07905227       0.00000000 </v>
    <v>       0.00000000       0.00000000       0.07905227 </v>
   </varray>
  </crystal>
  <varray name="positions" >
   <v>       0.00000000       0.00000000       0.00000000 </v>
   <v>       0.00000000       0.00000000       0.33333334 </v>
   <v>       0.00000000       0.00000000       0.66666669 </v>
   <v>       0.00000000       0.33333334       0.00000000 </v>
   <v>       0.00000000       0.33333334       0.33333334 </v>
   <v>       0.00000000       0.33333334       0.66666669 </v>
   <v>       0.00000000       0.66666669       0.00000000 </v>
   <v>       0.00000000       0.66666669       0.33333334 </v>
   <v>       0.00000000       0.66666669       0.66666669 </v>
   <v>       0.33333334       0.00000000       0.00000000 </v>
   <v>       0.33333334       0.00000000       0.33333334 </v>
   <v>       0.33333334       0.00000000       0.66666669 </v>
   <v>       0.33333334       0.33333334       0.00000000 </v>
   <v>       0.33333334       0.33333334       0.33333334 </v>
   <v>       0.33333334       0.33333334       0.66666669 </v>
   <v>       0.33333334       0.66666669       0.00000000 </v>
   <v>       0.33333334       0.66666669       0.33333334 </v>
   <v>       0.33333334       0.66666669       0.66666669 </v>
   <v>       0.66666669       0.00000000       0.00000000 </v>
   <v>       0.66666669       0.00000000       0.33333334 </v>
   <v>       0.66666669       0.00000000       0.66666669 </v>
   <v>       0.66666669       0.33333334       0.00000000 </v>
   <v>       0.66666669       0.33333334       0.33333334 </v>
   <v>       0.66666669       0.33333334       0.66666669 </v>
   <v>       0.66666669       0.66666669       0.00000000 </v>
   <v>       0.66666669       0.66666669       0.33333334 </v>
   <v>       0.66666669       0.66666669       0.66666669 </v>
   <v>       0.00000000       0.16666667       0.16666667 </v>
   <v>       0.00000000       0.16666667       0.50000000 </v>
   <v>       0.00000000       0.16666667       0.83333331 </v>
   <v>       0.00000000       0.50000000       0.16666667 </v>
   <v>       0.00000000       0.50000000       0.50000000 </v>
   <v>       0.00000000       0.50000000       0.83333331 </v>
   <v>       0.00000000       0.83333331       0.16666667 </v>
   <v>       0.00000000       0.83333331       0.50000000 </v>
   <v>       0.00000000       0.83333331       0.83333331 </v>
   <v>       0.33333334       0.16666667       0.16666667 </v>
   <v>       0.33333334       0.16666667       0.50000000 </v>
   <v>       0.33333334       0.16666667       0.83333331 </v>
   <v>       0.33333334       0.50000000       0.16666667 </v>
   <v>       0.33333334       0.50000000       0.50000000 </v>
   <v>       0.33333334       0.50000000       0.83333331 </v>
   <v>       0.33333334       0.83333331       0.16666667 </v>
   <v>       0.33333334       0.83333331       0.50000000 </v>
   <v>       0.33333334       0.83333331       0.83333331 </v>
   <v>       0.66666669       0.16666667       0.16666667 </v>
   <v>       0.66666669       0.16666667       0.50000000 </v>
   <v>       0.66666669       0.16666667       0.83333331 </v>
   <v>       0.66666669       0.50000000       0.16666667 </v>
   <v>       0.66666669       0.50000000       0.50000000 </v>
   <v>       0.66666669       0.50000000       0.83333331 </v>
   <v>       0.66666669       0.83333331       0.16666667 </v>
   <v>       0.66666669       0.83333331       0.50000000 </v>
   <v>       0.66666669       0.83333331       0.83333331 </v>
   <v>       0.16666667       0.00000000       0.16666667 </v>
   <v>       0.16666667       0.00000000       0.50000000 </v>
   <v>       0.16666667       0.00000000       0.83333331 </v>
   <v>       0.16666667       0.33333334       0.16666667 </v>
   <v>       0.16666667       0.33333334       0.50000000 </v>
   <v>       0.16666667       0.33333334       0.83333331 </v>
   <v>       0.16666667       0.66666669       0.16666667 </v>
   <v>       0.16666667       0.66666669       0.50000000 </v>
   <v>       0.16666667       0.66666669       0.83333331 </v>
   <v>       0.50000000       0.00000000       0.16666667 </v>
   <v>       0.50000000       0.00000000       0.50000000 </v>
   <v>       0.50000000       0.00000000       0.83333331 </v>
   <v>       0.50000000       0.33333334       0.16666667 </v>
   <v>       0.50000000       0.33333334       0.50000000 </v>
   <v>       0.50000000       0.33333334       0.83333331 </v>
   <v>       0.50000000       0.66666669       0.16666667 </v>
   <v>       0.50000000       0.66666669       0.50000000 </v>
   <v>       0.50000000       0.66666669       0.83333331 </v>
   <v>       0.83333331       0.00000000       0.16666667 </v>
   <v>       0.83333331       0.00000000       0.50000000 </v>
   <v>       0.83333331       0.00000000       0.83333331 </v>
   <v>       0.83333331       0.33333334       0.16666667 </v>
   <v>       0.83333331       0.33333334       0.50000000 </v>
   <v>       0.83333331       0.33333334       0.83333331 </v>
   <v>       0.83333331       0.66666669       0.16666667 </v>
   <v>       0.83333331       0.66666669       0.50000000 </v>
   <v>       0.83333331       0.66666669       0.83333331 </v>
   <v>       0.16666667       0.16666667       0.00000000 </v>
   <v>       0.16666667       0.16666667       0.33333334 </v>
   <v>       0.16666667       0.16666667       0.66666669 </v>
   <v>       0.16666667       0.50000000       0.00000000 </v>
   <v>       0.16666667       0.50000000       0.33333334 </v>
   <v>       0.16666667       0.50000000       0.66666669 </v>
   <v>       0.16666667       0.83333331       0.00000000 </v>
   <v>       0.16666667       0.83333331       0.33333334 </v>
   <v>       0.16666667       0.83333331       0.66666669 </v>
   <v>       0.50000000       0.16666667       0.00000000 </v>
   <v>       0.50000000       0.16666667       0.33333334 </v>
   <v>       0.50000000       0.16666667       0.66666669 </v>
   <v>       0.50000000       0.50000000       0.00000000 </v>
   <v>       0.50000000       0.50000000       0.33333334 </v>
   <v>       0.50000000       0.50000000       0.66666669 </v>
   <v>       0.50000000       0.83333331       0.00000000 </v>
   <v>       0.50000000       0.83333331       0.33333334 </v>
   <v>       0.50000000       0.83333331       0.66666669 </v>
   <v>       0.83333331       0.16666667       0.00000000 </v>
   <v>       0.83333331       0.16666667       0.33333334 </v>
   <v>       0.83333331       0.16666667       0.66666669 </v>
   <v>       0.83333331       0.50000000       0.00000000 </v>
   <v>       0.83333331       0.50000000       0.33333334 </v>
   <v>       0.83333331       0.50000000       0.66666669 </v>
   <v>       0.83333331       0.83333331       0.00000000 </v>
   <v>       0.83333331       0.83333331       0.33333334 </v>
   <v>       0.83333331       0.83333331       0.66666669 </v>
   <v>       0.16666667       0.00000000       0.00000000 </v>
   <v>       0.16666667       0.00000000       0.33333334 </v>
   <v>       0.16666667       0.00000000       0.66666669 </v>
   <v>       0.16666667       0.33333334       0.00000000 </v>
   <v>       0.16666667       0.33333334       0.33333334 </v>
   <v>       0.16666667       0.33333334       0.66666669 </v>
   <v>       0.16666667       0.66666669       0.00000000 </v>
   <v>       0.16666667       0.66666669       0.33333334 </v>
   <v>       0.16666667       0.66666669       0.66666669 </v>
   <v>       0.50000000       0.00000000       0.00000000 </v>
   <v>       0.50000000       0.00000000       0.33333334 </v>
   <v>       0.50000000       0.00000000       0.66666669 </v>
   <v>       0.50000000       0.33333334       0.00000000 </v>
   <v>       0.50000000       0.33333334       0.33333334 </v>
   <v>       0.50000000       0.33333334       0.66666669 </v>
   <v>       0.50000000       0.66666669       0.00000000 </v>
   <v>       0.50000000       0.66666669       0.33333334 </v>
   <v>       0.50000000       0.66666669       0.66666669 </v>
   <v>       0.83333331       0.00000000       0.00000000 </v>
   <v>       0.83333331       0.00000000       0.33333334 </v>
   <v>       0.83333331       0.00000000       0.66666669 </v>
   <v>       0.83333331       0.33333334       0.00000000 </v>
   <v>       0.83333331       0.33333334       0.33333334 </v>
   <v>       0.83333331       0.33333334       0.66666669 </v>
   <v>       0.83333331       0.66666669       0.00000000 </v>
   <v>       0.83333331       0.66666669       0.33333334 </v>
   <v>       0.83333331       0.66666669       0.66666669 </v>
   <v>       0.16666667       0.16666667       0.16666667 </v>
   <v>       0.16666667       0.16666667       0.50000000 </v>
   <v>       0.16666667       0.16666667       0.83333331 </v>
   <v>       0.16666667       0.50000000       0.16666667 </v>
   <v>       0.16666667       0.50000000       0.50000000 </v>
   <v>       0.16666667       0.50000000       0.83333331 </v>
   <v>       0.16666667       0.83333331       0.16666667 </v>
   <v>       0.16666667       0.83333331       0.50000000 </v>
   <v>       0.16666667       0.83333331       0.83333331 </v>
   <v>       0.50000000       0.16666667       0.16666667 </v>
   <v>       0.50000000       0.16666667       0.50000000 </v>
   <v>       0.50000000       0.16666667       0.83333331 </v>
   <v>       0.50000000       0.50000000       0.16666667 </v>
   <v>       0.50000000       0.50000000       0.50000000 </v>
   <v>       0.50000000       0.50000000       0.83333331 </v>
   <v>       0.50000000       0.83333331       0.16666667 </v>
   <v>       0.50000000       0.83333331       0.50000000 </v>
   <v>       0.50000000       0.83333331       0.83333331 </v>
   <v>       0.83333331       0.16666667       0.16666667 </v>
   <v>       0.83333331       0.16666667       0.50000000 </v>
   <v>       0.83333331       0.16666667       0.83333331 </v>
   <v>       0.83333331       0.50000000       0.16666667 </v>
   <v>       0.83333331       0.50000000       0.50000000 </v>
   <v>       0.83333331       0.50000000       0.83333331 </v>
   <v>       0.83333331       0.83333331       0.16666667 </v>
   <v>       0.83333331       0.83333331       0.50000000 </v>
   <v>       0.83333331       0.83333331       0.83333331 </v>
   <v>       0.00000000       0.00000000       0.16666667 </v>
   <v>       0.00000000       0.00000000       0.50000000 </v>
   <v>       0.00000000       0.00000000       0.83333331 </v>
   <v>       0.00000000       0.33333334       0.16666667 </v>
   <v>       0.00000000       0.33333334       0.50000000 </v>
   <v>       0.00000000       0.33333334       0.83333331 </v>
   <v>       0.00000000       0.66666669       0.16666667 </v>
   <v>       0.00000000       0.66666669       0.50000000 </v>
   <v>       0.00000000       0.66666669       0.83333331 </v>
   <v>       0.33333334       0.00000000       0.16666667 </v>
   <v>       0.33333334       0.00000000       0.50000000 </v>
   <v>       0.33333334       0.00000000       0.83333331 </v>
   <v>       0.33333334       0.33333334       0.16666667 </v>
   <v>       0.33333334       0.33333334       0.50000000 </v>
   <v>       0.33333334       0.33333334       0.83333331 </v>
   <v>       0.33333334       0.66666669       0.16666667 </v>
   <v>       0.33333334       0.66666669       0.50000000 </v>
   <v>       0.33333334       0.66666669       0.83333331 </v>
   <v>       0.66666669       0.00000000       0.16666667 </v>
   <v>       0.66666669       0.00000000       0.50000000 </v>
   <v>       0.66666669       0.00000000       0.83333331 </v>
   <v>       0.66666669       0.33333334       0.16666667 </v>
   <v>       0.66666669       0.33333334       0.50000000 </v>
   <v>       0.66666669       0.33333334       0.83333331 </v>
   <v>       0.66666669       0.66666669       0.16666667 </v>
   <v>       0.66666669       0.66666669       0.50000000 </v>
   <v>       0.66666669       0.66666669       0.83333331 </v>
   <v>       0.00000000       0.16666667       0.00000000 </v>
   <v>       0.00000000       0.16666667       0.33333334 </v>
   <v>       0.00000000       0.16666667       0.66666669 </v>
   <v>       0.00000000       0.50000000       0.00000000 </v>
   <v>       0.00000000       0.50000000       0.33333334 </v>
   <v>       0.00000000       0.50000000       0.66666669 </v>
   <v>       0.00000000       0.83333331       0.00000000 </v>
   <v>       0.00000000       0.83333331       0.33333334 </v>
   <v>       0.00000000       0.83333331       0.66666669 </v>
   <v>       0.33333334       0.16666667       0.00000000 </v>
   <v>       0.33333334       0.16666667       0.33333334 </v>
   <v>       0.33333334       0.16666667       0.66666669 </v>
   <v>       0.33333334       0.50000000       0.00000000 </v>
   <v>       0.33333334       0.50000000       0.33333334 </v>
   <v>       0.33333334       0.50000000       0.66666669 </v>
   <v>       0.33333334       0.83333331       0.00000000 </v>
   <v>       0.33333334       0.83333331       0.33333334 </v>
   <v>       0.33333334       0.83333331       0.66666669 </v>
   <v>       0.66666669       0.16666667       0.00000000 </v>
   <v>       0.66666669       0.16666667       0.33333334 </v>
   <v>       0.66666669       0.16666667       0.66666669 </v>
   <v>       0.66666669       0.50000000       0.00000000 </v>
   <v>       0.66666669       0.50000000       0.33333334 </v>
   <v>       0.66666669       0.50000000       0.66666669 </v>
   <v>       0.66666669       0.83333331       0.00000000 </v>
   <v>       0.66666669       0.83333331       0.33333334 </v>
   <v>       0.66666669       0.83333331       0.66666669 </v>
  </varray>
 </structure>
</modeling>
