NiAl                                    
            1
    12.649858    0.000000    0.000000
     0.000000   12.649858    0.000000
     0.000000    0.000000   12.649858
   Ni   O 
   108   108
Direct configuration=     1
   0.00000000  0.00000000  0.00000000
   0.00000000  0.00000000  0.33333334
   0.00000000  0.00000000  0.66666669
   0.00000000  0.33333334  0.00000000
   0.00000000  0.33333334  0.33333334
   0.00000000  0.33333334  0.66666669
   0.00000000  0.66666669  0.00000000
   0.00000000  0.66666669  0.33333334
   0.00000000  0.66666669  0.66666669
   0.33333334  0.00000000  0.00000000
   0.33333334  0.00000000  0.33333334
   0.33333334  0.00000000  0.66666669
   0.33333334  0.33333334  0.00000000
   0.33333334  0.33333334  0.33333334
   0.33333334  0.33333334  0.66666669
   0.33333334  0.66666669  0.00000000
   0.33333334  0.66666669  0.33333334
   0.33333334  0.66666669  0.66666669
   0.66666669  0.00000000  0.00000000
   0.66666669  0.00000000  0.33333334
   0.66666669  0.00000000  0.66666669
   0.66666669  0.33333334  0.00000000
   0.66666669  0.33333334  0.33333334
   0.66666669  0.33333334  0.66666669
   0.66666669  0.66666669  0.00000000
   0.66666669  0.66666669  0.33333334
   0.66666669  0.66666669  0.66666669
   0.00000000  0.16666667  0.16666667
   0.00000000  0.16666667  0.50000000
   0.00000000  0.16666667  0.83333331
   0.00000000  0.50000000  0.16666667
   0.00000000  0.50000000  0.50000000
   0.00000000  0.50000000  0.83333331
   0.00000000  0.83333331  0.16666667
   0.00000000  0.83333331  0.50000000
   0.00000000  0.83333331  0.83333331
   0.33333334  0.16666667  0.16666667
   0.33333334  0.16666667  0.50000000
   0.33333334  0.16666667  0.83333331
   0.33333334  0.50000000  0.16666667
   0.33333334  0.50000000  0.50000000
   0.33333334  0.50000000  0.83333331
   0.33333334  0.83333331  0.16666667
   0.33333334  0.83333331  0.50000000
   0.33333334  0.83333331  0.83333331
   0.66666669  0.16666667  0.16666667
   0.66666669  0.16666667  0.50000000
   0.66666669  0.16666667  0.83333331
   0.66666669  0.50000000  0.16666667
   0.66666669  0.50000000  0.50000000
   0.66666669  0.50000000  0.83333331
   0.66666669  0.83333331  0.16666667
   0.66666669  0.83333331  0.50000000
   0.66666669  0.83333331  0.83333331
   0.16666667  0.00000000  0.16666667
   0.16666667  0.00000000  0.50000000
   0.16666667  0.00000000  0.83333331
   0.16666667  0.33333334  0.16666667
   0.16666667  0.33333334  0.50000000
   0.16666667  0.33333334  0.83333331
   0.16666667  0.66666669  0.16666667
   0.16666667  0.66666669  0.50000000
   0.16666667  0.66666669  0.83333331
   0.50000000  0.00000000  0.16666667
   0.50000000  0.00000000  0.50000000
   0.50000000  0.00000000  0.83333331
   0.50000000  0.33333334  0.16666667
   0.50000000  0.33333334  0.50000000
   0.50000000  0.33333334  0.83333331
   0.50000000  0.66666669  0.16666667
   0.50000000  0.66666669  0.50000000
   0.50000000  0.66666669  0.83333331
   0.83333331  0.00000000  0.16666667
   0.83333331  0.00000000  0.50000000
   0.83333331  0.00000000  0.83333331
   0.83333331  0.33333334  0.16666667
   0.83333331  0.33333334  0.50000000
   0.83333331  0.33333334  0.83333331
   0.83333331  0.66666669  0.16666667
   0.83333331  0.66666669  0.50000000
   0.83333331  0.66666669  0.83333331
   0.16666667  0.16666667  0.00000000
   0.16666667  0.16666667  0.33333334
   0.16666667  0.16666667  0.66666669
   0.16666667  0.50000000  0.00000000
   0.16666667  0.50000000  0.33333334
   0.16666667  0.50000000  0.66666669
   0.16666667  0.83333331  0.00000000
   0.16666667  0.83333331  0.33333334
   0.16666667  0.83333331  0.66666669
   0.50000000  0.16666667  0.00000000
   0.50000000  0.16666667  0.33333334
   0.50000000  0.16666667  0.66666669
   0.50000000  0.50000000  0.00000000
   0.50000000  0.50000000  0.33333334
   0.50000000  0.50000000  0.66666669
   0.50000000  0.83333331  0.00000000
   0.50000000  0.83333331  0.33333334
   0.50000000  0.83333331  0.66666669
   0.83333331  0.16666667  0.00000000
   0.83333331  0.16666667  0.33333334
   0.83333331  0.16666667  0.66666669
   0.83333331  0.50000000  0.00000000
   0.83333331  0.50000000  0.33333334
   0.83333331  0.50000000  0.66666669
   0.83333331  0.83333331  0.00000000
   0.83333331  0.83333331  0.33333334
   0.83333331  0.83333331  0.66666669
   0.16666667  0.00000000  0.00000000
   0.16666667  0.00000000  0.33333334
   0.16666667  0.00000000  0.66666669
   0.16666667  0.33333334  0.00000000
   0.16666667  0.33333334  0.33333334
   0.16666667  0.33333334  0.66666669
   0.16666667  0.66666669  0.00000000
   0.16666667  0.66666669  0.33333334
   0.16666667  0.66666669  0.66666669
   0.50000000  0.00000000  0.00000000
   0.50000000  0.00000000  0.33333334
   0.50000000  0.00000000  0.66666669
   0.50000000  0.33333334  0.00000000
   0.50000000  0.33333334  0.33333334
   0.50000000  0.33333334  0.66666669
   0.50000000  0.66666669  0.00000000
   0.50000000  0.66666669  0.33333334
   0.50000000  0.66666669  0.66666669
   0.83333331  0.00000000  0.00000000
   0.83333331  0.00000000  0.33333334
   0.83333331  0.00000000  0.66666669
   0.83333331  0.33333334  0.00000000
   0.83333331  0.33333334  0.33333334
   0.83333331  0.33333334  0.66666669
   0.83333331  0.66666669  0.00000000
   0.83333331  0.66666669  0.33333334
   0.83333331  0.66666669  0.66666669
   0.16666667  0.16666667  0.16666667
   0.16666667  0.16666667  0.50000000
   0.16666667  0.16666667  0.83333331
   0.16666667  0.50000000  0.16666667
   0.16666667  0.50000000  0.50000000
   0.16666667  0.50000000  0.83333331
   0.16666667  0.83333331  0.16666667
   0.16666667  0.83333331  0.50000000
   0.16666667  0.83333331  0.83333331
   0.50000000  0.16666667  0.16666667
   0.50000000  0.16666667  0.50000000
   0.50000000  0.16666667  0.83333331
   0.50000000  0.50000000  0.16666667
   0.50000000  0.50000000  0.50000000
   0.50000000  0.50000000  0.83333331
   0.50000000  0.83333331  0.16666667
   0.50000000  0.83333331  0.50000000
   0.50000000  0.83333331  0.83333331
   0.83333331  0.16666667  0.16666667
   0.83333331  0.16666667  0.50000000
   0.83333331  0.16666667  0.83333331
   0.83333331  0.50000000  0.16666667
   0.83333331  0.50000000  0.50000000
   0.83333331  0.50000000  0.83333331
   0.83333331  0.83333331  0.16666667
   0.83333331  0.83333331  0.50000000
   0.83333331  0.83333331  0.83333331
   0.00000000  0.00000000  0.16666667
   0.00000000  0.00000000  0.50000000
   0.00000000  0.00000000  0.83333331
   0.00000000  0.33333334  0.16666667
   0.00000000  0.33333334  0.50000000
   0.00000000  0.33333334  0.83333331
   0.00000000  0.66666669  0.16666667
   0.00000000  0.66666669  0.50000000
   0.00000000  0.66666669  0.83333331
   0.33333334  0.00000000  0.16666667
   0.33333334  0.00000000  0.50000000
   0.33333334  0.00000000  0.83333331
   0.33333334  0.33333334  0.16666667
   0.33333334  0.33333334  0.50000000
   0.33333334  0.33333334  0.83333331
   0.33333334  0.66666669  0.16666667
   0.33333334  0.66666669  0.50000000
   0.33333334  0.66666669  0.83333331
   0.66666669  0.00000000  0.16666667
   0.66666669  0.00000000  0.50000000
   0.66666669  0.00000000  0.83333331
   0.66666669  0.33333334  0.16666667
   0.66666669  0.33333334  0.50000000
   0.66666669  0.33333334  0.83333331
   0.66666669  0.66666669  0.16666667
   0.66666669  0.66666669  0.50000000
   0.66666669  0.66666669  0.83333331
   0.00000000  0.16666667  0.00000000
   0.00000000  0.16666667  0.33333334
   0.00000000  0.16666667  0.66666669
   0.00000000  0.50000000  0.00000000
   0.00000000  0.50000000  0.33333334
   0.00000000  0.50000000  0.66666669
   0.00000000  0.83333331  0.00000000
   0.00000000  0.83333331  0.33333334
   0.00000000  0.83333331  0.66666669
   0.33333334  0.16666667  0.00000000
   0.33333334  0.16666667  0.33333334
   0.33333334  0.16666667  0.66666669
   0.33333334  0.50000000  0.00000000
   0.33333334  0.50000000  0.33333334
   0.33333334  0.50000000  0.66666669
   0.33333334  0.83333331  0.00000000
   0.33333334  0.83333331  0.33333334
   0.33333334  0.83333331  0.66666669
   0.66666669  0.16666667  0.00000000
   0.66666669  0.16666667  0.33333334
   0.66666669  0.16666667  0.66666669
   0.66666669  0.50000000  0.00000000
   0.66666669  0.50000000  0.33333334
   0.66666669  0.50000000  0.66666669
   0.66666669  0.83333331  0.00000000
   0.66666669  0.83333331  0.33333334
   0.66666669  0.83333331  0.66666669
