   2   2   0   0
  0.1524313E+04  0.1450000E-08  0.1450000E-08  0.1450000E-08  0.5000000E-15
   1.0000000000000000E-004
  CAR 
 NiAl                                    
      2.11704748    -34.39566679  301     -5.70635000      1.00000000
    -34.396  0.0000E+00  0.0000E+00
    -34.274  0.0000E+00  0.0000E+00
    -34.152  0.0000E+00  0.0000E+00
    -34.031  0.0000E+00  0.0000E+00
    -33.909  0.0000E+00  0.0000E+00
    -33.787  0.0000E+00  0.0000E+00
    -33.665  0.0000E+00  0.0000E+00
    -33.544  0.0000E+00  0.0000E+00
    -33.422  0.0000E+00  0.0000E+00
    -33.300  0.0000E+00  0.0000E+00
    -33.179  0.0000E+00  0.0000E+00
    -33.057  0.0000E+00  0.0000E+00
    -32.935  0.1454E-06  0.1770E-07
    -32.813  0.2340E+00  0.2848E-01
    -32.692  0.1447E+02  0.1789E+01
    -32.570  0.1731E+01  0.2000E+01
    -32.448  0.2199E-04  0.2000E+01
    -32.327  0.0000E+00  0.2000E+01
    -32.205  0.0000E+00  0.2000E+01
    -32.083  0.0000E+00  0.2000E+01
    -31.961  0.0000E+00  0.2000E+01
    -31.840  0.0000E+00  0.2000E+01
    -31.718  0.0000E+00  0.2000E+01
    -31.596  0.0000E+00  0.2000E+01
    -31.475  0.0000E+00  0.2000E+01
    -31.353  0.0000E+00  0.2000E+01
    -31.231  0.0000E+00  0.2000E+01
    -31.110  0.0000E+00  0.2000E+01
    -30.988  0.0000E+00  0.2000E+01
    -30.866  0.0000E+00  0.2000E+01
    -30.744  0.0000E+00  0.2000E+01
    -30.623  0.0000E+00  0.2000E+01
    -30.501  0.0000E+00  0.2000E+01
    -30.379  0.0000E+00  0.2000E+01
    -30.258  0.0000E+00  0.2000E+01
    -30.136  0.0000E+00  0.2000E+01
    -30.014  0.0000E+00  0.2000E+01
    -29.892  0.0000E+00  0.2000E+01
    -29.771  0.0000E+00  0.2000E+01
    -29.649  0.0000E+00  0.2000E+01
    -29.527  0.0000E+00  0.2000E+01
    -29.406  0.0000E+00  0.2000E+01
    -29.284  0.0000E+00  0.2000E+01
    -29.162  0.0000E+00  0.2000E+01
    -29.040  0.0000E+00  0.2000E+01
    -28.919  0.0000E+00  0.2000E+01
    -28.797  0.0000E+00  0.2000E+01
    -28.675  0.0000E+00  0.2000E+01
    -28.554  0.0000E+00  0.2000E+01
    -28.432  0.0000E+00  0.2000E+01
    -28.310  0.0000E+00  0.2000E+01
    -28.189  0.0000E+00  0.2000E+01
    -28.067  0.0000E+00  0.2000E+01
    -27.945  0.0000E+00  0.2000E+01
    -27.823  0.0000E+00  0.2000E+01
    -27.702  0.0000E+00  0.2000E+01
    -27.580  0.0000E+00  0.2000E+01
    -27.458  0.0000E+00  0.2000E+01
    -27.337  0.0000E+00  0.2000E+01
    -27.215  0.0000E+00  0.2000E+01
    -27.093  0.0000E+00  0.2000E+01
    -26.971  0.0000E+00  0.2000E+01
    -26.850  0.0000E+00  0.2000E+01
    -26.728  0.0000E+00  0.2000E+01
    -26.606  0.0000E+00  0.2000E+01
    -26.485  0.0000E+00  0.2000E+01
    -26.363  0.0000E+00  0.2000E+01
    -26.241  0.0000E+00  0.2000E+01
    -26.119  0.0000E+00  0.2000E+01
    -25.998  0.0000E+00  0.2000E+01
    -25.876  0.0000E+00  0.2000E+01
    -25.754  0.0000E+00  0.2000E+01
    -25.633  0.0000E+00  0.2000E+01
    -25.511  0.0000E+00  0.2000E+01
    -25.389  0.0000E+00  0.2000E+01
    -25.267  0.0000E+00  0.2000E+01
    -25.146  0.0000E+00  0.2000E+01
    -25.024  0.0000E+00  0.2000E+01
    -24.902  0.0000E+00  0.2000E+01
    -24.781  0.0000E+00  0.2000E+01
    -24.659  0.0000E+00  0.2000E+01
    -24.537  0.0000E+00  0.2000E+01
    -24.416  0.0000E+00  0.2000E+01
    -24.294  0.0000E+00  0.2000E+01
    -24.172  0.0000E+00  0.2000E+01
    -24.050  0.0000E+00  0.2000E+01
    -23.929  0.0000E+00  0.2000E+01
    -23.807  0.0000E+00  0.2000E+01
    -23.685  0.0000E+00  0.2000E+01
    -23.564  0.0000E+00  0.2000E+01
    -23.442  0.0000E+00  0.2000E+01
    -23.320  0.0000E+00  0.2000E+01
    -23.198  0.0000E+00  0.2000E+01
    -23.077  0.0000E+00  0.2000E+01
    -22.955  0.0000E+00  0.2000E+01
    -22.833  0.0000E+00  0.2000E+01
    -22.712  0.0000E+00  0.2000E+01
    -22.590  0.0000E+00  0.2000E+01
    -22.468  0.0000E+00  0.2000E+01
    -22.346  0.0000E+00  0.2000E+01
    -22.225  0.0000E+00  0.2000E+01
    -22.103  0.0000E+00  0.2000E+01
    -21.981  0.0000E+00  0.2000E+01
    -21.860  0.0000E+00  0.2000E+01
    -21.738  0.0000E+00  0.2000E+01
    -21.616  0.0000E+00  0.2000E+01
    -21.495  0.0000E+00  0.2000E+01
    -21.373  0.0000E+00  0.2000E+01
    -21.251  0.0000E+00  0.2000E+01
    -21.129  0.0000E+00  0.2000E+01
    -21.008  0.0000E+00  0.2000E+01
    -20.886  0.0000E+00  0.2000E+01
    -20.764  0.0000E+00  0.2000E+01
    -20.643  0.0000E+00  0.2000E+01
    -20.521  0.0000E+00  0.2000E+01
    -20.399  0.0000E+00  0.2000E+01
    -20.277  0.0000E+00  0.2000E+01
    -20.156  0.0000E+00  0.2000E+01
    -20.034  0.2399E-12  0.2000E+01
    -19.912  0.2624E-03  0.2000E+01
    -19.791  0.3890E+01  0.2474E+01
    -19.669  0.1249E+02  0.3994E+01
    -19.547  0.5272E-01  0.4000E+01
    -19.425  0.5676E-08  0.4000E+01
    -19.304  0.0000E+00  0.4000E+01
    -19.182  0.0000E+00  0.4000E+01
    -19.060  0.0000E+00  0.4000E+01
    -18.939  0.0000E+00  0.4000E+01
    -18.817  0.0000E+00  0.4000E+01
    -18.695  0.0000E+00  0.4000E+01
    -18.573  0.0000E+00  0.4000E+01
    -18.452  0.0000E+00  0.4000E+01
    -18.330  0.0000E+00  0.4000E+01
    -18.208  0.0000E+00  0.4000E+01
    -18.087  0.0000E+00  0.4000E+01
    -17.965  0.0000E+00  0.4000E+01
    -17.843  0.0000E+00  0.4000E+01
    -17.722  0.0000E+00  0.4000E+01
    -17.600  0.0000E+00  0.4000E+01
    -17.478  0.0000E+00  0.4000E+01
    -17.356  0.0000E+00  0.4000E+01
    -17.235  0.0000E+00  0.4000E+01
    -17.113  0.0000E+00  0.4000E+01
    -16.991  0.0000E+00  0.4000E+01
    -16.870  0.0000E+00  0.4000E+01
    -16.748  0.0000E+00  0.4000E+01
    -16.626  0.0000E+00  0.4000E+01
    -16.504  0.0000E+00  0.4000E+01
    -16.383  0.0000E+00  0.4000E+01
    -16.261  0.0000E+00  0.4000E+01
    -16.139  0.0000E+00  0.4000E+01
    -16.018  0.0000E+00  0.4000E+01
    -15.896  0.0000E+00  0.4000E+01
    -15.774  0.0000E+00  0.4000E+01
    -15.652  0.0000E+00  0.4000E+01
    -15.531  0.0000E+00  0.4000E+01
    -15.409  0.0000E+00  0.4000E+01
    -15.287  0.0000E+00  0.4000E+01
    -15.166  0.0000E+00  0.4000E+01
    -15.044  0.0000E+00  0.4000E+01
    -14.922  0.0000E+00  0.4000E+01
    -14.801  0.0000E+00  0.4000E+01
    -14.679  0.0000E+00  0.4000E+01
    -14.557  0.0000E+00  0.4000E+01
    -14.435  0.0000E+00  0.4000E+01
    -14.314  0.0000E+00  0.4000E+01
    -14.192  0.0000E+00  0.4000E+01
    -14.070  0.0000E+00  0.4000E+01
    -13.949  0.0000E+00  0.4000E+01
    -13.827  0.0000E+00  0.4000E+01
    -13.705  0.0000E+00  0.4000E+01
    -13.583  0.0000E+00  0.4000E+01
    -13.462  0.0000E+00  0.4000E+01
    -13.340  0.8873E-08  0.4000E+01
    -13.218  0.6522E-01  0.4008E+01
    -13.097  0.1283E+02  0.5569E+01
    -12.975  0.3540E+01  0.6000E+01
    -12.853  0.1964E+01  0.6239E+01
    -12.731  0.2993E+02  0.9881E+01
    -12.610  0.9753E+00  0.1000E+02
    -12.488  0.1631E-05  0.1000E+02
    -12.366  0.0000E+00  0.1000E+02
    -12.245  0.0000E+00  0.1000E+02
    -12.123  0.0000E+00  0.1000E+02
    -12.001  0.0000E+00  0.1000E+02
    -11.879  0.0000E+00  0.1000E+02
    -11.758  0.0000E+00  0.1000E+02
    -11.636  0.0000E+00  0.1000E+02
    -11.514  0.0000E+00  0.1000E+02
    -11.393  0.0000E+00  0.1000E+02
    -11.271  0.0000E+00  0.1000E+02
    -11.149  0.0000E+00  0.1000E+02
    -11.028  0.0000E+00  0.1000E+02
    -10.906  0.0000E+00  0.1000E+02
    -10.784  0.0000E+00  0.1000E+02
    -10.662  0.0000E+00  0.1000E+02
    -10.541  0.0000E+00  0.1000E+02
    -10.419  0.0000E+00  0.1000E+02
    -10.297  0.0000E+00  0.1000E+02
    -10.176  0.0000E+00  0.1000E+02
    -10.054  0.0000E+00  0.1000E+02
     -9.932  0.0000E+00  0.1000E+02
     -9.810  0.0000E+00  0.1000E+02
     -9.689  0.0000E+00  0.1000E+02
     -9.567  0.0000E+00  0.1000E+02
     -9.445  0.0000E+00  0.1000E+02
     -9.324  0.0000E+00  0.1000E+02
     -9.202  0.0000E+00  0.1000E+02
     -9.080  0.0000E+00  0.1000E+02
     -8.958  0.0000E+00  0.1000E+02
     -8.837  0.0000E+00  0.1000E+02
     -8.715  0.0000E+00  0.1000E+02
     -8.593  0.0000E+00  0.1000E+02
     -8.472  0.0000E+00  0.1000E+02
     -8.350  0.0000E+00  0.1000E+02
     -8.228  0.0000E+00  0.1000E+02
     -8.107  0.0000E+00  0.1000E+02
     -7.985  0.0000E+00  0.1000E+02
     -7.863  0.0000E+00  0.1000E+02
     -7.741  0.0000E+00  0.1000E+02
     -7.620  0.0000E+00  0.1000E+02
     -7.498  0.0000E+00  0.1000E+02
     -7.376  0.0000E+00  0.1000E+02
     -7.255  0.0000E+00  0.1000E+02
     -7.133  0.0000E+00  0.1000E+02
     -7.011  0.0000E+00  0.1000E+02
     -6.889  0.0000E+00  0.1000E+02
     -6.768  0.0000E+00  0.1000E+02
     -6.646  0.0000E+00  0.1000E+02
     -6.524  0.0000E+00  0.1000E+02
     -6.403  0.0000E+00  0.1000E+02
     -6.281  0.0000E+00  0.1000E+02
     -6.159  0.0000E+00  0.1000E+02
     -6.037  0.0000E+00  0.1000E+02
     -5.916  0.5204E-07  0.1000E+02
     -5.794  0.2157E+00  0.1003E+02
     -5.672  0.2713E+02  0.1333E+02
     -5.551  0.5520E+01  0.1400E+02
     -5.429  0.1741E-03  0.1400E+02
     -5.307  0.6933E-13  0.1400E+02
     -5.185  0.0000E+00  0.1400E+02
     -5.064  0.0000E+00  0.1400E+02
     -4.942  0.0000E+00  0.1400E+02
     -4.820  0.0000E+00  0.1400E+02
     -4.699  0.0000E+00  0.1400E+02
     -4.577  0.0000E+00  0.1400E+02
     -4.455  0.0000E+00  0.1400E+02
     -4.334  0.0000E+00  0.1400E+02
     -4.212  0.0000E+00  0.1400E+02
     -4.090  0.0000E+00  0.1400E+02
     -3.968  0.0000E+00  0.1400E+02
     -3.847  0.0000E+00  0.1400E+02
     -3.725  0.0000E+00  0.1400E+02
     -3.603  0.0000E+00  0.1400E+02
     -3.482  0.0000E+00  0.1400E+02
     -3.360  0.0000E+00  0.1400E+02
     -3.238  0.0000E+00  0.1400E+02
     -3.116  0.0000E+00  0.1400E+02
     -2.995  0.0000E+00  0.1400E+02
     -2.873  0.0000E+00  0.1400E+02
     -2.751  0.0000E+00  0.1400E+02
     -2.630  0.0000E+00  0.1400E+02
     -2.508  0.0000E+00  0.1400E+02
     -2.386  0.0000E+00  0.1400E+02
     -2.264  0.0000E+00  0.1400E+02
     -2.143  0.0000E+00  0.1400E+02
     -2.021  0.0000E+00  0.1400E+02
     -1.899  0.0000E+00  0.1400E+02
     -1.778  0.0000E+00  0.1400E+02
     -1.656  0.0000E+00  0.1400E+02
     -1.534  0.0000E+00  0.1400E+02
     -1.413  0.0000E+00  0.1400E+02
     -1.291  0.0000E+00  0.1400E+02
     -1.169  0.0000E+00  0.1400E+02
     -1.047  0.0000E+00  0.1400E+02
     -0.926  0.0000E+00  0.1400E+02
     -0.804  0.0000E+00  0.1400E+02
     -0.682  0.0000E+00  0.1400E+02
     -0.561  0.0000E+00  0.1400E+02
     -0.439  0.5076E-06  0.1400E+02
     -0.317  0.4002E+00  0.1405E+02
     -0.195  0.1487E+02  0.1586E+02
     -0.074  0.1160E+01  0.1600E+02
      0.048  0.7340E-05  0.1600E+02
      0.170  0.5703E-05  0.1600E+02
      0.291  0.1055E+01  0.1613E+02
      0.413  0.1666E+02  0.1816E+02
      0.535  0.1492E+02  0.1997E+02
      0.657  0.2340E+00  0.2000E+02
      0.778  0.1454E-06  0.2000E+02
      0.900  0.0000E+00  0.2000E+02
      1.022  0.0000E+00  0.2000E+02
      1.143  0.0000E+00  0.2000E+02
      1.265  0.0000E+00  0.2000E+02
      1.387  0.0000E+00  0.2000E+02
      1.509  0.0000E+00  0.2000E+02
      1.630  0.0000E+00  0.2000E+02
      1.752  0.0000E+00  0.2000E+02
      1.874  0.0000E+00  0.2000E+02
      1.995  0.0000E+00  0.2000E+02
      2.117  0.0000E+00  0.2000E+02
