    2    2    1    1
  0.1524313E+04  0.1450000E-08  0.1450000E-08  0.1450000E-08  0.5000000E-15
   1.0000000000000000E-004
  CAR 
 NiAl                                    
     12      1     10
 
  0.1262379E-14  0.1262379E-14  0.1262379E-14  0.1000000E+01
    1      -32.735998   1.000000
    2      -19.765241   1.000000
    3      -13.124435   1.000000
    4      -12.798122   1.000000
    5      -12.798122   1.000000
    6       -5.706350   0.500000
    7       -5.706350   0.500000
    8       -0.247444   0.000000
    9        0.345172   0.000000
   10        0.457379   0.000000
