 vasp.6.2.1 16May21 (build Jun 16 2021 03:23:30) complex                         
 executed on             LinuxPGI date 2022.04.23  21:50:18
 running on    1 total cores
 distrk:  each k-point on    1 cores,    1 groups
 distr:  one band on NCORE=   1 cores,    1 groups


--------------------------------------------------------------------------------------------------------


 INCAR:
   SYSTEM = NiAl
   ISTART = 0
   EDIFF = 1E-7
   NELMIN = 6
   IVDW = 12
   LWAVE = .FALSE.
   LCHARG = .FALSE.
   LREAL = Auto
   NCORE = 1
   LPLANE = .TRUE.
   ENCUT = 360.00 eV
   ISMEAR = 0
   SIGMA = 0.05

 POTCAR:    PAW O_GW 19Mar2012                    
 POTCAR:    PAW O_GW 19Mar2012                    
   VRHFIN =O: s2p4                                                                                  
   LEXCH  = PE                                                                                      
   EATOM  =   432.3788 eV,   31.7789 Ry                                                             
                                                                                                    
   TITEL  = PAW O_GW 19Mar2012                                                                      
   LULTRA =        F    use ultrasoft PP ?                                                          
   IUNSCR =        1    unscreen: 0-lin 1-nonlin 2-no                                               
   RPACOR =    0.800    partial core radius                                                         
   POMASS =   16.000; ZVAL   =    6.000    mass and valenz                                          
   RCORE  =    1.600    outmost cutoff radius                                                       
   RWIGS  =    1.600; RWIGS  =    0.847    wigner-seitz radius (au A)                               
   ENMAX  =  434.431; ENMIN  =  325.824 eV                                                          
   ICORE  =        3    local potential                                                             
   LCOR   =        T    correct aug charges                                                         
   LPAW   =        T    paw PP                                                                      
   EAUG   = 1139.609                                                                                
   DEXC   =    0.000                                                                                
   RMAX   =    1.629    core radius for proj-oper                                                   
   RAUG   =    1.300    factor for augmentation sphere                                              
   RDEP   =    1.652    radius for radial grids                                                     
   RDEPT  =    1.200    core radius for aug-charge                                                  
                                                                                                    
   Atomic configuration                                                                             
    5 entries                                                                                       
     n  l   j            E        occ.                                                              
     1  0  0.50      -514.6923   2.0000                                                             
     2  0  0.50       -23.9615   2.0000                                                             
     2  1  0.50        -9.0305   4.0000                                                             
     3  2  1.50        -9.5241   0.0000                                                             
     4  3  2.50        -9.5241   0.0000                                                             
   Description                                                                                      
     l       E           TYP  RCUT    TYP  RCUT                                                     
     0    -23.9615316     23  1.150                                                                 
     0    -25.3221142     23  1.150                                                                 
     0    244.9048680     23  1.300                                                                 
     1     -9.0304908     23  1.500                                                                 
     1     -6.9258396     23  1.500                                                                 
     1    122.4524340     23  1.500                                                                 
     2     13.6058260     23  1.500                                                                 
     2    190.4815640     23  1.600                                                                 
     3     54.4233040     23  1.400                                                                 
  local pseudopotential read in
  partial core-charges read in
  partial kinetic energy density read in
  kinetic energy density of atom read in
  atomic valenz-charges read in
  non local Contribution for L=            0  read in
    real space projection operators read in
  non local Contribution for L=            0  read in
    real space projection operators read in
  non local Contribution for L=            0  read in
    real space projection operators read in
  non local Contribution for L=            1  read in
    real space projection operators read in
  non local Contribution for L=            1  read in
    real space projection operators read in
  non local Contribution for L=            1  read in
    real space projection operators read in
  non local Contribution for L=            2  read in
    real space projection operators read in
  non local Contribution for L=            2  read in
    real space projection operators read in
    PAW grid and wavefunctions read in
 
   number of l-projection  operators is LMAX  =            8
   number of lm-projection operators is LMMAX =           22
 
 -----------------------------------------------------------------------------
|                                                                             |
|               ----> ADVICE to this user running VASP <----                  |
|                                                                             |
|     You have a (more or less) 'small supercell' and for smaller cells       |
|     it is recommended to use the reciprocal-space projection scheme!        |
|     The real-space optimization is not efficient for small cells and it     |
|     is also less accurate ...                                               |
|     Therefore, set LREAL=.FALSE. in the INCAR file.                         |
|                                                                             |
 -----------------------------------------------------------------------------

 Optimization of the real space projectors (new method)

 maximal supplied QI-value         = 23.62
 optimisation between [QCUT,QGAM] = [  9.68, 19.37] = [ 26.27,105.06] Ry 
 Optimized for a Real-space Cutoff    2.14 Angstroem

   l    n(q)    QCUT    max X(q) W(low)/X(q) W(high)/X(q)  e(spline) 
   0     13     9.685   116.464    0.15E-03    0.15E-03    0.47E-05
   0     13     9.685   116.329    0.15E-03    0.15E-03    0.46E-05
   0     13     9.685     0.942    0.20E-04    0.50E-04    0.17E-05
   1     12     9.685    29.046    0.36E-03    0.11E-02    0.25E-04
   1     12     9.685    24.247    0.38E-03    0.11E-02    0.26E-04
   1     12     9.685     2.381    0.13E-03    0.38E-03    0.78E-05
   2     12     9.685     2.237    0.60E-05    0.28E-04    0.14E-05
   2     12     9.685     1.850    0.17E-04    0.70E-04    0.25E-05
  PAW O_GW 19Mar2012                    :
 energy of atom  1       EATOM= -432.3788
 kinetic energy error for atom=    0.3913 (will be added to EATOM!!)
 
 
 POSCAR: New structure
  positions in cartesian coordinates
  No initial velocities read in
 exchange correlation table for  LEXCH =        8
   RHO(1)=    0.500       N(1)  =     2000
   RHO(2)=  100.500       N(2)  =     4000

 VTST: version 4.1, (05/19/21)

 CHAIN: initializing optimizer
 
 OPT: Using VASP Dynamics algorithm
 CHAIN: Read ICHAIN             0
 
 POSCAR: New structure
  positions in cartesian coordinates
  No initial velocities read in
 


--------------------------------------------------------------------------------------------------------


 ion  position               nearest neighbor table
   1  0.000  0.000  0.000-   2 1.20
   2  0.083  0.000  0.000-   1 1.20
 
  LATTYP: Found a simple cubic cell.
 ALAT       =    14.5000000000
  
  Lattice vectors:
  
 A1 = (  14.5000000000,   0.0000000000,   0.0000000000)
 A2 = (   0.0000000000,  14.5000000000,   0.0000000000)
 A3 = (   0.0000000000,   0.0000000000,  14.5000000000)


Analysis of symmetry for initial positions (statically):
=====================================================================
 Subroutine PRICEL returns:
 Original cell was already a primitive cell.
 

 Routine SETGRP: Setting up the symmetry group for a 
 simple cubic supercell.


 Subroutine GETGRP returns: Found 16 space group operations
 (whereof  8 operations were pure point group operations)
 out of a pool of 48 trial point group operations.


The static configuration has the point symmetry C_4v.
 The point group associated with its full space group is D_4h.


Analysis of symmetry for dynamics (positions and initial velocities):
=====================================================================
 Subroutine PRICEL returns:
 Original cell was already a primitive cell.
 

 Routine SETGRP: Setting up the symmetry group for a 
 simple cubic supercell.


 Subroutine GETGRP returns: Found 16 space group operations
 (whereof  8 operations were pure point group operations)
 out of a pool of 48 trial point group operations.


The dynamic configuration has the point symmetry C_4v.
 The point group associated with its full space group is D_4h.


 Subroutine INISYM returns: Found 16 space group operations
 (whereof  8 operations are pure point group operations),
 and found     1 'primitive' translations


----------------------------------------------------------------------------------------

                                     Primitive cell                                     

  volume of cell :    3048.6250

  direct lattice vectors                    reciprocal lattice vectors
    14.500000000  0.000000000  0.000000000     0.068965517  0.000000000  0.000000000
     0.000000000 14.500000000  0.000000000     0.000000000  0.068965517  0.000000000
     0.000000000  0.000000000 14.500000000     0.000000000  0.000000000  0.068965517

  length of vectors
    14.500000000 14.500000000 14.500000000     0.068965517  0.068965517  0.068965517

  position of ions in fractional coordinates (direct lattice)
     0.000000000  0.000000000  0.000000000
     0.082758621  0.000000000  0.000000000

  ion indices of the primitive-cell ions
   primitive index   ion index
                 1           1
                 2           2

----------------------------------------------------------------------------------------

 
 
 KPOINTS: Automatic generation                    

Automatic generation of k-mesh.
 Grid dimensions read from file:
 generate k-points for:    1    1    1

 Generating k-lattice:

  Cartesian coordinates                     Fractional coordinates (reciprocal lattice)
     0.068965517  0.000000000  0.000000000     1.000000000  0.000000000  0.000000000
     0.000000000  0.068965517  0.000000000     0.000000000  1.000000000  0.000000000
     0.000000000  0.000000000  0.068965517     0.000000000  0.000000000  1.000000000

  Length of vectors
     0.068965517  0.068965517  0.068965517

  Shift w.r.t. Gamma in fractional coordinates (k-lattice)
     0.000000000  0.000000000  0.000000000

 
 Subroutine IBZKPT returns following result:
 ===========================================
 
 Found      1 irreducible k-points:
 
 Following reciprocal coordinates:
            Coordinates               Weight
  0.000000  0.000000  0.000000      1.000000
 
 Following cartesian coordinates:
            Coordinates               Weight
  0.000000  0.000000  0.000000      1.000000
 


--------------------------------------------------------------------------------------------------------




 Dimension of arrays:
   k-points           NKPTS =      1   k-points in BZ     NKDIM =      1   number of bands    NBANDS=     10
   number of dos      NEDOS =    301   number of ions     NIONS =      2
   non local maximal  LDIM  =      8   non local SUM 2l+1 LMDIM =     22
   total plane-waves  NPLWV = 343000
   max r-space proj   IRMAX =   4649   max aug-charges    IRDMAX=   1404
   dimension x,y,z NGX =    70 NGY =   70 NGZ =   70
   dimension x,y,z NGXF=   140 NGYF=  140 NGZF=  140
   support grid    NGXF=   140 NGYF=  140 NGZF=  140
   ions per type =               2
   NGX,Y,Z   is equivalent  to a cutoff of   8.03,  8.03,  8.03 a.u.
   NGXF,Y,Z  is equivalent  to a cutoff of  16.05, 16.05, 16.05 a.u.

 SYSTEM =  NiAl                                    
 POSCAR =  New structure                           

 Startparameter for this run:
   NWRITE =      2    write-flag & timer
   PREC   = normal    normal or accurate (medium, high low for compatibility)
   ISTART =      0    job   : 0-new  1-cont  2-samecut
   ICHARG =      2    charge: 1-file 2-atom 10-const
   ISPIN  =      1    spin polarized calculation?
   LNONCOLLINEAR =      F non collinear calculations
   LSORBIT =      F    spin-orbit coupling
   INIWAV =      1    electr: 0-lowe 1-rand  2-diag
   LASPH  =      F    aspherical Exc in radial PAW
 Electronic Relaxation 1
   ENCUT  =  360.0 eV  26.46 Ry    5.14 a.u.  22.43 22.43 22.43*2*pi/ulx,y,z
   ENINI  =  360.0     initial cutoff
   ENAUG  = 1139.6 eV  augmentation charge cutoff
   NELM   =     60;   NELMIN=  6; NELMDL= -5     # of ELM steps 
   EDIFF  = 0.1E-06   stopping-criterion for ELM
   LREAL  =      T    real-space projection
   NLSPLINE    = F    spline interpolate recip. space projectors
   LCOMPAT=      F    compatible to vasp.4.4
   GGA_COMPAT  = T    GGA compatible to vasp.4.4-vasp.4.6
   LMAXPAW     = -100 max onsite density
   LMAXMIX     =    2 max onsite mixed and CHGCAR
   VOSKOWN=      0    Vosko Wilk Nusair interpolation
   ROPT   =   -0.00050
 Ionic relaxation
   EDIFFG = 0.1E-05   stopping-criterion for IOM
   NSW    =      0    number of steps for IOM
   NBLOCK =      1;   KBLOCK =      1    inner block; outer block 
   IBRION =     -1    ionic relax: 0-MD 1-quasi-New 2-CG
   NFREE  =      0    steps in history (QN), initial steepest desc. (CG)
   ISIF   =      2    stress and relaxation
   IWAVPR =     10    prediction:  0-non 1-charg 2-wave 3-comb
   ISYM   =      2    0-nonsym 1-usesym 2-fastsym
   LCORR  =      T    Harris-Foulkes like correction to forces

   POTIM  = 0.5000    time-step for ionic-motion
   TEIN   =    0.0    initial temperature
   TEBEG  =    0.0;   TEEND  =   0.0 temperature during run
   SMASS  =  -3.00    Nose mass-parameter (am)
   estimated Nose-frequenzy (Omega)   =  0.10E-29 period in steps = 0.13E+47 mass=  -0.480E-26a.u.
   SCALEE = 1.0000    scale energy and forces
   NPACO  =    256;   APACO  = 16.0  distance and # of slots for P.C.
   PSTRESS=    0.0 pullay stress

  Mass of Ions in am
   POMASS =  16.00
  Ionic Valenz
   ZVAL   =   6.00
  Atomic Wigner-Seitz radii
   RWIGS  =  -1.00
  virtual crystal weights 
   VCA    =   1.00
   NELECT =      12.0000    total number of electrons
   NUPDOWN=      -1.0000    fix difference up-down

 DOS related values:
   EMIN   =  10.00;   EMAX   =-10.00  energy-range for DOS
   EFERMI =   0.00
   ISMEAR =     0;   SIGMA  =   0.05  broadening in eV -4-tet -1-fermi 0-gaus

 Electronic relaxation 2 (details)
   IALGO  =     38    algorithm
   LDIAG  =      T    sub-space diagonalisation (order eigenvalues)
   LSUBROT=      F    optimize rotation matrix (better conditioning)
   TURBO    =      0    0=normal 1=particle mesh
   IRESTART =      0    0=no restart 2=restart with 2 vectors
   NREBOOT  =      0    no. of reboots
   NMIN     =      0    reboot dimension
   EREF     =   0.00    reference energy to select bands
   IMIX   =      4    mixing-type and parameters
     AMIX     =   0.40;   BMIX     =  1.00
     AMIX_MAG =   1.60;   BMIX_MAG =  1.00
     AMIN     =   0.10
     WC   =   100.;   INIMIX=   1;  MIXPRE=   1;  MAXMIX= -45

 Intra band minimization:
   WEIMIN = 0.0000     energy-eigenvalue tresh-hold
   EBREAK =  0.25E-08  absolut break condition
   DEPER  =   0.30     relativ break condition  

   TIME   =   0.40     timestep for ELM

  volume/ion in A,a.u.               =    1524.31     10286.57
  Fermi-wavevector in a.u.,A,eV,Ry     =   0.258484  0.488464  0.909060  0.066814
  Thomas-Fermi vector in A             =   1.084104
 
 Write flags
   LWAVE        =      F    write WAVECAR
   LDOWNSAMPLE  =      F    k-point downsampling of WAVECAR
   LCHARG       =      F    write CHGCAR
   LVTOT        =      F    write LOCPOT, total local potential
   LVHAR        =      F    write LOCPOT, Hartree potential only
   LELF         =      F    write electronic localiz. function (ELF)
   LORBIT       =      0    0 simple, 1 ext, 2 COOP (PROOUT), +10 PAW based schemes


 Dipole corrections
   LMONO  =      F    monopole corrections only (constant potential shift)
   LDIPOL =      F    correct potential (dipole corrections)
   IDIPOL =      0    1-x, 2-y, 3-z, 4-all directions 
   EPSILON=  1.0000000 bulk dielectric constant

 Exchange correlation treatment:
   GGA     =    --    GGA type
   LEXCH   =     8    internal setting for exchange type
   VOSKOWN=      0    Vosko Wilk Nusair interpolation
   LHFCALC =     F    Hartree Fock is set to
   LHFONE  =     F    Hartree Fock one center treatment
   AEXX    =    0.0000 exact exchange contribution

 Linear response parameters
   LEPSILON=     F    determine dielectric tensor
   LRPA    =     F    only Hartree local field effects (RPA)
   LNABLA  =     F    use nabla operator in PAW spheres
   LVEL    =     F    velocity operator in full k-point grid
   LINTERFAST=   F  fast interpolation
   KINTER  =     0    interpolate to denser k-point grid
   CSHIFT  =0.1000    complex shift for real part using Kramers Kronig
   OMEGAMAX=  -1.0    maximum frequency
   DEG_THRESHOLD= 0.2000000E-02 threshold for treating states as degnerate
   RTIME   =   -0.100 relaxation time in fs
  (WPLASMAI=    0.000 imaginary part of plasma frequency in eV, 0.658/RTIME)
   DFIELD  = 0.0000000 0.0000000 0.0000000 field for delta impulse in time
 
 Orbital magnetization related:
   ORBITALMAG=     F  switch on orbital magnetization
   LCHIMAG   =     F  perturbation theory with respect to B field
   DQ        =  0.001000  dq finite difference perturbation B field
   LLRAUG    =     F  two centre corrections for induced B field



--------------------------------------------------------------------------------------------------------


 Static calculation
 charge density and potential will be updated during run
 non-spin polarized calculation
 Variant of blocked Davidson
 Davidson routine will perform the subspace rotation
 perform sub-space diagonalisation
    after iterative eigenvector-optimisation
 modified Broyden-mixing scheme, WC =      100.0
 initial mixing is a Kerker type mixing with AMIX =  0.4000 and BMIX =      1.0000
 Hartree-type preconditioning will be used
 using additional bands             4
 real space projection scheme for non local part
 use partial core corrections
 calculate Harris-corrections to forces 
   (improved forces if not selfconsistent)
 use gradient corrections 
 use of overlap-Matrix (Vanderbilt PP)
 Gauss-broadening in eV      SIGMA  =   0.05


--------------------------------------------------------------------------------------------------------


  energy-cutoff  :      360.00
  volume of cell :     3048.63
      direct lattice vectors                 reciprocal lattice vectors
    14.500000000  0.000000000  0.000000000     0.068965517  0.000000000  0.000000000
     0.000000000 14.500000000  0.000000000     0.000000000  0.068965517  0.000000000
     0.000000000  0.000000000 14.500000000     0.000000000  0.000000000  0.068965517

  length of vectors
    14.500000000 14.500000000 14.500000000     0.068965517  0.068965517  0.068965517


 
 k-points in units of 2pi/SCALE and weight: Automatic generation                    
   0.00000000  0.00000000  0.00000000       1.000
 
 k-points in reciprocal lattice and weights: Automatic generation                    
   0.00000000  0.00000000  0.00000000       1.000
 
 position of ions in fractional coordinates (direct lattice) 
   0.00000000  0.00000000  0.00000000
   0.08275862  0.00000000  0.00000000
 
 position of ions in cartesian coordinates  (Angst):
   0.00000000  0.00000000  0.00000000
   1.20000000  0.00000000  0.00000000
 


--------------------------------------------------------------------------------------------------------


 k-point   1 :   0.0000 0.0000 0.0000  plane waves:   47257

 maximum and minimum number of plane-waves per node :     47257    47257

 maximum number of plane-waves:     47257
 maximum index in each direction: 
   IXMAX=   22   IYMAX=   22   IZMAX=   22
   IXMIN=  -22   IYMIN=  -22   IZMIN=  -22


 serial   3D FFT for wavefunctions
 parallel 3D FFT for charge:
    minimum data exchange during FFTs selected (reduces bandwidth)


 total amount of memory used by VASP MPI-rank0   280963. kBytes
=======================================================================

   base      :      30000. kBytes
   nonlr-proj:       1885. kBytes
   fftplans  :      94700. kBytes
   grid      :     146764. kBytes
   one-center:         46. kBytes
   wavefun   :       7568. kBytes
 
     INWAV:  cpu time    0.0001: real time    0.0002
 Broyden mixing: mesh for mixing (old mesh)
   NGX = 45   NGY = 45   NGZ = 45
  (NGX  =140   NGY  =140   NGZ  =140)
  gives a total of  91125 points

 initial charge density was supplied:
 charge density of overlapping atoms calculated
 number of electron      12.0000000 magnetization 
 keeping initial charge density in first step


--------------------------------------------------------------------------------------------------------


 Maximum index for non-local projection operator          4469
 Maximum index for augmentation-charges          1189 (set IRDMAX)


--------------------------------------------------------------------------------------------------------


 First call to EWALD:  gamma=   0.122
 Maximum number of real-space cells 3x 3x 3
 Maximum number of reciprocal cells 3x 3x 3

    FEWALD:  cpu time    0.0005: real time    0.0005


--------------------------------------- Iteration      1(   1)  ---------------------------------------


    POTLOK:  cpu time    0.0439: real time    0.0585
    SETDIJ:  cpu time    0.0029: real time    0.0029
     EDDAV:  cpu time    0.0618: real time    0.0711
       DOS:  cpu time    0.0001: real time    0.0001
    --------------------------------------------
      LOOP:  cpu time    0.1087: real time    0.1326

 eigenvalue-minimisations  :    36
 total energy-change (2. order) : 0.7509976E+02  (-0.1967371E+03)
 number of electron      12.0000000 magnetization 
 augmentation part       12.0000000 magnetization 

 Free energy of the ion-electron system (eV)
  ---------------------------------------------------
  alpha Z        PSCENC =         0.08965302
  Ewald energy   TEWEN  =       229.63810935
  -Hartree energ DENC   =      -955.63363143
  -exchange      EXHF   =         0.00000000
  -V(xc)+E(xc)   XCENC  =        51.25226102
  PAW double counting   =       698.30301748     -696.69629178
  entropy T*S    EENTRO =        -0.00000025
  eigenvalues    EBANDS =      -115.82838008
  atomic energy  EATOM  =       863.97502114
  Solvation  Ediel_sol  =         0.00000000
  ---------------------------------------------------
  free energy    TOTEN  =        75.09975848 eV

  energy without entropy =       75.09975873  energy(sigma->0) =       75.09975861


--------------------------------------------------------------------------------------------------------




--------------------------------------- Iteration      1(   2)  ---------------------------------------


     EDDAV:  cpu time    0.0334: real time    0.0335
       DOS:  cpu time    0.0000: real time    0.0000
    --------------------------------------------
      LOOP:  cpu time    0.0334: real time    0.0336

 eigenvalue-minimisations  :    36
 total energy-change (2. order) :-0.6116595E+02  (-0.6110449E+02)
 number of electron      12.0000000 magnetization 
 augmentation part       12.0000000 magnetization 

 Free energy of the ion-electron system (eV)
  ---------------------------------------------------
  alpha Z        PSCENC =         0.08965302
  Ewald energy   TEWEN  =       229.63810935
  -Hartree energ DENC   =      -955.63363143
  -exchange      EXHF   =         0.00000000
  -V(xc)+E(xc)   XCENC  =        51.25226102
  PAW double counting   =       698.30301748     -696.69629178
  entropy T*S    EENTRO =        -0.00000000
  eigenvalues    EBANDS =      -176.99433459
  atomic energy  EATOM  =       863.97502114
  Solvation  Ediel_sol  =         0.00000000
  ---------------------------------------------------
  free energy    TOTEN  =        13.93380423 eV

  energy without entropy =       13.93380423  energy(sigma->0) =       13.93380423


--------------------------------------------------------------------------------------------------------




--------------------------------------- Iteration      1(   3)  ---------------------------------------


     EDDAV:  cpu time    0.0259: real time    0.0259
       DOS:  cpu time    0.0000: real time    0.0000
    --------------------------------------------
      LOOP:  cpu time    0.0260: real time    0.0260

 eigenvalue-minimisations  :    24
 total energy-change (2. order) :-0.1017681E+02  (-0.1017537E+02)
 number of electron      12.0000000 magnetization 
 augmentation part       12.0000000 magnetization 

 Free energy of the ion-electron system (eV)
  ---------------------------------------------------
  alpha Z        PSCENC =         0.08965302
  Ewald energy   TEWEN  =       229.63810935
  -Hartree energ DENC   =      -955.63363143
  -exchange      EXHF   =         0.00000000
  -V(xc)+E(xc)   XCENC  =        51.25226102
  PAW double counting   =       698.30301748     -696.69629178
  entropy T*S    EENTRO =        -0.00000000
  eigenvalues    EBANDS =      -187.17114560
  atomic energy  EATOM  =       863.97502114
  Solvation  Ediel_sol  =         0.00000000
  ---------------------------------------------------
  free energy    TOTEN  =         3.75699321 eV

  energy without entropy =        3.75699321  energy(sigma->0) =        3.75699321


--------------------------------------------------------------------------------------------------------




--------------------------------------- Iteration      1(   4)  ---------------------------------------


     EDDAV:  cpu time    0.0376: real time    0.0376
       DOS:  cpu time    0.0000: real time    0.0000
    --------------------------------------------
      LOOP:  cpu time    0.0376: real time    0.0376

 eigenvalue-minimisations  :    40
 total energy-change (2. order) :-0.1047252E+02  (-0.1043648E+02)
 number of electron      12.0000000 magnetization 
 augmentation part       12.0000000 magnetization 

 Free energy of the ion-electron system (eV)
  ---------------------------------------------------
  alpha Z        PSCENC =         0.08965302
  Ewald energy   TEWEN  =       229.63810935
  -Hartree energ DENC   =      -955.63363143
  -exchange      EXHF   =         0.00000000
  -V(xc)+E(xc)   XCENC  =        51.25226102
  PAW double counting   =       698.30301748     -696.69629178
  entropy T*S    EENTRO =        -0.00000000
  eigenvalues    EBANDS =      -197.64366562
  atomic energy  EATOM  =       863.97502114
  Solvation  Ediel_sol  =         0.00000000
  ---------------------------------------------------
  free energy    TOTEN  =        -6.71552680 eV

  energy without entropy =       -6.71552680  energy(sigma->0) =       -6.71552680


--------------------------------------------------------------------------------------------------------




--------------------------------------- Iteration      1(   5)  ---------------------------------------


     EDDAV:  cpu time    0.0313: real time    0.0313
       DOS:  cpu time    0.0000: real time    0.0000
    CHARGE:  cpu time    0.0789: real time    0.0887
    MIXING:  cpu time    0.0403: real time    0.0403
    --------------------------------------------
      LOOP:  cpu time    0.1506: real time    0.1604

 eigenvalue-minimisations  :    32
 total energy-change (2. order) :-0.1878779E+01  (-0.1843004E+01)
 number of electron      11.9999993 magnetization 
 augmentation part        1.0171656 magnetization 

 Broyden mixing:
  rms(total) = 0.42117E+01    rms(broyden)= 0.42107E+01
  rms(prec ) = 0.42136E+01
  weight for this iteration     100.00

 Free energy of the ion-electron system (eV)
  ---------------------------------------------------
  alpha Z        PSCENC =         0.08965302
  Ewald energy   TEWEN  =       229.63810935
  -Hartree energ DENC   =      -955.63363143
  -exchange      EXHF   =         0.00000000
  -V(xc)+E(xc)   XCENC  =        51.25226102
  PAW double counting   =       698.30301748     -696.69629178
  entropy T*S    EENTRO =        -0.05328644
  eigenvalues    EBANDS =      -199.46915827
  atomic energy  EATOM  =       863.97502114
  Solvation  Ediel_sol  =         0.00000000
  ---------------------------------------------------
  free energy    TOTEN  =        -8.59430590 eV

  energy without entropy =       -8.54101946  energy(sigma->0) =       -8.56766268


--------------------------------------------------------------------------------------------------------




--------------------------------------- Iteration      1(   6)  ---------------------------------------


    POTLOK:  cpu time    0.0344: real time    0.0344
    SETDIJ:  cpu time    0.0031: real time    0.0031
     EDDAV:  cpu time    0.0296: real time    0.0296
       DOS:  cpu time    0.0001: real time    0.0001
    CHARGE:  cpu time    0.0735: real time    0.0736
    MIXING:  cpu time    0.0422: real time    0.0433
    --------------------------------------------
      LOOP:  cpu time    0.1829: real time    0.1840

 eigenvalue-minimisations  :    30
 total energy-change (2. order) : 0.2012549E+00  (-0.6003680E-01)
 number of electron      11.9999993 magnetization 
 augmentation part        1.0019072 magnetization 

 Broyden mixing:
  rms(total) = 0.25900E+01    rms(broyden)= 0.25899E+01
  rms(prec ) = 0.25911E+01
  weight for this iteration     100.00

 eigenvalues of (default mixing * dielectric matrix)
  average eigenvalue GAMMA=   2.5914
  2.5914

 Free energy of the ion-electron system (eV)
  ---------------------------------------------------
  alpha Z        PSCENC =         0.08965302
  Ewald energy   TEWEN  =       229.63810935
  -Hartree energ DENC   =      -958.29803874
  -exchange      EXHF   =         0.00000000
  -V(xc)+E(xc)   XCENC  =        51.55861865
  PAW double counting   =      1169.55973008    -1168.05937744
  entropy T*S    EENTRO =        -0.05641322
  eigenvalues    EBANDS =      -196.80035384
  atomic energy  EATOM  =       863.97502114
  Solvation  Ediel_sol  =         0.00000000
  ---------------------------------------------------
  free energy    TOTEN  =        -8.39305100 eV

  energy without entropy =       -8.33663777  energy(sigma->0) =       -8.36484439


--------------------------------------------------------------------------------------------------------




--------------------------------------- Iteration      1(   7)  ---------------------------------------


    POTLOK:  cpu time    0.0345: real time    0.0345
    SETDIJ:  cpu time    0.0030: real time    0.0030
     EDDAV:  cpu time    0.0267: real time    0.0267
       DOS:  cpu time    0.0001: real time    0.0001
    CHARGE:  cpu time    0.0752: real time    0.0753
    MIXING:  cpu time    0.0426: real time    0.0433
    --------------------------------------------
      LOOP:  cpu time    0.1822: real time    0.1829

 eigenvalue-minimisations  :    24
 total energy-change (2. order) :-0.1256986E-01  (-0.3864024E-01)
 number of electron      11.9999992 magnetization 
 augmentation part        0.9872302 magnetization 

 Broyden mixing:
  rms(total) = 0.81959E-01    rms(broyden)= 0.81748E-01
  rms(prec ) = 0.86939E-01
  weight for this iteration     100.00

 eigenvalues of (default mixing * dielectric matrix)
  average eigenvalue GAMMA=   2.0672
  1.6149  2.5196

 Free energy of the ion-electron system (eV)
  ---------------------------------------------------
  alpha Z        PSCENC =         0.08965302
  Ewald energy   TEWEN  =       229.63810935
  -Hartree energ DENC   =      -961.90891182
  -exchange      EXHF   =         0.00000000
  -V(xc)+E(xc)   XCENC  =        51.90270118
  PAW double counting   =      2285.66005505    -2284.31084027
  entropy T*S    EENTRO =        -0.05641865
  eigenvalues    EBANDS =      -193.39498987
  atomic energy  EATOM  =       863.97502114
  Solvation  Ediel_sol  =         0.00000000
  ---------------------------------------------------
  free energy    TOTEN  =        -8.40562086 eV

  energy without entropy =       -8.34920221  energy(sigma->0) =       -8.37741154


--------------------------------------------------------------------------------------------------------




--------------------------------------- Iteration      1(   8)  ---------------------------------------


    POTLOK:  cpu time    0.0345: real time    0.0345
    SETDIJ:  cpu time    0.0030: real time    0.0030
     EDDAV:  cpu time    0.0225: real time    0.0225
       DOS:  cpu time    0.0001: real time    0.0001
    CHARGE:  cpu time    0.0738: real time    0.0739
    MIXING:  cpu time    0.0437: real time    0.0444
    --------------------------------------------
      LOOP:  cpu time    0.1776: real time    0.1783

 eigenvalue-minimisations  :    20
 total energy-change (2. order) : 0.6242115E-02  (-0.4829816E-02)
 number of electron      11.9999992 magnetization 
 augmentation part        0.9915589 magnetization 

 Broyden mixing:
  rms(total) = 0.35269E-01    rms(broyden)= 0.35257E-01
  rms(prec ) = 0.35536E-01
  weight for this iteration     100.00

 eigenvalues of (default mixing * dielectric matrix)
  average eigenvalue GAMMA=   2.1967
  2.8510  1.8696  1.8696

 Free energy of the ion-electron system (eV)
  ---------------------------------------------------
  alpha Z        PSCENC =         0.08965302
  Ewald energy   TEWEN  =       229.63810935
  -Hartree energ DENC   =      -961.15024691
  -exchange      EXHF   =         0.00000000
  -V(xc)+E(xc)   XCENC  =        51.82087955
  PAW double counting   =      2263.47536636    -2262.12116534
  entropy T*S    EENTRO =        -0.05641892
  eigenvalues    EBANDS =      -194.07057701
  atomic energy  EATOM  =       863.97502114
  Solvation  Ediel_sol  =         0.00000000
  ---------------------------------------------------
  free energy    TOTEN  =        -8.39937875 eV

  energy without entropy =       -8.34295983  energy(sigma->0) =       -8.37116929


--------------------------------------------------------------------------------------------------------




--------------------------------------- Iteration      1(   9)  ---------------------------------------


    POTLOK:  cpu time    0.0344: real time    0.0345
    SETDIJ:  cpu time    0.0029: real time    0.0029
     EDDAV:  cpu time    0.0267: real time    0.0267
       DOS:  cpu time    0.0001: real time    0.0001
    CHARGE:  cpu time    0.0733: real time    0.0733
    MIXING:  cpu time    0.0451: real time    0.0451
    --------------------------------------------
      LOOP:  cpu time    0.1824: real time    0.1825

 eigenvalue-minimisations  :    24
 total energy-change (2. order) :-0.3465707E-03  (-0.2232219E-03)
 number of electron      11.9999992 magnetization 
 augmentation part        0.9918906 magnetization 

 Broyden mixing:
  rms(total) = 0.17880E-01    rms(broyden)= 0.17878E-01
  rms(prec ) = 0.18118E-01
  weight for this iteration     100.00

 eigenvalues of (default mixing * dielectric matrix)
  average eigenvalue GAMMA=   1.7617
  2.5071  0.9310  1.8044  1.8044

 Free energy of the ion-electron system (eV)
  ---------------------------------------------------
  alpha Z        PSCENC =         0.08965302
  Ewald energy   TEWEN  =       229.63810935
  -Hartree energ DENC   =      -961.22251663
  -exchange      EXHF   =         0.00000000
  -V(xc)+E(xc)   XCENC  =        51.82317276
  PAW double counting   =      2275.58057265    -2274.23026729
  entropy T*S    EENTRO =        -0.05641896
  eigenvalues    EBANDS =      -193.99705137
  atomic energy  EATOM  =       863.97502114
  Solvation  Ediel_sol  =         0.00000000
  ---------------------------------------------------
  free energy    TOTEN  =        -8.39972532 eV

  energy without entropy =       -8.34330636  energy(sigma->0) =       -8.37151584


--------------------------------------------------------------------------------------------------------




--------------------------------------- Iteration      1(  10)  ---------------------------------------


    POTLOK:  cpu time    0.0346: real time    0.0346
    SETDIJ:  cpu time    0.0031: real time    0.0031
     EDDAV:  cpu time    0.0229: real time    0.0229
       DOS:  cpu time    0.0001: real time    0.0001
    CHARGE:  cpu time    0.0738: real time    0.0738
    MIXING:  cpu time    0.0477: real time    0.0478
    --------------------------------------------
      LOOP:  cpu time    0.1822: real time    0.1822

 eigenvalue-minimisations  :    20
 total energy-change (2. order) :-0.1410438E-03  (-0.6083266E-04)
 number of electron      11.9999992 magnetization 
 augmentation part        0.9924109 magnetization 

 Broyden mixing:
  rms(total) = 0.30379E-02    rms(broyden)= 0.30360E-02
  rms(prec ) = 0.32480E-02
  weight for this iteration     100.00

 eigenvalues of (default mixing * dielectric matrix)
  average eigenvalue GAMMA=   1.6746
  2.4782  1.9263  1.9263  1.1090  0.9331

 Free energy of the ion-electron system (eV)
  ---------------------------------------------------
  alpha Z        PSCENC =         0.08965302
  Ewald energy   TEWEN  =       229.63810935
  -Hartree energ DENC   =      -961.20632042
  -exchange      EXHF   =         0.00000000
  -V(xc)+E(xc)   XCENC  =        51.81709955
  PAW double counting   =      2263.85385137    -2262.50445286
  entropy T*S    EENTRO =        -0.05641896
  eigenvalues    EBANDS =      -194.00640856
  atomic energy  EATOM  =       863.97502114
  Solvation  Ediel_sol  =         0.00000000
  ---------------------------------------------------
  free energy    TOTEN  =        -8.39986636 eV

  energy without entropy =       -8.34344740  energy(sigma->0) =       -8.37165688


--------------------------------------------------------------------------------------------------------




--------------------------------------- Iteration      1(  11)  ---------------------------------------


    POTLOK:  cpu time    0.0352: real time    0.0352
    SETDIJ:  cpu time    0.0030: real time    0.0030
     EDDAV:  cpu time    0.0261: real time    0.0261
       DOS:  cpu time    0.0001: real time    0.0001
    CHARGE:  cpu time    0.0803: real time    0.0803
    MIXING:  cpu time    0.0490: real time    0.0490
    --------------------------------------------
      LOOP:  cpu time    0.1937: real time    0.1938

 eigenvalue-minimisations  :    24
 total energy-change (2. order) :-0.1131996E-03  (-0.8835180E-05)
 number of electron      11.9999992 magnetization 
 augmentation part        0.9923669 magnetization 

 Broyden mixing:
  rms(total) = 0.89421E-03    rms(broyden)= 0.89361E-03
  rms(prec ) = 0.12245E-02
  weight for this iteration     100.00

 eigenvalues of (default mixing * dielectric matrix)
  average eigenvalue GAMMA=   1.7265
  2.4865  2.4865  1.7351  1.7351  1.0310  0.8848

 Free energy of the ion-electron system (eV)
  ---------------------------------------------------
  alpha Z        PSCENC =         0.08965302
  Ewald energy   TEWEN  =       229.63810935
  -Hartree energ DENC   =      -961.25376579
  -exchange      EXHF   =         0.00000000
  -V(xc)+E(xc)   XCENC  =        51.81902241
  PAW double counting   =      2264.29542524    -2262.94691421
  entropy T*S    EENTRO =        -0.05641896
  eigenvalues    EBANDS =      -193.96011177
  atomic energy  EATOM  =       863.97502114
  Solvation  Ediel_sol  =         0.00000000
  ---------------------------------------------------
  free energy    TOTEN  =        -8.39997956 eV

  energy without entropy =       -8.34356060  energy(sigma->0) =       -8.37177008


--------------------------------------------------------------------------------------------------------




--------------------------------------- Iteration      1(  12)  ---------------------------------------


    POTLOK:  cpu time    0.0360: real time    0.0360
    SETDIJ:  cpu time    0.0031: real time    0.0031
     EDDAV:  cpu time    0.0239: real time    0.0239
       DOS:  cpu time    0.0001: real time    0.0001
    CHARGE:  cpu time    0.0803: real time    0.0803
    MIXING:  cpu time    0.0512: real time    0.0512
    --------------------------------------------
      LOOP:  cpu time    0.1945: real time    0.1946

 eigenvalue-minimisations  :    22
 total energy-change (2. order) :-0.1563265E-03  (-0.2439689E-05)
 number of electron      11.9999992 magnetization 
 augmentation part        0.9923887 magnetization 

 Broyden mixing:
  rms(total) = 0.62755E-03    rms(broyden)= 0.62723E-03
  rms(prec ) = 0.80135E-03
  weight for this iteration     100.00

 eigenvalues of (default mixing * dielectric matrix)
  average eigenvalue GAMMA=   1.7630
  3.0838  2.4644  1.9620  1.9620  1.0684  0.9716  0.8288

 Free energy of the ion-electron system (eV)
  ---------------------------------------------------
  alpha Z        PSCENC =         0.08965302
  Ewald energy   TEWEN  =       229.63810935
  -Hartree energ DENC   =      -961.30553229
  -exchange      EXHF   =         0.00000000
  -V(xc)+E(xc)   XCENC  =        51.81987921
  PAW double counting   =      2264.24969687    -2262.90149388
  entropy T*S    EENTRO =        -0.05641896
  eigenvalues    EBANDS =      -193.90905036
  atomic energy  EATOM  =       863.97502114
  Solvation  Ediel_sol  =         0.00000000
  ---------------------------------------------------
  free energy    TOTEN  =        -8.40013589 eV

  energy without entropy =       -8.34371693  energy(sigma->0) =       -8.37192641


--------------------------------------------------------------------------------------------------------




--------------------------------------- Iteration      1(  13)  ---------------------------------------


    POTLOK:  cpu time    0.0356: real time    0.0357
    SETDIJ:  cpu time    0.0031: real time    0.0031
     EDDAV:  cpu time    0.0240: real time    0.0240
       DOS:  cpu time    0.0001: real time    0.0001
    CHARGE:  cpu time    0.0802: real time    0.0802
    MIXING:  cpu time    0.0537: real time    0.0538
    --------------------------------------------
      LOOP:  cpu time    0.1967: real time    0.1967

 eigenvalue-minimisations  :    22
 total energy-change (2. order) :-0.9123670E-04  (-0.1170622E-05)
 number of electron      11.9999992 magnetization 
 augmentation part        0.9923451 magnetization 

 Broyden mixing:
  rms(total) = 0.33560E-03    rms(broyden)= 0.33550E-03
  rms(prec ) = 0.44618E-03
  weight for this iteration     100.00

 eigenvalues of (default mixing * dielectric matrix)
  average eigenvalue GAMMA=   1.9774
  4.1613  2.5588  2.2607  1.9963  1.9963  1.0112  1.0112  0.8231

 Free energy of the ion-electron system (eV)
  ---------------------------------------------------
  alpha Z        PSCENC =         0.08965302
  Ewald energy   TEWEN  =       229.63810935
  -Hartree energ DENC   =      -961.34097002
  -exchange      EXHF   =         0.00000000
  -V(xc)+E(xc)   XCENC  =        51.82083843
  PAW double counting   =      2264.20212190    -2262.85382806
  entropy T*S    EENTRO =        -0.05641896
  eigenvalues    EBANDS =      -193.87475392
  atomic energy  EATOM  =       863.97502114
  Solvation  Ediel_sol  =         0.00000000
  ---------------------------------------------------
  free energy    TOTEN  =        -8.40022712 eV

  energy without entropy =       -8.34380817  energy(sigma->0) =       -8.37201765


--------------------------------------------------------------------------------------------------------




--------------------------------------- Iteration      1(  14)  ---------------------------------------


    POTLOK:  cpu time    0.0357: real time    0.0358
    SETDIJ:  cpu time    0.0029: real time    0.0029
     EDDAV:  cpu time    0.0240: real time    0.0240
       DOS:  cpu time    0.0001: real time    0.0001
    CHARGE:  cpu time    0.0806: real time    0.0806
    MIXING:  cpu time    0.0565: real time    0.0565
    --------------------------------------------
      LOOP:  cpu time    0.1998: real time    0.1998

 eigenvalue-minimisations  :    22
 total energy-change (2. order) :-0.6506925E-04  (-0.5566573E-06)
 number of electron      11.9999992 magnetization 
 augmentation part        0.9923549 magnetization 

 Broyden mixing:
  rms(total) = 0.18592E-03    rms(broyden)= 0.18584E-03
  rms(prec ) = 0.23826E-03
  weight for this iteration     100.00

 eigenvalues of (default mixing * dielectric matrix)
  average eigenvalue GAMMA=   1.9430
  4.7669  2.5901  2.4487  1.9339  1.9339  1.0680  0.9618  0.9618  0.8218

 Free energy of the ion-electron system (eV)
  ---------------------------------------------------
  alpha Z        PSCENC =         0.08965302
  Ewald energy   TEWEN  =       229.63810935
  -Hartree energ DENC   =      -961.35502511
  -exchange      EXHF   =         0.00000000
  -V(xc)+E(xc)   XCENC  =        51.82067614
  PAW double counting   =      2264.13153585    -2262.78315962
  entropy T*S    EENTRO =        -0.05641896
  eigenvalues    EBANDS =      -193.86068401
  atomic energy  EATOM  =       863.97502114
  Solvation  Ediel_sol  =         0.00000000
  ---------------------------------------------------
  free energy    TOTEN  =        -8.40029219 eV

  energy without entropy =       -8.34387324  energy(sigma->0) =       -8.37208271


--------------------------------------------------------------------------------------------------------




--------------------------------------- Iteration      1(  15)  ---------------------------------------


    POTLOK:  cpu time    0.0366: real time    0.0366
    SETDIJ:  cpu time    0.0029: real time    0.0029
     EDDAV:  cpu time    0.0220: real time    0.0220
       DOS:  cpu time    0.0001: real time    0.0001
    CHARGE:  cpu time    0.0809: real time    0.0809
    MIXING:  cpu time    0.0588: real time    0.0588
    --------------------------------------------
      LOOP:  cpu time    0.2012: real time    0.2012

 eigenvalue-minimisations  :    20
 total energy-change (2. order) :-0.2150192E-04  (-0.1129967E-06)
 number of electron      11.9999992 magnetization 
 augmentation part        0.9923536 magnetization 

 Broyden mixing:
  rms(total) = 0.63573E-04    rms(broyden)= 0.63509E-04
  rms(prec ) = 0.12302E-03
  weight for this iteration     100.00

 eigenvalues of (default mixing * dielectric matrix)
  average eigenvalue GAMMA=   2.1041
  5.9596  3.0360  2.5013  1.9113  1.9113  1.8851  1.0841  0.9726  0.9726  0.8069

 Free energy of the ion-electron system (eV)
  ---------------------------------------------------
  alpha Z        PSCENC =         0.08965302
  Ewald energy   TEWEN  =       229.63810935
  -Hartree energ DENC   =      -961.35831140
  -exchange      EXHF   =         0.00000000
  -V(xc)+E(xc)   XCENC  =        51.82061219
  PAW double counting   =      2264.21869834    -2262.87027721
  entropy T*S    EENTRO =        -0.05641896
  eigenvalues    EBANDS =      -193.85740017
  atomic energy  EATOM  =       863.97502114
  Solvation  Ediel_sol  =         0.00000000
  ---------------------------------------------------
  free energy    TOTEN  =        -8.40031370 eV

  energy without entropy =       -8.34389474  energy(sigma->0) =       -8.37210422


--------------------------------------------------------------------------------------------------------




--------------------------------------- Iteration      1(  16)  ---------------------------------------


    POTLOK:  cpu time    0.0359: real time    0.0359
    SETDIJ:  cpu time    0.0029: real time    0.0029
     EDDAV:  cpu time    0.0220: real time    0.0220
       DOS:  cpu time    0.0001: real time    0.0001
    CHARGE:  cpu time    0.0819: real time    0.0819
    MIXING:  cpu time    0.0605: real time    0.0609
    --------------------------------------------
      LOOP:  cpu time    0.2033: real time    0.2038

 eigenvalue-minimisations  :    20
 total energy-change (2. order) :-0.2995928E-04  (-0.1153174E-06)
 number of electron      11.9999992 magnetization 
 augmentation part        0.9923538 magnetization 

 Broyden mixing:
  rms(total) = 0.62383E-04    rms(broyden)= 0.62317E-04
  rms(prec ) = 0.80382E-04
  weight for this iteration     100.00

 eigenvalues of (default mixing * dielectric matrix)
  average eigenvalue GAMMA=   2.1575
  6.6947  3.4671  2.4416  2.4416  1.9135  1.9135  1.0497  1.0497  0.9997  0.9632
  0.7979

 Free energy of the ion-electron system (eV)
  ---------------------------------------------------
  alpha Z        PSCENC =         0.08965302
  Ewald energy   TEWEN  =       229.63810935
  -Hartree energ DENC   =      -961.36011645
  -exchange      EXHF   =         0.00000000
  -V(xc)+E(xc)   XCENC  =        51.82050218
  PAW double counting   =      2264.19834393    -2262.84992388
  entropy T*S    EENTRO =        -0.05641896
  eigenvalues    EBANDS =      -193.85551398
  atomic energy  EATOM  =       863.97502114
  Solvation  Ediel_sol  =         0.00000000
  ---------------------------------------------------
  free energy    TOTEN  =        -8.40034365 eV

  energy without entropy =       -8.34392470  energy(sigma->0) =       -8.37213418


--------------------------------------------------------------------------------------------------------




--------------------------------------- Iteration      1(  17)  ---------------------------------------


    POTLOK:  cpu time    0.0362: real time    0.0362
    SETDIJ:  cpu time    0.0031: real time    0.0031
     EDDAV:  cpu time    0.0240: real time    0.0240
       DOS:  cpu time    0.0001: real time    0.0001
    CHARGE:  cpu time    0.0895: real time    0.0895
    MIXING:  cpu time    0.0723: real time    0.0723
    --------------------------------------------
      LOOP:  cpu time    0.2250: real time    0.2251

 eigenvalue-minimisations  :    22
 total energy-change (2. order) :-0.1133780E-04  (-0.3320498E-07)
 number of electron      11.9999992 magnetization 
 augmentation part        0.9923531 magnetization 

 Broyden mixing:
  rms(total) = 0.35132E-04    rms(broyden)= 0.35102E-04
  rms(prec ) = 0.44488E-04
  weight for this iteration     100.00

 eigenvalues of (default mixing * dielectric matrix)
  average eigenvalue GAMMA=   2.2996
  7.6552  4.2938  2.5909  2.3232  2.3232  1.8207  1.8207  1.0256  1.0303  1.0303
  0.8963  0.7845

 Free energy of the ion-electron system (eV)
  ---------------------------------------------------
  alpha Z        PSCENC =         0.08965302
  Ewald energy   TEWEN  =       229.63810935
  -Hartree energ DENC   =      -961.35959432
  -exchange      EXHF   =         0.00000000
  -V(xc)+E(xc)   XCENC  =        51.82046415
  PAW double counting   =      2264.18918755    -2262.84078754
  entropy T*S    EENTRO =        -0.05641896
  eigenvalues    EBANDS =      -193.85598938
  atomic energy  EATOM  =       863.97502114
  Solvation  Ediel_sol  =         0.00000000
  ---------------------------------------------------
  free energy    TOTEN  =        -8.40035499 eV

  energy without entropy =       -8.34393603  energy(sigma->0) =       -8.37214551


--------------------------------------------------------------------------------------------------------




--------------------------------------- Iteration      1(  18)  ---------------------------------------


    POTLOK:  cpu time    0.0402: real time    0.0402
    SETDIJ:  cpu time    0.0031: real time    0.0031
     EDDAV:  cpu time    0.0220: real time    0.0220
       DOS:  cpu time    0.0001: real time    0.0001
    CHARGE:  cpu time    0.0826: real time    0.0826
    MIXING:  cpu time    0.0678: real time    0.0678
    --------------------------------------------
      LOOP:  cpu time    0.2157: real time    0.2157

 eigenvalue-minimisations  :    20
 total energy-change (2. order) :-0.7049124E-05  (-0.1452452E-07)
 number of electron      11.9999992 magnetization 
 augmentation part        0.9923524 magnetization 

 Broyden mixing:
  rms(total) = 0.21564E-04    rms(broyden)= 0.21547E-04
  rms(prec ) = 0.25386E-04
  weight for this iteration     100.00

 eigenvalues of (default mixing * dielectric matrix)
  average eigenvalue GAMMA=   2.3355
  8.3374  4.7251  2.8687  2.4919  1.9133  1.9133  1.8714  1.3641  1.0904  1.0904
  0.9824  0.9251  0.7883

 Free energy of the ion-electron system (eV)
  ---------------------------------------------------
  alpha Z        PSCENC =         0.08965302
  Ewald energy   TEWEN  =       229.63810935
  -Hartree energ DENC   =      -961.35898696
  -exchange      EXHF   =         0.00000000
  -V(xc)+E(xc)   XCENC  =        51.82044615
  PAW double counting   =      2264.18904861    -2262.84065450
  entropy T*S    EENTRO =        -0.05641896
  eigenvalues    EBANDS =      -193.85657989
  atomic energy  EATOM  =       863.97502114
  Solvation  Ediel_sol  =         0.00000000
  ---------------------------------------------------
  free energy    TOTEN  =        -8.40036204 eV

  energy without entropy =       -8.34394308  energy(sigma->0) =       -8.37215256


--------------------------------------------------------------------------------------------------------




--------------------------------------- Iteration      1(  19)  ---------------------------------------


    POTLOK:  cpu time    0.0358: real time    0.0358
    SETDIJ:  cpu time    0.0031: real time    0.0031
     EDDAV:  cpu time    0.0261: real time    0.0261
       DOS:  cpu time    0.0001: real time    0.0001
    CHARGE:  cpu time    0.0799: real time    0.0799
    MIXING:  cpu time    0.0733: real time    0.0733
    --------------------------------------------
      LOOP:  cpu time    0.2182: real time    0.2183

 eigenvalue-minimisations  :    24
 total energy-change (2. order) :-0.1640695E-05  (-0.2833919E-08)
 number of electron      11.9999992 magnetization 
 augmentation part        0.9923533 magnetization 

 Broyden mixing:
  rms(total) = 0.20788E-04    rms(broyden)= 0.20785E-04
  rms(prec ) = 0.22251E-04
  weight for this iteration     100.00

 eigenvalues of (default mixing * dielectric matrix)
  average eigenvalue GAMMA=   2.3945
  8.7727  5.1362  3.2368  2.5363  2.2995  2.0233  2.0233  1.6354  1.1607  1.0302
  1.0302  0.9566  0.8992  0.7834

 Free energy of the ion-electron system (eV)
  ---------------------------------------------------
  alpha Z        PSCENC =         0.08965302
  Ewald energy   TEWEN  =       229.63810935
  -Hartree energ DENC   =      -961.35913645
  -exchange      EXHF   =         0.00000000
  -V(xc)+E(xc)   XCENC  =        51.82044547
  PAW double counting   =      2264.18757143    -2262.83917301
  entropy T*S    EENTRO =        -0.05641896
  eigenvalues    EBANDS =      -193.85643569
  atomic energy  EATOM  =       863.97502114
  Solvation  Ediel_sol  =         0.00000000
  ---------------------------------------------------
  free energy    TOTEN  =        -8.40036368 eV

  energy without entropy =       -8.34394472  energy(sigma->0) =       -8.37215420


--------------------------------------------------------------------------------------------------------




--------------------------------------- Iteration      1(  20)  ---------------------------------------


    POTLOK:  cpu time    0.0359: real time    0.0359
    SETDIJ:  cpu time    0.0031: real time    0.0031
     EDDAV:  cpu time    0.0240: real time    0.0240
       DOS:  cpu time    0.0001: real time    0.0001
    CHARGE:  cpu time    0.0805: real time    0.0805
    MIXING:  cpu time    0.0744: real time    0.0744
    --------------------------------------------
      LOOP:  cpu time    0.2180: real time    0.2180

 eigenvalue-minimisations  :    22
 total energy-change (2. order) :-0.7000078E-06  (-0.9462822E-09)
 number of electron      11.9999992 magnetization 
 augmentation part        0.9923535 magnetization 

 Broyden mixing:
  rms(total) = 0.13287E-04    rms(broyden)= 0.13284E-04
  rms(prec ) = 0.13883E-04
  weight for this iteration     100.00

 eigenvalues of (default mixing * dielectric matrix)
  average eigenvalue GAMMA=   2.4387
  9.1616  5.4194  3.7767  2.7744  2.4957  1.9133  1.9133  1.6868  1.6868  1.0629
  1.0316  1.0316  0.9564  0.8873  0.7829

 Free energy of the ion-electron system (eV)
  ---------------------------------------------------
  alpha Z        PSCENC =         0.08965302
  Ewald energy   TEWEN  =       229.63810935
  -Hartree energ DENC   =      -961.35920280
  -exchange      EXHF   =         0.00000000
  -V(xc)+E(xc)   XCENC  =        51.82044527
  PAW double counting   =      2264.19128444    -2262.84288381
  entropy T*S    EENTRO =        -0.05641896
  eigenvalues    EBANDS =      -193.85637204
  atomic energy  EATOM  =       863.97502114
  Solvation  Ediel_sol  =         0.00000000
  ---------------------------------------------------
  free energy    TOTEN  =        -8.40036438 eV

  energy without entropy =       -8.34394542  energy(sigma->0) =       -8.37215490


--------------------------------------------------------------------------------------------------------




--------------------------------------- Iteration      1(  21)  ---------------------------------------


    POTLOK:  cpu time    0.0358: real time    0.0358
    SETDIJ:  cpu time    0.0030: real time    0.0030
     EDDAV:  cpu time    0.0262: real time    0.0262
       DOS:  cpu time    0.0001: real time    0.0001
    CHARGE:  cpu time    0.0789: real time    0.0789
    MIXING:  cpu time    0.0772: real time    0.0772
    --------------------------------------------
      LOOP:  cpu time    0.2211: real time    0.2212

 eigenvalue-minimisations  :    24
 total energy-change (2. order) :-0.1461071E-06  (-0.1868878E-09)
 number of electron      11.9999992 magnetization 
 augmentation part        0.9923542 magnetization 

 Broyden mixing:
  rms(total) = 0.69255E-05    rms(broyden)= 0.69241E-05
  rms(prec ) = 0.74016E-05
  weight for this iteration     100.00

 eigenvalues of (default mixing * dielectric matrix)
  average eigenvalue GAMMA=   2.4577
  9.1656  5.7889  4.1190  3.0124  2.5148  2.2146  2.2146  1.9455  1.3379  1.3379
  1.0442  0.9876  0.9896  0.9896  0.7818  0.8797

 Free energy of the ion-electron system (eV)
  ---------------------------------------------------
  alpha Z        PSCENC =         0.08965302
  Ewald energy   TEWEN  =       229.63810935
  -Hartree energ DENC   =      -961.35903920
  -exchange      EXHF   =         0.00000000
  -V(xc)+E(xc)   XCENC  =        51.82043608
  PAW double counting   =      2264.19228063    -2262.84387994
  entropy T*S    EENTRO =        -0.05641896
  eigenvalues    EBANDS =      -193.85652666
  atomic energy  EATOM  =       863.97502114
  Solvation  Ediel_sol  =         0.00000000
  ---------------------------------------------------
  free energy    TOTEN  =        -8.40036453 eV

  energy without entropy =       -8.34394557  energy(sigma->0) =       -8.37215505


--------------------------------------------------------------------------------------------------------




--------------------------------------- Iteration      1(  22)  ---------------------------------------


    POTLOK:  cpu time    0.0361: real time    0.0361
    SETDIJ:  cpu time    0.0031: real time    0.0031
     EDDAV:  cpu time    0.0241: real time    0.0241
       DOS:  cpu time    0.0001: real time    0.0001
    CHARGE:  cpu time    0.0805: real time    0.0806
    MIXING:  cpu time    0.0838: real time    0.0839
    --------------------------------------------
      LOOP:  cpu time    0.2277: real time    0.2278

 eigenvalue-minimisations  :    22
 total energy-change (2. order) :-0.1073627E-06  (-0.6316991E-10)
 number of electron      11.9999992 magnetization 
 augmentation part        0.9923537 magnetization 

 Broyden mixing:
  rms(total) = 0.10918E-04    rms(broyden)= 0.10918E-04
  rms(prec ) = 0.11025E-04
  weight for this iteration     100.00

 eigenvalues of (default mixing * dielectric matrix)
  average eigenvalue GAMMA=   2.5291
  9.2778  6.3370  4.7171  3.4532  2.7753  2.5174  1.9885  1.9885  1.8438  1.2249
  1.2249  1.0933  0.7819  0.9665  0.9665  0.9489  0.8899

 Free energy of the ion-electron system (eV)
  ---------------------------------------------------
  alpha Z        PSCENC =         0.08965302
  Ewald energy   TEWEN  =       229.63810935
  -Hartree energ DENC   =      -961.35913844
  -exchange      EXHF   =         0.00000000
  -V(xc)+E(xc)   XCENC  =        51.82044380
  PAW double counting   =      2264.18749751    -2262.83909802
  entropy T*S    EENTRO =        -0.05641896
  eigenvalues    EBANDS =      -193.85643405
  atomic energy  EATOM  =       863.97502114
  Solvation  Ediel_sol  =         0.00000000
  ---------------------------------------------------
  free energy    TOTEN  =        -8.40036464 eV

  energy without entropy =       -8.34394568  energy(sigma->0) =       -8.37215516


--------------------------------------------------------------------------------------------------------




--------------------------------------- Iteration      1(  23)  ---------------------------------------


    POTLOK:  cpu time    0.0358: real time    0.0358
    SETDIJ:  cpu time    0.0030: real time    0.0030
     EDDAV:  cpu time    0.0260: real time    0.0260
       DOS:  cpu time    0.0001: real time    0.0001
    --------------------------------------------
      LOOP:  cpu time    0.0648: real time    0.0648

 eigenvalue-minimisations  :    24
 total energy-change (2. order) : 0.6495384E-08  (-0.1679012E-10)
 number of electron      11.9999992 magnetization 
 augmentation part        0.9923537 magnetization 

 Free energy of the ion-electron system (eV)
  ---------------------------------------------------
  alpha Z        PSCENC =         0.08965302
  Ewald energy   TEWEN  =       229.63810935
  -Hartree energ DENC   =      -961.35902773
  -exchange      EXHF   =         0.00000000
  -V(xc)+E(xc)   XCENC  =        51.82043813
  PAW double counting   =      2264.18935781    -2262.84096058
  entropy T*S    EENTRO =        -0.05641896
  eigenvalues    EBANDS =      -193.85653680
  atomic energy  EATOM  =       863.97502114
  Solvation  Ediel_sol  =         0.00000000
  ---------------------------------------------------
  free energy    TOTEN  =        -8.40036463 eV

  energy without entropy =       -8.34394567  energy(sigma->0) =       -8.37215515


--------------------------------------------------------------------------------------------------------




 average (electrostatic) potential at core
  the test charge radii are     0.6768
  (the norm of the test charge is              1.0000)
       1-129.5370       2-129.5370
 
 
 
 E-fermi :  -5.7064     XC(G=0):  -0.2899     alpha+bet : -0.0568

 Fermi energy:        -5.7063500015

 k-point     1 :       0.0000    0.0000    0.0000
  band No.  band energies     occupation 
      1     -32.7360      2.00000
      2     -19.7652      2.00000
      3     -13.1244      2.00000
      4     -12.7981      2.00000
      5     -12.7981      2.00000
      6      -5.7064      1.00000
      7      -5.7064      1.00000
      8      -0.2474      0.00000
      9       0.3452      0.00000
     10       0.4574      0.00000


--------------------------------------------------------------------------------------------------------


 soft charge-density along one line, spin component            1
         0         1         2         3         4         5         6         7         8         9
 total charge-density along one line
 
 pseudopotential strength for first ion, spin component:            1
 33.823  34.881  39.292  -0.000   0.000  -0.104  -0.000   0.000
 34.881  35.973  40.484  -0.000   0.000  -0.107  -0.000   0.000
 39.292  40.484  32.305  -0.000   0.000  -0.016  -0.000   0.000
 -0.000  -0.000  -0.000  -7.079  -0.000  -0.000  -7.970  -0.000
  0.000   0.000   0.000  -0.000  -7.079   0.000  -0.000  -7.970
 -0.104  -0.107  -0.016  -0.000   0.000  -7.243  -0.000   0.000
 -0.000  -0.000  -0.000  -7.970  -0.000  -0.000  -8.957  -0.000
  0.000   0.000   0.000  -0.000  -7.970   0.000  -0.000  -8.957
 -0.124  -0.128  -0.020  -0.000   0.000  -8.159  -0.000   0.000
  0.000   0.000   0.000  -1.929   0.000   0.000  -3.202   0.000
 -0.000  -0.000  -0.000   0.000  -1.929  -0.000   0.000  -3.202
  0.613   0.634   0.282   0.000  -0.000  -1.658   0.000  -0.000
  0.000   0.000  -0.000  -0.043  -0.000  -0.000  -0.051  -0.000
  0.000   0.000  -0.000   0.000  -0.000  -0.000   0.000  -0.000
 -0.002  -0.002   0.001   0.000   0.000   0.029   0.000   0.000
 -0.000  -0.000   0.000  -0.000  -0.043   0.000  -0.000  -0.051
  0.003   0.004  -0.002   0.000   0.000  -0.050   0.000   0.000
  0.000   0.000  -0.000   0.414   0.000   0.000   0.476   0.000
  0.000   0.000  -0.000  -0.000   0.000   0.000  -0.000   0.000
 -0.088  -0.092   0.028  -0.000  -0.000  -0.297  -0.000  -0.000
 -0.000  -0.000   0.000   0.000   0.414  -0.000   0.000   0.476
  0.153   0.159  -0.048  -0.000  -0.000   0.515  -0.000  -0.000
 total augmentation occupancy for first ion, spin component:            1
 27.756 -25.865   0.002   0.000   0.000 -21.632   0.000   0.000  15.366  -0.000   0.000  -0.146   0.000   0.000   0.755   0.000
-25.865  25.900  -0.020  -0.000  -0.000  20.797   0.000   0.000 -14.929   0.000  -0.000   0.153   0.000   0.000  -0.758   0.000
  0.002  -0.020   0.000  -0.000   0.000  -0.008   0.000   0.000   0.007  -0.000   0.000  -0.000  -0.000   0.000   0.001   0.000
  0.000  -0.000  -0.000   3.907   0.000   0.000  -2.311   0.000   0.000   0.034   0.000   0.000   0.418   0.000  -0.000   0.000
  0.000   0.000  -0.000   0.000   3.907   0.000   0.000  -2.311  -0.000   0.000   0.034   0.000   0.000   0.000   0.000   0.418
-21.632  20.797  -0.008   0.000   0.000  17.116  -0.000  -0.000 -12.349  -0.000   0.000   0.111   0.000   0.000  -0.596   0.000
  0.000   0.000   0.000  -2.311   0.000  -0.000   2.236   0.000  -0.000   0.001   0.000   0.000  -0.275   0.000  -0.000   0.000
  0.000   0.000   0.000   0.000  -2.311   0.000   0.000   2.236   0.000   0.000   0.001   0.000   0.000   0.000  -0.000  -0.275
 15.366 -14.929   0.007   0.000  -0.000 -12.349  -0.000   0.000   9.556  -0.000  -0.000  -0.040   0.000   0.000   0.375   0.000
 -0.000  -0.000  -0.000   0.034   0.000  -0.000   0.001   0.000   0.000   0.001   0.000  -0.000   0.003  -0.000   0.000   0.000
  0.000   0.000   0.000   0.000   0.034   0.000   0.000   0.001   0.000   0.000   0.001   0.000   0.000  -0.000   0.000   0.003
 -0.146   0.153  -0.000   0.000   0.000   0.111   0.000   0.000  -0.040  -0.000   0.000   0.003  -0.000   0.000  -0.008   0.000
  0.000   0.000   0.000   0.418   0.000  -0.000  -0.275   0.000   0.000   0.003   0.000   0.000   0.046  -0.000   0.000   0.000
  0.000   0.000   0.000  -0.000  -0.000   0.000   0.000   0.000   0.000   0.000  -0.000   0.000  -0.000   0.000   0.000   0.000
  0.755  -0.758   0.001  -0.000   0.000  -0.596  -0.000  -0.000   0.375   0.000  -0.000  -0.008   0.000   0.000   0.027   0.000
  0.000   0.000   0.000   0.000   0.418   0.000   0.000  -0.275  -0.000   0.000   0.003   0.000   0.000   0.000   0.000   0.046
 -1.308   1.313  -0.001   0.000   0.000   1.033   0.000  -0.000  -0.649   0.000  -0.000   0.014  -0.000   0.000  -0.046   0.000
 -0.000   0.000   0.000   0.016   0.000   0.000  -0.016   0.000   0.000  -0.000   0.000  -0.000   0.002   0.000  -0.000   0.000
  0.000   0.000   0.000   0.000  -0.000   0.000   0.000   0.000   0.000   0.000  -0.000   0.000   0.000   0.000   0.000   0.000
  0.048  -0.049   0.000  -0.000   0.000  -0.038  -0.000   0.000   0.023  -0.000   0.000  -0.001  -0.000   0.000   0.002   0.000
  0.000   0.000   0.000  -0.000   0.016   0.000  -0.000  -0.016  -0.000   0.000  -0.000  -0.000  -0.000   0.000   0.000   0.002
 -0.083   0.085  -0.000  -0.000   0.000   0.066  -0.000  -0.000  -0.040  -0.000   0.000   0.001   0.000   0.000  -0.003   0.000


------------------------ aborting loop because EDIFF is reached ----------------------------------------


    CHARGE:  cpu time    0.1104: real time    0.1104
    FORLOC:  cpu time    0.0079: real time    0.0079
    FORNL :  cpu time    0.0151: real time    0.0151
    STRESS:  cpu time    0.0593: real time    0.0593
    FORCOR:  cpu time    0.0335: real time    0.0336
    FORHAR:  cpu time    0.0074: real time    0.0074
    MIXING:  cpu time    0.0878: real time    0.0878
    OFIELD:  cpu time    0.0000: real time    0.0000

 ---------------------------------------------------------------------------------------------

         DFTD3 V3.0 Rev 1        
 IVDW         = 12
 DF pbe       
 parameters
 VDW_S6       =    1.0000
 VDW_S8       =    0.7875
 VDW_A1       =    0.4289
 VDW_A2       =    4.4407
 k1-k3        =   16.0000    1.3333   -4.0000
 VDW_RADIUS   =   50.2022 A
 VDW_CNRADIUS =   21.1671 A
 Edisp (eV)   -0.00728

 E6    (eV) :    -0.0052
 E8    (eV) :    -0.0020
 % E8        : 28.14
    FORVDW:  cpu time    0.0035: real time    0.0035

  FORCE on cell =-STRESS in cart. coord.  units (eV):
  Direction    XX          YY          ZZ          XY          YZ          ZX
  --------------------------------------------------------------------------------------
  Alpha Z     0.08965     0.08965     0.08965
  Ewald     365.40300   -67.88248   -67.88248     0.00000    -0.00000     0.00000
  Hartree   451.09725   255.13090   255.13090    -0.00000    -0.00000    -0.00000
  E(xc)     -58.90124   -60.23628   -60.23628    -0.00000     0.00000     0.00000
  Local   -1077.80729  -500.79148  -500.79148     0.00000    -0.00000     0.00000
  n-local    44.66252    49.04237    49.04237     0.00000    -0.00000     0.00000
  augment    27.19037    33.48953    33.48953     0.00000     0.00000    -0.00000
  Kinetic   245.71257   283.98849   283.98849     0.00000    -0.00000     0.00000
  Fock        0.00000     0.00000     0.00000     0.00000     0.00000     0.00000
  vdW        -0.00008    -0.00003    -0.00003    -0.00000    -0.00000    -0.00000
  -------------------------------------------------------------------------------------
  Total      -2.55325    -7.16933    -7.16933    -0.00000     0.00000     0.00000
  in kB      -1.34184    -3.76777    -3.76777    -0.00000     0.00000     0.00000
  external pressure =       -2.96 kB  Pullay stress =        0.00 kB


 VOLUME and BASIS-vectors are now :
 -----------------------------------------------------------------------------
  energy-cutoff  :      360.00
  volume of cell :     3048.63
      direct lattice vectors                 reciprocal lattice vectors
    14.500000000  0.000000000  0.000000000     0.068965517  0.000000000  0.000000000
     0.000000000 14.500000000  0.000000000     0.000000000  0.068965517  0.000000000
     0.000000000  0.000000000 14.500000000     0.000000000  0.000000000  0.068965517

  length of vectors
    14.500000000 14.500000000 14.500000000     0.068965517  0.068965517  0.068965517


 FORCES acting on ions
    electron-ion (+dipol)            ewald-force                    non-local-force                 convergence-correction
 -----------------------------------------------------------------------------------------------
   0.291E+03 -.268E-14 -.283E-14   -.359E+03 0.300E-16 -.429E-17   0.636E+02 0.414E-24 0.000E+00   0.720E-05 -.535E-14 -.349E-13
   -.291E+03 -.229E-14 -.252E-04   0.359E+03 0.247E-16 -.918E-17   -.636E+02 -.414E-24 0.000E+00   -.720E-05 -.908E-14 -.712E-13
 -----------------------------------------------------------------------------------------------
   -.930E-03 -.497E-14 -.252E-04   0.000E+00 0.547E-16 -.135E-16   0.142E-13 0.000E+00 0.000E+00   -.473E-08 -.144E-13 -.106E-12
 
 
 POSITION                                       TOTAL-FORCE (eV/Angst)
 -----------------------------------------------------------------------------------
      0.00000      0.00000      0.00000        -4.472017     -0.000000      0.000000
      1.20000      0.00000      0.00000         4.472017      0.000000     -0.000000
 -----------------------------------------------------------------------------------
    total drift:                               -0.000930     -0.000000     -0.000025


--------------------------------------------------------------------------------------------------------



  FREE ENERGIE OF THE ION-ELECTRON SYSTEM (eV)
  ---------------------------------------------------
  free  energy   TOTEN  =        -8.40764844 eV

  energy  without entropy=       -8.35122948  energy(sigma->0) =       -8.37943896
 


--------------------------------------------------------------------------------------------------------


    POTLOK:  cpu time    0.0527: real time    0.0527


--------------------------------------------------------------------------------------------------------


 stress matrix after NEB project (eV)
     -2.55325      0.00000      0.00000
     -0.00000     -7.16933      0.00000
     -0.00000      0.00000     -7.16933
  FORCES: max atom, RMS     4.472017    4.472017
  FORCE total and by dimension    6.324388    4.472017
  Stress total and by dimension   10.455502    7.169326
     LOOP+:  cpu time    4.2514: real time    4.2973
    4ORBIT:  cpu time    0.0000: real time    0.0000

 total amount of memory used by VASP MPI-rank0   280963. kBytes
=======================================================================

   base      :      30000. kBytes
   nonlr-proj:       1885. kBytes
   fftplans  :      94700. kBytes
   grid      :     146764. kBytes
   one-center:         46. kBytes
   wavefun   :       7568. kBytes
 
  
  
 General timing and accounting informations for this job:
 ========================================================
  
                  Total CPU time used (sec):        8.310
                            User time (sec):        6.572
                          System time (sec):        1.738
                         Elapsed time (sec):        9.141
  
                   Maximum memory used (kb):     1818872.
                   Average memory used (kb):          N/A
  
                          Minor page faults:       781554
                          Major page faults:            0
                 Voluntary context switches:         5566
