<?xml version="1.0" encoding="ISO-8859-1"?>
<modeling>
 <generator>
  <i name="program" type="string">vasp </i>
  <i name="version" type="string">6.2.1  </i>
  <i name="subversion" type="string">16May21 (build Jun 16 2021 03:23:30) complex                          parallel </i>
  <i name="platform" type="string">LinuxPGI </i>
  <i name="date" type="string">2022 04 23 </i>
  <i name="time" type="string">21:50:18 </i>
 </generator>
 <incar>
  <i type="string" name="SYSTEM">NiAl</i>
  <i type="int" name="ISTART">     0</i>
  <i type="int" name="NELMIN">     6</i>
  <i name="EDIFF">      0.00000010</i>
  <i name="ENCUT">    360.00000000</i>
  <i type="string" name="LREAL">Auto</i>
  <i type="logical" name="LPLANE"> T  </i>
  <i type="int" name="ISMEAR">     0</i>
  <i name="SIGMA">      0.05000000</i>
  <i type="logical" name="LWAVE"> F  </i>
  <i type="logical" name="LCHARG"> F  </i>
  <i type="int" name="IVDW">    12</i>
 </incar>
 <primitive_cell>
  <structure name="primitive_cell" >
   <crystal>
    <varray name="basis" >
     <v>      14.50000000       0.00000000       0.00000000 </v>
     <v>       0.00000000      14.50000000       0.00000000 </v>
     <v>       0.00000000       0.00000000      14.50000000 </v>
    </varray>
    <i name="volume">   3048.62500000 </i>
    <varray name="rec_basis" >
     <v>       0.06896552       0.00000000       0.00000000 </v>
     <v>       0.00000000       0.06896552       0.00000000 </v>
     <v>       0.00000000       0.00000000       0.06896552 </v>
    </varray>
   </crystal>
   <varray name="positions" >
    <v>       0.00000000       0.00000000       0.00000000 </v>
    <v>       0.08275862       0.00000000       0.00000000 </v>
   </varray>
  </structure>
  <varray name="primitive_index" >
   <v type="int" >        1 </v>
   <v type="int" >        2 </v>
  </varray>
 </primitive_cell>
 <kpoints>
  <generation param="Gamma">
   <v type="int" name="divisions">       1        1        1 </v>
   <v name="usershift">      0.00000000       0.00000000       0.00000000 </v>
   <v name="genvec1">      1.00000000       0.00000000       0.00000000 </v>
   <v name="genvec2">      0.00000000       1.00000000       0.00000000 </v>
   <v name="genvec3">      0.00000000       0.00000000       1.00000000 </v>
   <v name="shift">      0.00000000       0.00000000       0.00000000 </v>
  </generation>
  <varray name="kpointlist" >
   <v>       0.00000000       0.00000000       0.00000000 </v>
  </varray>
  <varray name="weights" >
   <v>       1.00000000 </v>
  </varray>
 </kpoints>
 <parameters>
  <separator name="general" >
   <i type="string" name="SYSTEM">NiAl</i>
   <i type="logical" name="LCOMPAT"> F  </i>
  </separator>
  <separator name="electronic" >
   <i type="string" name="PREC">normal</i>
   <i name="ENMAX">    360.00000000</i>
   <i name="ENAUG">   1139.60900000</i>
   <i name="EDIFF">      0.00000010</i>
   <i type="int" name="IALGO">    38</i>
   <i type="int" name="IWAVPR">    10</i>
   <i type="int" name="NBANDS">    10</i>
   <i type="int" name="NBANDSLOW">    -1</i>
   <i type="int" name="NBANDSHIGH">    -1</i>
   <i name="NELECT">     12.00000000</i>
   <i type="int" name="TURBO">     0</i>
   <i type="int" name="IRESTART">     0</i>
   <i type="int" name="NREBOOT">     0</i>
   <i type="int" name="NMIN">     0</i>
   <i name="EREF">      0.00000000</i>
   <separator name="electronic smearing" >
    <i type="int" name="ISMEAR">     0</i>
    <i name="SIGMA">      0.05000000</i>
    <i name="KSPACING">      0.50000000</i>
    <i type="logical" name="KGAMMA"> T  </i>
    <i type="logical" name="KBLOWUP"> T  </i>
   </separator>
   <separator name="electronic projectors" >
    <i type="logical" name="LREAL"> T  </i>
    <v name="ROPT">     -0.00050000</v>
    <i type="int" name="LMAXPAW">  -100</i>
    <i type="int" name="LMAXMIX">     2</i>
    <i type="logical" name="NLSPLINE"> F  </i>
   </separator>
   <separator name="electronic startup" >
    <i type="int" name="ISTART">     0</i>
    <i type="int" name="ICHARG">     2</i>
    <i type="int" name="INIWAV">     1</i>
   </separator>
   <separator name="electronic spin" >
    <i type="int" name="ISPIN">     1</i>
    <i type="logical" name="LNONCOLLINEAR"> F  </i>
    <v name="MAGMOM">      1.00000000      1.00000000</v>
    <i name="NUPDOWN">     -1.00000000</i>
    <i type="logical" name="LSORBIT"> F  </i>
    <v name="SAXIS">      0.00000000      0.00000000      1.00000000</v>
    <i type="logical" name="LSPIRAL"> F  </i>
    <v name="QSPIRAL">      0.00000000      0.00000000      0.00000000</v>
    <i type="logical" name="LZEROZ"> F  </i>
   </separator>
   <separator name="electronic exchange-correlation" >
    <i type="logical" name="LASPH"> F  </i>
    <i type="logical" name="LMETAGGA"> F  </i>
   </separator>
   <separator name="electronic convergence" >
    <i type="int" name="NELM">    60</i>
    <i type="int" name="NELMDL">    -5</i>
    <i type="int" name="NELMIN">     6</i>
    <i name="ENINI">    360.00000000</i>
    <separator name="electronic convergence detail" >
     <i type="logical" name="LDIAG"> T  </i>
     <i type="logical" name="LSUBROT"> F  </i>
     <i name="WEIMIN">      0.00000000</i>
     <i name="EBREAK">      0.00000000</i>
     <i name="DEPER">      0.30000000</i>
     <i type="int" name="NRMM">     4</i>
     <i name="TIME">      0.40000000</i>
    </separator>
   </separator>
   <separator name="electronic mixer" >
    <i name="AMIX">      0.40000000</i>
    <i name="BMIX">      1.00000000</i>
    <i name="AMIN">      0.10000000</i>
    <i name="AMIX_MAG">      1.60000000</i>
    <i name="BMIX_MAG">      1.00000000</i>
    <separator name="electronic mixer details" >
     <i type="int" name="IMIX">     4</i>
     <i type="logical" name="MIXFIRST"> F  </i>
     <i type="int" name="MAXMIX">   -45</i>
     <i name="WC">    100.00000000</i>
     <i type="int" name="INIMIX">     1</i>
     <i type="int" name="MIXPRE">     1</i>
     <i type="int" name="MREMOVE">     5</i>
    </separator>
   </separator>
   <separator name="electronic dipolcorrection" >
    <i type="logical" name="LDIPOL"> F  </i>
    <i type="logical" name="LMONO"> F  </i>
    <i type="int" name="IDIPOL">     0</i>
    <i name="EPSILON">      1.00000000</i>
    <v name="DIPOL">   -100.00000000   -100.00000000   -100.00000000</v>
    <i name="EFIELD">      0.00000000</i>
   </separator>
  </separator>
  <separator name="grids" >
   <i type="int" name="NGX">    70</i>
   <i type="int" name="NGY">    70</i>
   <i type="int" name="NGZ">    70</i>
   <i type="int" name="NGXF">   140</i>
   <i type="int" name="NGYF">   140</i>
   <i type="int" name="NGZF">   140</i>
   <i type="logical" name="ADDGRID"> F  </i>
  </separator>
  <separator name="ionic" >
   <i type="int" name="NSW">     0</i>
   <i type="int" name="IBRION">    -1</i>
   <i type="int" name="MDALGO">     0</i>
   <i type="int" name="ISIF">     2</i>
   <i name="PSTRESS">      0.00000000</i>
   <i name="EDIFFG">      0.00000100</i>
   <i type="int" name="NFREE">     0</i>
   <i name="POTIM">      0.50000000</i>
   <i name="SMASS">     -3.00000000</i>
   <i name="SCALEE">      1.00000000</i>
  </separator>
  <separator name="ionic md" >
   <i name="TEBEG">      0.00010000</i>
   <i name="TEEND">      0.00010000</i>
   <i type="int" name="NBLOCK">     1</i>
   <i type="int" name="KBLOCK">     1</i>
   <i type="int" name="NPACO">   256</i>
   <i name="APACO">     16.00000000</i>
  </separator>
  <separator name="symmetry" >
   <i type="int" name="ISYM">     2</i>
   <i name="SYMPREC">      0.00001000</i>
  </separator>
  <separator name="dos" >
   <i type="int" name="LORBIT">     0</i>
   <v name="RWIGS">     -1.00000000</v>
   <i type="int" name="NEDOS">   301</i>
   <i name="EMIN">     10.00000000</i>
   <i name="EMAX">    -10.00000000</i>
   <i name="EFERMI">      0.00000000</i>
  </separator>
  <separator name="writing" >
   <i type="int" name="NWRITE">     2</i>
   <i type="logical" name="LWAVE"> F  </i>
   <i type="logical" name="LDOWNSAMPLE"> F  </i>
   <i type="logical" name="LCHARG"> F  </i>
   <i type="logical" name="LPARD"> F  </i>
   <i type="logical" name="LVTOT"> F  </i>
   <i type="logical" name="LVHAR"> F  </i>
   <i type="logical" name="LELF"> F  </i>
   <i type="logical" name="LOPTICS"> F  </i>
   <v name="STM">      0.00000000      0.00000000      0.00000000      0.00000000      0.00000000      0.00000000      0.00000000</v>
  </separator>
  <separator name="performance" >
   <i type="int" name="NPAR">     1</i>
   <i type="int" name="NSIM">     4</i>
   <i type="int" name="NBLK">    -1</i>
   <i type="logical" name="LPLANE"> T  </i>
   <i type="logical" name="LSCALAPACK"> T  </i>
   <i type="logical" name="LSCAAWARE"> F  </i>
   <i type="logical" name="LSCALU"> F  </i>
   <i type="logical" name="LASYNC"> F  </i>
   <i type="logical" name="LORBITALREAL"> F  </i>
  </separator>
  <separator name="miscellaneous" >
   <i type="int" name="IDIOT">     3</i>
   <i type="int" name="PHON_NSTRUCT">    -1</i>
   <i type="logical" name="LMUSIC"> F  </i>
   <v name="POMASS">     16.00000000</v>
   <v name="DARWINR">      0.00000000</v>
   <v name="DARWINV">      1.00000000</v>
   <i type="logical" name="LCORR"> T  </i>
  </separator>
  <i type="logical" name="GGA_COMPAT"> T  </i>
  <i type="logical" name="LBERRY"> F  </i>
  <i type="int" name="ICORELEVEL">     0</i>
  <i type="logical" name="LDAU"> F  </i>
  <i type="int" name="I_CONSTRAINED_M">     0</i>
  <separator name="electronic exchange-correlation" >
   <i type="string" name="GGA">--</i>
   <i type="int" name="VOSKOWN">     0</i>
   <i type="logical" name="LHFCALC"> F  </i>
   <i type="string" name="PRECFOCK"></i>
   <i type="logical" name="LSYMGRAD"> F  </i>
   <i type="logical" name="LHFONE"> F  </i>
   <i type="logical" name="LRHFCALC"> F  </i>
   <i type="logical" name="LTHOMAS"> F  </i>
   <i type="logical" name="LMODELHF"> F  </i>
   <i type="logical" name="LFOCKACE"> F  </i>
   <i name="ENCUT4O">     -1.00000000</i>
   <i type="int" name="EXXOEP">     0</i>
   <i type="int" name="FOURORBIT">     0</i>
   <i name="AEXX">      0.00000000</i>
   <i name="HFALPHA">      0.00000000</i>
   <i name="MCALPHA">      0.00000000</i>
   <i name="ALDAX">      1.00000000</i>
   <i name="AGGAX">      1.00000000</i>
   <i name="ALDAC">      1.00000000</i>
   <i name="AGGAC">      1.00000000</i>
   <i type="int" name="NKREDX">     1</i>
   <i type="int" name="NKREDY">     1</i>
   <i type="int" name="NKREDZ">     1</i>
   <i type="logical" name="SHIFTRED"> F  </i>
   <i type="logical" name="ODDONLY"> F  </i>
   <i type="logical" name="EVENONLY"> F  </i>
   <i type="int" name="LMAXFOCK">     0</i>
   <i type="int" name="NMAXFOCKAE">     0</i>
   <i type="logical" name="LFOCKAEDFT"> F  </i>
   <i name="HFSCREEN">      0.00000000</i>
   <i name="HFSCREENC">      0.00000000</i>
   <i type="int" name="NBANDSGWLOW">     0</i>
  </separator>
  <separator name="vdW DFT" >
   <i type="logical" name="LUSE_VDW"> F  </i>
   <i name="Zab_VDW">     -0.84910000</i>
   <i name="PARAM1">      0.12340000</i>
   <i name="PARAM2">      1.00000000</i>
   <i name="PARAM3">      0.00000000</i>
  </separator>
  <separator name="model GW" >
   <i type="int" name="MODEL_GW">     0</i>
   <i name="MODEL_EPS0">    914.58750000</i>
   <i name="MODEL_ALPHA">      1.00000000</i>
  </separator>
  <separator name="linear response parameters" >
   <i type="logical" name="LEPSILON"> F  </i>
   <i type="logical" name="LRPA"> F  </i>
   <i type="logical" name="LNABLA"> F  </i>
   <i type="logical" name="LVEL"> F  </i>
   <i type="int" name="KINTER">     0</i>
   <i name="CSHIFT">      0.10000000</i>
   <i name="OMEGAMAX">     -1.00000000</i>
   <i name="DEG_THRESHOLD">      0.00200000</i>
   <i name="RTIME">     -0.10000000</i>
   <i name="WPLASMAI">      0.00000000</i>
   <v name="DFIELD">      0.00000000      0.00000000      0.00000000</v>
   <v name="WPLASMA">      0.00000000      0.00000000      0.00000000      0.00000000      0.00000000      0.00000000      0.00000000      0.00000000      0.00000000</v>
  </separator>
  <separator name="orbital magnetization" >
   <i type="logical" name="NUCIND"> F  </i>
   <v name="MAGPOS">      0.00000000      0.00000000      0.00000000</v>
   <i type="logical" name="LNICSALL"> T  </i>
   <i type="logical" name="ORBITALMAG"> F  </i>
   <i type="logical" name="LMAGBLOCH"> F  </i>
   <i type="logical" name="LCHIMAG"> F  </i>
   <i type="logical" name="LGAUGE"> T  </i>
   <i type="int" name="MAGATOM">     0</i>
   <v name="MAGDIPOL">      0.00000000      0.00000000      0.00000000</v>
   <v name="AVECCONST">      0.00000000      0.00000000      0.00000000</v>
  </separator>
  <separator name="response functions" >
   <i type="logical" name="LFINITE_TEMPERATURE"> F  </i>
   <i type="logical" name="LADDER"> F  </i>
   <i type="logical" name="LRPAFORCE"> F  </i>
   <i type="logical" name="LFXC"> F  </i>
   <i type="logical" name="LHARTREE"> T  </i>
   <i type="int" name="IBSE">     0</i>
   <v type="int" name="KPOINT">    -1     0     0     0</v>
   <i type="logical" name="LTCTC"> F  </i>
   <i type="logical" name="LTCTE"> F  </i>
   <i type="logical" name="LTETE"> F  </i>
   <i type="logical" name="LTRIPLET"> F  </i>
   <i type="logical" name="LFXCEPS"> F  </i>
   <i type="logical" name="LFXHEG"> F  </i>
   <i type="int" name="NATURALO">     2</i>
   <i type="logical" name="LHOLEGF"> F  </i>
   <i type="logical" name="L2ORDER"> F  </i>
   <i type="logical" name="LDMP1"> F  </i>
   <i type="logical" name="LMP2LT"> F  </i>
   <i type="logical" name="LSMP2LT"> F  </i>
   <i type="logical" name="LGWLF"> F  </i>
   <i name="ENCUTGW">     -2.00000000</i>
   <i name="ENCUTGWSOFT">     -2.00000000</i>
   <i name="ENCUTLF">     -1.00000000</i>
   <i type="logical" name="LESF_SPLINES"> F  </i>
   <i type="int" name="LMAXMP2">    -1</i>
   <i name="SCISSOR">      0.00000000</i>
   <i type="int" name="NOMEGA">     0</i>
   <i type="int" name="NOMEGAR">     0</i>
   <i type="int" name="NBANDSGW">    -1</i>
   <i type="int" name="NBANDSO">    -1</i>
   <i type="int" name="NBANDSV">    -1</i>
   <i type="int" name="NELM">     1</i>
   <i type="int" name="NELMHF">     1</i>
   <i type="int" name="DIM">     3</i>
   <i type="int" name="IESPILON">     4</i>
   <i type="int" name="ANTIRES">     0</i>
   <i name="OMEGAMAX">    -30.00000000</i>
   <i name="OMEGAMIN">    -30.00000000</i>
   <i name="OMEGATL">   -200.00000000</i>
   <i type="int" name="OMEGAGRID">     0</i>
   <i name="CSHIFT">     -0.10000000</i>
   <i type="logical" name="LSELFENERGY"> F  </i>
   <i type="logical" name="LSPECTRAL"> F  </i>
   <i type="logical" name="LSPECTRALGW"> F  </i>
   <i type="logical" name="LSINGLES"> F  </i>
   <i type="logical" name="LFERMIGW"> F  </i>
   <i type="logical" name="ODDONLYGW"> F  </i>
   <i type="logical" name="EVENONLYGW"> F  </i>
   <i type="int" name="NKREDLFX">     1</i>
   <i type="int" name="NKREDLFY">     1</i>
   <i type="int" name="NKREDLFZ">     1</i>
   <i type="int" name="MAXMEM">  2800</i>
   <i type="int" name="TELESCOPE">     0</i>
   <i type="int" name="NTAUPAR">    -1</i>
   <i type="int" name="NOMEGAPAR">    -1</i>
   <i name="DAMP_NEWTON">      0.80000001</i>
   <i name="LAMBDA">      1.00000000</i>
  </separator>
  <separator name="External order field" >
   <i name="OFIELD_KAPPA">      0.00000000</i>
   <v name="OFIELD_K">      0.00000000      0.00000000      0.00000000</v>
   <i name="OFIELD_Q6_NEAR">      0.00000000</i>
   <i name="OFIELD_Q6_FAR">      0.00000000</i>
   <i name="OFIELD_A">      0.00000000</i>
  </separator>
  <separator name="solvation model" >
   <i type="logical" name="LSOL"> F  </i>
  </separator>
 </parameters>
 <atominfo>
  <atoms>       2 </atoms>
  <types>       1 </types>
  <array name="atoms" >
   <dimension dim="1">ion</dimension>
   <field type="string">element</field>
   <field type="int">atomtype</field>
   <set>
    <rc><c>O </c><c>   1</c></rc>
    <rc><c>O </c><c>   1</c></rc>
   </set>
  </array>
  <array name="atomtypes" >
   <dimension dim="1">type</dimension>
   <field type="int">atomspertype</field>
   <field type="string">element</field>
   <field>mass</field>
   <field>valence</field>
   <field type="string">pseudopotential</field>
   <set>
    <rc><c>   2</c><c>O </c><c>     16.00000000</c><c>      6.00000000</c><c>  PAW O_GW 19Mar2012                    </c></rc>
   </set>
  </array>
 </atominfo>
 <structure name="initialpos" >
  <crystal>
   <varray name="basis" >
    <v>      14.50000000       0.00000000       0.00000000 </v>
    <v>       0.00000000      14.50000000       0.00000000 </v>
    <v>       0.00000000       0.00000000      14.50000000 </v>
   </varray>
   <i name="volume">   3048.62500000 </i>
   <varray name="rec_basis" >
    <v>       0.06896552       0.00000000       0.00000000 </v>
    <v>       0.00000000       0.06896552       0.00000000 </v>
    <v>       0.00000000       0.00000000       0.06896552 </v>
   </varray>
  </crystal>
  <varray name="positions" >
   <v>       0.00000000       0.00000000       0.00000000 </v>
   <v>       0.08275862       0.00000000       0.00000000 </v>
  </varray>
 </structure>
 <calculation>
  <scstep>
   <time name="dav">    0.06    0.07</time>
   <time name="total">    0.11    0.13</time>
   <energy>
    <i name="alphaZ">      0.08965302 </i>
    <i name="ewald">    229.63810935 </i>
    <i name="hartreedc">   -955.63363143 </i>
    <i name="XCdc">     51.25226102 </i>
    <i name="pawpsdc">    698.30301748 </i>
    <i name="pawaedc">   -696.69629178 </i>
    <i name="eentropy">     -0.00000025 </i>
    <i name="bandstr">   -115.82838008 </i>
    <i name="atom">    863.97502114 </i>
    <i name="e_fr_energy">     75.09975848 </i>
    <i name="e_wo_entrp">     75.09975873 </i>
    <i name="e_0_energy">     75.09975861 </i>
   </energy>
  </scstep>
  <scstep>
   <time name="dav">    0.03    0.03</time>
   <time name="total">    0.03    0.03</time>
   <energy>
    <i name="e_fr_energy">     13.93380423 </i>
    <i name="e_wo_entrp">     13.93380423 </i>
    <i name="e_0_energy">     13.93380423 </i>
   </energy>
  </scstep>
  <scstep>
   <time name="dav">    0.03    0.03</time>
   <time name="total">    0.03    0.03</time>
   <energy>
    <i name="e_fr_energy">      3.75699321 </i>
    <i name="e_wo_entrp">      3.75699321 </i>
    <i name="e_0_energy">      3.75699321 </i>
   </energy>
  </scstep>
  <scstep>
   <time name="dav">    0.04    0.04</time>
   <time name="total">    0.04    0.04</time>
   <energy>
    <i name="e_fr_energy">     -6.71552680 </i>
    <i name="e_wo_entrp">     -6.71552680 </i>
    <i name="e_0_energy">     -6.71552680 </i>
   </energy>
  </scstep>
  <scstep>
   <time name="dav">    0.03    0.03</time>
   <time name="total">    0.15    0.16</time>
   <energy>
    <i name="e_fr_energy">     -8.59430590 </i>
    <i name="e_wo_entrp">     -8.54101946 </i>
    <i name="e_0_energy">     -8.56766268 </i>
   </energy>
  </scstep>
  <scstep>
   <time name="dav">    0.03    0.03</time>
   <time name="total">    0.18    0.18</time>
   <energy>
    <i name="e_fr_energy">     -8.39305100 </i>
    <i name="e_wo_entrp">     -8.33663777 </i>
    <i name="e_0_energy">     -8.36484439 </i>
   </energy>
  </scstep>
  <scstep>
   <time name="dav">    0.03    0.03</time>
   <time name="total">    0.18    0.18</time>
   <energy>
    <i name="e_fr_energy">     -8.40562086 </i>
    <i name="e_wo_entrp">     -8.34920221 </i>
    <i name="e_0_energy">     -8.37741154 </i>
   </energy>
  </scstep>
  <scstep>
   <time name="dav">    0.02    0.02</time>
   <time name="total">    0.18    0.18</time>
   <energy>
    <i name="e_fr_energy">     -8.39937875 </i>
    <i name="e_wo_entrp">     -8.34295983 </i>
    <i name="e_0_energy">     -8.37116929 </i>
   </energy>
  </scstep>
  <scstep>
   <time name="dav">    0.03    0.03</time>
   <time name="total">    0.18    0.18</time>
   <energy>
    <i name="e_fr_energy">     -8.39972532 </i>
    <i name="e_wo_entrp">     -8.34330636 </i>
    <i name="e_0_energy">     -8.37151584 </i>
   </energy>
  </scstep>
  <scstep>
   <time name="dav">    0.02    0.02</time>
   <time name="total">    0.18    0.18</time>
   <energy>
    <i name="e_fr_energy">     -8.39986636 </i>
    <i name="e_wo_entrp">     -8.34344740 </i>
    <i name="e_0_energy">     -8.37165688 </i>
   </energy>
  </scstep>
  <scstep>
   <time name="dav">    0.03    0.03</time>
   <time name="total">    0.19    0.19</time>
   <energy>
    <i name="e_fr_energy">     -8.39997956 </i>
    <i name="e_wo_entrp">     -8.34356060 </i>
    <i name="e_0_energy">     -8.37177008 </i>
   </energy>
  </scstep>
  <scstep>
   <time name="dav">    0.02    0.02</time>
   <time name="total">    0.19    0.19</time>
   <energy>
    <i name="e_fr_energy">     -8.40013589 </i>
    <i name="e_wo_entrp">     -8.34371693 </i>
    <i name="e_0_energy">     -8.37192641 </i>
   </energy>
  </scstep>
  <scstep>
   <time name="dav">    0.02    0.02</time>
   <time name="total">    0.20    0.20</time>
   <energy>
    <i name="e_fr_energy">     -8.40022712 </i>
    <i name="e_wo_entrp">     -8.34380817 </i>
    <i name="e_0_energy">     -8.37201765 </i>
   </energy>
  </scstep>
  <scstep>
   <time name="dav">    0.02    0.02</time>
   <time name="total">    0.20    0.20</time>
   <energy>
    <i name="e_fr_energy">     -8.40029219 </i>
    <i name="e_wo_entrp">     -8.34387324 </i>
    <i name="e_0_energy">     -8.37208271 </i>
   </energy>
  </scstep>
  <scstep>
   <time name="dav">    0.02    0.02</time>
   <time name="total">    0.20    0.20</time>
   <energy>
    <i name="e_fr_energy">     -8.40031370 </i>
    <i name="e_wo_entrp">     -8.34389474 </i>
    <i name="e_0_energy">     -8.37210422 </i>
   </energy>
  </scstep>
  <scstep>
   <time name="dav">    0.02    0.02</time>
   <time name="total">    0.20    0.20</time>
   <energy>
    <i name="e_fr_energy">     -8.40034365 </i>
    <i name="e_wo_entrp">     -8.34392470 </i>
    <i name="e_0_energy">     -8.37213418 </i>
   </energy>
  </scstep>
  <scstep>
   <time name="dav">    0.02    0.02</time>
   <time name="total">    0.23    0.23</time>
   <energy>
    <i name="e_fr_energy">     -8.40035499 </i>
    <i name="e_wo_entrp">     -8.34393603 </i>
    <i name="e_0_energy">     -8.37214551 </i>
   </energy>
  </scstep>
  <scstep>
   <time name="dav">    0.02    0.02</time>
   <time name="total">    0.22    0.22</time>
   <energy>
    <i name="e_fr_energy">     -8.40036204 </i>
    <i name="e_wo_entrp">     -8.34394308 </i>
    <i name="e_0_energy">     -8.37215256 </i>
   </energy>
  </scstep>
  <scstep>
   <time name="dav">    0.03    0.03</time>
   <time name="total">    0.22    0.22</time>
   <energy>
    <i name="e_fr_energy">     -8.40036368 </i>
    <i name="e_wo_entrp">     -8.34394472 </i>
    <i name="e_0_energy">     -8.37215420 </i>
   </energy>
  </scstep>
  <scstep>
   <time name="dav">    0.02    0.02</time>
   <time name="total">    0.22    0.22</time>
   <energy>
    <i name="e_fr_energy">     -8.40036438 </i>
    <i name="e_wo_entrp">     -8.34394542 </i>
    <i name="e_0_energy">     -8.37215490 </i>
   </energy>
  </scstep>
  <scstep>
   <time name="dav">    0.03    0.03</time>
   <time name="total">    0.22    0.22</time>
   <energy>
    <i name="e_fr_energy">     -8.40036453 </i>
    <i name="e_wo_entrp">     -8.34394557 </i>
    <i name="e_0_energy">     -8.37215505 </i>
   </energy>
  </scstep>
  <scstep>
   <time name="dav">    0.02    0.02</time>
   <time name="total">    0.23    0.23</time>
   <energy>
    <i name="e_fr_energy">     -8.40036464 </i>
    <i name="e_wo_entrp">     -8.34394568 </i>
    <i name="e_0_energy">     -8.37215516 </i>
   </energy>
  </scstep>
  <scstep>
   <time name="dav">    0.03    0.03</time>
   <time name="total">    0.06    0.06</time>
   <energy>
    <i name="alphaZ">      0.08965302 </i>
    <i name="ewald">    229.63810935 </i>
    <i name="hartreedc">   -961.35902773 </i>
    <i name="XCdc">     51.82043813 </i>
    <i name="pawpsdc">   2264.18935781 </i>
    <i name="pawaedc">  -2262.84096058 </i>
    <i name="eentropy">     -0.05641896 </i>
    <i name="bandstr">   -193.85653680 </i>
    <i name="atom">    863.97502114 </i>
    <i name="e_fr_energy">     -8.40036463 </i>
    <i name="e_wo_entrp">     -8.34394567 </i>
    <i name="e_0_energy">     -8.37215515 </i>
   </energy>
  </scstep>
  <structure>
   <crystal>
    <varray name="basis" >
     <v>      14.50000000       0.00000000       0.00000000 </v>
     <v>       0.00000000      14.50000000       0.00000000 </v>
     <v>       0.00000000       0.00000000      14.50000000 </v>
    </varray>
    <i name="volume">   3048.62500000 </i>
    <varray name="rec_basis" >
     <v>       0.06896552       0.00000000       0.00000000 </v>
     <v>       0.00000000       0.06896552       0.00000000 </v>
     <v>       0.00000000       0.00000000       0.06896552 </v>
    </varray>
   </crystal>
   <varray name="positions" >
    <v>       0.00000000       0.00000000       0.00000000 </v>
    <v>       0.08275862       0.00000000       0.00000000 </v>
   </varray>
  </structure>
  <varray name="forces" >
   <v>      -4.47201747      -0.00000000       0.00000000 </v>
   <v>       4.47201747       0.00000000      -0.00000000 </v>
  </varray>
  <varray name="stress" >
   <v>      -1.34183529       0.00000000       0.00000000 </v>
   <v>      -0.00000000      -3.76777438       0.00000000 </v>
   <v>      -0.00000000       0.00000000      -3.76777438 </v>
  </varray>
  <energy>
   <i name="e_fr_energy">     -8.40764844 </i>
   <i name="e_wo_entrp">     -8.35122948 </i>
   <i name="e_0_energy">     -8.37943896 </i>
  </energy>
  <time name="totalsc">    4.25    4.30</time>
  <eigenvalues>
   <array>
    <dimension dim="1">band</dimension>
    <dimension dim="2">kpoint</dimension>
    <dimension dim="3">spin</dimension>
    <field>eigene</field>
    <field>occ</field>
    <set>
     <set comment="spin 1">
      <set comment="kpoint 1">
       <r>  -32.7360    1.0000 </r>
       <r>  -19.7652    1.0000 </r>
       <r>  -13.1244    1.0000 </r>
       <r>  -12.7981    1.0000 </r>
       <r>  -12.7981    1.0000 </r>
       <r>   -5.7064    0.5000 </r>
       <r>   -5.7064    0.5000 </r>
       <r>   -0.2474    0.0000 </r>
       <r>    0.3452    0.0000 </r>
       <r>    0.4574    0.0000 </r>
      </set>
     </set>
    </set>
   </array>
  </eigenvalues>
  <separator name="orbital magnetization" >
   <v name="MAGDIPOLOUT">      0.00000000      0.00000000      0.00000000</v>
  </separator>
  <dos>
   <i name="efermi">     -5.70635000 </i>
   <total>
    <array>
     <dimension dim="1">gridpoints</dimension>
     <dimension dim="2">spin</dimension>
     <field>energy</field>
     <field>total</field>
     <field>integrated</field>
     <set>
      <set comment="spin 1">
       <r>   -34.3957     0.0000     0.0000 </r>
       <r>   -34.2740     0.0000     0.0000 </r>
       <r>   -34.1522     0.0000     0.0000 </r>
       <r>   -34.0305     0.0000     0.0000 </r>
       <r>   -33.9088     0.0000     0.0000 </r>
       <r>   -33.7871     0.0000     0.0000 </r>
       <r>   -33.6654     0.0000     0.0000 </r>
       <r>   -33.5437     0.0000     0.0000 </r>
       <r>   -33.4220     0.0000     0.0000 </r>
       <r>   -33.3003     0.0000     0.0000 </r>
       <r>   -33.1786     0.0000     0.0000 </r>
       <r>   -33.0569     0.0000     0.0000 </r>
       <r>   -32.9352     0.0000     0.0000 </r>
       <r>   -32.8134     0.2340     0.0285 </r>
       <r>   -32.6917    14.4680     1.7894 </r>
       <r>   -32.5700     1.7307     2.0000 </r>
       <r>   -32.4483     0.0000     2.0000 </r>
       <r>   -32.3266     0.0000     2.0000 </r>
       <r>   -32.2049     0.0000     2.0000 </r>
       <r>   -32.0832     0.0000     2.0000 </r>
       <r>   -31.9615     0.0000     2.0000 </r>
       <r>   -31.8398     0.0000     2.0000 </r>
       <r>   -31.7181     0.0000     2.0000 </r>
       <r>   -31.5964     0.0000     2.0000 </r>
       <r>   -31.4746     0.0000     2.0000 </r>
       <r>   -31.3529     0.0000     2.0000 </r>
       <r>   -31.2312     0.0000     2.0000 </r>
       <r>   -31.1095     0.0000     2.0000 </r>
       <r>   -30.9878     0.0000     2.0000 </r>
       <r>   -30.8661     0.0000     2.0000 </r>
       <r>   -30.7444     0.0000     2.0000 </r>
       <r>   -30.6227     0.0000     2.0000 </r>
       <r>   -30.5010     0.0000     2.0000 </r>
       <r>   -30.3793     0.0000     2.0000 </r>
       <r>   -30.2576     0.0000     2.0000 </r>
       <r>   -30.1359     0.0000     2.0000 </r>
       <r>   -30.0141     0.0000     2.0000 </r>
       <r>   -29.8924     0.0000     2.0000 </r>
       <r>   -29.7707     0.0000     2.0000 </r>
       <r>   -29.6490     0.0000     2.0000 </r>
       <r>   -29.5273     0.0000     2.0000 </r>
       <r>   -29.4056     0.0000     2.0000 </r>
       <r>   -29.2839     0.0000     2.0000 </r>
       <r>   -29.1622     0.0000     2.0000 </r>
       <r>   -29.0405     0.0000     2.0000 </r>
       <r>   -28.9188     0.0000     2.0000 </r>
       <r>   -28.7971     0.0000     2.0000 </r>
       <r>   -28.6753     0.0000     2.0000 </r>
       <r>   -28.5536     0.0000     2.0000 </r>
       <r>   -28.4319     0.0000     2.0000 </r>
       <r>   -28.3102     0.0000     2.0000 </r>
       <r>   -28.1885     0.0000     2.0000 </r>
       <r>   -28.0668     0.0000     2.0000 </r>
       <r>   -27.9451     0.0000     2.0000 </r>
       <r>   -27.8234     0.0000     2.0000 </r>
       <r>   -27.7017     0.0000     2.0000 </r>
       <r>   -27.5800     0.0000     2.0000 </r>
       <r>   -27.4583     0.0000     2.0000 </r>
       <r>   -27.3365     0.0000     2.0000 </r>
       <r>   -27.2148     0.0000     2.0000 </r>
       <r>   -27.0931     0.0000     2.0000 </r>
       <r>   -26.9714     0.0000     2.0000 </r>
       <r>   -26.8497     0.0000     2.0000 </r>
       <r>   -26.7280     0.0000     2.0000 </r>
       <r>   -26.6063     0.0000     2.0000 </r>
       <r>   -26.4846     0.0000     2.0000 </r>
       <r>   -26.3629     0.0000     2.0000 </r>
       <r>   -26.2412     0.0000     2.0000 </r>
       <r>   -26.1195     0.0000     2.0000 </r>
       <r>   -25.9977     0.0000     2.0000 </r>
       <r>   -25.8760     0.0000     2.0000 </r>
       <r>   -25.7543     0.0000     2.0000 </r>
       <r>   -25.6326     0.0000     2.0000 </r>
       <r>   -25.5109     0.0000     2.0000 </r>
       <r>   -25.3892     0.0000     2.0000 </r>
       <r>   -25.2675     0.0000     2.0000 </r>
       <r>   -25.1458     0.0000     2.0000 </r>
       <r>   -25.0241     0.0000     2.0000 </r>
       <r>   -24.9024     0.0000     2.0000 </r>
       <r>   -24.7807     0.0000     2.0000 </r>
       <r>   -24.6589     0.0000     2.0000 </r>
       <r>   -24.5372     0.0000     2.0000 </r>
       <r>   -24.4155     0.0000     2.0000 </r>
       <r>   -24.2938     0.0000     2.0000 </r>
       <r>   -24.1721     0.0000     2.0000 </r>
       <r>   -24.0504     0.0000     2.0000 </r>
       <r>   -23.9287     0.0000     2.0000 </r>
       <r>   -23.8070     0.0000     2.0000 </r>
       <r>   -23.6853     0.0000     2.0000 </r>
       <r>   -23.5636     0.0000     2.0000 </r>
       <r>   -23.4419     0.0000     2.0000 </r>
       <r>   -23.3201     0.0000     2.0000 </r>
       <r>   -23.1984     0.0000     2.0000 </r>
       <r>   -23.0767     0.0000     2.0000 </r>
       <r>   -22.9550     0.0000     2.0000 </r>
       <r>   -22.8333     0.0000     2.0000 </r>
       <r>   -22.7116     0.0000     2.0000 </r>
       <r>   -22.5899     0.0000     2.0000 </r>
       <r>   -22.4682     0.0000     2.0000 </r>
       <r>   -22.3465     0.0000     2.0000 </r>
       <r>   -22.2248     0.0000     2.0000 </r>
       <r>   -22.1031     0.0000     2.0000 </r>
       <r>   -21.9813     0.0000     2.0000 </r>
       <r>   -21.8596     0.0000     2.0000 </r>
       <r>   -21.7379     0.0000     2.0000 </r>
       <r>   -21.6162     0.0000     2.0000 </r>
       <r>   -21.4945     0.0000     2.0000 </r>
       <r>   -21.3728     0.0000     2.0000 </r>
       <r>   -21.2511     0.0000     2.0000 </r>
       <r>   -21.1294     0.0000     2.0000 </r>
       <r>   -21.0077     0.0000     2.0000 </r>
       <r>   -20.8860     0.0000     2.0000 </r>
       <r>   -20.7643     0.0000     2.0000 </r>
       <r>   -20.6425     0.0000     2.0000 </r>
       <r>   -20.5208     0.0000     2.0000 </r>
       <r>   -20.3991     0.0000     2.0000 </r>
       <r>   -20.2774     0.0000     2.0000 </r>
       <r>   -20.1557     0.0000     2.0000 </r>
       <r>   -20.0340     0.0000     2.0000 </r>
       <r>   -19.9123     0.0003     2.0000 </r>
       <r>   -19.7906     3.8905     2.4735 </r>
       <r>   -19.6689    12.4892     3.9936 </r>
       <r>   -19.5472     0.0527     4.0000 </r>
       <r>   -19.4255     0.0000     4.0000 </r>
       <r>   -19.3037     0.0000     4.0000 </r>
       <r>   -19.1820     0.0000     4.0000 </r>
       <r>   -19.0603     0.0000     4.0000 </r>
       <r>   -18.9386     0.0000     4.0000 </r>
       <r>   -18.8169     0.0000     4.0000 </r>
       <r>   -18.6952     0.0000     4.0000 </r>
       <r>   -18.5735     0.0000     4.0000 </r>
       <r>   -18.4518     0.0000     4.0000 </r>
       <r>   -18.3301     0.0000     4.0000 </r>
       <r>   -18.2084     0.0000     4.0000 </r>
       <r>   -18.0867     0.0000     4.0000 </r>
       <r>   -17.9649     0.0000     4.0000 </r>
       <r>   -17.8432     0.0000     4.0000 </r>
       <r>   -17.7215     0.0000     4.0000 </r>
       <r>   -17.5998     0.0000     4.0000 </r>
       <r>   -17.4781     0.0000     4.0000 </r>
       <r>   -17.3564     0.0000     4.0000 </r>
       <r>   -17.2347     0.0000     4.0000 </r>
       <r>   -17.1130     0.0000     4.0000 </r>
       <r>   -16.9913     0.0000     4.0000 </r>
       <r>   -16.8696     0.0000     4.0000 </r>
       <r>   -16.7479     0.0000     4.0000 </r>
       <r>   -16.6261     0.0000     4.0000 </r>
       <r>   -16.5044     0.0000     4.0000 </r>
       <r>   -16.3827     0.0000     4.0000 </r>
       <r>   -16.2610     0.0000     4.0000 </r>
       <r>   -16.1393     0.0000     4.0000 </r>
       <r>   -16.0176     0.0000     4.0000 </r>
       <r>   -15.8959     0.0000     4.0000 </r>
       <r>   -15.7742     0.0000     4.0000 </r>
       <r>   -15.6525     0.0000     4.0000 </r>
       <r>   -15.5308     0.0000     4.0000 </r>
       <r>   -15.4091     0.0000     4.0000 </r>
       <r>   -15.2873     0.0000     4.0000 </r>
       <r>   -15.1656     0.0000     4.0000 </r>
       <r>   -15.0439     0.0000     4.0000 </r>
       <r>   -14.9222     0.0000     4.0000 </r>
       <r>   -14.8005     0.0000     4.0000 </r>
       <r>   -14.6788     0.0000     4.0000 </r>
       <r>   -14.5571     0.0000     4.0000 </r>
       <r>   -14.4354     0.0000     4.0000 </r>
       <r>   -14.3137     0.0000     4.0000 </r>
       <r>   -14.1920     0.0000     4.0000 </r>
       <r>   -14.0703     0.0000     4.0000 </r>
       <r>   -13.9485     0.0000     4.0000 </r>
       <r>   -13.8268     0.0000     4.0000 </r>
       <r>   -13.7051     0.0000     4.0000 </r>
       <r>   -13.5834     0.0000     4.0000 </r>
       <r>   -13.4617     0.0000     4.0000 </r>
       <r>   -13.3400     0.0000     4.0000 </r>
       <r>   -13.2183     0.0652     4.0079 </r>
       <r>   -13.0966    12.8276     5.5692 </r>
       <r>   -12.9749     3.5397     6.0000 </r>
       <r>   -12.8532     1.9640     6.2390 </r>
       <r>   -12.7315    29.9262     9.8813 </r>
       <r>   -12.6097     0.9753    10.0000 </r>
       <r>   -12.4880     0.0000    10.0000 </r>
       <r>   -12.3663     0.0000    10.0000 </r>
       <r>   -12.2446     0.0000    10.0000 </r>
       <r>   -12.1229     0.0000    10.0000 </r>
       <r>   -12.0012     0.0000    10.0000 </r>
       <r>   -11.8795     0.0000    10.0000 </r>
       <r>   -11.7578     0.0000    10.0000 </r>
       <r>   -11.6361     0.0000    10.0000 </r>
       <r>   -11.5144     0.0000    10.0000 </r>
       <r>   -11.3927     0.0000    10.0000 </r>
       <r>   -11.2709     0.0000    10.0000 </r>
       <r>   -11.1492     0.0000    10.0000 </r>
       <r>   -11.0275     0.0000    10.0000 </r>
       <r>   -10.9058     0.0000    10.0000 </r>
       <r>   -10.7841     0.0000    10.0000 </r>
       <r>   -10.6624     0.0000    10.0000 </r>
       <r>   -10.5407     0.0000    10.0000 </r>
       <r>   -10.4190     0.0000    10.0000 </r>
       <r>   -10.2973     0.0000    10.0000 </r>
       <r>   -10.1756     0.0000    10.0000 </r>
       <r>   -10.0539     0.0000    10.0000 </r>
       <r>    -9.9321     0.0000    10.0000 </r>
       <r>    -9.8104     0.0000    10.0000 </r>
       <r>    -9.6887     0.0000    10.0000 </r>
       <r>    -9.5670     0.0000    10.0000 </r>
       <r>    -9.4453     0.0000    10.0000 </r>
       <r>    -9.3236     0.0000    10.0000 </r>
       <r>    -9.2019     0.0000    10.0000 </r>
       <r>    -9.0802     0.0000    10.0000 </r>
       <r>    -8.9585     0.0000    10.0000 </r>
       <r>    -8.8368     0.0000    10.0000 </r>
       <r>    -8.7151     0.0000    10.0000 </r>
       <r>    -8.5933     0.0000    10.0000 </r>
       <r>    -8.4716     0.0000    10.0000 </r>
       <r>    -8.3499     0.0000    10.0000 </r>
       <r>    -8.2282     0.0000    10.0000 </r>
       <r>    -8.1065     0.0000    10.0000 </r>
       <r>    -7.9848     0.0000    10.0000 </r>
       <r>    -7.8631     0.0000    10.0000 </r>
       <r>    -7.7414     0.0000    10.0000 </r>
       <r>    -7.6197     0.0000    10.0000 </r>
       <r>    -7.4980     0.0000    10.0000 </r>
       <r>    -7.3763     0.0000    10.0000 </r>
       <r>    -7.2545     0.0000    10.0000 </r>
       <r>    -7.1328     0.0000    10.0000 </r>
       <r>    -7.0111     0.0000    10.0000 </r>
       <r>    -6.8894     0.0000    10.0000 </r>
       <r>    -6.7677     0.0000    10.0000 </r>
       <r>    -6.6460     0.0000    10.0000 </r>
       <r>    -6.5243     0.0000    10.0000 </r>
       <r>    -6.4026     0.0000    10.0000 </r>
       <r>    -6.2809     0.0000    10.0000 </r>
       <r>    -6.1592     0.0000    10.0000 </r>
       <r>    -6.0375     0.0000    10.0000 </r>
       <r>    -5.9157     0.0000    10.0000 </r>
       <r>    -5.7940     0.2157    10.0263 </r>
       <r>    -5.6723    27.1289    13.3281 </r>
       <r>    -5.5506     5.5205    14.0000 </r>
       <r>    -5.4289     0.0002    14.0000 </r>
       <r>    -5.3072     0.0000    14.0000 </r>
       <r>    -5.1855     0.0000    14.0000 </r>
       <r>    -5.0638     0.0000    14.0000 </r>
       <r>    -4.9421     0.0000    14.0000 </r>
       <r>    -4.8204     0.0000    14.0000 </r>
       <r>    -4.6987     0.0000    14.0000 </r>
       <r>    -4.5770     0.0000    14.0000 </r>
       <r>    -4.4552     0.0000    14.0000 </r>
       <r>    -4.3335     0.0000    14.0000 </r>
       <r>    -4.2118     0.0000    14.0000 </r>
       <r>    -4.0901     0.0000    14.0000 </r>
       <r>    -3.9684     0.0000    14.0000 </r>
       <r>    -3.8467     0.0000    14.0000 </r>
       <r>    -3.7250     0.0000    14.0000 </r>
       <r>    -3.6033     0.0000    14.0000 </r>
       <r>    -3.4816     0.0000    14.0000 </r>
       <r>    -3.3599     0.0000    14.0000 </r>
       <r>    -3.2382     0.0000    14.0000 </r>
       <r>    -3.1164     0.0000    14.0000 </r>
       <r>    -2.9947     0.0000    14.0000 </r>
       <r>    -2.8730     0.0000    14.0000 </r>
       <r>    -2.7513     0.0000    14.0000 </r>
       <r>    -2.6296     0.0000    14.0000 </r>
       <r>    -2.5079     0.0000    14.0000 </r>
       <r>    -2.3862     0.0000    14.0000 </r>
       <r>    -2.2645     0.0000    14.0000 </r>
       <r>    -2.1428     0.0000    14.0000 </r>
       <r>    -2.0211     0.0000    14.0000 </r>
       <r>    -1.8994     0.0000    14.0000 </r>
       <r>    -1.7776     0.0000    14.0000 </r>
       <r>    -1.6559     0.0000    14.0000 </r>
       <r>    -1.5342     0.0000    14.0000 </r>
       <r>    -1.4125     0.0000    14.0000 </r>
       <r>    -1.2908     0.0000    14.0000 </r>
       <r>    -1.1691     0.0000    14.0000 </r>
       <r>    -1.0474     0.0000    14.0000 </r>
       <r>    -0.9257     0.0000    14.0000 </r>
       <r>    -0.8040     0.0000    14.0000 </r>
       <r>    -0.6823     0.0000    14.0000 </r>
       <r>    -0.5606     0.0000    14.0000 </r>
       <r>    -0.4388     0.0000    14.0000 </r>
       <r>    -0.3171     0.4002    14.0487 </r>
       <r>    -0.1954    14.8723    15.8588 </r>
       <r>    -0.0737     1.1602    16.0000 </r>
       <r>     0.0480     0.0000    16.0000 </r>
       <r>     0.1697     0.0000    16.0000 </r>
       <r>     0.2914     1.0547    16.1284 </r>
       <r>     0.4131    16.6598    18.1560 </r>
       <r>     0.5348    14.9167    19.9715 </r>
       <r>     0.6565     0.2340    20.0000 </r>
       <r>     0.7782     0.0000    20.0000 </r>
       <r>     0.9000     0.0000    20.0000 </r>
       <r>     1.0217     0.0000    20.0000 </r>
       <r>     1.1434     0.0000    20.0000 </r>
       <r>     1.2651     0.0000    20.0000 </r>
       <r>     1.3868     0.0000    20.0000 </r>
       <r>     1.5085     0.0000    20.0000 </r>
       <r>     1.6302     0.0000    20.0000 </r>
       <r>     1.7519     0.0000    20.0000 </r>
       <r>     1.8736     0.0000    20.0000 </r>
       <r>     1.9953     0.0000    20.0000 </r>
       <r>     2.1170     0.0000    20.0000 </r>
      </set>
     </set>
    </array>
   </total>
  </dos>
 </calculation>
 <structure name="finalpos" >
  <crystal>
   <varray name="basis" >
    <v>      14.50000000       0.00000000       0.00000000 </v>
    <v>       0.00000000      14.50000000       0.00000000 </v>
    <v>       0.00000000       0.00000000      14.50000000 </v>
   </varray>
   <i name="volume">   3048.62500000 </i>
   <varray name="rec_basis" >
    <v>       0.06896552       0.00000000       0.00000000 </v>
    <v>       0.00000000       0.06896552       0.00000000 </v>
    <v>       0.00000000       0.00000000       0.06896552 </v>
   </varray>
  </crystal>
  <varray name="positions" >
   <v>       0.00000000       0.00000000       0.00000000 </v>
   <v>       0.08275862       0.00000000       0.00000000 </v>
  </varray>
 </structure>
</modeling>
