NiAl                                    
            1
    14.500000    0.000000    0.000000
     0.000000   14.500000    0.000000
     0.000000    0.000000   14.500000
   O 
     2
Direct configuration=     1
   0.00000000  0.00000000  0.00000000
   0.08275862  0.00000000  0.00000000
