   4   4   0   0
  0.7621563E+03  0.1450000E-08  0.1450000E-08  0.1450000E-08  0.5000000E-15
   1.0000000000000000E-004
  CAR 
 NiAl                                    
      2.07627007    -34.56836448  301     -5.74383078      1.00000000
    -34.568  0.0000E+00  0.0000E+00
    -34.446  0.0000E+00  0.0000E+00
    -34.324  0.0000E+00  0.0000E+00
    -34.202  0.0000E+00  0.0000E+00
    -34.080  0.0000E+00  0.0000E+00
    -33.958  0.0000E+00  0.0000E+00
    -33.835  0.0000E+00  0.0000E+00
    -33.713  0.0000E+00  0.0000E+00
    -33.591  0.0000E+00  0.0000E+00
    -33.469  0.0000E+00  0.0000E+00
    -33.347  0.0000E+00  0.0000E+00
    -33.225  0.0000E+00  0.0000E+00
    -33.103  0.1287E-06  0.1573E-07
    -32.980  0.2285E+00  0.2791E-01
    -32.858  0.1443E+02  0.1791E+01
    -32.736  0.2117E+01  0.2050E+01
    -32.614  0.1486E+02  0.3864E+01
    -32.492  0.1113E+01  0.4000E+01
    -32.370  0.6200E-05  0.4000E+01
    -32.248  0.0000E+00  0.4000E+01
    -32.125  0.0000E+00  0.4000E+01
    -32.003  0.0000E+00  0.4000E+01
    -31.881  0.0000E+00  0.4000E+01
    -31.759  0.0000E+00  0.4000E+01
    -31.637  0.0000E+00  0.4000E+01
    -31.515  0.0000E+00  0.4000E+01
    -31.392  0.0000E+00  0.4000E+01
    -31.270  0.0000E+00  0.4000E+01
    -31.148  0.0000E+00  0.4000E+01
    -31.026  0.0000E+00  0.4000E+01
    -30.904  0.0000E+00  0.4000E+01
    -30.782  0.0000E+00  0.4000E+01
    -30.660  0.0000E+00  0.4000E+01
    -30.537  0.0000E+00  0.4000E+01
    -30.415  0.0000E+00  0.4000E+01
    -30.293  0.0000E+00  0.4000E+01
    -30.171  0.0000E+00  0.4000E+01
    -30.049  0.0000E+00  0.4000E+01
    -29.927  0.0000E+00  0.4000E+01
    -29.805  0.0000E+00  0.4000E+01
    -29.682  0.0000E+00  0.4000E+01
    -29.560  0.0000E+00  0.4000E+01
    -29.438  0.0000E+00  0.4000E+01
    -29.316  0.0000E+00  0.4000E+01
    -29.194  0.0000E+00  0.4000E+01
    -29.072  0.0000E+00  0.4000E+01
    -28.950  0.0000E+00  0.4000E+01
    -28.827  0.0000E+00  0.4000E+01
    -28.705  0.0000E+00  0.4000E+01
    -28.583  0.0000E+00  0.4000E+01
    -28.461  0.0000E+00  0.4000E+01
    -28.339  0.0000E+00  0.4000E+01
    -28.217  0.0000E+00  0.4000E+01
    -28.094  0.0000E+00  0.4000E+01
    -27.972  0.0000E+00  0.4000E+01
    -27.850  0.0000E+00  0.4000E+01
    -27.728  0.0000E+00  0.4000E+01
    -27.606  0.0000E+00  0.4000E+01
    -27.484  0.0000E+00  0.4000E+01
    -27.362  0.0000E+00  0.4000E+01
    -27.239  0.0000E+00  0.4000E+01
    -27.117  0.0000E+00  0.4000E+01
    -26.995  0.0000E+00  0.4000E+01
    -26.873  0.0000E+00  0.4000E+01
    -26.751  0.0000E+00  0.4000E+01
    -26.629  0.0000E+00  0.4000E+01
    -26.507  0.0000E+00  0.4000E+01
    -26.384  0.0000E+00  0.4000E+01
    -26.262  0.0000E+00  0.4000E+01
    -26.140  0.0000E+00  0.4000E+01
    -26.018  0.0000E+00  0.4000E+01
    -25.896  0.0000E+00  0.4000E+01
    -25.774  0.0000E+00  0.4000E+01
    -25.652  0.0000E+00  0.4000E+01
    -25.529  0.0000E+00  0.4000E+01
    -25.407  0.0000E+00  0.4000E+01
    -25.285  0.0000E+00  0.4000E+01
    -25.163  0.0000E+00  0.4000E+01
    -25.041  0.0000E+00  0.4000E+01
    -24.919  0.0000E+00  0.4000E+01
    -24.796  0.0000E+00  0.4000E+01
    -24.674  0.0000E+00  0.4000E+01
    -24.552  0.0000E+00  0.4000E+01
    -24.430  0.0000E+00  0.4000E+01
    -24.308  0.0000E+00  0.4000E+01
    -24.186  0.0000E+00  0.4000E+01
    -24.064  0.0000E+00  0.4000E+01
    -23.941  0.0000E+00  0.4000E+01
    -23.819  0.0000E+00  0.4000E+01
    -23.697  0.0000E+00  0.4000E+01
    -23.575  0.0000E+00  0.4000E+01
    -23.453  0.0000E+00  0.4000E+01
    -23.331  0.0000E+00  0.4000E+01
    -23.209  0.0000E+00  0.4000E+01
    -23.086  0.0000E+00  0.4000E+01
    -22.964  0.0000E+00  0.4000E+01
    -22.842  0.0000E+00  0.4000E+01
    -22.720  0.0000E+00  0.4000E+01
    -22.598  0.0000E+00  0.4000E+01
    -22.476  0.0000E+00  0.4000E+01
    -22.353  0.0000E+00  0.4000E+01
    -22.231  0.0000E+00  0.4000E+01
    -22.109  0.0000E+00  0.4000E+01
    -21.987  0.0000E+00  0.4000E+01
    -21.865  0.0000E+00  0.4000E+01
    -21.743  0.0000E+00  0.4000E+01
    -21.621  0.0000E+00  0.4000E+01
    -21.498  0.0000E+00  0.4000E+01
    -21.376  0.0000E+00  0.4000E+01
    -21.254  0.0000E+00  0.4000E+01
    -21.132  0.0000E+00  0.4000E+01
    -21.010  0.0000E+00  0.4000E+01
    -20.888  0.0000E+00  0.4000E+01
    -20.766  0.0000E+00  0.4000E+01
    -20.643  0.0000E+00  0.4000E+01
    -20.521  0.0000E+00  0.4000E+01
    -20.399  0.0000E+00  0.4000E+01
    -20.277  0.0000E+00  0.4000E+01
    -20.155  0.0000E+00  0.4000E+01
    -20.033  0.9243E-09  0.4000E+01
    -19.911  0.3184E-01  0.4004E+01
    -19.788  0.2089E+02  0.6556E+01
    -19.666  0.1182E+02  0.8000E+01
    -19.544  0.2277E-02  0.8000E+01
    -19.422  0.6150E-11  0.8000E+01
    -19.300  0.0000E+00  0.8000E+01
    -19.178  0.0000E+00  0.8000E+01
    -19.055  0.0000E+00  0.8000E+01
    -18.933  0.0000E+00  0.8000E+01
    -18.811  0.0000E+00  0.8000E+01
    -18.689  0.0000E+00  0.8000E+01
    -18.567  0.0000E+00  0.8000E+01
    -18.445  0.0000E+00  0.8000E+01
    -18.323  0.0000E+00  0.8000E+01
    -18.200  0.0000E+00  0.8000E+01
    -18.078  0.0000E+00  0.8000E+01
    -17.956  0.0000E+00  0.8000E+01
    -17.834  0.0000E+00  0.8000E+01
    -17.712  0.0000E+00  0.8000E+01
    -17.590  0.0000E+00  0.8000E+01
    -17.468  0.0000E+00  0.8000E+01
    -17.345  0.0000E+00  0.8000E+01
    -17.223  0.0000E+00  0.8000E+01
    -17.101  0.0000E+00  0.8000E+01
    -16.979  0.0000E+00  0.8000E+01
    -16.857  0.0000E+00  0.8000E+01
    -16.735  0.0000E+00  0.8000E+01
    -16.612  0.0000E+00  0.8000E+01
    -16.490  0.0000E+00  0.8000E+01
    -16.368  0.0000E+00  0.8000E+01
    -16.246  0.0000E+00  0.8000E+01
    -16.124  0.0000E+00  0.8000E+01
    -16.002  0.0000E+00  0.8000E+01
    -15.880  0.0000E+00  0.8000E+01
    -15.757  0.0000E+00  0.8000E+01
    -15.635  0.0000E+00  0.8000E+01
    -15.513  0.0000E+00  0.8000E+01
    -15.391  0.0000E+00  0.8000E+01
    -15.269  0.0000E+00  0.8000E+01
    -15.147  0.0000E+00  0.8000E+01
    -15.025  0.0000E+00  0.8000E+01
    -14.902  0.0000E+00  0.8000E+01
    -14.780  0.0000E+00  0.8000E+01
    -14.658  0.0000E+00  0.8000E+01
    -14.536  0.0000E+00  0.8000E+01
    -14.414  0.0000E+00  0.8000E+01
    -14.292  0.0000E+00  0.8000E+01
    -14.170  0.0000E+00  0.8000E+01
    -14.047  0.0000E+00  0.8000E+01
    -13.925  0.0000E+00  0.8000E+01
    -13.803  0.5619E-05  0.8000E+01
    -13.681  0.1072E+01  0.8131E+01
    -13.559  0.1488E+02  0.9948E+01
    -13.437  0.4243E+00  0.1000E+02
    -13.314  0.1471E-04  0.1000E+02
    -13.192  0.1636E+01  0.1020E+02
    -13.070  0.2839E+02  0.1367E+02
    -12.948  0.2744E+01  0.1400E+02
    -12.826  0.2011E+02  0.1646E+02
    -12.704  0.1261E+02  0.1800E+02
    -12.582  0.2930E-02  0.1800E+02
    -12.459  0.9731E-11  0.1800E+02
    -12.337  0.1091E-13  0.1800E+02
    -12.215  0.4785E-04  0.1800E+02
    -12.093  0.2304E+01  0.1828E+02
    -11.971  0.1393E+02  0.1998E+02
    -11.849  0.1426E+00  0.2000E+02
    -11.727  0.4464E-07  0.2000E+02
    -11.604  0.0000E+00  0.2000E+02
    -11.482  0.0000E+00  0.2000E+02
    -11.360  0.0000E+00  0.2000E+02
    -11.238  0.0000E+00  0.2000E+02
    -11.116  0.0000E+00  0.2000E+02
    -10.994  0.0000E+00  0.2000E+02
    -10.872  0.0000E+00  0.2000E+02
    -10.749  0.0000E+00  0.2000E+02
    -10.627  0.0000E+00  0.2000E+02
    -10.505  0.0000E+00  0.2000E+02
    -10.383  0.0000E+00  0.2000E+02
    -10.261  0.0000E+00  0.2000E+02
    -10.139  0.0000E+00  0.2000E+02
    -10.016  0.0000E+00  0.2000E+02
     -9.894  0.0000E+00  0.2000E+02
     -9.772  0.0000E+00  0.2000E+02
     -9.650  0.0000E+00  0.2000E+02
     -9.528  0.0000E+00  0.2000E+02
     -9.406  0.0000E+00  0.2000E+02
     -9.284  0.0000E+00  0.2000E+02
     -9.161  0.0000E+00  0.2000E+02
     -9.039  0.0000E+00  0.2000E+02
     -8.917  0.0000E+00  0.2000E+02
     -8.795  0.0000E+00  0.2000E+02
     -8.673  0.0000E+00  0.2000E+02
     -8.551  0.0000E+00  0.2000E+02
     -8.429  0.0000E+00  0.2000E+02
     -8.306  0.0000E+00  0.2000E+02
     -8.184  0.0000E+00  0.2000E+02
     -8.062  0.0000E+00  0.2000E+02
     -7.940  0.0000E+00  0.2000E+02
     -7.818  0.0000E+00  0.2000E+02
     -7.696  0.0000E+00  0.2000E+02
     -7.573  0.0000E+00  0.2000E+02
     -7.451  0.0000E+00  0.2000E+02
     -7.329  0.0000E+00  0.2000E+02
     -7.207  0.0000E+00  0.2000E+02
     -7.085  0.0000E+00  0.2000E+02
     -6.963  0.0000E+00  0.2000E+02
     -6.841  0.0000E+00  0.2000E+02
     -6.718  0.0000E+00  0.2000E+02
     -6.596  0.0000E+00  0.2000E+02
     -6.474  0.0000E+00  0.2000E+02
     -6.352  0.0000E+00  0.2000E+02
     -6.230  0.0000E+00  0.2000E+02
     -6.108  0.4045E-09  0.2000E+02
     -5.986  0.1492E-01  0.2000E+02
     -5.863  0.1034E+02  0.2127E+02
     -5.741  0.2334E+02  0.2412E+02
     -5.619  0.1988E+02  0.2654E+02
     -5.497  0.1188E+02  0.2800E+02
     -5.375  0.3583E-01  0.2800E+02
     -5.253  0.2366E-08  0.2800E+02
     -5.131  0.0000E+00  0.2800E+02
     -5.008  0.0000E+00  0.2800E+02
     -4.886  0.0000E+00  0.2800E+02
     -4.764  0.0000E+00  0.2800E+02
     -4.642  0.0000E+00  0.2800E+02
     -4.520  0.0000E+00  0.2800E+02
     -4.398  0.0000E+00  0.2800E+02
     -4.275  0.0000E+00  0.2800E+02
     -4.153  0.0000E+00  0.2800E+02
     -4.031  0.0000E+00  0.2800E+02
     -3.909  0.0000E+00  0.2800E+02
     -3.787  0.0000E+00  0.2800E+02
     -3.665  0.0000E+00  0.2800E+02
     -3.543  0.0000E+00  0.2800E+02
     -3.420  0.0000E+00  0.2800E+02
     -3.298  0.0000E+00  0.2800E+02
     -3.176  0.0000E+00  0.2800E+02
     -3.054  0.0000E+00  0.2800E+02
     -2.932  0.0000E+00  0.2800E+02
     -2.810  0.0000E+00  0.2800E+02
     -2.688  0.0000E+00  0.2800E+02
     -2.565  0.0000E+00  0.2800E+02
     -2.443  0.0000E+00  0.2800E+02
     -2.321  0.0000E+00  0.2800E+02
     -2.199  0.0000E+00  0.2800E+02
     -2.077  0.0000E+00  0.2800E+02
     -1.955  0.0000E+00  0.2800E+02
     -1.832  0.0000E+00  0.2800E+02
     -1.710  0.0000E+00  0.2800E+02
     -1.588  0.0000E+00  0.2800E+02
     -1.466  0.0000E+00  0.2800E+02
     -1.344  0.0000E+00  0.2800E+02
     -1.222  0.0000E+00  0.2800E+02
     -1.100  0.0000E+00  0.2800E+02
     -0.977  0.0000E+00  0.2800E+02
     -0.855  0.0000E+00  0.2800E+02
     -0.733  0.0000E+00  0.2800E+02
     -0.611  0.0000E+00  0.2800E+02
     -0.489  0.7034E-09  0.2800E+02
     -0.367  0.1969E-01  0.2800E+02
     -0.245  0.1083E+02  0.2933E+02
     -0.122  0.5521E+01  0.3000E+02
     -0.000  0.8736E-03  0.3000E+02
      0.122  0.1891E-11  0.3000E+02
      0.244  0.2016E-04  0.3000E+02
      0.366  0.1711E+01  0.3021E+02
      0.488  0.1443E+02  0.3197E+02
      0.610  0.2285E+00  0.3200E+02
      0.733  0.1287E-06  0.3200E+02
      0.855  0.0000E+00  0.3200E+02
      0.977  0.0000E+00  0.3200E+02
      1.099  0.0000E+00  0.3200E+02
      1.221  0.0000E+00  0.3200E+02
      1.343  0.0000E+00  0.3200E+02
      1.466  0.0000E+00  0.3200E+02
      1.588  0.0000E+00  0.3200E+02
      1.710  0.0000E+00  0.3200E+02
      1.832  0.0000E+00  0.3200E+02
      1.954  0.0000E+00  0.3200E+02
      2.076  0.0000E+00  0.3200E+02
