/store/Terry_project/NiAlO_EDIP_fitting_DFT/DATA/O4-3/O4_3_iter_last_lmp.data (written by ASE) 

4 	 atoms 
1  atom types
0.0                    14.5  xlo xhi
0.0                    14.5  ylo yhi
0.0                    14.5  zlo zhi


Atoms 

     1   1                       0                       0                       0
     2   1              1.19999999                       0                       0
     3   1     0.50000001999999999      13.900000005000001      2.4999999550000003
     4   1     0.50000001999999999     0.59999999500000001      2.4999999550000003
