 254 254   0   0
  0.2268316E+02  0.1514622E-08  0.1514622E-08  0.2900000E-08  0.5000000E-15
   1.0000000000000000E-004
  CAR 
 NiAl                                    
      6.47594339    -32.63938427  301     -0.49976618      1.00000000
    -32.639  0.0000E+00  0.0000E+00
    -32.509  0.0000E+00  0.0000E+00
    -32.379  0.0000E+00  0.0000E+00
    -32.248  0.0000E+00  0.0000E+00
    -32.118  0.0000E+00  0.0000E+00
    -31.987  0.0000E+00  0.0000E+00
    -31.857  0.0000E+00  0.0000E+00
    -31.727  0.0000E+00  0.0000E+00
    -31.596  0.0000E+00  0.0000E+00
    -31.466  0.0000E+00  0.0000E+00
    -31.336  0.0000E+00  0.0000E+00
    -31.205  0.0000E+00  0.0000E+00
    -31.075  0.1078E-07  0.1405E-08
    -30.944  0.1374E+00  0.1792E-01
    -30.814  0.1377E+02  0.1813E+01
    -30.684  0.1432E+01  0.2000E+01
    -30.553  0.4223E-05  0.2000E+01
    -30.423  0.0000E+00  0.2000E+01
    -30.292  0.0000E+00  0.2000E+01
    -30.162  0.0000E+00  0.2000E+01
    -30.032  0.0000E+00  0.2000E+01
    -29.901  0.0000E+00  0.2000E+01
    -29.771  0.0000E+00  0.2000E+01
    -29.641  0.0000E+00  0.2000E+01
    -29.510  0.0000E+00  0.2000E+01
    -29.380  0.0000E+00  0.2000E+01
    -29.249  0.0000E+00  0.2000E+01
    -29.119  0.0000E+00  0.2000E+01
    -28.989  0.0000E+00  0.2000E+01
    -28.858  0.0000E+00  0.2000E+01
    -28.728  0.0000E+00  0.2000E+01
    -28.597  0.0000E+00  0.2000E+01
    -28.467  0.0000E+00  0.2000E+01
    -28.337  0.0000E+00  0.2000E+01
    -28.206  0.0000E+00  0.2000E+01
    -28.076  0.0000E+00  0.2000E+01
    -27.946  0.0000E+00  0.2000E+01
    -27.815  0.0000E+00  0.2000E+01
    -27.685  0.0000E+00  0.2000E+01
    -27.554  0.0000E+00  0.2000E+01
    -27.424  0.0000E+00  0.2000E+01
    -27.294  0.0000E+00  0.2000E+01
    -27.163  0.0000E+00  0.2000E+01
    -27.033  0.0000E+00  0.2000E+01
    -26.902  0.0000E+00  0.2000E+01
    -26.772  0.0000E+00  0.2000E+01
    -26.642  0.0000E+00  0.2000E+01
    -26.511  0.0000E+00  0.2000E+01
    -26.381  0.0000E+00  0.2000E+01
    -26.251  0.0000E+00  0.2000E+01
    -26.120  0.0000E+00  0.2000E+01
    -25.990  0.0000E+00  0.2000E+01
    -25.859  0.0000E+00  0.2000E+01
    -25.729  0.0000E+00  0.2000E+01
    -25.599  0.0000E+00  0.2000E+01
    -25.468  0.0000E+00  0.2000E+01
    -25.338  0.0000E+00  0.2000E+01
    -25.207  0.0000E+00  0.2000E+01
    -25.077  0.0000E+00  0.2000E+01
    -24.947  0.0000E+00  0.2000E+01
    -24.816  0.0000E+00  0.2000E+01
    -24.686  0.0000E+00  0.2000E+01
    -24.556  0.0000E+00  0.2000E+01
    -24.425  0.0000E+00  0.2000E+01
    -24.295  0.0000E+00  0.2000E+01
    -24.164  0.0000E+00  0.2000E+01
    -24.034  0.0000E+00  0.2000E+01
    -23.904  0.0000E+00  0.2000E+01
    -23.773  0.0000E+00  0.2000E+01
    -23.643  0.0000E+00  0.2000E+01
    -23.512  0.0000E+00  0.2000E+01
    -23.382  0.0000E+00  0.2000E+01
    -23.252  0.0000E+00  0.2000E+01
    -23.121  0.0000E+00  0.2000E+01
    -22.991  0.0000E+00  0.2000E+01
    -22.861  0.0000E+00  0.2000E+01
    -22.730  0.0000E+00  0.2000E+01
    -22.600  0.0000E+00  0.2000E+01
    -22.469  0.0000E+00  0.2000E+01
    -22.339  0.0000E+00  0.2000E+01
    -22.209  0.0000E+00  0.2000E+01
    -22.078  0.0000E+00  0.2000E+01
    -21.948  0.0000E+00  0.2000E+01
    -21.817  0.0000E+00  0.2000E+01
    -21.687  0.0000E+00  0.2000E+01
    -21.557  0.0000E+00  0.2000E+01
    -21.426  0.0000E+00  0.2000E+01
    -21.296  0.0000E+00  0.2000E+01
    -21.166  0.0000E+00  0.2000E+01
    -21.035  0.0000E+00  0.2000E+01
    -20.905  0.0000E+00  0.2000E+01
    -20.774  0.0000E+00  0.2000E+01
    -20.644  0.0000E+00  0.2000E+01
    -20.514  0.0000E+00  0.2000E+01
    -20.383  0.0000E+00  0.2000E+01
    -20.253  0.0000E+00  0.2000E+01
    -20.122  0.0000E+00  0.2000E+01
    -19.992  0.0000E+00  0.2000E+01
    -19.862  0.0000E+00  0.2000E+01
    -19.731  0.0000E+00  0.2000E+01
    -19.601  0.0000E+00  0.2000E+01
    -19.471  0.0000E+00  0.2000E+01
    -19.340  0.0000E+00  0.2000E+01
    -19.210  0.0000E+00  0.2000E+01
    -19.079  0.0000E+00  0.2000E+01
    -18.949  0.0000E+00  0.2000E+01
    -18.819  0.0000E+00  0.2000E+01
    -18.688  0.0000E+00  0.2000E+01
    -18.558  0.0000E+00  0.2000E+01
    -18.427  0.0000E+00  0.2000E+01
    -18.297  0.0000E+00  0.2000E+01
    -18.167  0.0000E+00  0.2000E+01
    -18.036  0.0000E+00  0.2000E+01
    -17.906  0.0000E+00  0.2000E+01
    -17.776  0.0000E+00  0.2000E+01
    -17.645  0.0000E+00  0.2000E+01
    -17.515  0.0000E+00  0.2000E+01
    -17.384  0.0000E+00  0.2000E+01
    -17.254  0.0000E+00  0.2000E+01
    -17.124  0.0000E+00  0.2000E+01
    -16.993  0.0000E+00  0.2000E+01
    -16.863  0.0000E+00  0.2000E+01
    -16.732  0.0000E+00  0.2000E+01
    -16.602  0.0000E+00  0.2000E+01
    -16.472  0.0000E+00  0.2000E+01
    -16.341  0.0000E+00  0.2000E+01
    -16.211  0.0000E+00  0.2000E+01
    -16.081  0.0000E+00  0.2000E+01
    -15.950  0.0000E+00  0.2000E+01
    -15.820  0.0000E+00  0.2000E+01
    -15.689  0.0000E+00  0.2000E+01
    -15.559  0.0000E+00  0.2000E+01
    -15.429  0.0000E+00  0.2000E+01
    -15.298  0.0000E+00  0.2000E+01
    -15.168  0.0000E+00  0.2000E+01
    -15.037  0.0000E+00  0.2000E+01
    -14.907  0.8464E-09  0.2000E+01
    -14.777  0.4376E-01  0.2006E+01
    -14.646  0.1257E+02  0.3644E+01
    -14.516  0.2728E+01  0.4000E+01
    -14.386  0.3069E-04  0.4000E+01
    -14.255  0.0000E+00  0.4000E+01
    -14.125  0.0000E+00  0.4000E+01
    -13.994  0.0000E+00  0.4000E+01
    -13.864  0.0000E+00  0.4000E+01
    -13.734  0.0000E+00  0.4000E+01
    -13.603  0.0000E+00  0.4000E+01
    -13.473  0.0000E+00  0.4000E+01
    -13.342  0.0000E+00  0.4000E+01
    -13.212  0.0000E+00  0.4000E+01
    -13.082  0.0000E+00  0.4000E+01
    -12.951  0.0000E+00  0.4000E+01
    -12.821  0.0000E+00  0.4000E+01
    -12.691  0.0000E+00  0.4000E+01
    -12.560  0.0000E+00  0.4000E+01
    -12.430  0.0000E+00  0.4000E+01
    -12.299  0.0000E+00  0.4000E+01
    -12.169  0.0000E+00  0.4000E+01
    -12.039  0.0000E+00  0.4000E+01
    -11.908  0.0000E+00  0.4000E+01
    -11.778  0.0000E+00  0.4000E+01
    -11.647  0.0000E+00  0.4000E+01
    -11.517  0.0000E+00  0.4000E+01
    -11.387  0.0000E+00  0.4000E+01
    -11.256  0.0000E+00  0.4000E+01
    -11.126  0.0000E+00  0.4000E+01
    -10.996  0.0000E+00  0.4000E+01
    -10.865  0.0000E+00  0.4000E+01
    -10.735  0.0000E+00  0.4000E+01
    -10.604  0.0000E+00  0.4000E+01
    -10.474  0.0000E+00  0.4000E+01
    -10.344  0.0000E+00  0.4000E+01
    -10.213  0.0000E+00  0.4000E+01
    -10.083  0.0000E+00  0.4000E+01
     -9.952  0.0000E+00  0.4000E+01
     -9.822  0.1224E-08  0.4000E+01
     -9.692  0.7480E-01  0.4010E+01
     -9.561  0.2472E+02  0.7232E+01
     -9.431  0.5888E+01  0.8000E+01
     -9.301  0.7964E-04  0.8000E+01
     -9.170  0.3632E-02  0.8000E+01
     -9.040  0.8233E+01  0.9074E+01
     -8.909  0.1116E+02  0.1053E+02
     -8.779  0.2080E+02  0.1324E+02
     -8.649  0.1985E+01  0.1350E+02
     -8.518  0.2401E+01  0.1381E+02
     -8.388  0.9335E+01  0.1503E+02
     -8.257  0.3582E+02  0.1970E+02
     -8.127  0.1963E+02  0.2226E+02
     -7.997  0.5672E+01  0.2300E+02
     -7.866  0.9830E+01  0.2428E+02
     -7.736  0.1391E+02  0.2610E+02
     -7.606  0.2322E+02  0.2912E+02
     -7.475  0.5354E+02  0.3610E+02
     -7.345  0.1838E+02  0.3850E+02
     -7.214  0.2334E-01  0.3850E+02
     -7.084  0.2431E+02  0.4167E+02
     -6.954  0.6675E+02  0.5038E+02
     -6.823  0.2009E+02  0.5300E+02
     -6.693  0.7199E+01  0.5393E+02
     -6.562  0.2505E+02  0.5720E+02
     -6.432  0.4020E+02  0.6244E+02
     -6.302  0.5908E+02  0.7014E+02
     -6.171  0.3746E+02  0.7503E+02
     -6.041  0.3901E+02  0.8011E+02
     -5.911  0.7583E+02  0.9000E+02
     -5.780  0.4592E+02  0.9599E+02
     -5.650  0.1885E+01  0.9623E+02
     -5.519  0.2118E+02  0.9900E+02
     -5.389  0.8365E+02  0.1099E+03
     -5.259  0.1071E+03  0.1239E+03
     -5.128  0.6228E+02  0.1320E+03
     -4.998  0.1073E+03  0.1460E+03
     -4.868  0.8535E+02  0.1571E+03
     -4.737  0.6601E+02  0.1657E+03
     -4.607  0.2551E+03  0.1990E+03
     -4.476  0.1809E+03  0.2226E+03
     -4.346  0.2357E+03  0.2533E+03
     -4.216  0.2859E+03  0.2906E+03
     -4.085  0.2602E+03  0.3245E+03
     -3.955  0.2330E+03  0.3549E+03
     -3.824  0.4294E+03  0.4109E+03
     -3.694  0.5156E+03  0.4781E+03
     -3.564  0.4098E+03  0.5315E+03
     -3.433  0.4549E+03  0.5908E+03
     -3.303  0.3537E+03  0.6370E+03
     -3.173  0.3590E+03  0.6838E+03
     -3.042  0.5133E+03  0.7507E+03
     -2.912  0.3819E+03  0.8005E+03
     -2.781  0.5607E+03  0.8736E+03
     -2.651  0.5053E+03  0.9395E+03
     -2.521  0.5454E+03  0.1011E+04
     -2.390  0.6178E+03  0.1091E+04
     -2.260  0.7218E+03  0.1185E+04
     -2.129  0.9183E+03  0.1305E+04
     -1.999  0.7940E+03  0.1409E+04
     -1.869  0.9161E+03  0.1528E+04
     -1.738  0.5723E+03  0.1603E+04
     -1.608  0.5926E+03  0.1680E+04
     -1.478  0.5329E+03  0.1749E+04
     -1.347  0.7135E+03  0.1842E+04
     -1.217  0.7653E+03  0.1942E+04
     -1.086  0.5105E+03  0.2009E+04
     -0.956  0.7649E+03  0.2108E+04
     -0.826  0.8598E+03  0.2221E+04
     -0.695  0.6566E+03  0.2306E+04
     -0.565  0.1059E+04  0.2444E+04
     -0.434  0.1191E+04  0.2600E+04
     -0.304  0.4511E+03  0.2658E+04
     -0.174  0.1409E+03  0.2677E+04
     -0.043  0.1440E+03  0.2696E+04
      0.087  0.1621E+03  0.2717E+04
      0.217  0.4195E+02  0.2722E+04
      0.348  0.4892E+02  0.2729E+04
      0.478  0.9227E+02  0.2741E+04
      0.609  0.8964E+02  0.2752E+04
      0.739  0.9312E+02  0.2764E+04
      0.869  0.7999E+02  0.2775E+04
      1.000  0.1406E+03  0.2793E+04
      1.130  0.6884E+02  0.2802E+04
      1.261  0.2922E+02  0.2806E+04
      1.391  0.1238E+03  0.2822E+04
      1.521  0.2928E+02  0.2826E+04
      1.652  0.8574E+02  0.2837E+04
      1.782  0.9311E+02  0.2849E+04
      1.912  0.7705E+02  0.2859E+04
      2.043  0.9792E+02  0.2872E+04
      2.173  0.4014E+02  0.2877E+04
      2.304  0.1040E+03  0.2891E+04
      2.434  0.1070E+03  0.2905E+04
      2.564  0.2833E+02  0.2908E+04
      2.695  0.6131E+02  0.2916E+04
      2.825  0.1147E+02  0.2918E+04
      2.956  0.4812E+02  0.2924E+04
      3.086  0.1535E+03  0.2944E+04
      3.216  0.1545E+03  0.2964E+04
      3.347  0.2345E+02  0.2967E+04
      3.477  0.3935E+02  0.2973E+04
      3.607  0.8381E+02  0.2983E+04
      3.738  0.5178E+02  0.2990E+04
      3.868  0.4047E+02  0.2996E+04
      3.999  0.2021E+02  0.2998E+04
      4.129  0.1311E+02  0.3000E+04
      4.259  0.7093E+02  0.3009E+04
      4.390  0.4352E+02  0.3015E+04
      4.520  0.7667E+02  0.3025E+04
      4.651  0.6156E+02  0.3033E+04
      4.781  0.3974E+02  0.3038E+04
      4.911  0.1200E+00  0.3038E+04
      5.042  0.9107E-08  0.3038E+04
      5.172  0.0000E+00  0.3038E+04
      5.302  0.0000E+00  0.3038E+04
      5.433  0.0000E+00  0.3038E+04
      5.563  0.0000E+00  0.3038E+04
      5.694  0.0000E+00  0.3038E+04
      5.824  0.0000E+00  0.3038E+04
      5.954  0.0000E+00  0.3038E+04
      6.085  0.0000E+00  0.3038E+04
      6.215  0.0000E+00  0.3038E+04
      6.346  0.0000E+00  0.3038E+04
      6.476  0.0000E+00  0.3038E+04
