  254  254    1    1
  0.2268316E+02  0.1514622E-08  0.1514622E-08  0.2900000E-08  0.5000000E-15
   1.0000000000000000E-004
  CAR 
 NiAl                                    
   2532      4   1519
 
  0.1262379E-14  0.1262379E-14  0.1262379E-14  0.2500000E+00
    1      -30.861415   1.000000
    2      -14.679207   1.000000
    3       -9.593975   1.000000
    4       -9.592213   1.000000
    5       -9.059132   1.000000
    6       -9.029547   1.000000
    7       -8.529659   1.000000
    8       -8.151395   1.000000
    9       -8.151372   1.000000
   10       -8.151359   1.000000
   11       -8.151350   1.000000
   12       -8.151338   1.000000
   13       -8.151323   1.000000
   14       -7.700954   1.000000
   15       -7.645391   1.000000
   16       -7.645381   1.000000
   17       -7.645370   1.000000
   18       -7.645359   1.000000
   19       -7.645348   1.000000
   20       -7.645340   1.000000
   21       -6.857275   1.000000
   22       -6.857272   1.000000
   23       -6.857255   1.000000
   24       -6.857253   1.000000
   25       -6.857247   1.000000
   26       -6.857241   1.000000
   27       -6.670879   1.000000
   28       -6.510937   1.000000
   29       -6.510934   1.000000
   30       -6.510912   1.000000
   31       -6.510910   1.000000
   32       -6.510890   1.000000
   33       -6.510886   1.000000
   34       -6.088300   1.000000
   35       -6.088296   1.000000
   36       -6.088281   1.000000
   37       -6.088278   1.000000
   38       -6.088257   1.000000
   39       -6.088253   1.000000
   40       -5.885587   1.000000
   41       -5.885586   1.000000
   42       -5.885580   1.000000
   43       -5.885565   1.000000
   44       -5.885553   1.000000
   45       -5.885545   1.000000
   46       -5.880287   1.000000
   47       -5.880275   1.000000
   48       -5.880273   1.000000
   49       -5.880264   1.000000
   50       -5.880257   1.000000
   51       -5.880253   1.000000
   52       -5.646226   1.000000
   53       -5.545263   1.000000
   54       -5.545256   1.000000
   55       -5.545247   1.000000
   56       -5.545242   1.000000
   57       -5.545238   1.000000
   58       -5.545228   1.000000
   59       -5.455291   1.000000
   60       -5.455290   1.000000
   61       -5.455275   1.000000
   62       -5.455272   1.000000
   63       -5.455257   1.000000
   64       -5.455254   1.000000
   65       -5.087922   1.000000
   66       -5.087916   1.000000
   67       -5.087904   1.000000
   68       -5.087902   1.000000
   69       -5.087880   1.000000
   70       -5.087874   1.000000
   71       -4.990647   1.000000
   72       -4.934874   1.000000
   73       -4.934861   1.000000
   74       -4.934849   1.000000
   75       -4.934831   1.000000
   76       -4.934821   1.000000
   77       -4.934808   1.000000
   78       -4.800276   1.000000
   79       -4.742440   1.000000
   80       -4.742439   1.000000
   81       -4.742379   1.000000
   82       -4.724183   1.000000
   83       -4.724176   1.000000
   84       -4.724170   1.000000
   85       -4.724161   1.000000
   86       -4.724157   1.000000
   87       -4.724152   1.000000
   88       -4.620105   1.000000
   89       -4.620099   1.000000
   90       -4.620093   1.000000
   91       -4.620090   1.000000
   92       -4.620031   1.000000
   93       -4.620024   1.000000
   94       -4.586341   1.000000
   95       -4.586338   1.000000
   96       -4.586243   1.000000
   97       -4.510245   1.000000
   98       -4.510239   1.000000
   99       -4.510237   1.000000
  100       -4.510230   1.000000
  101       -4.510212   1.000000
  102       -4.510191   1.000000
  103       -4.510183   1.000000
  104       -4.510176   1.000000
  105       -4.510167   1.000000
  106       -4.510155   1.000000
  107       -4.510145   1.000000
  108       -4.510142   1.000000
  109       -4.464382   1.000000
  110       -4.464381   1.000000
  111       -4.464313   1.000000
  112       -4.377949   1.000000
  113       -4.377948   1.000000
  114       -4.377848   1.000000
  115       -4.356615   1.000000
  116       -4.356586   1.000000
  117       -4.356584   1.000000
  118       -4.356564   1.000000
  119       -4.356549   1.000000
  120       -4.356533   1.000000
  121       -4.311750   1.000000
  122       -4.311745   1.000000
  123       -4.311739   1.000000
  124       -4.311736   1.000000
  125       -4.311720   1.000000
  126       -4.311715   1.000000
  127       -4.311692   1.000000
  128       -4.311688   1.000000
  129       -4.311670   1.000000
  130       -4.311668   1.000000
  131       -4.311660   1.000000
  132       -4.311656   1.000000
  133       -4.277269   1.000000
  134       -4.277259   1.000000
  135       -4.277244   1.000000
  136       -4.277240   1.000000
  137       -4.277236   1.000000
  138       -4.277220   1.000000
  139       -4.277211   1.000000
  140       -4.277206   1.000000
  141       -4.277200   1.000000
  142       -4.277185   1.000000
  143       -4.277176   1.000000
  144       -4.277146   1.000000
  145       -4.232558   1.000000
  146       -4.232538   1.000000
  147       -4.232519   1.000000
  148       -4.232507   1.000000
  149       -4.232478   1.000000
  150       -4.232474   1.000000
  151       -4.196255   1.000000
  152       -4.196248   1.000000
  153       -4.196238   1.000000
  154       -4.196236   1.000000
  155       -4.196141   1.000000
  156       -4.196129   1.000000
  157       -4.176276   1.000000
  158       -4.176273   1.000000
  159       -4.176171   1.000000
  160       -4.139261   1.000000
  161       -4.139251   1.000000
  162       -4.139245   1.000000
  163       -4.139242   1.000000
  164       -4.139233   1.000000
  165       -4.139219   1.000000
  166       -4.139210   1.000000
  167       -4.139207   1.000000
  168       -4.139200   1.000000
  169       -4.139192   1.000000
  170       -4.139169   1.000000
  171       -4.139163   1.000000
  172       -4.069394   1.000000
  173       -4.069386   1.000000
  174       -4.069376   1.000000
  175       -4.069367   1.000000
  176       -4.069356   1.000000
  177       -4.069353   1.000000
  178       -4.029969   1.000000
  179       -4.029969   1.000000
  180       -4.029799   1.000000
  181       -3.961877   1.000000
  182       -3.961873   1.000000
  183       -3.961763   1.000000
  184       -3.939335   1.000000
  185       -3.939327   1.000000
  186       -3.939319   1.000000
  187       -3.939313   1.000000
  188       -3.939299   1.000000
  189       -3.939291   1.000000
  190       -3.939283   1.000000
  191       -3.939282   1.000000
  192       -3.939272   1.000000
  193       -3.939250   1.000000
  194       -3.939240   1.000000
  195       -3.939215   1.000000
  196       -3.876301   1.000000
  197       -3.876301   1.000000
  198       -3.876163   1.000000
  199       -3.821855   1.000000
  200       -3.821853   1.000000
  201       -3.821705   1.000000
  202       -3.819500   1.000000
  203       -3.819493   1.000000
  204       -3.819490   1.000000
  205       -3.819486   1.000000
  206       -3.819345   1.000000
  207       -3.819344   1.000000
  208       -3.750018   1.000000
  209       -3.750006   1.000000
  210       -3.749999   1.000000
  211       -3.749993   1.000000
  212       -3.749981   1.000000
  213       -3.749973   1.000000
  214       -3.749952   1.000000
  215       -3.749949   1.000000
  216       -3.749850   1.000000
  217       -3.749800   1.000000
  218       -3.749789   1.000000
  219       -3.749747   1.000000
  220       -3.743876   1.000000
  221       -3.743871   1.000000
  222       -3.743854   1.000000
  223       -3.743848   1.000000
  224       -3.743720   1.000000
  225       -3.743719   1.000000
  226       -3.690939   1.000000
  227       -3.690934   1.000000
  228       -3.690919   1.000000
  229       -3.690910   1.000000
  230       -3.690894   1.000000
  231       -3.690888   1.000000
  232       -3.690887   1.000000
  233       -3.690872   1.000000
  234       -3.690865   1.000000
  235       -3.690840   1.000000
  236       -3.690833   1.000000
  237       -3.690826   1.000000
  238       -3.667970   1.000000
  239       -3.667962   1.000000
  240       -3.667920   1.000000
  241       -3.667918   1.000000
  242       -3.667896   1.000000
  243       -3.667892   1.000000
  244       -3.628462   1.000000
  245       -3.628444   1.000000
  246       -3.628442   1.000000
  247       -3.628432   1.000000
  248       -3.628341   1.000000
  249       -3.628333   1.000000
  250       -3.624563   1.000000
  251       -3.624556   1.000000
  252       -3.624506   1.000000
  253       -3.624499   1.000000
  254       -3.616337   1.000000
  255       -3.616331   1.000000
  256       -3.561790   1.000000
  257       -3.561779   1.000000
  258       -3.561778   1.000000
  259       -3.561768   1.000000
  260       -3.561768   1.000000
  261       -3.561756   1.000000
  262       -3.561730   1.000000
  263       -3.561721   1.000000
  264       -3.561630   1.000000
  265       -3.561602   1.000000
  266       -3.561577   1.000000
  267       -3.561569   1.000000
  268       -3.553126   1.000000
  269       -3.553123   1.000000
  270       -3.553021   1.000000
  271       -3.528588   1.000000
  272       -3.528586   1.000000
  273       -3.528584   1.000000
  274       -3.528581   1.000000
  275       -3.506381   1.000000
  276       -3.506378   1.000000
  277       -3.506358   1.000000
  278       -3.506356   1.000000
  279       -3.506187   1.000000
  280       -3.506175   1.000000
  281       -3.494867   1.000000
  282       -3.494866   1.000000
  283       -3.484670   1.000000
  284       -3.484663   1.000000
  285       -3.484593   1.000000
  286       -3.484587   1.000000
  287       -3.482745   1.000000
  288       -3.482744   1.000000
  289       -3.479624   1.000000
  290       -3.479618   1.000000
  291       -3.479603   1.000000
  292       -3.479582   1.000000
  293       -3.479565   1.000000
  294       -3.479553   1.000000
  295       -3.410909   1.000000
  296       -3.410909   1.000000
  297       -3.410903   1.000000
  298       -3.410895   1.000000
  299       -3.403485   1.000000
  300       -3.403477   1.000000
  301       -3.403450   1.000000
  302       -3.403447   1.000000
  303       -3.403393   1.000000
  304       -3.403381   1.000000
  305       -3.403375   1.000000
  306       -3.403374   1.000000
  307       -3.403352   1.000000
  308       -3.403337   1.000000
  309       -3.403327   1.000000
  310       -3.403301   1.000000
  311       -3.331786   1.000000
  312       -3.331782   1.000000
  313       -3.331730   1.000000
  314       -3.331727   1.000000
  315       -3.331698   1.000000
  316       -3.331693   1.000000
  317       -3.295684   1.000000
  318       -3.295675   1.000000
  319       -3.295670   1.000000
  320       -3.295662   1.000000
  321       -3.295648   1.000000
  322       -3.295641   1.000000
  323       -3.295618   1.000000
  324       -3.295614   1.000000
  325       -3.295552   1.000000
  326       -3.295517   1.000000
  327       -3.295498   1.000000
  328       -3.295491   1.000000
  329       -3.285079   1.000000
  330       -3.285075   1.000000
  331       -3.285024   1.000000
  332       -3.285009   1.000000
  333       -3.284986   1.000000
  334       -3.284980   1.000000
  335       -3.277986   1.000000
  336       -3.277981   1.000000
  337       -3.277968   1.000000
  338       -3.277963   1.000000
  339       -3.277860   1.000000
  340       -3.277840   1.000000
  341       -3.190181   1.000000
  342       -3.190181   1.000000
  343       -3.190151   1.000000
  344       -3.150062   1.000000
  345       -3.150053   1.000000
  346       -3.149993   1.000000
  347       -3.149990   1.000000
  348       -3.149965   1.000000
  349       -3.149960   1.000000
  350       -3.138638   1.000000
  351       -3.138637   1.000000
  352       -3.115813   1.000000
  353       -3.115807   1.000000
  354       -3.115791   1.000000
  355       -3.115790   1.000000
  356       -3.115746   1.000000
  357       -3.115738   1.000000
  358       -3.115729   1.000000
  359       -3.115728   1.000000
  360       -3.115721   1.000000
  361       -3.115708   1.000000
  362       -3.115699   1.000000
  363       -3.115683   1.000000
  364       -3.106294   1.000000
  365       -3.106292   1.000000
  366       -3.044772   1.000000
  367       -3.044771   1.000000
  368       -3.044746   1.000000
  369       -3.044740   1.000000
  370       -3.044712   1.000000
  371       -3.044685   1.000000
  372       -3.019089   1.000000
  373       -3.019083   1.000000
  374       -3.019006   1.000000
  375       -3.018999   1.000000
  376       -3.018982   1.000000
  377       -3.018976   1.000000
  378       -3.018679   1.000000
  379       -3.018670   1.000000
  380       -3.018653   1.000000
  381       -3.018636   1.000000
  382       -3.018573   1.000000
  383       -3.018542   1.000000
  384       -2.967200   1.000000
  385       -2.967191   1.000000
  386       -2.967183   1.000000
  387       -2.967182   1.000000
  388       -2.967171   1.000000
  389       -2.967151   1.000000
  390       -2.967148   1.000000
  391       -2.967140   1.000000
  392       -2.967136   1.000000
  393       -2.967130   1.000000
  394       -2.967121   1.000000
  395       -2.967116   1.000000
  396       -2.911809   1.000000
  397       -2.911802   1.000000
  398       -2.911719   1.000000
  399       -2.911709   1.000000
  400       -2.911691   1.000000
  401       -2.911685   1.000000
  402       -2.853324   1.000000
  403       -2.853313   1.000000
  404       -2.853221   1.000000
  405       -2.853213   1.000000
  406       -2.853199   1.000000
  407       -2.853195   1.000000
  408       -2.842692   1.000000
  409       -2.842678   1.000000
  410       -2.842661   1.000000
  411       -2.842654   1.000000
  412       -2.842629   1.000000
  413       -2.842619   1.000000
  414       -2.816322   1.000000
  415       -2.816317   1.000000
  416       -2.816307   1.000000
  417       -2.816295   1.000000
  418       -2.816284   1.000000
  419       -2.816280   1.000000
  420       -2.810252   1.000000
  421       -2.810246   1.000000
  422       -2.810144   1.000000
  423       -2.810138   1.000000
  424       -2.810124   1.000000
  425       -2.810122   1.000000
  426       -2.786826   1.000000
  427       -2.786818   1.000000
  428       -2.786815   1.000000
  429       -2.786812   1.000000
  430       -2.786809   1.000000
  431       -2.786801   1.000000
  432       -2.782537   1.000000
  433       -2.782522   1.000000
  434       -2.782517   1.000000
  435       -2.782509   1.000000
  436       -2.782491   1.000000
  437       -2.782486   1.000000
  438       -2.782469   1.000000
  439       -2.782468   1.000000
  440       -2.782447   1.000000
  441       -2.782433   1.000000
  442       -2.782431   1.000000
  443       -2.782422   1.000000
  444       -2.719252   1.000000
  445       -2.719246   1.000000
  446       -2.719204   1.000000
  447       -2.709335   1.000000
  448       -2.709318   1.000000
  449       -2.709314   1.000000
  450       -2.709305   1.000000
  451       -2.709300   1.000000
  452       -2.709293   1.000000
  453       -2.709289   1.000000
  454       -2.709288   1.000000
  455       -2.709265   1.000000
  456       -2.709257   1.000000
  457       -2.709253   1.000000
  458       -2.709249   1.000000
  459       -2.705737   1.000000
  460       -2.705730   1.000000
  461       -2.705726   1.000000
  462       -2.705719   1.000000
  463       -2.705634   1.000000
  464       -2.705616   1.000000
  465       -2.668219   1.000000
  466       -2.668212   1.000000
  467       -2.668133   1.000000
  468       -2.668126   1.000000
  469       -2.618389   1.000000
  470       -2.618385   1.000000
  471       -2.618372   1.000000
  472       -2.618367   1.000000
  473       -2.618351   1.000000
  474       -2.618343   1.000000
  475       -2.615008   1.000000
  476       -2.615008   1.000000
  477       -2.612752   1.000000
  478       -2.612731   1.000000
  479       -2.612726   1.000000
  480       -2.612724   1.000000
  481       -2.612696   1.000000
  482       -2.612687   1.000000
  483       -2.612313   1.000000
  484       -2.612302   1.000000
  485       -2.612201   1.000000
  486       -2.612197   1.000000
  487       -2.612175   1.000000
  488       -2.612169   1.000000
  489       -2.606586   1.000000
  490       -2.606580   1.000000
  491       -2.606570   1.000000
  492       -2.606567   1.000000
  493       -2.606562   1.000000
  494       -2.606558   1.000000
  495       -2.606550   1.000000
  496       -2.606542   1.000000
  497       -2.606538   1.000000
  498       -2.606537   1.000000
  499       -2.606520   1.000000
  500       -2.606510   1.000000
  501       -2.554590   1.000000
  502       -2.554566   1.000000
  503       -2.554555   1.000000
  504       -2.554549   1.000000
  505       -2.554461   1.000000
  506       -2.554444   1.000000
  507       -2.546463   1.000000
  508       -2.546456   1.000000
  509       -2.546414   1.000000
  510       -2.546413   1.000000
  511       -2.546405   1.000000
  512       -2.546404   1.000000
  513       -2.520581   1.000000
  514       -2.520575   1.000000
  515       -2.520569   1.000000
  516       -2.520566   1.000000
  517       -2.510436   1.000000
  518       -2.492742   1.000000
  519       -2.492742   1.000000
  520       -2.492660   1.000000
  521       -2.492656   1.000000
  522       -2.492644   1.000000
  523       -2.492640   1.000000
  524       -2.471139   1.000000
  525       -2.447594   1.000000
  526       -2.447588   1.000000
  527       -2.447577   1.000000
  528       -2.447561   1.000000
  529       -2.447553   1.000000
  530       -2.447542   1.000000
  531       -2.447530   1.000000
  532       -2.447523   1.000000
  533       -2.447520   1.000000
  534       -2.447515   1.000000
  535       -2.447504   1.000000
  536       -2.447502   1.000000
  537       -2.431473   1.000000
  538       -2.431468   1.000000
  539       -2.431411   1.000000
  540       -2.431405   1.000000
  541       -2.431396   1.000000
  542       -2.431394   1.000000
  543       -2.404395   1.000000
  544       -2.404393   1.000000
  545       -2.404250   1.000000
  546       -2.389613   1.000000
  547       -2.389588   1.000000
  548       -2.389582   1.000000
  549       -2.389567   1.000000
  550       -2.389466   1.000000
  551       -2.389461   1.000000
  552       -2.375702   1.000000
  553       -2.375695   1.000000
  554       -2.375683   1.000000
  555       -2.375675   1.000000
  556       -2.375650   1.000000
  557       -2.375643   1.000000
  558       -2.375636   1.000000
  559       -2.375632   1.000000
  560       -2.375625   1.000000
  561       -2.375617   1.000000
  562       -2.375608   1.000000
  563       -2.375606   1.000000
  564       -2.367169   1.000000
  565       -2.367163   1.000000
  566       -2.367127   1.000000
  567       -2.367122   1.000000
  568       -2.367118   1.000000
  569       -2.367109   1.000000
  570       -2.365713   1.000000
  571       -2.365636   1.000000
  572       -2.365632   1.000000
  573       -2.315314   1.000000
  574       -2.315307   1.000000
  575       -2.315296   1.000000
  576       -2.315295   1.000000
  577       -2.315224   1.000000
  578       -2.315208   1.000000
  579       -2.313677   1.000000
  580       -2.313512   1.000000
  581       -2.312080   1.000000
  582       -2.311861   1.000000
  583       -2.300504   1.000000
  584       -2.300477   1.000000
  585       -2.300459   1.000000
  586       -2.300450   1.000000
  587       -2.300329   1.000000
  588       -2.300319   1.000000
  589       -2.282760   1.000000
  590       -2.271988   1.000000
  591       -2.271981   1.000000
  592       -2.271975   1.000000
  593       -2.271970   1.000000
  594       -2.271964   1.000000
  595       -2.271962   1.000000
  596       -2.258517   1.000000
  597       -2.258505   1.000000
  598       -2.258487   1.000000
  599       -2.258481   1.000000
  600       -2.258450   1.000000
  601       -2.258428   1.000000
  602       -2.253373   1.000000
  603       -2.253371   1.000000
  604       -2.253193   1.000000
  605       -2.239546   1.000000
  606       -2.239527   1.000000
  607       -2.239475   1.000000
  608       -2.239460   1.000000
  609       -2.239452   1.000000
  610       -2.239431   1.000000
  611       -2.223959   1.000000
  612       -2.223739   1.000000
  613       -2.199250   1.000000
  614       -2.199240   1.000000
  615       -2.199217   1.000000
  616       -2.195248   1.000000
  617       -2.195235   1.000000
  618       -2.195200   1.000000
  619       -2.195191   1.000000
  620       -2.195118   1.000000
  621       -2.195108   1.000000
  622       -2.194685   1.000000
  623       -2.179193   1.000000
  624       -2.179014   1.000000
  625       -2.164654   1.000000
  626       -2.164637   1.000000
  627       -2.164583   1.000000
  628       -2.164541   1.000000
  629       -2.164533   1.000000
  630       -2.164510   1.000000
  631       -2.158344   1.000000
  632       -2.158339   1.000000
  633       -2.158325   1.000000
  634       -2.141055   1.000000
  635       -2.141047   1.000000
  636       -2.141039   1.000000
  637       -2.141029   1.000000
  638       -2.140899   1.000000
  639       -2.140884   1.000000
  640       -2.129811   1.000000
  641       -2.129736   1.000000
  642       -2.129733   1.000000
  643       -2.117305   1.000000
  644       -2.117262   1.000000
  645       -2.117261   1.000000
  646       -2.117247   1.000000
  647       -2.117237   1.000000
  648       -2.117085   1.000000
  649       -2.112966   1.000000
  650       -2.112958   1.000000
  651       -2.112957   1.000000
  652       -2.112947   1.000000
  653       -2.112942   1.000000
  654       -2.112938   1.000000
  655       -2.112937   1.000000
  656       -2.112926   1.000000
  657       -2.112923   1.000000
  658       -2.112918   1.000000
  659       -2.112910   1.000000
  660       -2.112902   1.000000
  661       -2.103630   1.000000
  662       -2.103622   1.000000
  663       -2.103605   1.000000
  664       -2.103593   1.000000
  665       -2.103495   1.000000
  666       -2.103491   1.000000
  667       -2.098196   1.000000
  668       -2.098185   1.000000
  669       -2.098182   1.000000
  670       -2.098172   1.000000
  671       -2.098066   1.000000
  672       -2.098050   1.000000
  673       -2.051808   1.000000
  674       -2.051802   1.000000
  675       -2.051798   1.000000
  676       -2.051783   1.000000
  677       -2.051655   1.000000
  678       -2.051650   1.000000
  679       -2.047577   1.000000
  680       -2.029564   1.000000
  681       -2.029530   1.000000
  682       -2.029480   1.000000
  683       -2.029478   1.000000
  684       -2.029465   1.000000
  685       -2.029450   1.000000
  686       -2.005470   1.000000
  687       -2.005468   1.000000
  688       -2.005463   1.000000
  689       -2.005463   1.000000
  690       -2.000277   1.000000
  691       -2.000271   1.000000
  692       -2.000257   1.000000
  693       -2.000250   1.000000
  694       -2.000239   1.000000
  695       -2.000225   1.000000
  696       -2.000222   1.000000
  697       -2.000208   1.000000
  698       -2.000194   1.000000
  699       -2.000181   1.000000
  700       -2.000176   1.000000
  701       -2.000163   1.000000
  702       -1.994378   1.000000
  703       -1.994172   1.000000
  704       -1.985500   1.000000
  705       -1.985472   1.000000
  706       -1.985461   1.000000
  707       -1.985441   1.000000
  708       -1.985438   1.000000
  709       -1.985420   1.000000
  710       -1.985392   1.000000
  711       -1.985377   1.000000
  712       -1.985362   1.000000
  713       -1.985355   1.000000
  714       -1.985353   1.000000
  715       -1.985346   1.000000
  716       -1.982460   1.000000
  717       -1.982242   1.000000
  718       -1.959626   1.000000
  719       -1.959622   1.000000
  720       -1.959489   1.000000
  721       -1.959470   1.000000
  722       -1.959455   1.000000
  723       -1.959428   1.000000
  724       -1.936153   1.000000
  725       -1.936150   1.000000
  726       -1.936142   1.000000
  727       -1.936138   1.000000
  728       -1.936088   1.000000
  729       -1.936076   1.000000
  730       -1.913976   1.000000
  731       -1.913971   1.000000
  732       -1.913965   1.000000
  733       -1.913956   1.000000
  734       -1.913936   1.000000
  735       -1.913926   1.000000
  736       -1.913922   1.000000
  737       -1.913906   1.000000
  738       -1.913904   1.000000
  739       -1.913891   1.000000
  740       -1.913884   1.000000
  741       -1.913866   1.000000
  742       -1.869962   1.000000
  743       -1.869958   1.000000
  744       -1.869820   1.000000
  745       -1.869797   1.000000
  746       -1.869785   1.000000
  747       -1.869778   1.000000
  748       -1.862923   1.000000
  749       -1.862907   1.000000
  750       -1.862897   1.000000
  751       -1.862889   1.000000
  752       -1.862867   1.000000
  753       -1.862862   1.000000
  754       -1.814893   1.000000
  755       -1.814885   1.000000
  756       -1.814871   1.000000
  757       -1.814865   1.000000
  758       -1.814857   1.000000
  759       -1.814850   1.000000
  760       -1.814846   1.000000
  761       -1.814844   1.000000
  762       -1.814831   1.000000
  763       -1.814828   1.000000
  764       -1.814823   1.000000
  765       -1.814820   1.000000
  766       -1.810978   1.000000
  767       -1.810972   1.000000
  768       -1.810929   1.000000
  769       -1.810927   1.000000
  770       -1.810916   1.000000
  771       -1.810908   1.000000
  772       -1.804359   1.000000
  773       -1.804353   1.000000
  774       -1.804298   1.000000
  775       -1.804292   1.000000
  776       -1.804277   1.000000
  777       -1.804271   1.000000
  778       -1.772258   1.000000
  779       -1.772179   1.000000
  780       -1.772175   1.000000
  781       -1.768373   1.000000
  782       -1.768367   1.000000
  783       -1.768259   1.000000
  784       -1.768233   1.000000
  785       -1.768226   1.000000
  786       -1.768203   1.000000
  787       -1.749636   1.000000
  788       -1.749633   1.000000
  789       -1.749626   1.000000
  790       -1.749611   1.000000
  791       -1.749608   1.000000
  792       -1.749597   1.000000
  793       -1.743553   1.000000
  794       -1.743538   1.000000
  795       -1.743426   1.000000
  796       -1.743396   1.000000
  797       -1.743391   1.000000
  798       -1.743383   1.000000
  799       -1.722781   1.000000
  800       -1.722768   1.000000
  801       -1.722708   1.000000
  802       -1.722698   1.000000
  803       -1.722687   1.000000
  804       -1.722665   1.000000
  805       -1.714930   1.000000
  806       -1.714909   1.000000
  807       -1.714898   1.000000
  808       -1.714882   1.000000
  809       -1.714858   1.000000
  810       -1.714851   1.000000
  811       -1.714845   1.000000
  812       -1.714840   1.000000
  813       -1.714834   1.000000
  814       -1.714822   1.000000
  815       -1.714817   1.000000
  816       -1.714806   1.000000
  817       -1.675827   1.000000
  818       -1.675812   1.000000
  819       -1.675794   1.000000
  820       -1.675776   1.000000
  821       -1.675756   1.000000
  822       -1.675751   1.000000
  823       -1.675750   1.000000
  824       -1.675743   1.000000
  825       -1.675698   1.000000
  826       -1.675690   1.000000
  827       -1.675685   1.000000
  828       -1.675683   1.000000
  829       -1.641997   1.000000
  830       -1.641974   1.000000
  831       -1.641854   1.000000
  832       -1.641831   1.000000
  833       -1.641818   1.000000
  834       -1.641798   1.000000
  835       -1.640826   1.000000
  836       -1.640769   1.000000
  837       -1.640766   1.000000
  838       -1.636612   1.000000
  839       -1.636604   1.000000
  840       -1.636599   1.000000
  841       -1.636588   1.000000
  842       -1.636581   1.000000
  843       -1.636576   1.000000
  844       -1.625326   1.000000
  845       -1.625320   1.000000
  846       -1.625244   1.000000
  847       -1.625238   1.000000
  848       -1.625219   1.000000
  849       -1.625216   1.000000
  850       -1.617028   1.000000
  851       -1.616923   1.000000
  852       -1.616903   1.000000
  853       -1.616861   1.000000
  854       -1.616776   1.000000
  855       -1.616767   1.000000
  856       -1.612570   1.000000
  857       -1.612560   1.000000
  858       -1.612545   1.000000
  859       -1.612543   1.000000
  860       -1.612534   1.000000
  861       -1.612532   1.000000
  862       -1.592249   1.000000
  863       -1.592207   1.000000
  864       -1.592205   1.000000
  865       -1.557773   1.000000
  866       -1.557767   1.000000
  867       -1.557746   1.000000
  868       -1.557741   1.000000
  869       -1.557735   1.000000
  870       -1.557727   1.000000
  871       -1.526704   1.000000
  872       -1.526687   1.000000
  873       -1.526679   1.000000
  874       -1.526673   1.000000
  875       -1.526659   1.000000
  876       -1.526650   1.000000
  877       -1.526645   1.000000
  878       -1.526640   1.000000
  879       -1.526629   1.000000
  880       -1.526625   1.000000
  881       -1.526621   1.000000
  882       -1.526611   1.000000
  883       -1.520723   1.000000
  884       -1.507360   1.000000
  885       -1.507174   1.000000
  886       -1.507109   1.000000
  887       -1.507046   1.000000
  888       -1.506972   1.000000
  889       -1.506961   1.000000
  890       -1.454358   1.000000
  891       -1.454343   1.000000
  892       -1.454241   1.000000
  893       -1.454222   1.000000
  894       -1.454206   1.000000
  895       -1.454204   1.000000
  896       -1.399959   1.000000
  897       -1.399954   1.000000
  898       -1.399943   1.000000
  899       -1.399936   1.000000
  900       -1.399933   1.000000
  901       -1.399927   1.000000