       N       E                     dE             d eps       ncg     rms          rms(c)
DAV:   1     0.241532837687E+04    0.24153E+04   -0.20461E+05  3088   0.854E+02
DAV:   2    -0.691565323365E+03   -0.31069E+04   -0.29357E+04  4184   0.202E+02
DAV:   3    -0.941012151129E+03   -0.24945E+03   -0.23567E+03  4512   0.449E+01
DAV:   4    -0.957580504573E+03   -0.16568E+02   -0.16183E+02  4712   0.105E+01
DAV:   5    -0.958175167750E+03   -0.59466E+00   -0.59048E+00  4488   0.219E+00    0.491E+01
DAV:   6    -0.970733847626E+03   -0.12559E+02   -0.18970E+02  4064   0.165E+01    0.354E+01
DAV:   7    -0.950659109074E+03    0.20075E+02   -0.24653E+02  4000   0.226E+01    0.255E+01
DAV:   8    -0.944940086141E+03    0.57190E+01   -0.13918E+02  4048   0.142E+01    0.955E+00
DAV:   9    -0.946499306505E+03   -0.15592E+01   -0.22652E+01  4008   0.142E+01    0.997E+00
DAV:  10    -0.929913004835E+03    0.16586E+02   -0.20042E+01  4152   0.827E+00    0.215E+00
DAV:  11    -0.929735998009E+03    0.17701E+00   -0.72195E+00  4008   0.280E+00    0.986E-01
DAV:  12    -0.929665734784E+03    0.70263E-01   -0.66074E-01  4200   0.107E+00    0.785E-01
DAV:  13    -0.929607262362E+03    0.58472E-01   -0.15975E-01  3712   0.553E-01    0.561E-01
DAV:  14    -0.929566805123E+03    0.40457E-01   -0.73363E-02  4000   0.380E-01    0.410E-01
DAV:  15    -0.929555166113E+03    0.11639E-01   -0.48230E-02  3656   0.261E-01    0.304E-01
DAV:  16    -0.929553106787E+03    0.20593E-02   -0.21648E-02  3624   0.179E-01    0.177E-01
DAV:  17    -0.929559917458E+03   -0.68107E-02   -0.18073E-02  3640   0.131E-01    0.168E-01
DAV:  18    -0.929565249900E+03   -0.53324E-02   -0.36812E-03  3912   0.918E-02    0.112E-01
DAV:  19    -0.929566919630E+03   -0.16697E-02   -0.20315E-03  3776   0.576E-02    0.664E-02
DAV:  20    -0.929569521777E+03   -0.26021E-02   -0.10054E-03  3792   0.429E-02    0.318E-02
DAV:  21    -0.929571496557E+03   -0.19748E-02   -0.49510E-04  3336   0.253E-02    0.472E-02
DAV:  22    -0.929572077463E+03   -0.58091E-03   -0.95441E-05  3792   0.143E-02    0.362E-02
DAV:  23    -0.929573228921E+03   -0.11515E-02   -0.12229E-04  3704   0.148E-02    0.106E-02
DAV:  24    -0.929573952008E+03   -0.72309E-03   -0.12472E-04  3384   0.921E-03    0.205E-02
DAV:  25    -0.929574377968E+03   -0.42596E-03   -0.16388E-05  2768   0.464E-03    0.191E-02
DAV:  26    -0.929574898421E+03   -0.52045E-03   -0.19462E-05  2712   0.578E-03    0.909E-03
DAV:  27    -0.929575449416E+03   -0.55100E-03   -0.41279E-05  3152   0.613E-03    0.774E-03
DAV:  28    -0.929575641375E+03   -0.19196E-03   -0.80451E-06  2560   0.334E-03    0.515E-03
DAV:  29    -0.929575832676E+03   -0.19130E-03   -0.12445E-05  2536   0.283E-03    0.187E-03
DAV:  30    -0.929575904441E+03   -0.71765E-04   -0.41471E-06  2376   0.140E-03    0.247E-03
DAV:  31    -0.929575926105E+03   -0.21664E-04   -0.83451E-07  2000   0.769E-04    0.215E-03
DAV:  32    -0.929575936857E+03   -0.10752E-04   -0.67169E-07  1992   0.108E-03    0.160E-03
DAV:  33    -0.929575938335E+03   -0.14778E-05   -0.27779E-07  1816   0.567E-04
   1 F= -.10023707E+04 E0= -.10023379E+04  d E =-.655403E-01
