         260
 Energy:   350.63589739999998      en   466.62611740000000      edisp  -115.99021999999999     
 X   0.00000000       0.00000000       0.00000000    
 X   10.5415001       0.00000000       0.00000000    
 X   5.27075005       9.12920666       0.00000000    
 X   0.00000000       0.00000000       28.5415001    
 X   15.8122501       9.12920666       0.00000000    
 X   10.5415001       0.00000000       28.5415001    
 X   5.27075005       9.12920666       28.5415001    
 X   15.8122501       9.12920666       28.5415001    
 Ni   0.00000000       0.00000000       0.00000000    
 Ni   0.00000000       0.00000000       2.10829997    
 Ni   0.00000000       0.00000000       4.21659994    
 Ni   0.00000000       0.00000000       6.32490015    
 Ni   0.00000000       0.00000000       8.43319988    
 Ni   1.05414999       1.82584000       0.00000000    
 Ni   1.05414999       1.82584000       2.10829997    
 Ni   1.05414999       1.82584000       4.21659994    
 Ni   1.05414999       1.82584000       6.32490015    
 Ni   1.05414999       1.82584000       8.43319988    
 Ni   2.10829997       3.65167999       0.00000000    
 Ni   2.10829997       3.65167999       2.10829997    
 Ni   2.10829997       3.65167999       4.21659994    
 Ni   2.10829997       3.65167999       6.32490015    
 Ni   2.10829997       3.65167999       8.43319988    
 Ni   3.16245008       5.47751999       0.00000000    
 Ni   3.16245008       5.47751999       2.10829997    
 Ni   3.16245008       5.47751999       4.21659994    
 Ni   3.16245008       5.47751999       6.32490015    
 Ni   3.16245008       5.47751999       8.43319988    
 Ni   4.21659994       7.30337000       0.00000000    
 Ni   4.21659994       7.30337000       2.10829997    
 Ni   4.21659994       7.30337000       4.21659994    
 Ni   4.21659994       7.30337000       6.32490015    
 Ni   4.21659994       7.30337000       8.43319988    
 Ni   2.10829997       0.00000000       0.00000000    
 Ni   2.10829997       0.00000000       2.10829997    
 Ni   2.10829997       0.00000000       4.21659994    
 Ni   2.10829997       0.00000000       6.32490015    
 Ni   2.10829997       0.00000000       8.43319988    
 Ni   3.16245008       1.82584000       0.00000000    
 Ni   3.16245008       1.82584000       2.10829997    
 Ni   3.16245008       1.82584000       4.21659994    
 Ni   3.16245008       1.82584000       6.32490015    
 Ni   3.16245008       1.82584000       8.43319988    
 Ni   4.21659994       3.65167999       0.00000000    
 Ni   4.21659994       3.65167999       2.10829997    
 Ni   4.21659994       3.65167999       4.21659994    
 Ni   4.21659994       3.65167999       6.32490015    
 Ni   4.21659994       3.65167999       8.43319988    
 Ni   5.27075005       5.47751999       0.00000000    
 Ni   5.27075005       5.47751999       2.10829997    
 Ni   5.27075005       5.47751999       4.21659994    
 Ni   5.27075005       5.47751999       6.32490015    
 Ni   5.27075005       5.47751999       8.43319988    
 Ni   6.32490015       7.30337000       0.00000000    
 Ni   6.32490015       7.30337000       2.10829997    
 Ni   6.32490015       7.30337000       4.21659994    
 Ni   6.32490015       7.30337000       6.32490015    
 Ni   6.32490015       7.30337000       8.43319988    
 Ni   4.21659994       0.00000000       0.00000000    
 Ni   4.21659994       0.00000000       2.10829997    
 Ni   4.21659994       0.00000000       4.21659994    
 Ni   4.21659994       0.00000000       6.32490015    
 Ni   4.21659994       0.00000000       8.43319988    
 Ni   5.27075005       1.82584000       0.00000000    
 Ni   5.27075005       1.82584000       2.10829997    
 Ni   5.27075005       1.82584000       4.21659994    
 Ni   5.27075005       1.82584000       6.32490015    
 Ni   5.27075005       1.82584000       8.43319988    
 Ni   6.32490015       3.65167999       0.00000000    
 Ni   6.32490015       3.65167999       2.10829997    
 Ni   6.32490015       3.65167999       4.21659994    
 Ni   6.32490015       3.65167999       6.32490015    
 Ni   6.32490015       3.65167999       8.43319988    
 Ni   7.37904978       5.47751999       0.00000000    
 Ni   7.37904978       5.47751999       2.10829997    
 Ni   7.37904978       5.47751999       4.21659994    
 Ni   7.37904978       5.47751999       6.32490015    
 Ni   7.37904978       5.47751999       8.43319988    
 Ni   8.43319988       7.30337000       0.00000000    
 Ni   8.43319988       7.30337000       2.10829997    
 Ni   8.43319988       7.30337000       4.21659994    
 Ni   8.43319988       7.30337000       6.32490015    
 Ni   8.43319988       7.30337000       8.43319988    
 Ni   6.32490015       0.00000000       0.00000000    
 Ni   6.32490015       0.00000000       2.10829997    
 Ni   6.32490015       0.00000000       4.21659994    
 Ni   6.32490015       0.00000000       6.32490015    
 Ni   6.32490015       0.00000000       8.43319988    
 Ni   7.37904978       1.82584000       0.00000000    
 Ni   7.37904978       1.82584000       2.10829997    
 Ni   7.37904978       1.82584000       4.21659994    
 Ni   7.37904978       1.82584000       6.32490015    
 Ni   7.37904978       1.82584000       8.43319988    
 Ni   8.43319988       3.65167999       0.00000000    
 Ni   8.43319988       3.65167999       2.10829997    
 Ni   8.43319988       3.65167999       4.21659994    
 Ni   8.43319988       3.65167999       6.32490015    
 Ni   8.43319988       3.65167999       8.43319988    
 Ni   9.48735046       5.47751999       0.00000000    
 Ni   9.48735046       5.47751999       2.10829997    
 Ni   9.48735046       5.47751999       4.21659994    
 Ni   9.48735046       5.47751999       6.32490015    
 Ni   9.48735046       5.47751999       8.43319988    
 Ni   10.5415001       7.30337000       0.00000000    
 Ni   10.5415001       7.30337000       2.10829997    
 Ni   10.5415001       7.30337000       4.21659994    
 Ni   10.5415001       7.30337000       6.32490015    
 Ni   10.5415001       7.30337000       8.43319988    
 Ni   8.43319988       0.00000000       0.00000000    
 Ni   8.43319988       0.00000000       2.10829997    
 Ni   8.43319988       0.00000000       4.21659994    
 Ni   8.43319988       0.00000000       6.32490015    
 Ni   8.43319988       0.00000000       8.43319988    
 Ni   9.48735046       1.82584000       0.00000000    
 Ni   9.48735046       1.82584000       2.10829997    
 Ni   9.48735046       1.82584000       4.21659994    
 Ni   9.48735046       1.82584000       6.32490015    
 Ni   9.48735046       1.82584000       8.43319988    
 Ni   10.5415001       3.65167999       0.00000000    
 Ni   10.5415001       3.65167999       2.10829997    
 Ni   10.5415001       3.65167999       4.21659994    
 Ni   10.5415001       3.65167999       6.32490015    
 Ni   10.5415001       3.65167999       8.43319988    
 Ni   11.5956497       5.47751999       0.00000000    
 Ni   11.5956497       5.47751999       2.10829997    
 Ni   11.5956497       5.47751999       4.21659994    
 Ni   11.5956497       5.47751999       6.32490015    
 Ni   11.5956497       5.47751999       8.43319988    
 Ni   12.6498003       7.30337000       0.00000000    
 Ni   12.6498003       7.30337000       2.10829997    
 Ni   12.6498003       7.30337000       4.21659994    
 Ni   12.6498003       7.30337000       6.32490015    
 Ni   12.6498003       7.30337000       8.43319988    
 O    1.58123004      0.912919998       1.05414999    
 O    1.58123004      0.912919998       3.16245008    
 O    1.58123004      0.912919998       5.27075005    
 O    1.58123004      0.912919998       7.37904978    
 O    1.58123004      0.912919998       9.48735046    
 O    2.63538003       2.73875999       1.05414999    
 O    2.63538003       2.73875999       3.16245008    
 O    2.63538003       2.73875999       5.27075005    
 O    2.63538003       2.73875999       7.37904978    
 O    2.63538003       2.73875999       9.48735046    
 O    3.68952990       4.56459999       1.05414999    
 O    3.68952990       4.56459999       3.16245008    
 O    3.68952990       4.56459999       5.27075005    
 O    3.68952990       4.56459999       7.37904978    
 O    3.68952990       4.56459999       9.48735046    
 O    4.74366999       6.39043999       1.05414999    
 O    4.74366999       6.39043999       3.16245008    
 O    4.74366999       6.39043999       5.27075005    
 O    4.74366999       6.39043999       7.37904978    
 O    4.74366999       6.39043999       9.48735046    
 O    5.79782009       8.21629047       1.05414999    
 O    5.79782009       8.21629047       3.16245008    
 O    5.79782009       8.21629047       5.27075005    
 O    5.79782009       8.21629047       7.37904978    
 O    5.79782009       8.21629047       9.48735046    
 O    3.68952990      0.912919998       1.05414999    
 O    3.68952990      0.912919998       3.16245008    
 O    3.68952990      0.912919998       5.27075005    
 O    3.68952990      0.912919998       7.37904978    
 O    3.68952990      0.912919998       9.48735046    
 O    4.74368000       2.73875999       1.05414999    
 O    4.74368000       2.73875999       3.16245008    
 O    4.74368000       2.73875999       5.27075005    
 O    4.74368000       2.73875999       7.37904978    
 O    4.74368000       2.73875999       9.48735046    
 O    5.79783010       4.56459999       1.05414999    
 O    5.79783010       4.56459999       3.16245008    
 O    5.79783010       4.56459999       5.27075005    
 O    5.79783010       4.56459999       7.37904978    
 O    5.79783010       4.56459999       9.48735046    
 O    6.85198021       6.39043999       1.05414999    
 O    6.85198021       6.39043999       3.16245008    
 O    6.85198021       6.39043999       5.27075005    
 O    6.85198021       6.39043999       7.37904978    
 O    6.85198021       6.39043999       9.48735046    
 O    7.90612984       8.21629047       1.05414999    
 O    7.90612984       8.21629047       3.16245008    
 O    7.90612984       8.21629047       5.27075005    
 O    7.90612984       8.21629047       7.37904978    
 O    7.90612984       8.21629047       9.48735046    
 O    5.79783010      0.912919998       1.05414999    
 O    5.79783010      0.912919998       3.16245008    
 O    5.79783010      0.912919998       5.27075005    
 O    5.79783010      0.912919998       7.37904978    
 O    5.79783010      0.912919998       9.48735046    
 O    6.85198021       2.73875999       1.05414999    
 O    6.85198021       2.73875999       3.16245008    
 O    6.85198021       2.73875999       5.27075005    
 O    6.85198021       2.73875999       7.37904978    
 O    6.85198021       2.73875999       9.48735046    
 O    7.90612984       4.56459999       1.05414999    
 O    7.90612984       4.56459999       3.16245008    
 O    7.90612984       4.56459999       5.27075005    
 O    7.90612984       4.56459999       7.37904978    
 O    7.90612984       4.56459999       9.48735046    
 O    8.96028042       6.39043999       1.05414999    
 O    8.96028042       6.39043999       3.16245008    
 O    8.96028042       6.39043999       5.27075005    
 O    8.96028042       6.39043999       7.37904978    
 O    8.96028042       6.39043999       9.48735046    
 O    10.0144196       8.21629047       1.05414999    
 O    10.0144196       8.21629047       3.16245008    
 O    10.0144196       8.21629047       5.27075005    
 O    10.0144196       8.21629047       7.37904978    
 O    10.0144196       8.21629047       9.48735046    
 O    7.90611982      0.912919998       1.05414999    
 O    7.90611982      0.912919998       3.16245008    
 O    7.90611982      0.912919998       5.27075005    
 O    7.90611982      0.912919998       7.37904978    
 O    7.90611982      0.912919998       9.48735046    
 O    8.96028042       2.73875999       1.05414999    
 O    8.96028042       2.73875999       3.16245008    
 O    8.96028042       2.73875999       5.27075005    
 O    8.96028042       2.73875999       7.37904978    
 O    8.96028042       2.73875999       9.48735046    
 O    10.0144196       4.56459999       1.05414999    
 O    10.0144196       4.56459999       3.16245008    
 O    10.0144196       4.56459999       5.27075005    
 O    10.0144196       4.56459999       7.37904978    
 O    10.0144196       4.56459999       9.48735046    
 O    11.0685701       6.39043999       1.05414999    
 O    11.0685701       6.39043999       3.16245008    
 O    11.0685701       6.39043999       5.27075005    
 O    11.0685701       6.39043999       7.37904978    
 O    11.0685701       6.39043999       9.48735046    
 O    12.1227198       8.21629047       1.05414999    
 O    12.1227198       8.21629047       3.16245008    
 O    12.1227198       8.21629047       5.27075005    
 O    12.1227198       8.21629047       7.37904978    
 O    12.1227198       8.21629047       9.48735046    
 O    10.0144196      0.912919998       1.05414999    
 O    10.0144196      0.912919998       3.16245008    
 O    10.0144196      0.912919998       5.27075005    
 O    10.0144196      0.912919998       7.37904978    
 O    10.0144196      0.912919998       9.48735046    
 O    11.0685701       2.73875999       1.05414999    
 O    11.0685701       2.73875999       3.16245008    
 O    11.0685701       2.73875999       5.27075005    
 O    11.0685701       2.73875999       7.37904978    
 O    11.0685701       2.73875999       9.48735046    
 O    12.1227198       4.56459999       1.05414999    
 O    12.1227198       4.56459999       3.16245008    
 O    12.1227198       4.56459999       5.27075005    
 O    12.1227198       4.56459999       7.37904978    
 O    12.1227198       4.56459999       9.48735046    
 O    13.1768703       6.39043999       1.05414999    
 O    13.1768703       6.39043999       3.16245008    
 O    13.1768703       6.39043999       5.27075005    
 O    13.1768703       6.39043999       7.37904978    
 O    13.1768703       6.39043999       9.48735046    
 O    14.2310200       8.21629047       1.05414999    
 O    14.2310200       8.21629047       3.16245008    
 O    14.2310200       8.21629047       5.27075005    
 O    14.2310200       8.21629047       7.37904978    
 O    14.2310200       8.21629047       9.48735046    
 O    6.66359997       3.84722996       10.4873505    
 O    6.66359997       5.04722977       10.4873505    
         260
 Energy:  -28.996386599999994      en   81.664683400000001      edisp  -110.66107000000000     
 X   0.00000000       0.00000000       0.00000000    
 X   10.5415001       0.00000000       0.00000000    
 X   5.27075005       9.12920666       0.00000000    
 X   0.00000000       0.00000000       28.5415001    
 X   15.8122501       9.12920666       0.00000000    
 X   10.5415001       0.00000000       28.5415001    
 X   5.27075005       9.12920666       28.5415001    
 X   15.8122501       9.12920666       28.5415001    
 Ni   9.99999975E-05   2.20000002E-04 -0.536670029    
 Ni   9.20000020E-04   2.09999998E-04   2.07495999    
 Ni   6.20000006E-04  -3.49999988E-04   4.21882010    
 Ni   8.99999985E-04  -1.67000003E-03   6.31860018    
 Ni  -4.29999985E-04   5.39999979E-04   8.62193012    
 Ni   1.05418003       1.82593000     -0.536660016    
 Ni   1.05425000       1.82604003       2.07576990    
 Ni   1.05451000       1.82644999       4.21970987    
 Ni   1.05484998       1.82622004       6.31712008    
 Ni   1.05260003       1.82445002       8.62234020    
 Ni   2.10839009       3.65151000     -0.536159992    
 Ni   2.10834002       3.65147996       2.07618999    
 Ni   2.10815001       3.65186000       4.21866989    
 Ni   2.10813999       3.65189004       6.31800985    
 Ni   2.10880995       3.65175009       8.62403965    
 Ni   3.16241002       5.47730017     -0.536469996    
 Ni   3.16223001       5.47757006       2.07539010    
 Ni   3.16255999       5.47756004       4.21955013    
 Ni   3.16290998       5.47840977       6.31637001    
 Ni   3.16047001       5.47805023       8.62228012    
 Ni   4.21654987       7.30343008     -0.536180019    
 Ni   4.21670008       7.30334997       2.07427001    
 Ni   4.21708012       7.30276012       4.21817017    
 Ni   4.21821022       7.29872990       6.32205009    
 Ni   4.21641016       7.30429983       8.61839962    
 Ni   2.10856009      -3.00000014E-04 -0.536620021    
 Ni   2.10841990       9.99999975E-06   2.07533002    
 Ni   2.10818005      -2.39999994E-04   4.21920013    
 Ni   2.10707998      -3.10000003E-04   6.31717014    
 Ni   2.11014009       2.39000004E-03   8.62277985    
 Ni   3.16253996       1.82590997     -0.536189973    
 Ni   3.16207004       1.82569003       2.07620001    
 Ni   3.16261005       1.82570004       4.21879005    
 Ni   3.16312003       1.82579005       6.31841993    
 Ni   3.16131997       1.82444000       8.62454033    
 Ni   4.21687984       3.65175009     -0.536459982    
 Ni   4.21590996       3.65123010       2.07540011    
 Ni   4.21679020       3.65155005       4.21957016    
 Ni   4.21621990       3.65156007       6.31511021    
 Ni   4.20073986       3.64247990       8.62316990    
 Ni   5.27066994       5.47790003     -0.536729991    
 Ni   5.27025986       5.47791004       2.07420993    
 Ni   5.27107000       5.47692013       4.22042990    
 Ni   5.27156019       5.47487020       6.32026005    
 Ni   5.27087021       5.48179007       8.60626984    
 Ni   6.32481003       7.30368996     -0.537029982    
 Ni   6.32496023       7.30383015       2.07481003    
 Ni   6.32480001       7.30283022       4.22024012    
 Ni   6.32384014       7.30257988       6.31729984    
 Ni   6.32678986       7.30670023       8.61594009    
 Ni   4.21656990       2.30000005E-04 -0.536329985    
 Ni   4.21652985       1.10000001E-04   2.07608008    
 Ni   4.21674013       7.99999980E-05   4.21891022    
 Ni   4.21654987      -4.10000008E-04   6.31789017    
 Ni   4.21730995       1.12000003E-03   8.62382984    
 Ni   5.27070999       1.82608998     -0.536819994    
 Ni   5.27041006       1.82567000       2.07514000    
 Ni   5.27082014       1.82587004       4.21969986    
 Ni   5.27089977       1.82534003       6.31575012    
 Ni   5.26652002       1.81684005       8.62561989    
 Ni   6.32511997       3.65179992     -0.537100017    
 Ni   6.32462978       3.65172005       2.07388997    
 Ni   6.32464981       3.65169001       4.22101021    
 Ni   6.32519007       3.65179992       6.31715012    
 Ni   6.33399010       3.62717009       8.53738976    
 Ni   7.37877989       5.47758007     -0.537029982    
 Ni   7.37924004       5.47779989       2.07471991    
 Ni   7.37961006       5.47747993       4.22049999    
 Ni   7.37966013       5.47848988       6.31559992    
 Ni   7.39704990       5.48978996       8.58607006    
 Ni   8.43338013       7.30308008     -0.536559999    
 Ni   8.43334961       7.30312014       2.07573009    
 Ni   8.43315983       7.30318022       4.21891022    
 Ni   8.43315983       7.30351019       6.31684017    
 Ni   8.43826008       7.31092978       8.62590981    
 Ni   6.32452011       3.49999988E-04 -0.536759973    
 Ni   6.32472992      -3.99999990E-05   2.07514000    
 Ni   6.32498980       2.99999992E-05   4.21961021    
 Ni   6.32601023       6.50000002E-04   6.31699991    
 Ni   6.32044983      -2.36999989E-03   8.62197971    
 Ni   7.37900019       1.82553005     -0.536710024    
 Ni   7.37921000       1.82537997       2.07444000    
 Ni   7.37836981       1.82625997       4.22077990    
 Ni   7.37704992       1.82834995       6.32105017    
 Ni   7.38711023       1.82600999       8.59788036    
 Ni   8.43309975       3.65172005     -0.537029982    
 Ni   8.43346024       3.65161991       2.07492995    
 Ni   8.43268013       3.65140009       4.22014999    
 Ni   8.43293953       3.65227008       6.31860018    
 Ni   8.43181992       3.66531992       8.62209988    
 Ni   9.48717022       5.47734022     -0.536279976    
 Ni   9.48770046       5.47780991       2.07610011    
 Ni   9.48703957       5.47731018       4.21907997    
 Ni   9.48789024       5.47818995       6.31639004    
 Ni   9.48945999       5.47969007       8.62919998    
 Ni   10.5413599       7.30327988     -0.536069989    
 Ni   10.5419102       7.30348015       2.07630992    
 Ni   10.5417004       7.30370998       4.21885014    
 Ni   10.5421000       7.30396986       6.31752014    
 Ni   10.5420704       7.30228996       8.62471008    
 Ni   8.43309975      -1.99999995E-04 -0.536300004    
 Ni   8.43292999      -5.09999983E-04   2.07475996    
 Ni   8.43270969       8.29999975E-04   4.21859980    
 Ni   8.43120003       4.66000009E-03   6.32212019    
 Ni   8.43146038      -1.71999994E-03   8.62139034    
 Ni   9.48733997       1.82618999     -0.536849976    
 Ni   9.48752975       1.82585001       2.07497001    
 Ni   9.48752975       1.82569003       4.21836996    
 Ni   9.48491001       1.82795000       6.32039022    
 Ni   9.48843002       1.82514000       8.62007999    
 Ni   10.5413198       3.65188003     -0.536319971    
 Ni   10.5415802       3.65184999       2.07588005    
 Ni   10.5412703       3.65189004       4.21920013    
 Ni   10.5413103       3.65093994       6.31695986    
 Ni   10.5452099       3.65186000       8.62302017    
 Ni   11.5956802       5.47750998     -0.536010027    
 Ni   11.5956602       5.47760010       2.07627010    
 Ni   11.5961504       5.47769022       4.21852016    
 Ni   11.5954599       5.47762012       6.31760979    
 Ni   11.5962000       5.47910023       8.62372971    
 Ni   12.6494598       7.30337000     -0.536729991    
 Ni   12.6496601       7.30317020       2.07537007    
 Ni   12.6494398       7.30281019       4.21967983    
 Ni   12.6497297       7.30306005       6.31709003    
 Ni   12.6504498       7.30289984       8.62242031    
 O    1.58089995      0.912869990       1.01459002    
 O    1.58114004      0.912710011       3.17647004    
 O    1.58156002      0.912930012       5.27338982    
 O    1.58080995      0.912859976       7.36257982    
 O    1.58035004      0.912289977       9.91042042    
 O    2.63531995       2.73878002       1.01330996    
 O    2.63544989       2.73885012       3.17706990    
 O    2.63528991       2.73875999       5.27313995    
 O    2.63600993       2.73915005       7.36309004    
 O    2.63620996       2.73914003       9.90795040    
 O    3.68965006       4.56467009       1.01426995    
 O    3.68953991       4.56470013       3.17705989    
 O    3.68983006       4.56480980       5.27325010    
 O    3.69250989       4.56617022       7.36420012    
 O    3.69448996       4.56843996       9.90291977    
 O    4.74407005       6.38995981       1.01426005    
 O    4.74344015       6.39097023       3.17826009    
 O    4.74276018       6.39262009       5.26934004    
 O    4.73803997       6.40085983       7.35493994    
 O    4.73959017       6.39450979       9.91679001    
 O    5.79785013       8.21576023       1.01472998    
 O    5.79731989       8.21699047       3.17744994    
 O    5.79776001       8.21646976       5.27171993    
 O    5.79375982       8.22157955       7.35939980    
 O    5.79650021       8.21671963       9.91291046    
 O    3.68959999      0.912880003       1.01356006    
 O    3.68954992      0.913020015       3.17704010    
 O    3.68956995      0.912829995       5.27320004    
 O    3.68981004      0.913540006       7.36280012    
 O    3.69028997      0.912159979       9.90719986    
 O    4.74381018       2.73885989       1.01423001    
 O    4.74372005       2.73897004       3.17722988    
 O    4.74398994       2.73886991       5.27328014    
 O    4.74680996       2.74180007       7.36439991    
 O    4.74675989       2.74637008       9.90023041    
 O    5.79809999       4.56404018       1.01496994    
 O    5.79787016       4.56484985       3.17765999    
 O    5.79759979       4.56577015       5.26937008    
 O    5.80140018       4.56304979       7.37367010    
 O    5.60190010       4.62386990       9.73324013    
 O    6.85215998       6.38985014       1.01516998    
 O    6.85174990       6.39062023       3.17717004    
 O    6.85181999       6.39099979       5.27166986    
 O    6.85281992       6.38907003       7.36760998    
 O    6.86783981       6.46322012       9.85550022    
 O    7.90585995       8.21648026       1.01443994    
 O    7.90614986       8.21638966       3.17705989    
 O    7.90614986       8.21656036       5.27347994    
 O    7.90463018       8.21450043       7.36438990    
 O    7.90364981       8.21592045       9.90476036    
 O    5.79801989      0.912800014       1.01475000    
 O    5.79787016      0.912769973       3.17676997    
 O    5.79747009      0.913010001       5.27327013    
 O    5.80014992      0.914550006       7.36323977    
 O    5.80317020      0.916289985       9.90404034    
 O    6.85177994       2.73920012       1.01526999    
 O    6.85228014       2.73875999       3.17769003    
 O    6.85234022       2.73743010       5.26889992    
 O    6.84734011       2.74241996       7.37635994    
 O    6.82686996       2.65957999       9.84589958    
 O    7.90609980       4.56457996       1.01512003    
 O    7.90607977       4.56454992       3.17681003    
 O    7.90604019       4.56449986       5.27223015    
 O    7.90393019       4.56432009       7.36573982    
 O    8.05591011       4.57321978       9.79008007    
 O    8.96012974       6.39052010       1.01341999    
 O    8.96020985       6.39058018       3.17719007    
 O    8.96014977       6.39048004       5.27361012    
 O    8.95775032       6.38779020       7.36433983    
 O    8.95576000       6.38735008       9.90211964    
 O    10.0144997       8.21621990       1.01347005    
 O    10.0143299       8.21607018       3.17711997    
 O    10.0144100       8.21621037       5.27314997    
 O    10.0142603       8.21615028       7.36354017    
 O    10.0143604       8.21564007       9.90744972    
 O    7.90600014      0.913479984       1.01440001    
 O    7.90647984      0.912509978       3.17798996    
 O    7.90768003      0.910640001       5.26843023    
 O    7.90989017      0.904030025       7.35981989    
 O    7.90792990      0.912509978       9.91469955    
 O    8.96002960       2.73875999       1.01482999    
 O    8.96037960       2.73881006       3.17735004    
 O    8.96012974       2.73817992       5.27144003    
 O    8.96350002       2.72753000       7.35630989    
 O    8.96498966       2.73562002       9.91384029    
 O    10.0143404       4.56453991       1.01347995    
 O    10.0144596       4.56448984       3.17712998    
 O    10.0145702       4.56441021       5.27340984    
 O    10.0113096       4.56330013       7.36453009    
 O    10.0128899       4.56125021       9.90468979    
 O    11.0686302       6.39048004       1.01321995    
 O    11.0682497       6.39035988       3.17692995    
 O    11.0686197       6.39026022       5.27343988    
 O    11.0675297       6.39004993       7.36342001    
 O    11.0673800       6.39048004       9.90781021    
 O    12.1231604       8.21619987       1.01478004    
 O    12.1227999       8.21648979       3.17642999    
 O    12.1226101       8.21644974       5.27328014    
 O    12.1238298       8.21592999       7.36274004    
 O    12.1234503       8.21732998       9.91133022    
 O    10.0142803      0.912509978       1.01496005    
 O    10.0140495      0.913330019       3.17765999    
 O    10.0145998      0.913070023       5.27222013    
 O    10.0145397      0.912500024       7.36393976    
 O    10.0132504      0.913339972       9.91086006    
 O    11.0685101       2.73857999       1.01400006    
 O    11.0685797       2.73845005       3.17651010    
 O    11.0685101       2.73882008       5.27364016    
 O    11.0673904       2.73827004       7.36334991    
 O    11.0689201       2.73822999       9.91009045    
 O    12.1227798       4.56476021       1.01326001    
 O    12.1226301       4.56461000       3.17705989    
 O    12.1225700       4.56459999       5.27336979    
 O    12.1228905       4.56456995       7.36421013    
 O    12.1215897       4.56457996       9.90837002    
 O    13.1772003       6.39047003       1.01436996    
 O    13.1767998       6.39062977       3.17681003    
 O    13.1767902       6.39034986       5.27361012    
 O    13.1775503       6.39131021       7.36288023    
 O    13.1773901       6.39026022       9.91077042    
 O    14.2311296       8.21646023       1.01420999    
 O    14.2308397       8.21656990       3.17881989    
 O    14.2314501       8.21549034       5.26969004    
 O    14.2314997       8.21623993       7.36382008    
 O    14.2317696       8.21599960       9.91199017    
 O    6.76064014       3.56392002       10.8680096    
 O    6.59946012       5.26383018       10.7222004    
         260
 Energy:  -74.415938600000004      en   34.340221399999997      edisp  -108.75615999999999     
 X   0.00000000       0.00000000       0.00000000    
 X   10.5415001       0.00000000       0.00000000    
 X   5.27075005       9.12920666       0.00000000    
 X   0.00000000       0.00000000       28.5415001    
 X   15.8122501       9.12920666       0.00000000    
 X   10.5415001       0.00000000       28.5415001    
 X   5.27075005       9.12920666       28.5415001    
 X   15.8122501       9.12920666       28.5415001    
 Ni   1.40000004E-04   3.00000014E-04 -0.742560029    
 Ni   1.27000001E-03   2.89999996E-04   2.06217003    
 Ni   8.50000011E-04  -4.79999988E-04   4.21967983    
 Ni   1.24999997E-03  -2.30999989E-03   6.31618023    
 Ni  -5.90000011E-04   7.39999989E-04   8.69433022    
 Ni   1.05419004       1.82596004     -0.742540002    
 Ni   1.05429006       1.82612002       2.06329989    
 Ni   1.05464995       1.82668996       4.22091007    
 Ni   1.05511999       1.82637000       6.31412983    
 Ni   1.05201006       1.82392001       8.69489956    
 Ni   2.10841990       3.65144992     -0.741850019    