/store/Terry_project/NiAlO_EDIP_fitting_DFT/DATA/NiO-Slab-O2/NiO_Slab_O2_iter_last_lmp.data (written by ASE) 

252 	 atoms 
2  atom types
0.0             10.54150009  xlo xhi
0.0      9.1292068700000009  ylo yhi
0.0             28.54150009  zlo zhi
    -5.2707500399999994                       0                       0  xy xz yz


Atoms 

     1   1      15.803282749408673      9.1250685092337616      25.034787783297272
     2   1      10.511702168169858    0.021481115057178701     0.19657216107985159
     3   1      15.768045729751021      9.0989393497907916      4.0448679991996945
     4   1      10.458013464929182     0.09031770845076488      7.4904789479247507
     5   1       5.285811850638475      8.9372777112795934      10.876127059110726
     6   1      1.0631961455945282      1.8254675329786736      25.055242905581775
     7   1      11.531960412039917      1.8097362662844272      0.2436368093132607
     8   1        1.05759460327601      1.8241998513127056      3.9915693165166277
     9   1      1.0870980483215325       1.839959783716524      7.9813870411727326
    10   1      11.486498453490128      1.6926113721964569      10.943135936777026
    11   1      2.1117711251496156      3.6516462311725206      24.956289524769744
    12   1      12.632350448654227      3.6484062756543576     0.14549885915880201
    13   1      2.1175036983079907      3.6414812244910504      3.8671563467943164
    14   1      12.686231850600601      3.7330391356951047      7.4136951773076278
    15   1      2.1061933011557463      3.5580775208632796      11.028682804166779
    16   1      13.690884457711556      5.4740659784376442      25.052651908203607
    17   1      13.701476925961632      5.4871065939910961     0.34553224795456788
    18   1      3.1908573698608076      5.4835033873315755      4.0228134112501506
    19   1      13.773917376812644      5.7382287997200327      8.2467593444645306
    20   1      3.2044886889560331      5.3261985715070184      11.463238559637066
    21   1      4.2186817754329899       7.294632314124021      25.053072324499929
    22   1      14.750714649627385      7.3132986208269726      28.447636229484019
    23   1      14.753740429109774      7.3207026814747493      3.7089179890703421
    24   1      4.3783212514869314      7.5383628749265252      6.3132836350526969
    25   1      4.4394445581389288      6.8174219224529917      10.536474360174697
    26   1      2.1120728208852309   0.0055138583653425999      25.093991987763964
    27   1      2.0999854098059401   0.0035191266642476005      0.3545553577930205
    28   1      2.1160473353799882      0.0207118880863125      4.0382834751289316
    29   1      7.2503222761060684      9.1157048643313399      7.3696519322737464
    30   1       7.419392178009117      9.1195101916309618      10.753202814033106
    31   1      3.1643072821932012      1.8255566340377249       25.00679114044399
    32   1      3.1684972122287549      1.8160282982433684     0.12284375804736361
    33   1      3.1719028546682884      1.8259933752943855      3.8846086178543477
    34   1      3.1579641980672402      1.8542122101898992      7.3383633128000829
    35   1      3.2066782093148287      1.8253342465583717      11.077997093437283
    36   1      4.2046186744096108      3.6460290301854092      25.067101613454167
    37   1      4.2252022183179783      3.6508351924341893     0.20130519803977628
    38   1      4.2341236479821092      3.6790680863082827      4.1594518471210122
    39   1      4.1958939492129161      3.7561174967862585      7.6794128327505158
    40   1      4.5936571627851777      3.8725799756237418      10.731294358564023
    41   1      5.2652907105151368      5.4715835645055542      25.068773289114439
    42   1      5.2732532326131647      5.4807991336725443       28.45526023498806
    43   1      5.2722185843723253      5.4680063760856132       3.066024695353105
    44   1      5.0534584229490429      5.5856327375069528      6.6470005582150069
    45   1      5.6388232844100941      5.0805885808861868      12.618131258923791
    46   1      6.3279073898508873      7.2991876970600824      25.011910629315135
    47   1      6.3246628742541944      7.3147214990097309     0.23013239854567721
    48   1      6.3108665278803517      7.2991033431886043      4.0480309682396687
    49   1      6.2484732335027591      7.1030117225958209       7.741655565316786
    50   1      6.3861005286244001      6.9325170286854867      11.282089939790849
    51   1      9.4823547326422712      9.1244957427947373      24.955814594208245
    52   1       4.274011101095998    0.024357545557778304    0.087051860689500896
    53   1      4.2101524329041373    0.035028584176052611      3.9411304921425794
    54   1      9.4720044553599969      9.1173627282989322      7.5444066852698004
    55   1      4.3276509445395579    0.057405183135109603      10.900508920977607
    56   1      5.2569014664988067      1.8204392571267465      25.041896043894688
    57   1      5.3782405101784443      1.8865039494383944     0.42309634318415096
    58   1      5.2657316594865513       1.861257219131478       3.893910863563681
    59   1      5.2853394294027032       1.799628773606238      7.7280192928187876
    60   1      5.3515176493667829      1.9576946914075477      11.231891149432556
    61   1      6.3121981281762576       3.655703707165892       24.93803723546219
    62   1       6.368501281560202      3.5840349599250256     0.46745069056901367
    63   1      6.2924458342934271      3.7165207487845264      3.9553912526625474
    64   1       6.309606131398855      3.6049952537302707      7.0778553373686233
    65   1      6.4719078632127891        3.68853598675316      9.7521202587313898
    66   1      7.3944618445515493      5.4865963626191325      25.121209447664786
    67   1      7.3760766777816329       5.485775190461176     0.39979763124568313
    68   1      7.3425537060494346      5.4794021824372976      4.0233559851668605
    69   1       7.477515161242593      5.3623662981163092      7.0538182568228267
    70   1      7.5037271283206692      5.4158406273573343      10.194350538160876
    71   1      8.4391323578904931      7.3167767573523745      25.008669456564917
    72   1      8.4461839889630284      7.3210309677537939     0.21747880989577659
    73   1      8.4522758164349163      7.2934227855058156      3.9629416210963564
    74   1      8.3767941429590493      7.3182003658716805      7.7088542463383538
    75   1      8.4521118961036024      7.2844485925684674      11.042365884724925
    76   1      11.587505266656706      9.1177839499039131      25.063922661174143
    77   1      6.3991561727786239     0.16368412300117641     0.48767120172277512
    78   1      6.3328660020804781 -5.8700800174100045e-05      4.1302139344288165
    79   1      11.645647121182643      9.0256523593401479       8.199159828519436
    80   1      6.5231734425561054   0.0060446304527644002      10.887958367143034
    81   1      7.3704829341798472      1.8449954542260159      24.963618411162855
    82   1      7.3923851143087296       1.802798069063227      27.516955565379298
    83   1      7.4422665966727441      1.7400657198432663      4.2507989181590569
    84   1      7.4513723444097426      1.6656754647423844      7.1066528547144303
    85   1      7.3421218715766798      1.9709259248004445      10.968246463141206
    86   1      8.4496626292821428      3.6637179640008588      25.072895823387437
    87   1      8.3283668057462972      3.5856416090420766     0.44367676265404732
    88   1      8.4263271740730001      3.6684405940067784      3.8478831280285419
    89   1      8.3968162972685949      3.6502739287958219      7.3792941072491507
    90   1      8.0297473494039551      3.7402475574396568      11.765555836890364
    91   1      9.4966094214383752      5.4854141303294668      24.974413377326893
    92   1      9.4826222212013302      5.4623606919730685    0.093260493204078601
    93   1      9.4841012463792325      5.4765599864624601      3.9535046595065979
    94   1      9.5001348679984083      5.4442135632648121      7.5606562175160406
    95   1      9.3955233929174682      5.3980173116167585      11.220031014485158
    96   1      10.534154038830383      7.2999002316562862      24.998898274009104
    97   1      10.585956235283659      7.3565082524475063      0.1461847114059647
    98   1      10.547182963997161      7.3145804527635896      3.8385697511341741
    99   1      10.584823761902964      7.3089901829367454      7.6452115531926692
   100   1      10.560310294031183      7.2633544645905088      10.668064946339641
   101   1      13.709493475234542      9.1241208062685875      24.969887837072623
   102   1      13.710524170400765      9.1148523789938185      28.268232351538305
   103   1      8.3815275887450245      0.0158604449714571      2.8155270802482102
   104   1      13.725388265211393       8.934502067222839      7.2507934238839491
   105   1      8.5374273094236202    0.084468077856743706      12.156674854203679
   106   1      9.4937197307245036      1.8306308298002083      24.988724941717024
   107   1      9.3174593662054974      1.8458743229713905     0.44509927101853292
   108   1      9.4952851434605279      1.7807101356253994      3.9277450994303709
   109   1       9.547364634141335      1.9608619784390251      6.9932994308619927
   110   1      9.2999806103218585      1.8469512042137761      10.382849735940272
   111   1      10.560605085103223      3.6518850512242396      25.038160817777907
   112   1      10.495256481262514      3.6148532451847029     0.19361526167052759
   113   1      10.519774060318728       3.659382686242433       3.988941215188341
   114   1      10.547574842250553      3.6401563939900758      7.8758360071998981
   115   1      10.368154979282968      3.5794406865676982      10.937289495898588
   116   1      11.586291358218105      5.4738852201416179      25.004900836893032
   117   1      11.596791008558089      5.4836375866725646     0.19458709974859212
   118   1      11.571089724471559      5.4661090530218219      3.9855073873125124
   119   1      11.646518690512023       5.560095881005708       7.709589475380672
   120   1      11.527868836184281      5.4418753908012691       10.74776822700097
   121   1      12.647471020262859      7.3038114577555993      25.032724232840764
   122   1      12.648982882227772      7.3439936617939052     0.26128002300889508
   123   1      12.689464614397464      7.3194752596110781      4.0227352075399034
   124   1      12.552566685523642      7.2281187387105748       6.743808474465272
   125   1      12.758649902606106      7.3476984765258884      11.014754266707858
   126   2      1.5738940331837497     0.92449524322219834      26.713952447777185
   127   2      1.5692619926404685     0.94506480697340756      2.1612203260599827
   128   2      1.5174227955114064     0.86933694048193311      5.8581888452876445
   129   2       1.653975701021869     0.84125038779396588      9.2293070496078027
   130   2      1.2866898090886987     0.93729092215532761      12.886292066774384
   131   2      2.6186711737343744      2.6419678193194516      26.899131698266114
   132   2       2.635552700977227      2.7263643241943338      2.1740517282554443
   133   2      2.5608410840883344      2.7610045519101369      5.9203254034735808
   134   2      2.7989701978870452      2.8443339437939859      9.2439037435838305
   135   2       2.500250386285618      2.6735242009545672      12.773647328369181
   136   2      3.7484904432106498      4.4545456425342342      26.786466409980846
   137   2      3.6167834653062618      4.5094744370137878      2.2231080023651333
   138   2      3.7257081005047983      4.4475281125053341      6.1386264939869504
   139   2      4.0385504653088526      4.8320597089528103      9.4255989331567687
   140   2      3.6889913708699593      5.1342936051848165      13.029292688430308
   141   2      4.6249506614267748      6.5646401182071576      26.727332988434384
   142   2      4.6935256494193212      6.4680091067454439      1.6991588415379628
   143   2      4.9252845870782123      5.9251975125955569      4.7930554533889564
   144   2      14.085316189272055      7.3600980391729287      7.9512800398027963
   145   2      4.2888137956887942      7.1842392971819891      13.268540100444728
   146   2      5.8707735523737057      8.3320325668506019      26.660179119947625
   147   2      5.8006971911487542      8.2787887500830433      2.2453546746102839
   148   2      5.8479723402774439      8.1328487013068109      5.6277501964460015
   149   2      5.5971154720742931      8.2261231772786321      8.8093813816686488
   150   2      6.0246613749302176      8.1771410568621281      12.298750731256687
   151   2      3.5675179734976532     0.91622701185210798       26.86853378309463
   152   2      3.6920381783120555     0.88206241581423206      2.1261259829643193
   153   2      3.6965558435929684     0.88633926664868978      5.8903225785789726
   154   2      3.6662194092607105     0.96255901480631989      8.9268319378590064
   155   2      3.5607087968490383     0.76928311548845052      12.662215889132804
   156   2      4.7901584718634513      2.7736181944582783       26.72097422762933
   157   2      4.7165631997716204      2.6941981115403011      1.9543946310727986
   158   2      4.6473907721748482       2.632668809201669      5.6163433005200325
   159   2      4.7408909264685963      2.8435029120926099      9.2090462949389149
   160   2      4.6407221140079473        3.00702873464666      13.069389214831745
   161   2      5.7494787283606783      4.7489125360380866      26.666288428041891
   162   2      5.8440671341350221      4.4463283521384787      1.8946858128845188
   163   2       5.848458406814192      4.4220048585223255      5.5353844792697444
   164   2      5.5914903149024964      4.7683990106862382      8.1922861790527612
   165   2      5.1784467220821604      3.7388070598876393      14.032574080898959
   166   2       6.851123783191305      6.4471803648111958      26.707691013487445
   167   2      6.9252271028308767      6.4369581180026509      2.2233140719957833
   168   2      6.8035831463364635      6.5084281224099572      5.8818688716673151
   169   2      6.1452062736758357      6.3721953418827333      9.5244156001833691
   170   2      7.0188441095290655      6.4212859172768528      13.473702682221669
   171   2       8.035303618329678      8.0324068850213539      26.719393599354344
   172   2      7.9326195512667041      8.2445923844052604      2.1850573306901482
   173   2      7.8900733189884278      8.2262784650874909      6.0072020193525288
   174   2      7.8285542839079287      8.0066852533730604      9.4622413672173149
   175   2      7.9050571655103683      8.5394335402060086       12.93321315126234
   176   2      5.6959450884792151     0.97049612984323519      26.624493111555093
   177   2      5.8459497387084616     0.92677626685073655      2.4680049189073676
   178   2      5.6657806913834259     0.96455520718051402      5.8047440301241169
   179   2      5.8752656504924561     0.98831625036140636      9.6562016956239312
   180   2      5.7125254449713276     0.88478282816942355      12.403749201787781
   181   2      6.6389330300469371      3.1510797679373521      26.433683193928413
   182   2      6.9177600291381154      2.5953665047625742      2.6655209473951955
   183   2      6.9096991021628602      2.6338334221220752      5.8088854017871761
   184   2      6.6189871411294936      2.5081051634798168      8.3818770892105992
   185   2      7.0937763054481735      2.9920990123155997      12.953700525441944
   186   2      7.8367528809721936      4.4951704305215969       26.59241360711394
   187   2      7.9598245783124479      4.5581718174680166      2.0283179725509011
   188   2      8.0636562459107104      4.5796864367144083      5.5960908228861701
   189   2      7.8906747094341947      4.3292603330093087      8.9359087057176296
   190   2      7.6847525141959414      4.9954123504525372      12.921493725910386
   191   2      9.0631169006466141      6.2417946638723398      26.884891487626209
   192   2      9.0109597720007031      6.3958750438304133        2.14957453777826
   193   2      9.0184982096003843      6.4968789453828579      5.7371012457408188
   194   2      8.7571370526129169      6.2439110879010125      8.8771157842672377
   195   2      9.3074767265101244      6.8986278608188787      12.814662034828512
   196   2      9.9838825166362852      8.2976236732368847       26.94714306805751
   197   2      10.058219646714566      8.2266213580975283        2.11277826503223
   198   2      10.038874729030804      8.1561436984769902       5.948972792528914
   199   2      9.9772269823817368      8.2059185079260164      9.0656789150068331
   200   2      9.9122451171934376       7.921079493756177       12.97945951468817
   201   2      8.2364735433422194     0.31369488512074162      26.402385155759724
   202   2      7.8296607686169759     0.98103086940294038      1.1791715263382851
   203   2      7.8954190150483399     0.83029260078790468      5.6640033244453187
   204   2      7.8901692425401029     0.74189248224018334      8.6501577713615685
   205   2      7.7901013121227551     0.69989867839059572      13.585366734683779
   206   2      9.0324133565994114      2.7132319601118393      26.696987665538693
   207   2       8.913255560137145      2.6814010632261418      2.4298549228120692
   208   2      9.0390515500963389        2.82324657142911      5.5354095957898242
   209   2       9.003880678180515      2.4844657213344328      8.5908933443296913
   210   2      9.1699805651880713      2.5747512036849467      12.509278829635548
   211   2      9.9700666665219302      4.6935987629048253      26.904265172472304
   212   2      10.039926399814039      4.5533156271655892      2.1554563701168075
   213   2      10.055468155080135      4.5960488967716469      6.0513497262767402
   214   2      9.9490589326018952      4.6010656698229182      9.5824239157962854
   215   2      10.340772115624413       4.515605521055611      12.951699195455632
   216   2      11.127715390775247      6.4229939918822296         26.899729642693
   217   2      11.050397387961876       6.407923132012959      2.1111770868771811
   218   2      11.068726895576201      6.3446306146594553      5.9350077219498782
   219   2      11.235978652333158      6.4980219220829811      9.0336445061358184
   220   2      11.484882760402124      6.4960173308384661      12.813844320850935
   221   2      11.949763442381434      8.2037349842268501      26.668937079250242
   222   2       12.20673337931448      8.3299389658391032      2.4519685916667999
   223   2      11.992487299033101      8.3989258259777699      5.6883709155621576
   224   2      12.436008160005766      8.2182139063226707       9.480747675875671
   225   2       12.39753089409489      8.2732256852926707      12.776848828434277
   226   2      10.126474380027481     0.99661962917794633      26.726910003403045
   227   2      9.8623463955893698     0.88602668260546102      2.3756708827962103
   228   2      10.003007218240489     0.80423172781232199      5.8079452447742108
   229   2      10.069852346169306     0.89207989451268321      9.3194285486319828
   230   2      9.8853541156307756      1.0092230470143935      12.874873468833377
   231   2      11.033767431775352      2.9579178924132892      26.761570801112345
   232   2      11.075971012455481      2.7247697256303511      2.0729600182566714
   233   2      11.173305531883942      2.7383737045397507      5.8058057739274656
   234   2      11.122082221973887      2.8018615869202725      9.4125623175756612
   235   2      11.051169550815976      2.7060428922858519      12.871317197922163
   236   2      12.207024638856897      4.4864088568122522       26.92862705528912
   237   2      12.080125902703211      4.5817830503641721       2.132050627553002
   238   2      12.069988563751208       4.626607456095873       5.946278760335419
   239   2      12.281426757375135      4.5832096715217476      8.9490811788391653
   240   2      12.014497263823241      4.3815727880919892       12.87600628097195
   241   2       13.07866412348227      6.2594668912392173       26.69957181295684
   242   2      13.102521383032894       6.413640297815296      2.2346624578465679
   243   2      13.361033699368893      6.2062282781195757      5.5829877056098525
   244   2      13.504794250221995      6.3079616033009325       9.865499084518909
   245   2       12.79549623977457      6.2775405298321685      12.941155109077384
   246   2      14.219504109661456      8.1064026670933824      26.774570598158338
   247   2      14.224200716964836      8.2173810487799201      1.3120818714673919
   248   2      14.121205728348334        8.41427558311692      4.8071874917435187
   249   2      14.323535802421855      8.4893010484318161      10.324669600496811
   250   2       14.62695448731321      7.9750740964967219      14.166777070567141
   251   2       7.453113115559999      2.6386552866066717      14.388232282255457
   252   2      6.1891761879660496      5.8743114960863148      14.294724048830597
