<?xml version="1.0" encoding="ISO-8859-1"?>
<modeling>
 <generator>
  <i name="program" type="string">vasp </i>
  <i name="version" type="string">6.2.1  </i>
  <i name="subversion" type="string">16May21 (build May 12 2022 08:28:04) complex                          parallel </i>
  <i name="platform" type="string">LinuxPGI </i>
  <i name="date" type="string">2022 07 22 </i>
  <i name="time" type="string">12:12:36 </i>
 </generator>
 <incar>
  <i type="string" name="SYSTEM">NiAl</i>
  <i type="int" name="ISTART">     0</i>
  <i type="int" name="NELM">   120</i>
  <i type="int" name="NELMIN">     6</i>
  <i type="int" name="IBRION">     2</i>
  <i name="EDIFF">      0.00000500</i>
  <i type="int" name="NSW">    40</i>
  <i type="int" name="ISIF">     0</i>
  <i name="ENCUT">    360.00000000</i>
  <i name="POTIM">      0.20000000</i>
  <i type="string" name="LREAL">Auto</i>
  <i type="logical" name="LPLANE"> T  </i>
  <i type="int" name="ISMEAR">     0</i>
  <i name="SIGMA">      0.05000000</i>
  <i type="logical" name="LWAVE"> F  </i>
  <i type="logical" name="LCHARG"> F  </i>
  <i type="int" name="IVDW">    12</i>
 </incar>
 <primitive_cell>
  <structure name="primitive_cell" >
   <crystal>
    <varray name="basis" >
     <v>      10.54150009       0.00000000       0.00000000 </v>
     <v>       5.27075005       9.12920687       0.00000000 </v>
     <v>       0.00000000       0.00000000      28.54150009 </v>
    </varray>
    <i name="volume">   2746.70653362 </i>
    <varray name="rec_basis" >
     <v>       0.09486316      -0.05476927       0.00000000 </v>
     <v>       0.00000000       0.10953854       0.00000000 </v>
     <v>       0.00000000       0.00000000       0.03503670 </v>
    </varray>
   </crystal>
   <varray name="positions" >
    <v>       0.00000000       0.00000000       0.00000000 </v>
    <v>       0.00000000       0.00000000       0.07386788 </v>
    <v>       0.00000000       0.00000000       0.14773576 </v>
    <v>       0.00000000       0.00000000       0.22160364 </v>
    <v>       0.00000000       0.00000000       0.29547151 </v>
    <v>       1.00000000       0.20000000       0.00000000 </v>
    <v>       1.00000000       0.20000000       0.07386788 </v>
    <v>       1.00000000       0.20000000       0.14773576 </v>
    <v>       1.00000000       0.20000000       0.22160364 </v>
    <v>       1.00000000       0.20000000       0.29547151 </v>
    <v>       1.00000000       0.40000001       0.00000000 </v>
    <v>       1.00000000       0.40000001       0.07386788 </v>
    <v>       1.00000000       0.40000001       0.14773576 </v>
    <v>       1.00000000       0.40000001       0.22160364 </v>
    <v>       1.00000000       0.40000001       0.29547151 </v>
    <v>       1.00000000       0.60000002       0.00000000 </v>
    <v>       1.00000000       0.60000002       0.07386788 </v>
    <v>       1.00000000       0.60000002       0.14773576 </v>
    <v>       1.00000000       0.60000002       0.22160364 </v>
    <v>       1.00000000       0.60000002       0.29547151 </v>
    <v>       1.00000000       0.80000001       0.00000000 </v>
    <v>       1.00000000       0.80000001       0.07386788 </v>
    <v>       1.00000000       0.80000001       0.14773576 </v>
    <v>       1.00000000       0.80000001       0.22160364 </v>
    <v>       1.00000000       0.80000001       0.29547151 </v>
    <v>       0.20000000       0.00000000       0.00000000 </v>
    <v>       0.20000000       0.00000000       0.07386788 </v>
    <v>       0.20000000       0.00000000       0.14773576 </v>
    <v>       0.20000000       0.00000000       0.22160364 </v>
    <v>       0.20000000       0.00000000       0.29547151 </v>
    <v>       0.20000000       0.20000000       0.00000000 </v>
    <v>       0.20000000       0.20000000       0.07386788 </v>
    <v>       0.20000000       0.20000000       0.14773576 </v>
    <v>       0.20000000       0.20000000       0.22160364 </v>
    <v>       0.20000000       0.20000000       0.29547151 </v>
    <v>       0.20000000       0.40000001       0.00000000 </v>
    <v>       0.20000000       0.40000001       0.07386788 </v>
    <v>       0.20000000       0.40000001       0.14773576 </v>
    <v>       0.20000000       0.40000001       0.22160364 </v>
    <v>       0.20000000       0.40000001       0.29547151 </v>
    <v>       0.20000000       0.60000002       0.00000000 </v>
    <v>       0.20000000       0.60000002       0.07386788 </v>
    <v>       0.20000000       0.60000002       0.14773576 </v>
    <v>       0.20000000       0.60000002       0.22160364 </v>
    <v>       0.20000000       0.60000002       0.29547151 </v>
    <v>       0.20000000       0.80000001       0.00000000 </v>
    <v>       0.20000000       0.80000001       0.07386788 </v>
    <v>       0.20000000       0.80000001       0.14773576 </v>
    <v>       0.20000000       0.80000001       0.22160364 </v>
    <v>       0.20000000       0.80000001       0.29547151 </v>
    <v>       0.40000001       0.00000000       0.00000000 </v>
    <v>       0.40000001       0.00000000       0.07386788 </v>
    <v>       0.40000001       0.00000000       0.14773576 </v>
    <v>       0.40000001       0.00000000       0.22160364 </v>
    <v>       0.40000001       0.00000000       0.29547151 </v>
    <v>       0.40000001       0.20000000       0.00000000 </v>
    <v>       0.40000001       0.20000000       0.07386788 </v>
    <v>       0.40000001       0.20000000       0.14773576 </v>
    <v>       0.40000001       0.20000000       0.22160364 </v>
    <v>       0.40000001       0.20000000       0.29547151 </v>
    <v>       0.40000001       0.40000001       0.00000000 </v>
    <v>       0.40000001       0.40000001       0.07386788 </v>
    <v>       0.40000001       0.40000001       0.14773576 </v>
    <v>       0.40000001       0.40000001       0.22160364 </v>
    <v>       0.40000001       0.40000001       0.29547151 </v>
    <v>       0.40000001       0.60000002       0.00000000 </v>
    <v>       0.40000001       0.60000002       0.07386788 </v>
    <v>       0.40000001       0.60000002       0.14773576 </v>
    <v>       0.40000001       0.60000002       0.22160364 </v>
    <v>       0.40000001       0.60000002       0.29547151 </v>
    <v>       0.40000001       0.80000001       0.00000000 </v>
    <v>       0.40000001       0.80000001       0.07386788 </v>
    <v>       0.40000001       0.80000001       0.14773576 </v>
    <v>       0.40000001       0.80000001       0.22160364 </v>
    <v>       0.40000001       0.80000001       0.29547151 </v>
    <v>       0.60000002       0.00000000       0.00000000 </v>
    <v>       0.60000002       0.00000000       0.07386788 </v>
    <v>       0.60000002       0.00000000       0.14773576 </v>
    <v>       0.60000002       0.00000000       0.22160364 </v>
    <v>       0.60000002       0.00000000       0.29547151 </v>
    <v>       0.60000002       0.20000000       0.00000000 </v>
    <v>       0.60000002       0.20000000       0.07386788 </v>
    <v>       0.60000002       0.20000000       0.14773576 </v>
    <v>       0.60000002       0.20000000       0.22160364 </v>
    <v>       0.60000002       0.20000000       0.29547151 </v>
    <v>       0.60000002       0.40000001       0.00000000 </v>
    <v>       0.60000002       0.40000001       0.07386788 </v>
    <v>       0.60000002       0.40000001       0.14773576 </v>
    <v>       0.60000002       0.40000001       0.22160364 </v>
    <v>       0.60000002       0.40000001       0.29547151 </v>
    <v>       0.60000002       0.60000002       0.00000000 </v>
    <v>       0.60000002       0.60000002       0.07386788 </v>
    <v>       0.60000002       0.60000002       0.14773576 </v>
    <v>       0.60000002       0.60000002       0.22160364 </v>
    <v>       0.60000002       0.60000002       0.29547151 </v>
    <v>       0.60000002       0.80000001       0.00000000 </v>
    <v>       0.60000002       0.80000001       0.07386788 </v>
    <v>       0.60000002       0.80000001       0.14773576 </v>
    <v>       0.60000002       0.80000001       0.22160364 </v>
    <v>       0.60000002       0.80000001       0.29547151 </v>
    <v>       0.80000001       0.00000000       0.00000000 </v>
    <v>       0.80000001       0.00000000       0.07386788 </v>
    <v>       0.80000001       0.00000000       0.14773576 </v>
    <v>       0.80000001       0.00000000       0.22160364 </v>
    <v>       0.80000001       0.00000000       0.29547151 </v>
    <v>       0.80000001       0.20000000       0.00000000 </v>
    <v>       0.80000001       0.20000000       0.07386788 </v>
    <v>       0.80000001       0.20000000       0.14773576 </v>
    <v>       0.80000001       0.20000000       0.22160364 </v>
    <v>       0.80000001       0.20000000       0.29547151 </v>
    <v>       0.80000001       0.40000001       0.00000000 </v>
    <v>       0.80000001       0.40000001       0.07386788 </v>
    <v>       0.80000001       0.40000001       0.14773576 </v>
    <v>       0.80000001       0.40000001       0.22160364 </v>
    <v>       0.80000001       0.40000001       0.29547151 </v>
    <v>       0.80000001       0.60000002       0.00000000 </v>
    <v>       0.80000001       0.60000002       0.07386788 </v>
    <v>       0.80000001       0.60000002       0.14773576 </v>
    <v>       0.80000001       0.60000002       0.22160364 </v>
    <v>       0.80000001       0.60000002       0.29547151 </v>
    <v>       0.80000001       0.80000001       0.00000000 </v>
    <v>       0.80000001       0.80000001       0.07386788 </v>
    <v>       0.80000001       0.80000001       0.14773576 </v>
    <v>       0.80000001       0.80000001       0.22160364 </v>
    <v>       0.80000001       0.80000001       0.29547151 </v>
    <v>       0.10000000       0.10000000       0.03693394 </v>
    <v>       0.10000000       0.10000000       0.11080182 </v>
    <v>       0.10000000       0.10000000       0.18466969 </v>
    <v>       0.10000000       0.10000000       0.25853757 </v>
    <v>       0.10000000       0.10000000       0.33240544 </v>
    <v>       0.10000000       0.30000001       0.03693394 </v>
    <v>       0.10000000       0.30000001       0.11080182 </v>
    <v>       0.10000000       0.30000001       0.18466969 </v>
    <v>       0.10000000       0.30000001       0.25853757 </v>
    <v>       0.10000000       0.30000001       0.33240544 </v>
    <v>       0.10000000       0.50000000       0.03693394 </v>
    <v>       0.10000000       0.50000000       0.11080182 </v>
    <v>       0.10000000       0.50000000       0.18466969 </v>
    <v>       0.10000000       0.50000000       0.25853757 </v>
    <v>       0.10000000       0.50000000       0.33240544 </v>
    <v>       0.10000000       0.69999999       0.03693394 </v>
    <v>       0.10000000       0.69999999       0.11080182 </v>
    <v>       0.10000000       0.69999999       0.18466969 </v>
    <v>       0.10000000       0.69999999       0.25853757 </v>
    <v>       0.10000000       0.69999999       0.33240544 </v>
    <v>       0.10000000       0.89999998       0.03693394 </v>
    <v>       0.10000000       0.89999998       0.11080182 </v>
    <v>       0.10000000       0.89999998       0.18466969 </v>
    <v>       0.10000000       0.89999998       0.25853757 </v>
    <v>       0.10000000       0.89999998       0.33240544 </v>
    <v>       0.30000001       0.10000000       0.03693394 </v>
    <v>       0.30000001       0.10000000       0.11080182 </v>
    <v>       0.30000001       0.10000000       0.18466969 </v>
    <v>       0.30000001       0.10000000       0.25853757 </v>
    <v>       0.30000001       0.10000000       0.33240544 </v>
    <v>       0.30000001       0.30000001       0.03693394 </v>
    <v>       0.30000001       0.30000001       0.11080182 </v>
    <v>       0.30000001       0.30000001       0.18466969 </v>
    <v>       0.30000001       0.30000001       0.25853757 </v>
    <v>       0.30000001       0.30000001       0.33240544 </v>
    <v>       0.30000001       0.50000000       0.03693394 </v>
    <v>       0.30000001       0.50000000       0.11080182 </v>
    <v>       0.30000001       0.50000000       0.18466969 </v>
    <v>       0.30000001       0.50000000       0.25853757 </v>
    <v>       0.30000001       0.50000000       0.33240544 </v>
    <v>       0.30000001       0.69999999       0.03693394 </v>
    <v>       0.30000001       0.69999999       0.11080182 </v>
    <v>       0.30000001       0.69999999       0.18466969 </v>
    <v>       0.30000001       0.69999999       0.25853757 </v>
    <v>       0.30000001       0.69999999       0.33240544 </v>
    <v>       0.30000001       0.89999998       0.03693394 </v>
    <v>       0.30000001       0.89999998       0.11080182 </v>
    <v>       0.30000001       0.89999998       0.18466969 </v>
    <v>       0.30000001       0.89999998       0.25853757 </v>
    <v>       0.30000001       0.89999998       0.33240544 </v>
    <v>       0.50000000       0.10000000       0.03693394 </v>
    <v>       0.50000000       0.10000000       0.11080182 </v>
    <v>       0.50000000       0.10000000       0.18466969 </v>
    <v>       0.50000000       0.10000000       0.25853757 </v>
    <v>       0.50000000       0.10000000       0.33240544 </v>
    <v>       0.50000000       0.30000001       0.03693394 </v>
    <v>       0.50000000       0.30000001       0.11080182 </v>
    <v>       0.50000000       0.30000001       0.18466969 </v>
    <v>       0.50000000       0.30000001       0.25853757 </v>
    <v>       0.50000000       0.30000001       0.33240544 </v>
    <v>       0.50000000       0.50000000       0.03693394 </v>
    <v>       0.50000000       0.50000000       0.11080182 </v>
    <v>       0.50000000       0.50000000       0.18466969 </v>
    <v>       0.50000000       0.50000000       0.25853757 </v>
    <v>       0.50000000       0.50000000       0.33240544 </v>
    <v>       0.50000000       0.69999999       0.03693394 </v>
    <v>       0.50000000       0.69999999       0.11080182 </v>
    <v>       0.50000000       0.69999999       0.18466969 </v>
    <v>       0.50000000       0.69999999       0.25853757 </v>
    <v>       0.50000000       0.69999999       0.33240544 </v>
    <v>       0.50000000       0.89999998       0.03693394 </v>
    <v>       0.50000000       0.89999998       0.11080182 </v>
    <v>       0.50000000       0.89999998       0.18466969 </v>
    <v>       0.50000000       0.89999998       0.25853757 </v>
    <v>       0.50000000       0.89999998       0.33240544 </v>
    <v>       0.69999999       0.10000000       0.03693394 </v>
    <v>       0.69999999       0.10000000       0.11080182 </v>
    <v>       0.69999999       0.10000000       0.18466969 </v>
    <v>       0.69999999       0.10000000       0.25853757 </v>
    <v>       0.69999999       0.10000000       0.33240544 </v>
    <v>       0.69999999       0.30000001       0.03693394 </v>
    <v>       0.69999999       0.30000001       0.11080182 </v>
    <v>       0.69999999       0.30000001       0.18466969 </v>
    <v>       0.69999999       0.30000001       0.25853757 </v>
    <v>       0.69999999       0.30000001       0.33240544 </v>
    <v>       0.69999999       0.50000000       0.03693394 </v>
    <v>       0.69999999       0.50000000       0.11080182 </v>
    <v>       0.69999999       0.50000000       0.18466969 </v>
    <v>       0.69999999       0.50000000       0.25853757 </v>
    <v>       0.69999999       0.50000000       0.33240544 </v>
    <v>       0.69999999       0.69999999       0.03693394 </v>
    <v>       0.69999999       0.69999999       0.11080182 </v>
    <v>       0.69999999       0.69999999       0.18466969 </v>
    <v>       0.69999999       0.69999999       0.25853757 </v>
    <v>       0.69999999       0.69999999       0.33240544 </v>
    <v>       0.69999999       0.89999998       0.03693394 </v>
    <v>       0.69999999       0.89999998       0.11080182 </v>
    <v>       0.69999999       0.89999998       0.18466969 </v>
    <v>       0.69999999       0.89999998       0.25853757 </v>
    <v>       0.69999999       0.89999998       0.33240544 </v>
    <v>       0.89999998       0.10000000       0.03693394 </v>
    <v>       0.89999998       0.10000000       0.11080182 </v>
    <v>       0.89999998       0.10000000       0.18466969 </v>
    <v>       0.89999998       0.10000000       0.25853757 </v>
    <v>       0.89999998       0.10000000       0.33240544 </v>
    <v>       0.89999998       0.30000001       0.03693394 </v>
    <v>       0.89999998       0.30000001       0.11080182 </v>
    <v>       0.89999998       0.30000001       0.18466969 </v>
    <v>       0.89999998       0.30000001       0.25853757 </v>
    <v>       0.89999998       0.30000001       0.33240544 </v>
    <v>       0.89999998       0.50000000       0.03693394 </v>
    <v>       0.89999998       0.50000000       0.11080182 </v>
    <v>       0.89999998       0.50000000       0.18466969 </v>
    <v>       0.89999998       0.50000000       0.25853757 </v>
    <v>       0.89999998       0.50000000       0.33240544 </v>
    <v>       0.89999998       0.69999999       0.03693394 </v>
    <v>       0.89999998       0.69999999       0.11080182 </v>
    <v>       0.89999998       0.69999999       0.18466969 </v>
    <v>       0.89999998       0.69999999       0.25853757 </v>
    <v>       0.89999998       0.69999999       0.33240544 </v>
    <v>       0.89999998       0.89999998       0.03693394 </v>
    <v>       0.89999998       0.89999998       0.11080182 </v>
    <v>       0.89999998       0.89999998       0.18466969 </v>
    <v>       0.89999998       0.89999998       0.25853757 </v>
    <v>       0.89999998       0.89999998       0.33240544 </v>
    <v>       0.42141986       0.42141986       0.36744214 </v>
    <v>       0.35569673       0.55286611       0.36744214 </v>
   </varray>
  </structure>
  <varray name="primitive_index" >
   <v type="int" >        1 </v>
   <v type="int" >        2 </v>
   <v type="int" >        3 </v>
   <v type="int" >        4 </v>
   <v type="int" >        5 </v>
   <v type="int" >        6 </v>
   <v type="int" >        7 </v>
   <v type="int" >        8 </v>
   <v type="int" >        9 </v>
   <v type="int" >       10 </v>
   <v type="int" >       11 </v>
   <v type="int" >       12 </v>
   <v type="int" >       13 </v>
   <v type="int" >       14 </v>
   <v type="int" >       15 </v>
   <v type="int" >       16 </v>
   <v type="int" >       17 </v>
   <v type="int" >       18 </v>
   <v type="int" >       19 </v>
   <v type="int" >       20 </v>
   <v type="int" >       21 </v>
   <v type="int" >       22 </v>
   <v type="int" >       23 </v>
   <v type="int" >       24 </v>
   <v type="int" >       25 </v>
   <v type="int" >       26 </v>
   <v type="int" >       27 </v>
   <v type="int" >       28 </v>
   <v type="int" >       29 </v>
   <v type="int" >       30 </v>
   <v type="int" >       31 </v>
   <v type="int" >       32 </v>
   <v type="int" >       33 </v>
   <v type="int" >       34 </v>
   <v type="int" >       35 </v>
   <v type="int" >       36 </v>
   <v type="int" >       37 </v>
   <v type="int" >       38 </v>
   <v type="int" >       39 </v>
   <v type="int" >       40 </v>
   <v type="int" >       41 </v>
   <v type="int" >       42 </v>
   <v type="int" >       43 </v>
   <v type="int" >       44 </v>
   <v type="int" >       45 </v>
   <v type="int" >       46 </v>
   <v type="int" >       47 </v>
   <v type="int" >       48 </v>
   <v type="int" >       49 </v>
   <v type="int" >       50 </v>
   <v type="int" >       51 </v>
   <v type="int" >       52 </v>
   <v type="int" >       53 </v>
   <v type="int" >       54 </v>
   <v type="int" >       55 </v>
   <v type="int" >       56 </v>
   <v type="int" >       57 </v>
   <v type="int" >       58 </v>
   <v type="int" >       59 </v>
   <v type="int" >       60 </v>
   <v type="int" >       61 </v>
   <v type="int" >       62 </v>
   <v type="int" >       63 </v>
   <v type="int" >       64 </v>
   <v type="int" >       65 </v>
   <v type="int" >       66 </v>
   <v type="int" >       67 </v>
   <v type="int" >       68 </v>
   <v type="int" >       69 </v>
   <v type="int" >       70 </v>
   <v type="int" >       71 </v>
   <v type="int" >       72 </v>
   <v type="int" >       73 </v>
   <v type="int" >       74 </v>
   <v type="int" >       75 </v>
   <v type="int" >       76 </v>
   <v type="int" >       77 </v>
   <v type="int" >       78 </v>
   <v type="int" >       79 </v>
   <v type="int" >       80 </v>
   <v type="int" >       81 </v>
   <v type="int" >       82 </v>
   <v type="int" >       83 </v>
   <v type="int" >       84 </v>
   <v type="int" >       85 </v>
   <v type="int" >       86 </v>
   <v type="int" >       87 </v>
   <v type="int" >       88 </v>
   <v type="int" >       89 </v>
   <v type="int" >       90 </v>
   <v type="int" >       91 </v>
   <v type="int" >       92 </v>
   <v type="int" >       93 </v>
   <v type="int" >       94 </v>
   <v type="int" >       95 </v>
   <v type="int" >       96 </v>
   <v type="int" >       97 </v>
   <v type="int" >       98 </v>
   <v type="int" >       99 </v>
   <v type="int" >      100 </v>
   <v type="int" >      101 </v>
   <v type="int" >      102 </v>
   <v type="int" >      103 </v>
   <v type="int" >      104 </v>
   <v type="int" >      105 </v>
   <v type="int" >      106 </v>
   <v type="int" >      107 </v>
   <v type="int" >      108 </v>
   <v type="int" >      109 </v>
   <v type="int" >      110 </v>
   <v type="int" >      111 </v>
   <v type="int" >      112 </v>
   <v type="int" >      113 </v>
   <v type="int" >      114 </v>
   <v type="int" >      115 </v>
   <v type="int" >      116 </v>
   <v type="int" >      117 </v>
   <v type="int" >      118 </v>
   <v type="int" >      119 </v>
   <v type="int" >      120 </v>
   <v type="int" >      121 </v>
   <v type="int" >      122 </v>
   <v type="int" >      123 </v>
   <v type="int" >      124 </v>
   <v type="int" >      125 </v>
   <v type="int" >      126 </v>
   <v type="int" >      127 </v>
   <v type="int" >      128 </v>
   <v type="int" >      129 </v>
   <v type="int" >      130 </v>
   <v type="int" >      131 </v>
   <v type="int" >      132 </v>
   <v type="int" >      133 </v>
   <v type="int" >      134 </v>
   <v type="int" >      135 </v>
   <v type="int" >      136 </v>
   <v type="int" >      137 </v>
   <v type="int" >      138 </v>
   <v type="int" >      139 </v>
   <v type="int" >      140 </v>
   <v type="int" >      141 </v>
   <v type="int" >      142 </v>
   <v type="int" >      143 </v>
   <v type="int" >      144 </v>
   <v type="int" >      145 </v>
   <v type="int" >      146 </v>
   <v type="int" >      147 </v>
   <v type="int" >      148 </v>
   <v type="int" >      149 </v>
   <v type="int" >      150 </v>
   <v type="int" >      151 </v>
   <v type="int" >      152 </v>
   <v type="int" >      153 </v>
   <v type="int" >      154 </v>
   <v type="int" >      155 </v>
   <v type="int" >      156 </v>
   <v type="int" >      157 </v>
   <v type="int" >      158 </v>
   <v type="int" >      159 </v>
   <v type="int" >      160 </v>
   <v type="int" >      161 </v>
   <v type="int" >      162 </v>
   <v type="int" >      163 </v>
   <v type="int" >      164 </v>
   <v type="int" >      165 </v>
   <v type="int" >      166 </v>
   <v type="int" >      167 </v>
   <v type="int" >      168 </v>
   <v type="int" >      169 </v>
   <v type="int" >      170 </v>
   <v type="int" >      171 </v>
   <v type="int" >      172 </v>
   <v type="int" >      173 </v>
   <v type="int" >      174 </v>
   <v type="int" >      175 </v>
   <v type="int" >      176 </v>
   <v type="int" >      177 </v>
   <v type="int" >      178 </v>
   <v type="int" >      179 </v>
   <v type="int" >      180 </v>
   <v type="int" >      181 </v>
   <v type="int" >      182 </v>
   <v type="int" >      183 </v>
   <v type="int" >      184 </v>
   <v type="int" >      185 </v>
   <v type="int" >      186 </v>
   <v type="int" >      187 </v>
   <v type="int" >      188 </v>
   <v type="int" >      189 </v>
   <v type="int" >      190 </v>
   <v type="int" >      191 </v>
   <v type="int" >      192 </v>
   <v type="int" >      193 </v>
   <v type="int" >      194 </v>
   <v type="int" >      195 </v>
   <v type="int" >      196 </v>
   <v type="int" >      197 </v>
   <v type="int" >      198 </v>
   <v type="int" >      199 </v>
   <v type="int" >      200 </v>
   <v type="int" >      201 </v>
   <v type="int" >      202 </v>
   <v type="int" >      203 </v>
   <v type="int" >      204 </v>
   <v type="int" >      205 </v>
   <v type="int" >      206 </v>
   <v type="int" >      207 </v>
   <v type="int" >      208 </v>
   <v type="int" >      209 </v>
   <v type="int" >      210 </v>
   <v type="int" >      211 </v>
   <v type="int" >      212 </v>
   <v type="int" >      213 </v>
   <v type="int" >      214 </v>
   <v type="int" >      215 </v>
   <v type="int" >      216 </v>
   <v type="int" >      217 </v>
   <v type="int" >      218 </v>
   <v type="int" >      219 </v>
   <v type="int" >      220 </v>
   <v type="int" >      221 </v>
   <v type="int" >      222 </v>
   <v type="int" >      223 </v>
   <v type="int" >      224 </v>
   <v type="int" >      225 </v>
   <v type="int" >      226 </v>
   <v type="int" >      227 </v>
   <v type="int" >      228 </v>
   <v type="int" >      229 </v>
   <v type="int" >      230 </v>
   <v type="int" >      231 </v>
   <v type="int" >      232 </v>
   <v type="int" >      233 </v>
   <v type="int" >      234 </v>
   <v type="int" >      235 </v>
   <v type="int" >      236 </v>
   <v type="int" >      237 </v>
   <v type="int" >      238 </v>
   <v type="int" >      239 </v>
   <v type="int" >      240 </v>
   <v type="int" >      241 </v>
   <v type="int" >      242 </v>
   <v type="int" >      243 </v>
   <v type="int" >      244 </v>
   <v type="int" >      245 </v>
   <v type="int" >      246 </v>
   <v type="int" >      247 </v>
   <v type="int" >      248 </v>
   <v type="int" >      249 </v>
   <v type="int" >      250 </v>
   <v type="int" >      251 </v>
   <v type="int" >      252 </v>
  </varray>
 </primitive_cell>
 <kpoints>
  <generation param="Gamma">
   <v type="int" name="divisions">       2        2        1 </v>
   <v name="usershift">      0.00000000       0.00000000       0.00000000 </v>
   <v name="genvec1">      0.50000000      -0.00000000       0.00000000 </v>
   <v name="genvec2">      0.00000000       0.50000000       0.00000000 </v>
   <v name="genvec3">      0.00000000       0.00000000       1.00000000 </v>
   <v name="shift">      0.00000000       0.00000000       0.00000000 </v>
  </generation>
  <varray name="kpointlist" >
   <v>       0.00000000       0.00000000       0.00000000 </v>
   <v>       0.50000000       0.00000000       0.00000000 </v>
   <v>       0.50000000       0.50000000       0.00000000 </v>
   <v>       0.00000000       0.50000000       0.00000000 </v>
  </varray>
  <varray name="weights" >
   <v>       0.25000000 </v>
   <v>       0.25000000 </v>
   <v>       0.25000000 </v>
   <v>       0.25000000 </v>
  </varray>
 </kpoints>
 <parameters>
  <separator name="general" >
   <i type="string" name="SYSTEM">NiAl</i>
   <i type="logical" name="LCOMPAT"> F  </i>
  </separator>
  <separator name="electronic" >
   <i type="string" name="PREC">normal</i>
   <i name="ENMAX">    360.00000000</i>
   <i name="ENAUG">   1139.60900000</i>
   <i name="EDIFF">      0.00000500</i>
   <i type="int" name="IALGO">    38</i>
   <i type="int" name="IWAVPR">    11</i>
   <i type="int" name="NBANDS">  1207</i>
   <i type="int" name="NBANDSLOW">    -1</i>
   <i type="int" name="NBANDSHIGH">    -1</i>
   <i name="NELECT">   2012.00000000</i>
   <i type="int" name="TURBO">     0</i>
   <i type="int" name="IRESTART">     0</i>
   <i type="int" name="NREBOOT">     0</i>
   <i type="int" name="NMIN">     0</i>
   <i name="EREF">      0.00000000</i>
   <separator name="electronic smearing" >
    <i type="int" name="ISMEAR">     0</i>
    <i name="SIGMA">      0.05000000</i>
    <i name="KSPACING">      0.50000000</i>
    <i type="logical" name="KGAMMA"> T  </i>
    <i type="logical" name="KBLOWUP"> T  </i>
   </separator>
   <separator name="electronic projectors" >
    <i type="logical" name="LREAL"> T  </i>
    <v name="ROPT">     -0.00050000     -0.00050000</v>
    <i type="int" name="LMAXPAW">  -100</i>
    <i type="int" name="LMAXMIX">     2</i>
    <i type="logical" name="NLSPLINE"> F  </i>
   </separator>
   <separator name="electronic startup" >
    <i type="int" name="ISTART">     0</i>
    <i type="int" name="ICHARG">     2</i>
    <i type="int" name="INIWAV">     1</i>
   </separator>
   <separator name="electronic spin" >
    <i type="int" name="ISPIN">     1</i>
    <i type="logical" name="LNONCOLLINEAR"> F  </i>
    <v name="MAGMOM">      1.00000000      1.00000000      1.00000000      1.00000000      1.00000000      1.00000000      1.00000000      1.00000000      1.00000000      1.00000000      1.00000000      1.00000000      1.00000000      1.00000000      1.00000000      1.00000000      1.00000000      1.00000000      1.00000000      1.00000000
      1.00000000      1.00000000      1.00000000      1.00000000      1.00000000      1.00000000      1.00000000      1.00000000      1.00000000      1.00000000      1.00000000      1.00000000      1.00000000      1.00000000      1.00000000      1.00000000      1.00000000      1.00000000      1.00000000      1.00000000
      1.00000000      1.00000000      1.00000000      1.00000000      1.00000000      1.00000000      1.00000000      1.00000000      1.00000000      1.00000000      1.00000000      1.00000000      1.00000000      1.00000000      1.00000000      1.00000000      1.00000000      1.00000000      1.00000000      1.00000000
      1.00000000      1.00000000      1.00000000      1.00000000      1.00000000      1.00000000      1.00000000      1.00000000      1.00000000      1.00000000      1.00000000      1.00000000      1.00000000      1.00000000      1.00000000      1.00000000      1.00000000      1.00000000      1.00000000      1.00000000
      1.00000000      1.00000000      1.00000000      1.00000000      1.00000000      1.00000000      1.00000000      1.00000000      1.00000000      1.00000000      1.00000000      1.00000000      1.00000000      1.00000000      1.00000000      1.00000000      1.00000000      1.00000000      1.00000000      1.00000000
      1.00000000      1.00000000      1.00000000      1.00000000      1.00000000      1.00000000      1.00000000      1.00000000      1.00000000      1.00000000      1.00000000      1.00000000      1.00000000      1.00000000      1.00000000      1.00000000      1.00000000      1.00000000      1.00000000      1.00000000
      1.00000000      1.00000000      1.00000000      1.00000000      1.00000000      1.00000000      1.00000000      1.00000000      1.00000000      1.00000000      1.00000000      1.00000000      1.00000000      1.00000000      1.00000000      1.00000000      1.00000000      1.00000000      1.00000000      1.00000000
      1.00000000      1.00000000      1.00000000      1.00000000      1.00000000      1.00000000      1.00000000      1.00000000      1.00000000      1.00000000      1.00000000      1.00000000      1.00000000      1.00000000      1.00000000      1.00000000      1.00000000      1.00000000      1.00000000      1.00000000
      1.00000000      1.00000000      1.00000000      1.00000000      1.00000000      1.00000000      1.00000000      1.00000000      1.00000000      1.00000000      1.00000000      1.00000000      1.00000000      1.00000000      1.00000000      1.00000000      1.00000000      1.00000000      1.00000000      1.00000000
      1.00000000      1.00000000      1.00000000      1.00000000      1.00000000      1.00000000      1.00000000      1.00000000      1.00000000      1.00000000      1.00000000      1.00000000      1.00000000      1.00000000      1.00000000      1.00000000      1.00000000      1.00000000      1.00000000      1.00000000
      1.00000000      1.00000000      1.00000000      1.00000000      1.00000000      1.00000000      1.00000000      1.00000000      1.00000000      1.00000000      1.00000000      1.00000000      1.00000000      1.00000000      1.00000000      1.00000000      1.00000000      1.00000000      1.00000000      1.00000000
      1.00000000      1.00000000      1.00000000      1.00000000      1.00000000      1.00000000      1.00000000      1.00000000      1.00000000      1.00000000      1.00000000      1.00000000      1.00000000      1.00000000      1.00000000      1.00000000      1.00000000      1.00000000      1.00000000      1.00000000
      1.00000000      1.00000000      1.00000000      1.00000000      1.00000000      1.00000000      1.00000000      1.00000000      1.00000000      1.00000000      1.00000000      1.00000000</v>
    <i name="NUPDOWN">     -1.00000000</i>
    <i type="logical" name="LSORBIT"> F  </i>
    <v name="SAXIS">      0.00000000      0.00000000      1.00000000</v>
    <i type="logical" name="LSPIRAL"> F  </i>
    <v name="QSPIRAL">      0.00000000      0.00000000      0.00000000</v>
    <i type="logical" name="LZEROZ"> F  </i>
   </separator>
   <separator name="electronic exchange-correlation" >
    <i type="logical" name="LASPH"> F  </i>
    <i type="logical" name="LMETAGGA"> F  </i>
   </separator>
   <separator name="electronic convergence" >
    <i type="int" name="NELM">   120</i>
    <i type="int" name="NELMDL">    -5</i>
    <i type="int" name="NELMIN">     6</i>
    <i name="ENINI">    360.00000000</i>
    <separator name="electronic convergence detail" >
     <i type="logical" name="LDIAG"> T  </i>
     <i type="logical" name="LSUBROT"> F  </i>
     <i name="WEIMIN">      0.00100000</i>
     <i name="EBREAK">      0.00000000</i>
     <i name="DEPER">      0.30000000</i>
     <i type="int" name="NRMM">     4</i>
     <i name="TIME">      0.40000000</i>
    </separator>
   </separator>
   <separator name="electronic mixer" >
    <i name="AMIX">      0.40000000</i>
    <i name="BMIX">      1.00000000</i>
    <i name="AMIN">      0.10000000</i>
    <i name="AMIX_MAG">      1.60000000</i>
    <i name="BMIX_MAG">      1.00000000</i>
    <separator name="electronic mixer details" >
     <i type="int" name="IMIX">     4</i>
     <i type="logical" name="MIXFIRST"> F  </i>
     <i type="int" name="MAXMIX">   -45</i>
     <i name="WC">    100.00000000</i>
     <i type="int" name="INIMIX">     1</i>
     <i type="int" name="MIXPRE">     1</i>
     <i type="int" name="MREMOVE">     5</i>
    </separator>
   </separator>
   <separator name="electronic dipolcorrection" >
    <i type="logical" name="LDIPOL"> F  </i>
    <i type="logical" name="LMONO"> F  </i>
    <i type="int" name="IDIPOL">     0</i>
    <i name="EPSILON">      1.00000000</i>
    <v name="DIPOL">   -100.00000000   -100.00000000   -100.00000000</v>
    <i name="EFIELD">      0.00000000</i>
   </separator>
  </separator>
  <separator name="grids" >
   <i type="int" name="NGX">    50</i>
   <i type="int" name="NGY">    50</i>
   <i type="int" name="NGZ">   140</i>
   <i type="int" name="NGXF">   100</i>
   <i type="int" name="NGYF">   100</i>
   <i type="int" name="NGZF">   280</i>
   <i type="logical" name="ADDGRID"> F  </i>
  </separator>
  <separator name="ionic" >
   <i type="int" name="NSW">    40</i>
   <i type="int" name="IBRION">     2</i>
   <i type="int" name="MDALGO">     0</i>
   <i type="int" name="ISIF">     0</i>
   <i name="PSTRESS">      0.00000000</i>
   <i name="EDIFFG">      0.00005000</i>
   <i type="int" name="NFREE">     1</i>
   <i name="POTIM">      0.20000000</i>
   <i name="SMASS">     -3.00000000</i>
   <i name="SCALEE">      1.00000000</i>
  </separator>
  <separator name="ionic md" >
   <i name="TEBEG">      0.00010000</i>
   <i name="TEEND">      0.00010000</i>
   <i type="int" name="NBLOCK">     1</i>
   <i type="int" name="KBLOCK">    40</i>
   <i type="int" name="NPACO">   256</i>
   <i name="APACO">     16.00000000</i>
  </separator>
  <separator name="symmetry" >
   <i type="int" name="ISYM">     2</i>
   <i name="SYMPREC">      0.00001000</i>
  </separator>
  <separator name="dos" >
   <i type="int" name="LORBIT">     0</i>
   <v name="RWIGS">     -1.00000000     -1.00000000</v>
   <i type="int" name="NEDOS">   301</i>
   <i name="EMIN">     10.00000000</i>
   <i name="EMAX">    -10.00000000</i>
   <i name="EFERMI">      0.00000000</i>
  </separator>
  <separator name="writing" >
   <i type="int" name="NWRITE">     2</i>
   <i type="logical" name="LWAVE"> F  </i>
   <i type="logical" name="LDOWNSAMPLE"> F  </i>
   <i type="logical" name="LCHARG"> F  </i>
   <i type="logical" name="LPARD"> F  </i>
   <i type="logical" name="LVTOT"> F  </i>
   <i type="logical" name="LVHAR"> F  </i>
   <i type="logical" name="LELF"> F  </i>
   <i type="logical" name="LOPTICS"> F  </i>
   <v name="STM">      0.00000000      0.00000000      0.00000000      0.00000000      0.00000000      0.00000000      0.00000000</v>
  </separator>
  <separator name="performance" >
   <i type="int" name="NPAR">     1</i>
   <i type="int" name="NSIM">     4</i>
   <i type="int" name="NBLK">    -1</i>
   <i type="logical" name="LPLANE"> T  </i>
   <i type="logical" name="LSCALAPACK"> T  </i>
   <i type="logical" name="LSCAAWARE"> F  </i>
   <i type="logical" name="LSCALU"> F  </i>
   <i type="logical" name="LASYNC"> F  </i>
   <i type="logical" name="LORBITALREAL"> F  </i>
  </separator>
  <separator name="miscellaneous" >
   <i type="int" name="IDIOT">     3</i>
   <i type="int" name="PHON_NSTRUCT">    -1</i>
   <i type="logical" name="LMUSIC"> F  </i>
   <v name="POMASS">     58.69000000     16.00000000</v>
   <v name="DARWINR">      0.00000000      0.00000000</v>
   <v name="DARWINV">      1.00000000      1.00000000</v>
   <i type="logical" name="LCORR"> T  </i>
  </separator>
  <i type="logical" name="GGA_COMPAT"> T  </i>
  <i type="logical" name="LBERRY"> F  </i>
  <i type="int" name="ICORELEVEL">     0</i>
  <i type="logical" name="LDAU"> F  </i>
  <i type="int" name="I_CONSTRAINED_M">     0</i>
  <separator name="electronic exchange-correlation" >
   <i type="string" name="GGA">--</i>
   <i type="int" name="VOSKOWN">     0</i>
   <i type="logical" name="LHFCALC"> F  </i>
   <i type="string" name="PRECFOCK"></i>
   <i type="logical" name="LSYMGRAD"> F  </i>
   <i type="logical" name="LHFONE"> F  </i>
   <i type="logical" name="LRHFCALC"> F  </i>
   <i type="logical" name="LTHOMAS"> F  </i>
   <i type="logical" name="LMODELHF"> F  </i>
   <i type="logical" name="LFOCKACE"> F  </i>
   <i name="ENCUT4O">     -1.00000000</i>
   <i type="int" name="EXXOEP">     0</i>
   <i type="int" name="FOURORBIT">     0</i>
   <i name="AEXX">      0.00000000</i>
   <i name="HFALPHA">      0.00000000</i>
   <i name="MCALPHA">      0.00000000</i>
   <i name="ALDAX">      1.00000000</i>
   <i name="AGGAX">      1.00000000</i>
   <i name="ALDAC">      1.00000000</i>
   <i name="AGGAC">      1.00000000</i>
   <i type="int" name="NKREDX">     1</i>
   <i type="int" name="NKREDY">     1</i>
   <i type="int" name="NKREDZ">     1</i>
   <i type="logical" name="SHIFTRED"> F  </i>
   <i type="logical" name="ODDONLY"> F  </i>
   <i type="logical" name="EVENONLY"> F  </i>
   <i type="int" name="LMAXFOCK">     0</i>
   <i type="int" name="NMAXFOCKAE">     0</i>
   <i type="logical" name="LFOCKAEDFT"> F  </i>
   <i name="HFSCREEN">      0.00000000</i>
   <i name="HFSCREENC">      0.00000000</i>
   <i type="int" name="NBANDSGWLOW">     0</i>
  </separator>
  <separator name="vdW DFT" >
   <i type="logical" name="LUSE_VDW"> F  </i>
   <i name="Zab_VDW">     -0.84910000</i>
   <i name="PARAM1">      0.12340000</i>
   <i name="PARAM2">      1.00000000</i>
   <i name="PARAM3">      0.00000000</i>
  </separator>
  <separator name="model GW" >
   <i type="int" name="MODEL_GW">     0</i>
   <i name="MODEL_EPS0">      6.53977746</i>
   <i name="MODEL_ALPHA">      1.00000000</i>
  </separator>
  <separator name="linear response parameters" >
   <i type="logical" name="LEPSILON"> F  </i>
   <i type="logical" name="LRPA"> F  </i>
   <i type="logical" name="LNABLA"> F  </i>
   <i type="logical" name="LVEL"> F  </i>
   <i type="int" name="KINTER">     0</i>
   <i name="CSHIFT">      0.10000000</i>
   <i name="OMEGAMAX">     -1.00000000</i>
   <i name="DEG_THRESHOLD">      0.00200000</i>
   <i name="RTIME">     -0.10000000</i>
   <i name="WPLASMAI">      0.00000000</i>
   <v name="DFIELD">      0.00000000      0.00000000      0.00000000</v>
   <v name="WPLASMA">      0.00000000      0.00000000      0.00000000      0.00000000      0.00000000      0.00000000      0.00000000      0.00000000      0.00000000</v>
  </separator>
  <separator name="orbital magnetization" >
   <i type="logical" name="NUCIND"> F  </i>
   <v name="MAGPOS">      0.00000000      0.00000000      0.00000000</v>
   <i type="logical" name="LNICSALL"> T  </i>
   <i type="logical" name="ORBITALMAG"> F  </i>
   <i type="logical" name="LMAGBLOCH"> F  </i>
   <i type="logical" name="LCHIMAG"> F  </i>
   <i type="logical" name="LGAUGE"> T  </i>
   <i type="int" name="MAGATOM">     0</i>
   <v name="MAGDIPOL">      0.00000000      0.00000000      0.00000000</v>
   <v name="AVECCONST">      0.00000000      0.00000000      0.00000000</v>
  </separator>
  <separator name="response functions" >
   <i type="logical" name="LFINITE_TEMPERATURE"> F  </i>
   <i type="logical" name="LADDER"> F  </i>
   <i type="logical" name="LRPAFORCE"> F  </i>
   <i type="logical" name="LFXC"> F  </i>
   <i type="logical" name="LHARTREE"> T  </i>
   <i type="int" name="IBSE">     0</i>
   <v type="int" name="KPOINT">    -1     0     0     0</v>
   <i type="logical" name="LTCTC"> F  </i>
   <i type="logical" name="LTCTE"> F  </i>
   <i type="logical" name="LTETE"> F  </i>
   <i type="logical" name="LTRIPLET"> F  </i>
   <i type="logical" name="LFXCEPS"> F  </i>
   <i type="logical" name="LFXHEG"> F  </i>
   <i type="int" name="NATURALO">     2</i>
   <i type="logical" name="LHOLEGF"> F  </i>
   <i type="logical" name="L2ORDER"> F  </i>
   <i type="logical" name="LDMP1"> F  </i>
   <i type="logical" name="LMP2LT"> F  </i>
   <i type="logical" name="LSMP2LT"> F  </i>
   <i type="logical" name="LGWLF"> F  </i>
   <i name="ENCUTGW">     -2.00000000</i>
   <i name="ENCUTGWSOFT">     -2.00000000</i>
   <i name="ENCUTLF">     -1.00000000</i>
   <i type="logical" name="LESF_SPLINES"> F  </i>
   <i type="int" name="LMAXMP2">    -1</i>
   <i name="SCISSOR">      0.00000000</i>
   <i type="int" name="NOMEGA">     0</i>
   <i type="int" name="NOMEGAR">     0</i>
   <i type="int" name="NBANDSGW">    -1</i>
   <i type="int" name="NBANDSO">    -1</i>
   <i type="int" name="NBANDSV">    -1</i>
   <i type="int" name="NELM">   120</i>
   <i type="int" name="NELMHF">     1</i>
   <i type="int" name="DIM">     3</i>
   <i type="int" name="IESPILON">     4</i>
   <i type="int" name="ANTIRES">     0</i>
   <i name="OMEGAMAX">    -30.00000000</i>
   <i name="OMEGAMIN">    -30.00000000</i>
   <i name="OMEGATL">   -200.00000000</i>
   <i type="int" name="OMEGAGRID">     0</i>
   <i name="CSHIFT">     -0.10000000</i>
   <i type="logical" name="LSELFENERGY"> F  </i>
   <i type="logical" name="LSPECTRAL"> F  </i>
   <i type="logical" name="LSPECTRALGW"> F  </i>
   <i type="logical" name="LSINGLES"> F  </i>
   <i type="logical" name="LFERMIGW"> F  </i>
   <i type="logical" name="ODDONLYGW"> F  </i>
   <i type="logical" name="EVENONLYGW"> F  </i>
   <i type="int" name="NKREDLFX">     1</i>
   <i type="int" name="NKREDLFY">     1</i>
   <i type="int" name="NKREDLFZ">     1</i>
   <i type="int" name="MAXMEM">  2800</i>
   <i type="int" name="TELESCOPE">     0</i>
   <i type="int" name="NTAUPAR">    -1</i>
   <i type="int" name="NOMEGAPAR">    -1</i>
   <i name="DAMP_NEWTON">      0.80000001</i>
   <i name="LAMBDA">      1.00000000</i>
  </separator>
  <separator name="External order field" >
   <i name="OFIELD_KAPPA">      0.00000000</i>
   <v name="OFIELD_K">      0.00000000      0.00000000      0.00000000</v>
   <i name="OFIELD_Q6_NEAR">      0.00000000</i>
   <i name="OFIELD_Q6_FAR">      0.00000000</i>
   <i name="OFIELD_A">      0.00000000</i>
  </separator>
 </parameters>
 <atominfo>
  <atoms>     252 </atoms>
  <types>       2 </types>
  <array name="atoms" >
   <dimension dim="1">ion</dimension>
   <field type="string">element</field>
   <field type="int">atomtype</field>
   <set>
    <rc><c>Ni</c><c>   1</c></rc>
    <rc><c>Ni</c><c>   1</c></rc>
    <rc><c>Ni</c><c>   1</c></rc>
    <rc><c>Ni</c><c>   1</c></rc>
    <rc><c>Ni</c><c>   1</c></rc>
    <rc><c>Ni</c><c>   1</c></rc>
    <rc><c>Ni</c><c>   1</c></rc>
    <rc><c>Ni</c><c>   1</c></rc>
    <rc><c>Ni</c><c>   1</c></rc>
    <rc><c>Ni</c><c>   1</c></rc>
    <rc><c>Ni</c><c>   1</c></rc>
    <rc><c>Ni</c><c>   1</c></rc>
    <rc><c>Ni</c><c>   1</c></rc>
    <rc><c>Ni</c><c>   1</c></rc>
    <rc><c>Ni</c><c>   1</c></rc>
    <rc><c>Ni</c><c>   1</c></rc>
    <rc><c>Ni</c><c>   1</c></rc>
    <rc><c>Ni</c><c>   1</c></rc>
    <rc><c>Ni</c><c>   1</c></rc>
    <rc><c>Ni</c><c>   1</c></rc>
    <rc><c>Ni</c><c>   1</c></rc>
    <rc><c>Ni</c><c>   1</c></rc>
    <rc><c>Ni</c><c>   1</c></rc>
    <rc><c>Ni</c><c>   1</c></rc>
    <rc><c>Ni</c><c>   1</c></rc>
    <rc><c>Ni</c><c>   1</c></rc>
    <rc><c>Ni</c><c>   1</c></rc>
    <rc><c>Ni</c><c>   1</c></rc>
    <rc><c>Ni</c><c>   1</c></rc>
    <rc><c>Ni</c><c>   1</c></rc>
    <rc><c>Ni</c><c>   1</c></rc>
    <rc><c>Ni</c><c>   1</c></rc>
    <rc><c>Ni</c><c>   1</c></rc>
    <rc><c>Ni</c><c>   1</c></rc>
    <rc><c>Ni</c><c>   1</c></rc>
    <rc><c>Ni</c><c>   1</c></rc>
    <rc><c>Ni</c><c>   1</c></rc>
    <rc><c>Ni</c><c>   1</c></rc>
    <rc><c>Ni</c><c>   1</c></rc>
    <rc><c>Ni</c><c>   1</c></rc>
    <rc><c>Ni</c><c>   1</c></rc>
    <rc><c>Ni</c><c>   1</c></rc>
    <rc><c>Ni</c><c>   1</c></rc>
    <rc><c>Ni</c><c>   1</c></rc>
    <rc><c>Ni</c><c>   1</c></rc>
    <rc><c>Ni</c><c>   1</c></rc>
    <rc><c>Ni</c><c>   1</c></rc>
    <rc><c>Ni</c><c>   1</c></rc>
    <rc><c>Ni</c><c>   1</c></rc>
    <rc><c>Ni</c><c>   1</c></rc>
    <rc><c>Ni</c><c>   1</c></rc>
    <rc><c>Ni</c><c>   1</c></rc>
    <rc><c>Ni</c><c>   1</c></rc>
    <rc><c>Ni</c><c>   1</c></rc>
    <rc><c>Ni</c><c>   1</c></rc>
    <rc><c>Ni</c><c>   1</c></rc>
    <rc><c>Ni</c><c>   1</c></rc>
    <rc><c>Ni</c><c>   1</c></rc>
    <rc><c>Ni</c><c>   1</c></rc>
    <rc><c>Ni</c><c>   1</c></rc>
    <rc><c>Ni</c><c>   1</c></rc>
    <rc><c>Ni</c><c>   1</c></rc>
    <rc><c>Ni</c><c>   1</c></rc>
    <rc><c>Ni</c><c>   1</c></rc>
    <rc><c>Ni</c><c>   1</c></rc>
    <rc><c>Ni</c><c>   1</c></rc>
    <rc><c>Ni</c><c>   1</c></rc>
    <rc><c>Ni</c><c>   1</c></rc>
    <rc><c>Ni</c><c>   1</c></rc>
    <rc><c>Ni</c><c>   1</c></rc>
    <rc><c>Ni</c><c>   1</c></rc>
    <rc><c>Ni</c><c>   1</c></rc>
    <rc><c>Ni</c><c>   1</c></rc>
    <rc><c>Ni</c><c>   1</c></rc>
    <rc><c>Ni</c><c>   1</c></rc>
    <rc><c>Ni</c><c>   1</c></rc>
    <rc><c>Ni</c><c>   1</c></rc>
    <rc><c>Ni</c><c>   1</c></rc>
    <rc><c>Ni</c><c>   1</c></rc>
    <rc><c>Ni</c><c>   1</c></rc>
    <rc><c>Ni</c><c>   1</c></rc>
    <rc><c>Ni</c><c>   1</c></rc>
    <rc><c>Ni</c><c>   1</c></rc>
    <rc><c>Ni</c><c>   1</c></rc>
    <rc><c>Ni</c><c>   1</c></rc>
    <rc><c>Ni</c><c>   1</c></rc>
    <rc><c>Ni</c><c>   1</c></rc>
    <rc><c>Ni</c><c>   1</c></rc>
    <rc><c>Ni</c><c>   1</c></rc>
    <rc><c>Ni</c><c>   1</c></rc>
    <rc><c>Ni</c><c>   1</c></rc>
    <rc><c>Ni</c><c>   1</c></rc>
    <rc><c>Ni</c><c>   1</c></rc>
    <rc><c>Ni</c><c>   1</c></rc>
    <rc><c>Ni</c><c>   1</c></rc>
    <rc><c>Ni</c><c>   1</c></rc>
    <rc><c>Ni</c><c>   1</c></rc>
    <rc><c>Ni</c><c>   1</c></rc>
    <rc><c>Ni</c><c>   1</c></rc>
    <rc><c>Ni</c><c>   1</c></rc>
    <rc><c>Ni</c><c>   1</c></rc>
    <rc><c>Ni</c><c>   1</c></rc>
    <rc><c>Ni</c><c>   1</c></rc>
    <rc><c>Ni</c><c>   1</c></rc>
    <rc><c>Ni</c><c>   1</c></rc>
    <rc><c>Ni</c><c>   1</c></rc>
    <rc><c>Ni</c><c>   1</c></rc>
    <rc><c>Ni</c><c>   1</c></rc>
    <rc><c>Ni</c><c>   1</c></rc>
    <rc><c>Ni</c><c>   1</c></rc>
    <rc><c>Ni</c><c>   1</c></rc>
    <rc><c>Ni</c><c>   1</c></rc>
    <rc><c>Ni</c><c>   1</c></rc>
    <rc><c>Ni</c><c>   1</c></rc>
    <rc><c>Ni</c><c>   1</c></rc>
    <rc><c>Ni</c><c>   1</c></rc>
    <rc><c>Ni</c><c>   1</c></rc>
    <rc><c>Ni</c><c>   1</c></rc>
    <rc><c>Ni</c><c>   1</c></rc>
    <rc><c>Ni</c><c>   1</c></rc>
    <rc><c>Ni</c><c>   1</c></rc>
    <rc><c>Ni</c><c>   1</c></rc>
    <rc><c>Ni</c><c>   1</c></rc>
    <rc><c>Ni</c><c>   1</c></rc>
    <rc><c>Ni</c><c>   1</c></rc>
    <rc><c>O </c><c>   2</c></rc>
    <rc><c>O </c><c>   2</c></rc>
    <rc><c>O </c><c>   2</c></rc>
    <rc><c>O </c><c>   2</c></rc>
    <rc><c>O </c><c>   2</c></rc>
    <rc><c>O </c><c>   2</c></rc>
    <rc><c>O </c><c>   2</c></rc>
    <rc><c>O </c><c>   2</c></rc>
    <rc><c>O </c><c>   2</c></rc>
    <rc><c>O </c><c>   2</c></rc>
    <rc><c>O </c><c>   2</c></rc>
    <rc><c>O </c><c>   2</c></rc>
    <rc><c>O </c><c>   2</c></rc>
    <rc><c>O </c><c>   2</c></rc>
    <rc><c>O </c><c>   2</c></rc>
    <rc><c>O </c><c>   2</c></rc>
    <rc><c>O </c><c>   2</c></rc>
    <rc><c>O </c><c>   2</c></rc>
    <rc><c>O </c><c>   2</c></rc>
    <rc><c>O </c><c>   2</c></rc>
    <rc><c>O </c><c>   2</c></rc>
    <rc><c>O </c><c>   2</c></rc>
    <rc><c>O </c><c>   2</c></rc>
    <rc><c>O </c><c>   2</c></rc>
    <rc><c>O </c><c>   2</c></rc>
    <rc><c>O </c><c>   2</c></rc>
    <rc><c>O </c><c>   2</c></rc>
    <rc><c>O </c><c>   2</c></rc>
    <rc><c>O </c><c>   2</c></rc>
    <rc><c>O </c><c>   2</c></rc>
    <rc><c>O </c><c>   2</c></rc>
    <rc><c>O </c><c>   2</c></rc>
    <rc><c>O </c><c>   2</c></rc>
    <rc><c>O </c><c>   2</c></rc>
    <rc><c>O </c><c>   2</c></rc>
    <rc><c>O </c><c>   2</c></rc>
    <rc><c>O </c><c>   2</c></rc>
    <rc><c>O </c><c>   2</c></rc>
    <rc><c>O </c><c>   2</c></rc>
    <rc><c>O </c><c>   2</c></rc>
    <rc><c>O </c><c>   2</c></rc>
    <rc><c>O </c><c>   2</c></rc>
    <rc><c>O </c><c>   2</c></rc>
    <rc><c>O </c><c>   2</c></rc>
    <rc><c>O </c><c>   2</c></rc>
    <rc><c>O </c><c>   2</c></rc>
    <rc><c>O </c><c>   2</c></rc>
    <rc><c>O </c><c>   2</c></rc>
    <rc><c>O </c><c>   2</c></rc>
    <rc><c>O </c><c>   2</c></rc>
    <rc><c>O </c><c>   2</c></rc>
    <rc><c>O </c><c>   2</c></rc>
    <rc><c>O </c><c>   2</c></rc>
    <rc><c>O </c><c>   2</c></rc>
    <rc><c>O </c><c>   2</c></rc>
    <rc><c>O </c><c>   2</c></rc>
    <rc><c>O </c><c>   2</c></rc>
    <rc><c>O </c><c>   2</c></rc>
    <rc><c>O </c><c>   2</c></rc>
    <rc><c>O </c><c>   2</c></rc>
    <rc><c>O </c><c>   2</c></rc>
    <rc><c>O </c><c>   2</c></rc>
    <rc><c>O </c><c>   2</c></rc>
    <rc><c>O </c><c>   2</c></rc>
    <rc><c>O </c><c>   2</c></rc>
    <rc><c>O </c><c>   2</c></rc>
    <rc><c>O </c><c>   2</c></rc>
    <rc><c>O </c><c>   2</c></rc>
    <rc><c>O </c><c>   2</c></rc>
    <rc><c>O </c><c>   2</c></rc>
    <rc><c>O </c><c>   2</c></rc>
    <rc><c>O </c><c>   2</c></rc>
    <rc><c>O </c><c>   2</c></rc>
    <rc><c>O </c><c>   2</c></rc>
    <rc><c>O </c><c>   2</c></rc>
    <rc><c>O </c><c>   2</c></rc>
    <rc><c>O </c><c>   2</c></rc>
    <rc><c>O </c><c>   2</c></rc>
    <rc><c>O </c><c>   2</c></rc>
    <rc><c>O </c><c>   2</c></rc>
    <rc><c>O </c><c>   2</c></rc>
    <rc><c>O </c><c>   2</c></rc>
    <rc><c>O </c><c>   2</c></rc>
    <rc><c>O </c><c>   2</c></rc>
    <rc><c>O </c><c>   2</c></rc>
    <rc><c>O </c><c>   2</c></rc>
    <rc><c>O </c><c>   2</c></rc>
    <rc><c>O </c><c>   2</c></rc>
    <rc><c>O </c><c>   2</c></rc>
    <rc><c>O </c><c>   2</c></rc>
    <rc><c>O </c><c>   2</c></rc>
    <rc><c>O </c><c>   2</c></rc>
    <rc><c>O </c><c>   2</c></rc>
    <rc><c>O </c><c>   2</c></rc>
    <rc><c>O </c><c>   2</c></rc>
    <rc><c>O </c><c>   2</c></rc>
    <rc><c>O </c><c>   2</c></rc>
    <rc><c>O </c><c>   2</c></rc>
    <rc><c>O </c><c>   2</c></rc>
    <rc><c>O </c><c>   2</c></rc>
    <rc><c>O </c><c>   2</c></rc>
    <rc><c>O </c><c>   2</c></rc>
    <rc><c>O </c><c>   2</c></rc>
    <rc><c>O </c><c>   2</c></rc>
    <rc><c>O </c><c>   2</c></rc>
    <rc><c>O </c><c>   2</c></rc>
    <rc><c>O </c><c>   2</c></rc>
    <rc><c>O </c><c>   2</c></rc>
    <rc><c>O </c><c>   2</c></rc>
    <rc><c>O </c><c>   2</c></rc>
    <rc><c>O </c><c>   2</c></rc>
    <rc><c>O </c><c>   2</c></rc>
    <rc><c>O </c><c>   2</c></rc>
    <rc><c>O </c><c>   2</c></rc>
    <rc><c>O </c><c>   2</c></rc>
    <rc><c>O </c><c>   2</c></rc>
    <rc><c>O </c><c>   2</c></rc>
    <rc><c>O </c><c>   2</c></rc>
    <rc><c>O </c><c>   2</c></rc>
    <rc><c>O </c><c>   2</c></rc>
    <rc><c>O </c><c>   2</c></rc>
    <rc><c>O </c><c>   2</c></rc>
    <rc><c>O </c><c>   2</c></rc>
    <rc><c>O </c><c>   2</c></rc>
    <rc><c>O </c><c>   2</c></rc>
    <rc><c>O </c><c>   2</c></rc>
    <rc><c>O </c><c>   2</c></rc>
   </set>
  </array>
  <array name="atomtypes" >
   <dimension dim="1">type</dimension>
   <field type="int">atomspertype</field>
   <field type="string">element</field>
   <field>mass</field>
   <field>valence</field>
   <field type="string">pseudopotential</field>
   <set>
    <rc><c> 125</c><c>Ni</c><c>     58.69000000</c><c>     10.00000000</c><c>  PAW Ni_GW 31Mar2010                   </c></rc>
    <rc><c> 127</c><c>O </c><c>     16.00000000</c><c>      6.00000000</c><c>  PAW O_GW 19Mar2012                    </c></rc>
   </set>
  </array>
 </atominfo>
 <structure name="initialpos" >
  <crystal>
   <varray name="basis" >
    <v>      10.54150009       0.00000000       0.00000000 </v>
    <v>       5.27075005       9.12920687       0.00000000 </v>
    <v>       0.00000000       0.00000000      28.54150009 </v>
   </varray>
   <i name="volume">   2746.70653362 </i>
   <varray name="rec_basis" >
    <v>       0.09486316      -0.05476927       0.00000000 </v>
    <v>       0.00000000       0.10953854       0.00000000 </v>
    <v>       0.00000000       0.00000000       0.03503670 </v>
   </varray>
  </crystal>
  <varray name="positions" >
   <v>       0.00000000       0.00000000       0.00000000 </v>
   <v>       0.00000000       0.00000000       0.07386788 </v>
   <v>       0.00000000       0.00000000       0.14773576 </v>
   <v>       0.00000000       0.00000000       0.22160364 </v>
   <v>       0.00000000       0.00000000       0.29547151 </v>
   <v>       0.00000000       0.20000000       0.00000000 </v>
   <v>       0.00000000       0.20000000       0.07386788 </v>
   <v>       0.00000000       0.20000000       0.14773576 </v>
   <v>       0.00000000       0.20000000       0.22160364 </v>
   <v>       0.00000000       0.20000000       0.29547151 </v>
   <v>       0.00000000       0.40000001       0.00000000 </v>
   <v>       0.00000000       0.40000001       0.07386788 </v>
   <v>       0.00000000       0.40000001       0.14773576 </v>
   <v>       0.00000000       0.40000001       0.22160364 </v>
   <v>       0.00000000       0.40000001       0.29547151 </v>
   <v>       0.00000000       0.60000002       0.00000000 </v>
   <v>       0.00000000       0.60000002       0.07386788 </v>
   <v>       0.00000000       0.60000002       0.14773576 </v>
   <v>       0.00000000       0.60000002       0.22160364 </v>
   <v>       0.00000000       0.60000002       0.29547151 </v>
   <v>       0.00000000       0.80000001       0.00000000 </v>
   <v>       0.00000000       0.80000001       0.07386788 </v>
   <v>       0.00000000       0.80000001       0.14773576 </v>
   <v>       0.00000000       0.80000001       0.22160364 </v>
   <v>       0.00000000       0.80000001       0.29547151 </v>
   <v>       0.20000000       0.00000000       0.00000000 </v>
   <v>       0.20000000       0.00000000       0.07386788 </v>
   <v>       0.20000000       0.00000000       0.14773576 </v>
   <v>       0.20000000       0.00000000       0.22160364 </v>
   <v>       0.20000000       0.00000000       0.29547151 </v>
   <v>       0.20000000       0.20000000       0.00000000 </v>
   <v>       0.20000000       0.20000000       0.07386788 </v>
   <v>       0.20000000       0.20000000       0.14773576 </v>
   <v>       0.20000000       0.20000000       0.22160364 </v>
   <v>       0.20000000       0.20000000       0.29547151 </v>
   <v>       0.20000000       0.40000001       0.00000000 </v>
   <v>       0.20000000       0.40000001       0.07386788 </v>
   <v>       0.20000000       0.40000001       0.14773576 </v>
   <v>       0.20000000       0.40000001       0.22160364 </v>
   <v>       0.20000000       0.40000001       0.29547151 </v>
   <v>       0.20000000       0.60000002       0.00000000 </v>
   <v>       0.20000000       0.60000002       0.07386788 </v>
   <v>       0.20000000       0.60000002       0.14773576 </v>
   <v>       0.20000000       0.60000002       0.22160364 </v>
   <v>       0.20000000       0.60000002       0.29547151 </v>
   <v>       0.20000000       0.80000001       0.00000000 </v>
   <v>       0.20000000       0.80000001       0.07386788 </v>
   <v>       0.20000000       0.80000001       0.14773576 </v>
   <v>       0.20000000       0.80000001       0.22160364 </v>
   <v>       0.20000000       0.80000001       0.29547151 </v>
   <v>       0.40000001       0.00000000       0.00000000 </v>
   <v>       0.40000001       0.00000000       0.07386788 </v>
   <v>       0.40000001       0.00000000       0.14773576 </v>
   <v>       0.40000001       0.00000000       0.22160364 </v>
   <v>       0.40000001       0.00000000       0.29547151 </v>
   <v>       0.40000001       0.20000000       0.00000000 </v>
   <v>       0.40000001       0.20000000       0.07386788 </v>
   <v>       0.40000001       0.20000000       0.14773576 </v>
   <v>       0.40000001       0.20000000       0.22160364 </v>
   <v>       0.40000001       0.20000000       0.29547151 </v>
   <v>       0.40000001       0.40000001       0.00000000 </v>
   <v>       0.40000001       0.40000001       0.07386788 </v>
   <v>       0.40000001       0.40000001       0.14773576 </v>
   <v>       0.40000001       0.40000001       0.22160364 </v>
   <v>       0.40000001       0.40000001       0.29547151 </v>
   <v>       0.40000001       0.60000002       0.00000000 </v>
   <v>       0.40000001       0.60000002       0.07386788 </v>
   <v>       0.40000001       0.60000002       0.14773576 </v>
   <v>       0.40000001       0.60000002       0.22160364 </v>
   <v>       0.40000001       0.60000002       0.29547151 </v>
   <v>       0.40000001       0.80000001       0.00000000 </v>
   <v>       0.40000001       0.80000001       0.07386788 </v>
   <v>       0.40000001       0.80000001       0.14773576 </v>
   <v>       0.40000001       0.80000001       0.22160364 </v>
   <v>       0.40000001       0.80000001       0.29547151 </v>
   <v>       0.60000002       0.00000000       0.00000000 </v>
   <v>       0.60000002       0.00000000       0.07386788 </v>
   <v>       0.60000002       0.00000000       0.14773576 </v>
   <v>       0.60000002       0.00000000       0.22160364 </v>
   <v>       0.60000002       0.00000000       0.29547151 </v>
   <v>       0.60000002       0.20000000       0.00000000 </v>
   <v>       0.60000002       0.20000000       0.07386788 </v>
   <v>       0.60000002       0.20000000       0.14773576 </v>
   <v>       0.60000002       0.20000000       0.22160364 </v>
   <v>       0.60000002       0.20000000       0.29547151 </v>
   <v>       0.60000002       0.40000001       0.00000000 </v>
   <v>       0.60000002       0.40000001       0.07386788 </v>
   <v>       0.60000002       0.40000001       0.14773576 </v>
   <v>       0.60000002       0.40000001       0.22160364 </v>
   <v>       0.60000002       0.40000001       0.29547151 </v>
   <v>       0.60000002       0.60000002       0.00000000 </v>
   <v>       0.60000002       0.60000002       0.07386788 </v>
   <v>       0.60000002       0.60000002       0.14773576 </v>
   <v>       0.60000002       0.60000002       0.22160364 </v>
   <v>       0.60000002       0.60000002       0.29547151 </v>
   <v>       0.60000002       0.80000001       0.00000000 </v>
   <v>       0.60000002       0.80000001       0.07386788 </v>
   <v>       0.60000002       0.80000001       0.14773576 </v>
   <v>       0.60000002       0.80000001       0.22160364 </v>
   <v>       0.60000002       0.80000001       0.29547151 </v>
   <v>       0.80000001       0.00000000       0.00000000 </v>
   <v>       0.80000001       0.00000000       0.07386788 </v>
   <v>       0.80000001       0.00000000       0.14773576 </v>
   <v>       0.80000001       0.00000000       0.22160364 </v>
   <v>       0.80000001       0.00000000       0.29547151 </v>
   <v>       0.80000001       0.20000000       0.00000000 </v>
   <v>       0.80000001       0.20000000       0.07386788 </v>
   <v>       0.80000001       0.20000000       0.14773576 </v>
   <v>       0.80000001       0.20000000       0.22160364 </v>
   <v>       0.80000001       0.20000000       0.29547151 </v>
   <v>       0.80000001       0.40000001       0.00000000 </v>
   <v>       0.80000001       0.40000001       0.07386788 </v>
   <v>       0.80000001       0.40000001       0.14773576 </v>
   <v>       0.80000001       0.40000001       0.22160364 </v>
   <v>       0.80000001       0.40000001       0.29547151 </v>
   <v>       0.80000001       0.60000002       0.00000000 </v>
   <v>       0.80000001       0.60000002       0.07386788 </v>
   <v>       0.80000001       0.60000002       0.14773576 </v>
   <v>       0.80000001       0.60000002       0.22160364 </v>
   <v>       0.80000001       0.60000002       0.29547151 </v>
   <v>       0.80000001       0.80000001       0.00000000 </v>
   <v>       0.80000001       0.80000001       0.07386788 </v>
   <v>       0.80000001       0.80000001       0.14773576 </v>
   <v>       0.80000001       0.80000001       0.22160364 </v>
   <v>       0.80000001       0.80000001       0.29547151 </v>
   <v>       0.10000000       0.10000000       0.03693394 </v>
   <v>       0.10000000       0.10000000       0.11080182 </v>
   <v>       0.10000000       0.10000000       0.18466969 </v>
   <v>       0.10000000       0.10000000       0.25853757 </v>
   <v>       0.10000000       0.10000000       0.33240544 </v>
   <v>       0.10000000       0.30000001       0.03693394 </v>
   <v>       0.10000000       0.30000001       0.11080182 </v>
   <v>       0.10000000       0.30000001       0.18466969 </v>
   <v>       0.10000000       0.30000001       0.25853757 </v>
   <v>       0.10000000       0.30000001       0.33240544 </v>
   <v>       0.10000000       0.50000000       0.03693394 </v>
   <v>       0.10000000       0.50000000       0.11080182 </v>
   <v>       0.10000000       0.50000000       0.18466969 </v>
   <v>       0.10000000       0.50000000       0.25853757 </v>
   <v>       0.10000000       0.50000000       0.33240544 </v>
   <v>       0.10000000       0.69999999       0.03693394 </v>
   <v>       0.10000000       0.69999999       0.11080182 </v>
   <v>       0.10000000       0.69999999       0.18466969 </v>
   <v>       0.10000000       0.69999999       0.25853757 </v>
   <v>       0.10000000       0.69999999       0.33240544 </v>
   <v>       0.10000000       0.89999998       0.03693394 </v>
   <v>       0.10000000       0.89999998       0.11080182 </v>
   <v>       0.10000000       0.89999998       0.18466969 </v>
   <v>       0.10000000       0.89999998       0.25853757 </v>
   <v>       0.10000000       0.89999998       0.33240544 </v>
   <v>       0.30000001       0.10000000       0.03693394 </v>
   <v>       0.30000001       0.10000000       0.11080182 </v>
   <v>       0.30000001       0.10000000       0.18466969 </v>
   <v>       0.30000001       0.10000000       0.25853757 </v>
   <v>       0.30000001       0.10000000       0.33240544 </v>
   <v>       0.30000001       0.30000001       0.03693394 </v>
   <v>       0.30000001       0.30000001       0.11080182 </v>
   <v>       0.30000001       0.30000001       0.18466969 </v>
   <v>       0.30000001       0.30000001       0.25853757 </v>
   <v>       0.30000001       0.30000001       0.33240544 </v>
   <v>       0.30000001       0.50000000       0.03693394 </v>
   <v>       0.30000001       0.50000000       0.11080182 </v>
   <v>       0.30000001       0.50000000       0.18466969 </v>
   <v>       0.30000001       0.50000000       0.25853757 </v>
   <v>       0.30000001       0.50000000       0.33240544 </v>
   <v>       0.30000001       0.69999999       0.03693394 </v>
   <v>       0.30000001       0.69999999       0.11080182 </v>
   <v>       0.30000001       0.69999999       0.18466969 </v>
   <v>       0.30000001       0.69999999       0.25853757 </v>
   <v>       0.30000001       0.69999999       0.33240544 </v>
   <v>       0.30000001       0.89999998       0.03693394 </v>
   <v>       0.30000001       0.89999998       0.11080182 </v>
   <v>       0.30000001       0.89999998       0.18466969 </v>
   <v>       0.30000001       0.89999998       0.25853757 </v>
   <v>       0.30000001       0.89999998       0.33240544 </v>
   <v>       0.50000000       0.10000000       0.03693394 </v>
   <v>       0.50000000       0.10000000       0.11080182 </v>
   <v>       0.50000000       0.10000000       0.18466969 </v>
   <v>       0.50000000       0.10000000       0.25853757 </v>
   <v>       0.50000000       0.10000000       0.33240544 </v>
   <v>       0.50000000       0.30000001       0.03693394 </v>
   <v>       0.50000000       0.30000001       0.11080182 </v>
   <v>       0.50000000       0.30000001       0.18466969 </v>
   <v>       0.50000000       0.30000001       0.25853757 </v>
   <v>       0.50000000       0.30000001       0.33240544 </v>
   <v>       0.50000000       0.50000000       0.03693394 </v>
   <v>       0.50000000       0.50000000       0.11080182 </v>
   <v>       0.50000000       0.50000000       0.18466969 </v>
   <v>       0.50000000       0.50000000       0.25853757 </v>
   <v>       0.50000000       0.50000000       0.33240544 </v>
   <v>       0.50000000       0.69999999       0.03693394 </v>
   <v>       0.50000000       0.69999999       0.11080182 </v>
   <v>       0.50000000       0.69999999       0.18466969 </v>
   <v>       0.50000000       0.69999999       0.25853757 </v>
   <v>       0.50000000       0.69999999       0.33240544 </v>
   <v>       0.50000000       0.89999998       0.03693394 </v>
   <v>       0.50000000       0.89999998       0.11080182 </v>
   <v>       0.50000000       0.89999998       0.18466969 </v>
   <v>       0.50000000       0.89999998       0.25853757 </v>
   <v>       0.50000000       0.89999998       0.33240544 </v>
   <v>       0.69999999       0.10000000       0.03693394 </v>
   <v>       0.69999999       0.10000000       0.11080182 </v>
   <v>       0.69999999       0.10000000       0.18466969 </v>
   <v>       0.69999999       0.10000000       0.25853757 </v>
   <v>       0.69999999       0.10000000       0.33240544 </v>
   <v>       0.69999999       0.30000001       0.03693394 </v>
   <v>       0.69999999       0.30000001       0.11080182 </v>
   <v>       0.69999999       0.30000001       0.18466969 </v>
   <v>       0.69999999       0.30000001       0.25853757 </v>
   <v>       0.69999999       0.30000001       0.33240544 </v>
   <v>       0.69999999       0.50000000       0.03693394 </v>
   <v>       0.69999999       0.50000000       0.11080182 </v>
   <v>       0.69999999       0.50000000       0.18466969 </v>
   <v>       0.69999999       0.50000000       0.25853757 </v>
   <v>       0.69999999       0.50000000       0.33240544 </v>
   <v>       0.69999999       0.69999999       0.03693394 </v>
   <v>       0.69999999       0.69999999       0.11080182 </v>
   <v>       0.69999999       0.69999999       0.18466969 </v>
   <v>       0.69999999       0.69999999       0.25853757 </v>
   <v>       0.69999999       0.69999999       0.33240544 </v>
   <v>       0.69999999       0.89999998       0.03693394 </v>
   <v>       0.69999999       0.89999998       0.11080182 </v>
   <v>       0.69999999       0.89999998       0.18466969 </v>
   <v>       0.69999999       0.89999998       0.25853757 </v>
   <v>       0.69999999       0.89999998       0.33240544 </v>
   <v>       0.89999998       0.10000000       0.03693394 </v>
   <v>       0.89999998       0.10000000       0.11080182 </v>
   <v>       0.89999998       0.10000000       0.18466969 </v>
   <v>       0.89999998       0.10000000       0.25853757 </v>
   <v>       0.89999998       0.10000000       0.33240544 </v>
   <v>       0.89999998       0.30000001       0.03693394 </v>
   <v>       0.89999998       0.30000001       0.11080182 </v>
   <v>       0.89999998       0.30000001       0.18466969 </v>
   <v>       0.89999998       0.30000001       0.25853757 </v>
   <v>       0.89999998       0.30000001       0.33240544 </v>
   <v>       0.89999998       0.50000000       0.03693394 </v>
   <v>       0.89999998       0.50000000       0.11080182 </v>
   <v>       0.89999998       0.50000000       0.18466969 </v>
   <v>       0.89999998       0.50000000       0.25853757 </v>
   <v>       0.89999998       0.50000000       0.33240544 </v>
   <v>       0.89999998       0.69999999       0.03693394 </v>
   <v>       0.89999998       0.69999999       0.11080182 </v>
   <v>       0.89999998       0.69999999       0.18466969 </v>
   <v>       0.89999998       0.69999999       0.25853757 </v>
   <v>       0.89999998       0.69999999       0.33240544 </v>
   <v>       0.89999998       0.89999998       0.03693394 </v>
   <v>       0.89999998       0.89999998       0.11080182 </v>
   <v>       0.89999998       0.89999998       0.18466969 </v>
   <v>       0.89999998       0.89999998       0.25853757 </v>
   <v>       0.89999998       0.89999998       0.33240544 </v>
   <v>       0.42141986       0.42141986       0.36744214 </v>
   <v>       0.35569673       0.55286611       0.36744214 </v>
  </varray>
 </structure>
 <calculation>
  <scstep>
   <time name="dav">   17.44   17.46</time>
   <time name="total">   17.93   17.95</time>
   <energy>
    <i name="alphaZ">  10964.09662220 </i>
    <i name="ewald">3381946.68138172 </i>
    <i name="hartreedc">**************** </i>
    <i name="XCdc">   5500.76649935 </i>
    <i name="pawpsdc"> 163363.69449659 </i>
    <i name="pawaedc">-172964.64684543 </i>
    <i name="eentropy">     -0.04345271 </i>
    <i name="bandstr">  16590.99690685 </i>
    <i name="atom"> 189564.71521268 </i>
    <i name="e_fr_energy">  31228.01630903 </i>
    <i name="e_wo_entrp">  31228.05976173 </i>
    <i name="e_0_energy">  31228.03803538 </i>
   </energy>
  </scstep>
  <scstep>
   <time name="dav">   17.86   17.87</time>
   <time name="total">   17.87   17.87</time>
   <energy>
    <i name="e_fr_energy">   5170.42797652 </i>
    <i name="e_wo_entrp">   5170.48929295 </i>
    <i name="e_0_energy">   5170.45863473 </i>
   </energy>
  </scstep>
  <scstep>
   <time name="dav">   20.42   20.43</time>
   <time name="total">   20.43   20.43</time>
   <energy>
    <i name="e_fr_energy">    534.65359234 </i>
    <i name="e_wo_entrp">    534.77472643 </i>
    <i name="e_0_energy">    534.71415938 </i>
   </energy>
  </scstep>
  <scstep>
   <time name="dav">   23.32   23.32</time>
   <time name="total">   23.32   23.33</time>
   <energy>
    <i name="e_fr_energy">     12.26100095 </i>
    <i name="e_wo_entrp">     12.41449880 </i>
    <i name="e_0_energy">     12.33774988 </i>
   </energy>
  </scstep>
  <scstep>
   <time name="dav">   22.35   22.35</time>
   <time name="total">   23.19   23.20</time>
   <energy>
    <i name="e_fr_energy">     -4.88580428 </i>
    <i name="e_wo_entrp">     -4.73283585 </i>
    <i name="e_0_energy">     -4.80932006 </i>
   </energy>
  </scstep>
  <scstep>
   <time name="dav">   27.09   27.09</time>
   <time name="total">   28.39   28.40</time>
   <energy>
    <i name="e_fr_energy">   -382.51133345 </i>
    <i name="e_wo_entrp">   -382.42533487 </i>
    <i name="e_0_energy">   -382.46833416 </i>
   </energy>
  </scstep>
  <scstep>
   <time name="dav">   25.51   25.51</time>
   <time name="total">   26.80   26.81</time>
   <energy>
    <i name="e_fr_energy"> -10612.77901878 </i>
    <i name="e_wo_entrp"> -10612.70321873 </i>
    <i name="e_0_energy"> -10612.74111876 </i>
   </energy>
  </scstep>
  <scstep>
   <time name="dav">   25.97   25.98</time>
   <time name="total">   27.28   27.28</time>
   <energy>
    <i name="e_fr_energy"> -11888.61111807 </i>
    <i name="e_wo_entrp"> -11888.53614226 </i>
    <i name="e_0_energy"> -11888.57363016 </i>
   </energy>
  </scstep>
  <scstep>
   <time name="dav">   24.15   24.16</time>
   <time name="total">   25.46   25.47</time>
   <energy>
    <i name="e_fr_energy">  -8425.55374920 </i>
    <i name="e_wo_entrp">  -8425.45541432 </i>
    <i name="e_0_energy">  -8425.50458176 </i>
   </energy>
  </scstep>
  <scstep>
   <time name="dav">   27.07   27.07</time>
   <time name="total">   28.38   28.38</time>
   <energy>
    <i name="e_fr_energy">  -3931.95064720 </i>
    <i name="e_wo_entrp">  -3931.84855516 </i>
    <i name="e_0_energy">  -3931.89960118 </i>
   </energy>
  </scstep>
  <scstep>
   <time name="dav">   23.97   23.97</time>
   <time name="total">   25.28   25.29</time>
   <energy>
    <i name="e_fr_energy">  -2595.64491286 </i>
    <i name="e_wo_entrp">  -2595.57542737 </i>
    <i name="e_0_energy">  -2595.61017011 </i>
   </energy>
  </scstep>
  <scstep>
   <time name="dav">   28.36   28.36</time>
   <time name="total">   29.66   29.67</time>
   <energy>
    <i name="e_fr_energy">    -48.29970992 </i>
    <i name="e_wo_entrp">    -48.21395401 </i>
    <i name="e_0_energy">    -48.25683197 </i>
   </energy>
  </scstep>
  <scstep>
   <time name="dav">   19.56   19.56</time>
   <time name="total">   20.87   20.88</time>
   <energy>
    <i name="e_fr_energy">  -1538.05274204 </i>
    <i name="e_wo_entrp">  -1537.97648446 </i>
    <i name="e_0_energy">  -1538.01461325 </i>
   </energy>
  </scstep>
  <scstep>
   <time name="dav">   18.94   18.94</time>
   <time name="total">   20.24   20.24</time>
   <energy>
    <i name="e_fr_energy">   -749.98478973 </i>
    <i name="e_wo_entrp">   -749.84648448 </i>
    <i name="e_0_energy">   -749.91563711 </i>
   </energy>
  </scstep>
  <scstep>
   <time name="dav">   20.03   20.03</time>
   <time name="total">   21.35   21.35</time>
   <energy>
    <i name="e_fr_energy">  -1911.48258826 </i>
    <i name="e_wo_entrp">  -1911.43564933 </i>
    <i name="e_0_energy">  -1911.45911879 </i>
   </energy>
  </scstep>
  <scstep>
   <time name="dav">   25.00   25.01</time>
   <time name="total">   26.37   26.37</time>
   <energy>
    <i name="e_fr_energy">  -2454.19956606 </i>
    <i name="e_wo_entrp">  -2454.14418450 </i>
    <i name="e_0_energy">  -2454.17187528 </i>
   </energy>
  </scstep>
  <scstep>
   <time name="dav">   24.52   24.53</time>
   <time name="total">   25.88   25.88</time>
   <energy>
    <i name="e_fr_energy">   -297.26295753 </i>
    <i name="e_wo_entrp">   -297.17704818 </i>
    <i name="e_0_energy">   -297.22000285 </i>
   </energy>
  </scstep>
  <scstep>
   <time name="dav">   23.05   23.05</time>
   <time name="total">   24.38   24.39</time>
   <energy>
    <i name="e_fr_energy">     14.36670606 </i>
    <i name="e_wo_entrp">     14.48698493 </i>
    <i name="e_0_energy">     14.42684549 </i>
   </energy>
  </scstep>
  <scstep>
   <time name="dav">   20.93   20.93</time>
   <time name="total">   22.27   22.27</time>
   <energy>
    <i name="e_fr_energy">    100.99443511 </i>
    <i name="e_wo_entrp">    101.03868309 </i>
    <i name="e_0_energy">    101.01655910 </i>
   </energy>
  </scstep>
  <scstep>
   <time name="dav">   18.24   18.24</time>
   <time name="total">   19.59   19.60</time>
   <energy>
    <i name="e_fr_energy">    316.65101016 </i>
    <i name="e_wo_entrp">    316.78966857 </i>
    <i name="e_0_energy">    316.72033937 </i>
   </energy>
  </scstep>
  <scstep>
   <time name="dav">   18.64   18.64</time>
   <time name="total">   19.98   19.98</time>
   <energy>
    <i name="e_fr_energy">    336.03956593 </i>
    <i name="e_wo_entrp">    336.15100766 </i>
    <i name="e_0_energy">    336.09528680 </i>
   </energy>
  </scstep>
  <scstep>
   <time name="dav">   18.10   18.10</time>
   <time name="total">   19.48   19.48</time>
   <energy>
    <i name="e_fr_energy">    368.86804346 </i>
    <i name="e_wo_entrp">    369.02179688 </i>
    <i name="e_0_energy">    368.94492017 </i>
   </energy>
  </scstep>
  <scstep>
   <time name="dav">   18.88   18.89</time>
   <time name="total">   20.26   20.26</time>
   <energy>
    <i name="e_fr_energy">    356.28204091 </i>
    <i name="e_wo_entrp">    356.40614279 </i>
    <i name="e_0_energy">    356.34409185 </i>
   </energy>
  </scstep>
  <scstep>
   <time name="dav">   18.91   18.91</time>
   <time name="total">   20.29   20.29</time>
   <energy>
    <i name="e_fr_energy">    379.09371506 </i>
    <i name="e_wo_entrp">    379.27184146 </i>
    <i name="e_0_energy">    379.18277826 </i>
   </energy>
  </scstep>
  <scstep>
   <time name="dav">   18.05   18.05</time>
   <time name="total">   19.44   19.44</time>
   <energy>
    <i name="e_fr_energy">    393.91044456 </i>
    <i name="e_wo_entrp">    394.06768504 </i>
    <i name="e_0_energy">    393.98906480 </i>
   </energy>
  </scstep>
  <scstep>
   <time name="dav">   18.09   18.09</time>
   <time name="total">   19.49   19.49</time>
   <energy>
    <i name="e_fr_energy">    403.41700195 </i>
    <i name="e_wo_entrp">    403.60388638 </i>
    <i name="e_0_energy">    403.51044417 </i>
   </energy>
  </scstep>
  <scstep>
   <time name="dav">   18.21   18.21</time>
   <time name="total">   19.63   19.63</time>
   <energy>
    <i name="e_fr_energy">    406.48357778 </i>
    <i name="e_wo_entrp">    406.61966596 </i>
    <i name="e_0_energy">    406.55162187 </i>
   </energy>
  </scstep>
  <scstep>
   <time name="dav">   19.11   19.11</time>
   <time name="total">   20.51   20.52</time>
   <energy>
    <i name="e_fr_energy">    417.00435641 </i>
    <i name="e_wo_entrp">    417.15446092 </i>
    <i name="e_0_energy">    417.07940866 </i>
   </energy>
  </scstep>
  <scstep>
   <time name="dav">   18.42   18.43</time>
   <time name="total">   19.85   19.85</time>
   <energy>
    <i name="e_fr_energy">    425.57777617 </i>
    <i name="e_wo_entrp">    425.74151482 </i>
    <i name="e_0_energy">    425.65964549 </i>
   </energy>
  </scstep>
  <scstep>
   <time name="dav">   18.35   18.35</time>
   <time name="total">   19.77   19.78</time>
   <energy>
    <i name="e_fr_energy">    429.00204171 </i>
    <i name="e_wo_entrp">    429.15278970 </i>
    <i name="e_0_energy">    429.07741571 </i>
   </energy>
  </scstep>
  <scstep>
   <time name="dav">   18.24   18.24</time>
   <time name="total">   19.68   19.68</time>
   <energy>
    <i name="e_fr_energy">    431.80156089 </i>
    <i name="e_wo_entrp">    431.97840085 </i>
    <i name="e_0_energy">    431.88998087 </i>
   </energy>
  </scstep>
  <scstep>
   <time name="dav">   18.19   18.19</time>
   <time name="total">   19.65   19.65</time>
   <energy>
    <i name="e_fr_energy">    433.34534037 </i>
    <i name="e_wo_entrp">    433.52580406 </i>
    <i name="e_0_energy">    433.43557222 </i>
   </energy>
  </scstep>
  <scstep>
   <time name="dav">   18.03   18.03</time>
   <time name="total">   19.47   19.48</time>
   <energy>
    <i name="e_fr_energy">    434.58458604 </i>
    <i name="e_wo_entrp">    434.76025235 </i>
    <i name="e_0_energy">    434.67241919 </i>
   </energy>
  </scstep>
  <scstep>
[...]
       <r>     2.2638   344.2876  1697.3592 </r>
       <r>     2.3861   346.4449  1739.7319 </r>
       <r>     2.5084   357.9874  1783.5162 </r>
       <r>     2.6307   335.9361  1824.6036 </r>
       <r>     2.7530   319.9915  1863.7408 </r>
       <r>     2.8753   288.9549  1899.0820 </r>
       <r>     2.9976   284.6023  1933.8908 </r>
       <r>     3.1199   271.1276  1967.0516 </r>
       <r>     3.2422   281.5192  2001.4834 </r>
       <r>     3.3645   282.2968  2036.0102 </r>
       <r>     3.4868   271.5815  2069.2266 </r>
       <r>     3.6091   256.1033  2100.5498 </r>
       <r>     3.7314   218.2027  2127.2375 </r>
       <r>     3.8537   192.4499  2150.7755 </r>
       <r>     3.9761   154.9165  2169.7228 </r>
       <r>     4.0984   141.7511  2187.0600 </r>
       <r>     4.2207   145.2089  2204.8200 </r>
       <r>     4.3430   121.0587  2219.6264 </r>
       <r>     4.4653    99.5813  2231.8059 </r>
       <r>     4.5876    87.2641  2242.4789 </r>
       <r>     4.7099    77.9511  2252.0128 </r>
       <r>     4.8322    66.2956  2260.1212 </r>
       <r>     4.9545    41.3882  2265.1833 </r>
       <r>     5.0768    60.1143  2272.5357 </r>
       <r>     5.1991    36.4918  2276.9989 </r>
       <r>     5.3214    36.7568  2281.4945 </r>
       <r>     5.4437    35.1097  2285.7887 </r>
       <r>     5.5660    45.2311  2291.3208 </r>
       <r>     5.6883    51.5702  2297.6282 </r>
       <r>     5.8107    40.5539  2302.5882 </r>
       <r>     5.9330    31.9262  2306.4930 </r>
       <r>     6.0553    35.3059  2310.8111 </r>
       <r>     6.1776    29.6974  2314.4433 </r>
       <r>     6.2999    29.2104  2318.0160 </r>
       <r>     6.4222    33.9313  2322.1660 </r>
       <r>     6.5445    33.5177  2326.2655 </r>
       <r>     6.6668    32.6004  2330.2527 </r>
       <r>     6.7891    21.1112  2332.8348 </r>
       <r>     6.9114    25.0268  2335.8957 </r>
       <r>     7.0337    28.4271  2339.3726 </r>
       <r>     7.1560    29.7869  2343.0157 </r>
       <r>     7.2783    34.6201  2347.2500 </r>
       <r>     7.4006    34.6040  2351.4823 </r>
       <r>     7.5230    37.5151  2356.0706 </r>
       <r>     7.6453    35.5829  2360.4227 </r>
       <r>     7.7676    45.1856  2365.9492 </r>
       <r>     7.8899    37.8285  2370.5759 </r>
       <r>     8.0122    37.7182  2375.1891 </r>
       <r>     8.1345    30.8081  2378.9571 </r>
       <r>     8.2568    44.5211  2384.4024 </r>
       <r>     8.3791    42.7736  2389.6339 </r>
       <r>     8.5014    51.8784  2395.9790 </r>
       <r>     8.6237    53.8588  2402.5663 </r>
       <r>     8.7460    47.0495  2408.3208 </r>
       <r>     8.8683    33.4161  2412.4078 </r>
       <r>     8.9906    12.9456  2413.9911 </r>
       <r>     9.1129     0.0726  2414.0000 </r>
       <r>     9.2353     0.0000  2414.0000 </r>
       <r>     9.3576     0.0000  2414.0000 </r>
       <r>     9.4799     0.0000  2414.0000 </r>
       <r>     9.6022     0.0000  2414.0000 </r>
       <r>     9.7245     0.0000  2414.0000 </r>
       <r>     9.8468     0.0000  2414.0000 </r>
       <r>     9.9691     0.0000  2414.0000 </r>
       <r>    10.0914     0.0000  2414.0000 </r>
       <r>    10.2137     0.0000  2414.0000 </r>
       <r>    10.3360     0.0000  2414.0000 </r>
       <r>    10.4583     0.0000  2414.0000 </r>
       <r>    10.5806     0.0000  2414.0000 </r>
      </set>
     </set>
    </array>
   </total>
  </dos>
 </calculation>
 <structure name="finalpos" >
  <crystal>
   <varray name="basis" >
    <v>      10.54150009       0.00000000       0.00000000 </v>
    <v>       5.27075005       9.12920687       0.00000000 </v>
    <v>       0.00000000       0.00000000      28.54150009 </v>
   </varray>
   <i name="volume">   2746.70653362 </i>
   <varray name="rec_basis" >
    <v>       0.09486316      -0.05476927       0.00000000 </v>
    <v>       0.00000000       0.10953854       0.00000000 </v>
    <v>       0.00000000       0.00000000       0.03503670 </v>
   </varray>
  </crystal>
  <varray name="positions" >
   <v>      -0.00062402      -0.00045331      -0.12286363 </v>
   <v>      -0.00400323       0.00235301       0.00688724 </v>
   <v>      -0.00253564      -0.00331546       0.14171883 </v>
   <v>      -0.01286644       0.00989327       0.26244167 </v>
   <v>       0.01194063      -0.02102364       0.38106361 </v>
   <v>       0.00087862       0.19995905      -0.12214695 </v>
   <v>      -0.00515974       0.19823587       0.00853623 </v>
   <v>       0.00041667       0.19982019       0.13985142 </v>
   <v>       0.00235230       0.20154651       0.27964147 </v>
   <v>      -0.00305756       0.18540618       0.38341138 </v>
   <v>       0.00033128       0.39999600      -0.12561395 </v>
   <v>      -0.00147588       0.39964110       0.00509780 </v>
   <v>       0.00143182       0.39888254       0.13549240 </v>
   <v>      -0.00099980       0.40891166       0.25975142 </v>
   <v>       0.00492684       0.38974662       0.38640866 </v>
   <v>      -0.00105005       0.59962120      -0.12223773 </v>
   <v>      -0.00075944       0.60104965       0.01210631 </v>
   <v>       0.00236733       0.60065496       0.14094611 </v>
   <v>      -0.00764129       0.62855721       0.28893924 </v>
   <v>       0.01227591       0.58342402       0.40163406 </v>
   <v>       0.00067579       0.79904338      -0.12222300 </v>
   <v>      -0.00124464       0.80108806      -0.00328868 </v>
   <v>      -0.00136312       0.80189909       0.12994825 </v>
   <v>       0.00247075       0.82574127       0.22119663 </v>
   <v>       0.04775451       0.74677045       0.36916330 </v>
   <v>       0.20005591       0.00060398      -0.12078931 </v>
   <v>       0.19901851       0.00038548       0.01242245 </v>
   <v>       0.19960056       0.00226875       0.14148813 </v>
   <v>       0.18852797      -0.00147899       0.25820829 </v>
   <v>       0.20435806      -0.00106216       0.37675675 </v>
   <v>       0.20019178       0.19996881      -0.12384454 </v>
   <v>       0.20111111       0.19892509       0.00430404 </v>
   <v>       0.20088840       0.20001665       0.13610387 </v>
   <v>       0.19802061       0.20310770       0.25711204 </v>
   <v>       0.20422340       0.19994445       0.38813647 </v>
   <v>       0.19917306       0.39938070      -0.12173146 </v>
   <v>       0.20086245       0.39990716       0.00705307 </v>
   <v>       0.20016247       0.40299975       0.14573347 </v>
   <v>       0.19231594       0.41143963       0.26906129 </v>
   <v>       0.22367045       0.42419676       0.37598915 </v>
   <v>       0.19980747       0.59934928      -0.12167289 </v>
   <v>       0.20005809       0.60035874      -0.00302156 </v>
   <v>       0.20066059       0.59895744       0.10742339 </v>
   <v>       0.17346600       0.61184206       0.23288897 </v>
   <v>       0.25665646       0.55652026       0.44209769 </v>
   <v>       0.20051410       0.79954237      -0.12366517 </v>
   <v>       0.19935554       0.80124392       0.00806308 </v>
   <v>       0.19890217       0.79953313       0.14182965 </v>
   <v>       0.20372314       0.77805354       0.27124207 </v>
   <v>       0.22611677       0.75937780       0.39528721 </v>
   <v>       0.39978415      -0.00051605      -0.12563059 </v>
   <v>       0.40411215       0.00266809       0.00305001 </v>
   <v>       0.39746987       0.00383698       0.13808421 </v>
   <v>       0.39919296      -0.00129739       0.26433112 </v>
   <v>       0.40739060       0.00628808       0.38191787 </v>
   <v>       0.39898215       0.19940826      -0.12261458 </v>
   <v>       0.40687444       0.20664489       0.01482390 </v>
   <v>       0.39758424       0.20387940       0.13642979 </v>
   <v>       0.40281964       0.19712871       0.27076430 </v>
   <v>       0.40044036       0.21444302       0.39352841 </v>
   <v>       0.39857483       0.40044045      -0.12625345 </v>
   <v>       0.40784117       0.39258996       0.01637793 </v>
   <v>       0.39337016       0.40710226       0.13858386 </v>
   <v>       0.40110621       0.39488592       0.24798470 </v>
   <v>       0.41192720       0.40403685       0.34168212 </v>
   <v>       0.40096513       0.60099376      -0.11983570 </v>
   <v>       0.39926603       0.60090381       0.01400759 </v>
   <v>       0.39643498       0.60020572       0.14096512 </v>
   <v>       0.41564782       0.58738578       0.24714252 </v>
   <v>       0.41520562       0.59324328       0.35717641 </v>
   <v>       0.39982823       0.80146905      -0.12377873 </v>
   <v>       0.40026417       0.80193505       0.00761974 </v>
   <v>       0.40235414       0.79891089       0.13884840 </v>
   <v>       0.39383666       0.80162499       0.27009282 </v>
   <v>       0.40283010       0.79792787       0.38688807 </v>
   <v>       0.59985298      -0.00125125      -0.12184284 </v>
   <v>       0.59807931       0.01792972       0.01708639 </v>
   <v>       0.60075889      -0.00000643       0.14470907 </v>
   <v>       0.61041448      -0.01134321       0.28727151 </v>
   <v>       0.61847778       0.00066212       0.38147814 </v>
   <v>       0.59813824       0.20209811      -0.12535717 </v>
   <v>       0.60252707       0.19747587      -0.03589666 </v>
   <v>       0.61069479       0.19060426       0.14893397 </v>
   <v>       0.61563289       0.18245566       0.24899367 </v>
   <v>       0.58855070       0.21589235       0.38429117 </v>
   <v>       0.60090253       0.40131832      -0.12152845 </v>
   <v>       0.59367221       0.39276595       0.01554497 </v>
   <v>       0.59843020       0.40183563       0.13481713 </v>
   <v>       0.59662568       0.39984568       0.25854612 </v>
   <v>       0.55687657       0.40970126       0.41222626 </v>
   <v>       0.60044624       0.60086426      -0.12497895 </v>
   <v>       0.60038199       0.59833902       0.00326754 </v>
   <v>       0.59974461       0.59989439       0.13851776 </v>
   <v>       0.60303720       0.59635121       0.26490045 </v>
   <v>       0.59564356       0.59129094       0.39311287 </v>
   <v>       0.59949292       0.79962042      -0.12412108 </v>
   <v>       0.60130666       0.80582118       0.00512183 </v>
   <v>       0.59992486       0.80122847       0.13449082 </v>
   <v>       0.60380176       0.80061612       0.26786299 </v>
   <v>       0.60397577       0.79561725       0.37377380 </v>
   <v>       0.80080442      -0.00055712      -0.12513751 </v>
   <v>       0.80140982      -0.00157237      -0.00957440 </v>
   <v>       0.79422952       0.00173733       0.09864678 </v>
   <v>       0.81269753      -0.02132768       0.25404388 </v>
   <v>       0.80526107       0.00925251       0.42592978 </v>
   <v>       0.80034193       0.20052463      -0.12447752 </v>
   <v>       0.78278644       0.20219438       0.01559481 </v>
   <v>       0.80322455       0.19505639       0.13761523 </v>
   <v>       0.79829819       0.21478996       0.24502214 </v>
   <v>       0.78106937       0.20231234       0.36378080 </v>
   <v>       0.80180128       0.40002216      -0.12274545 </v>
   <v>       0.79763031       0.39596575       0.00678364 </v>
   <v>       0.79751728       0.40084344       0.13975934 </v>
   <v>       0.80120756       0.39873742       0.27594331 </v>
   <v>       0.78751258       0.39208671       0.38320654 </v>
   <v>       0.79931150       0.59960140      -0.12391077 </v>
   <v>       0.79977340       0.60066966       0.00681769 </v>
   <v>       0.79829532       0.59874961       0.13963903 </v>
   <v>       0.80030316       0.60904479       0.27011858 </v>
   <v>       0.79552251       0.59609509       0.37656634 </v>
   <v>       0.79975463       0.80004885      -0.12293593 </v>
   <v>       0.79769730       0.80445035       0.00915439 </v>
   <v>       0.80288038       0.80176464       0.14094337 </v>
   <v>       0.79489734       0.79175758       0.23628080 </v>
   <v>       0.80789775       0.80485617       0.38592065 </v>
   <v>       0.09867063       0.10126786      -0.06403124 </v>
   <v>       0.09710464       0.10352102       0.07572203 </v>
   <v>       0.09633457       0.09522590       0.20525161 </v>
   <v>       0.11082669       0.09214934       0.32336447 </v>
   <v>       0.07072472       0.10266948       0.45149316 </v>
   <v>       0.10371677       0.28939730      -0.05754317 </v>
   <v>       0.10069587       0.29864197       0.07617160 </v>
   <v>       0.09171127       0.30243641       0.20742867 </v>
   <v>       0.10973706       0.31156419       0.32387589 </v>
   <v>       0.09075468       0.29285394       0.44754646 </v>
   <v>       0.11162143       0.48794443      -0.06149059 </v>
   <v>       0.09611888       0.49396125       0.07789037 </v>
   <v>       0.10984457       0.48717574       0.21507722 </v>
   <v>       0.11846127       0.52929677       0.33024189 </v>
   <v>       0.06874786       0.56240303       0.45650343 </v>
   <v>       0.07919688       0.71908110      -0.06356243 </v>
   <v>       0.09099453       0.70849628       0.05953292 </v>
   <v>       0.14270931       0.64903749       0.16793285 </v>
   <v>      -0.06692961       0.80621440       0.27858662 </v>
   <v>       0.01337488       0.78695109       0.46488587 </v>
   <v>       0.10058078       0.91267869      -0.06591528 </v>
   <v>       0.09684924       0.90684644       0.07866982 </v>
   <v>       0.10932694       0.89086038       0.19717780 </v>
   <v>       0.08042129       0.90107753       0.30865166 </v>
   <v>       0.12366236       0.89571210       0.43090765 </v>
   <v>       0.28824494       0.10036217      -0.05861522 </v>
   <v>       0.30192849       0.09661983       0.07449244 </v>
   <v>       0.30212281       0.09708831       0.20637747 </v>
   <v>       0.29507050       0.10543731       0.31276674 </v>
   <v>       0.29564701       0.08426615       0.44364227 </v>
   <v>       0.30250052       0.30381809      -0.06378522 </v>
   <v>       0.29986882       0.29511853       0.06847554 </v>
   <v>       0.29667682       0.28837870       0.19677814 </v>
   <v>       0.29399931       0.31147316       0.32265460 </v>
   <v>       0.27554079       0.32938554       0.45790828 </v>
   <v>       0.28531924       0.52018895      -0.06570123 </v>
   <v>       0.31086451       0.48704432       0.06638354 </v>
   <v>       0.31261326       0.48437996       0.19394161 </v>
   <v>       0.26926470       0.52232347       0.28703068 </v>
   <v>       0.28647208       0.40954347       0.49165510 </v>
   <v>       0.29681188       0.70621473      -0.06425062 </v>
   <v>       0.30440142       0.70509500       0.07789759 </v>
   <v>       0.28894753       0.71292372       0.20608128 </v>
   <v>       0.23395319       0.69800098       0.33370410 </v>
   <v>       0.31414058       0.70337829       0.47207409 </v>
   <v>       0.32232522       0.87985813      -0.06384060 </v>
   <v>       0.30096304       0.90310062       0.07655720 </v>
   <v>       0.29793001       0.90109454       0.21047254 </v>
   <v>       0.30412108       0.87704062       0.33152572 </v>
   <v>       0.28220015       0.93539709       0.45313712 </v>
   <v>       0.48718198       0.10630673      -0.06716560 </v>
   <v>       0.50380640       0.10151772       0.08647075 </v>
   <v>       0.48464587       0.10565597       0.20337908 </v>
   <v>       0.50321690       0.10825872       0.33832145 </v>
   <v>       0.49344930       0.09691782       0.43458645 </v>
   <v>       0.45720782       0.34516468      -0.07385095 </v>
   <v>       0.51409424       0.28429266       0.09339106 </v>
   <v>       0.51122275       0.28850627       0.20352418 </v>
   <v>       0.49053094       0.27473418       0.29367332 </v>
   <v>       0.50906295       0.32775016       0.45385493 </v>
   <v>       0.49722193       0.49239441      -0.06828956 </v>
   <v>       0.50544636       0.49929549       0.07106557 </v>
   <v>       0.51411782       0.50165217       0.19606856 </v>
   <v>       0.51142390       0.47422086       0.31308476 </v>
   <v>       0.45540481       0.54719018       0.45272651 </v>
   <v>       0.51789736       0.68371708      -0.05804210 </v>
   <v>       0.50451070       0.70059482       0.07531400 </v>
   <v>       0.49969391       0.71165864       0.20100910 </v>
   <v>       0.48875523       0.68394891       0.31102485 </v>
   <v>       0.50510383       0.75566563       0.44898348 </v>
   <v>       0.49264784       0.90890959      -0.05586101 </v>
   <v>       0.50358844       0.90113210       0.07402478 </v>
   <v>       0.50561333       0.89341208       0.20843238 </v>
   <v>       0.49703910       0.89886434       0.31763148 </v>
   <v>       0.50647514       0.86766349       0.45475744 </v>
   <v>       0.76415706       0.03436168      -0.07494753 </v>
   <v>       0.68901601       0.10746069       0.04131428 </v>
   <v>       0.70350987       0.09094904       0.19844799 </v>
   <v>       0.70785347       0.08126582       0.30307299 </v>
   <v>       0.70066068       0.07666588       0.47598643 </v>
   <v>       0.70824153       0.29720347      -0.06462563 </v>
   <v>       0.69868120       0.29371676       0.08513410 </v>
   <v>       0.70284583       0.30925431       0.19394249 </v>
   <v>       0.71806419       0.27214475       0.30099656 </v>
   <v>       0.72887608       0.28203449       0.43828386 </v>
   <v>       0.68872704       0.51412996      -0.05736331 </v>
   <v>       0.70303736       0.49876355       0.07552008 </v>
   <v>       0.70217123       0.50344449       0.21201933 </v>
   <v>       0.69180215       0.50399402       0.33573652 </v>
   <v>       0.73364189       0.49463284       0.45378481 </v>
   <v>       0.70382754       0.70356539      -0.05752222 </v>
   <v>       0.69731833       0.70191455       0.07396868 </v>
   <v>       0.70252361       0.69498158       0.20794309 </v>
   <v>       0.70998851       0.71178384       0.31650910 </v>
   <v>       0.73371013       0.71156426       0.44895483 </v>
   <v>       0.68427973       0.89862516      -0.06560843 </v>
   <v>       0.70174461       0.91244936       0.08590889 </v>
   <v>       0.67764219       0.92000608       0.19930175 </v>
   <v>       0.72961344       0.90021116       0.33217412 </v>
   <v>       0.72295041       0.90623707       0.44765863 </v>
   <v>       0.90604522       0.10916826      -0.06357725 </v>
   <v>       0.88704630       0.09705407       0.08323567 </v>
   <v>       0.90486968       0.08809437       0.20349124 </v>
   <v>       0.90639944       0.09771713       0.32652203 </v>
   <v>       0.88248151       0.11054882       0.45109309 </v>
   <v>       0.88469503       0.32400601      -0.06236285 </v>
   <v>       0.90146795       0.29846730       0.07262968 </v>
   <v>       0.90995633       0.29995746       0.20341628 </v>
   <v>       0.90161994       0.30691183       0.32978513 </v>
   <v>       0.90014086       0.29641599       0.45096849 </v>
   <v>       0.91227958       0.49143468      -0.05650975 </v>
   <v>       0.89501799       0.50188183       0.07470002 </v>
   <v>       0.89160133       0.50679183       0.20833799 </v>
   <v>       0.91403589       0.50203810       0.31354628 </v>
   <v>       0.89975762       0.47995109       0.45113278 </v>
   <v>       0.89785696       0.68565287      -0.06453509 </v>
   <v>       0.89167617       0.70254080       0.07829520 </v>
   <v>       0.92755927       0.67982119       0.19560947 </v>
   <v>       0.93562499       0.69096491       0.34565454 </v>
   <v>       0.87000488       0.68763263       0.45341538 </v>
   <v>       0.90492532       0.88796352      -0.06190738 </v>
   <v>       0.89929265       0.90011993       0.04597102 </v>
   <v>       0.87873845       0.92168747       0.16842799 </v>
   <v>       0.89382303       0.92990565       0.36174236 </v>
   <v>       0.95077012       0.87357798       0.49635713 </v>
   <v>       0.56250863       0.28903445       0.50411619 </v>
   <v>       0.26539305       0.64346351       0.50083997 </v>
  </varray>
 </structure>
</modeling>
