         516
 Energy:  -5330.7683109999998     
 X   0.00000000       0.00000000       0.00000000    
 X   15.1462221       0.00000000       0.00000000    
 X   7.57311106       13.1170130       0.00000000    
 X   0.00000000       0.00000000       40.0000000    
 X   22.7193336       13.1170130       0.00000000    
 X   15.1462221       0.00000000       40.0000000    
 X   7.57311106       13.1170130       40.0000000    
 X   22.7193336       13.1170130       40.0000000    
 Ni   10.0974798       5.82978010       2.25640011    
 Ni   12.6218500       10.2021198       2.25640011    
 Ni   7.57311010       1.45745003       2.25640011    
 Ni   15.1462202       5.82978010       2.25640011    
 Ni   17.6705894       10.2021198       2.25640011    
 Ni   12.6218500       1.45745003       2.25640011    
 Ni   5.04873991       5.82978010       2.25640011    
 Ni   7.57311010       10.2021198       2.25640011    
 Ni   2.52436996       1.45745003       2.25640011    
 Ni   12.6218500       7.28723001       4.54539013    
 Ni   15.1462202       11.6595697       4.54539013    
 Ni   10.0974798       2.91489005       4.54539013    
 Ni   17.6705894       7.28723001       4.54539013    
 Ni   20.1949596       11.6595697       4.54539013    
 Ni   15.1462202       2.91489005       4.54539013    
 Ni   7.57311010       7.28723001       4.54539013    
 Ni   10.0974798       11.6595697       4.54539013    
 Ni   5.04873991       2.91489005       4.54539013    
 Ni   15.1462202       8.74468040       6.76043987    
 Ni   10.0974798       0.00000000       6.76043987    
 Ni   12.6218500       4.37234020       6.76043987    
 Ni   5.04873991       8.74468040       6.76043987    
 Ni   0.00000000       0.00000000       6.76043987    
 Ni   2.52436996       4.37234020       6.76043987    
 Ni   10.0974798       8.74468040       6.76043987    
 Ni   5.04873991       0.00000000       6.76043987    
 Ni   7.57311010       4.37234020       6.76043987    
 Ni   17.6705894       10.2021198       9.04018974    
 Ni   12.6218500       1.45745003       9.04018974    
 Ni   15.1462202       5.82978010       9.04018974    
 Ni   7.57311010       10.2021198       9.04018974    
 Ni   2.52436996       1.45745003       9.04018974    
 Ni   5.04873991       5.82978010       9.04018974    
 Ni   12.6218500       10.2021198       9.04018974    
 Ni   7.57311010       1.45745003       9.04018974    
 Ni   10.0974798       5.82978010       9.04018974    
 Ni   20.1949596       11.6595697       11.3199396    
 Ni   15.1462202       2.91489005       11.3199396    
 Ni   17.6705894       7.28723001       11.3199396    
 Ni   10.0974798       11.6595697       11.3199396    
 Ni   5.04873991       2.91489005       11.3199396    
 Ni   7.57311010       7.28723001       11.3199396    
 Ni   15.1462202       11.6595697       11.3199396    
 Ni   10.0974798       2.91489005       11.3199396    
 Ni   12.6218500       7.28723001       11.3199396    
 Ni   0.00000000       0.00000000       13.5349903    
 Ni   2.52436996       4.37234020       13.5349903    
 Ni   5.04873991       8.74468040       13.5349903    
 Ni   5.04873991       0.00000000       13.5349903    
 Ni   7.57311010       4.37234020       13.5349903    
 Ni   10.0974798       8.74468040       13.5349903    
 Ni   10.0974798       0.00000000       13.5349903    
 Ni   12.6218500       4.37234020       13.5349903    
 Ni   15.1462202       8.74468040       13.5349903    
 Ni   2.52436996       1.45745003       15.8239803    
 Ni   5.04873991       5.82978010       15.8239803    
 Ni   7.57311010       10.2021198       15.8239803    
 Ni   7.57311010       1.45745003       15.8239803    
 Ni   10.0974798       5.82978010       15.8239803    
 Ni   12.6218500       10.2021198       15.8239803    
 Ni   12.6218500       1.45745003       15.8239803    
 Ni   15.1462202       5.82978010       15.8239803    
 Ni   17.6705894       10.2021198       15.8239803    
 Ni   6.31092978       3.64361000       2.25640011    
 Ni   8.83530045       8.01595020       2.25640011    
 Ni   11.3596697       12.3882904       2.25640011    
 Ni   11.3596697       3.64361000       2.25640011    
 Ni   13.8840399       8.01595020       2.25640011    
 Ni   16.4084091       12.3882904       2.25640011    
 Ni   16.4084091       3.64361000       2.25640011    
 Ni   18.9327793       8.01595020       2.25640011    
 Ni   21.4571495       12.3882904       2.25640011    
 Ni   8.83530045       5.10105991       4.54539013    
 Ni   11.3596697       9.47340012       4.54539013    
 Ni   6.31092978      0.728720009       4.54539013    
 Ni   13.8840399       5.10105991       4.54539013    
 Ni   16.4084091       9.47340012       4.54539013    
 Ni   11.3596697      0.728720009       4.54539013    
 Ni   3.78656006       5.10105991       4.54539013    
 Ni   6.31092978       9.47340012       4.54539013    
 Ni   1.26218998      0.728720009       4.54539013    
 Ni   11.3596697       6.55850983       6.76043987    
 Ni   13.8840399       10.9308395       6.76043987    
 Ni   8.83530045       2.18617010       6.76043987    
 Ni   16.4084091       6.55850983       6.76043987    
 Ni   18.9327793       10.9308395       6.76043987    
 Ni   13.8840399       2.18617010       6.76043987    
 Ni   6.31092978       6.55850983       6.76043987    
 Ni   8.83530045       10.9308395       6.76043987    
 Ni   3.78656006       2.18617010       6.76043987    
 Ni   13.8840399       8.01595020       9.04018974    
 Ni   16.4084091       12.3882904       9.04018974    
 Ni   11.3596697       3.64361000       9.04018974    
 Ni   18.9327793       8.01595020       9.04018974    
 Ni   21.4571495       12.3882904       9.04018974    
 Ni   16.4084091       3.64361000       9.04018974    
 Ni   8.83530045       8.01595020       9.04018974    
 Ni   11.3596697       12.3882904       9.04018974    
 Ni   6.31092978       3.64361000       9.04018974    
 Ni   16.4084091       9.47340012       11.3199396    
 Ni   11.3596697      0.728720009       11.3199396    
 Ni   13.8840399       5.10105991       11.3199396    
 Ni   6.31092978       9.47340012       11.3199396    
 Ni   1.26218998      0.728720009       11.3199396    
 Ni   3.78656006       5.10105991       11.3199396    
 Ni   11.3596697       9.47340012       11.3199396    
 Ni   6.31092978      0.728720009       11.3199396    
 Ni   8.83530045       5.10105991       11.3199396    
 Ni   18.9327793       10.9308395       13.5349903    
 Ni   13.8840399       2.18617010       13.5349903    
 Ni   16.4084091       6.55850983       13.5349903    
 Ni   8.83530045       10.9308395       13.5349903    
 Ni   3.78656006       2.18617010       13.5349903    
 Ni   6.31092978       6.55850983       13.5349903    
 Ni   13.8840399       10.9308395       13.5349903    
 Ni   8.83530045       2.18617010       13.5349903    
 Ni   11.3596697       6.55850983       13.5349903    
 Ni   21.4571495       12.3882904       15.8239803    
 Ni   16.4084091       3.64361000       15.8239803    
 Ni   18.9327793       8.01595020       15.8239803    
 Ni   11.3596697       12.3882904       15.8239803    
 Ni   6.31092978       3.64361000       15.8239803    
 Ni   8.83530045       8.01595020       15.8239803    
 Ni   16.4084091       12.3882904       15.8239803    
 Ni   11.3596697       3.64361000       15.8239803    
 Ni   13.8840399       8.01595020       15.8239803    
 Ni   7.57311010       5.82978010       2.25640011    
 Ni   10.0974798       10.2021198       2.25640011    
 Ni   5.04873991       1.45745003       2.25640011    
 Ni   12.6218500       5.82978010       2.25640011    
 Ni   15.1462202       10.2021198       2.25640011    
 Ni   10.0974798       1.45745003       2.25640011    
 Ni   17.6705894       5.82978010       2.25640011    
 Ni   20.1949596       10.2021198       2.25640011    
 Ni   15.1462202       1.45745003       2.25640011    
 Ni   10.0974798       7.28723001       4.54539013    
 Ni   12.6218500       11.6595697       4.54539013    
 Ni   7.57311010       2.91489005       4.54539013    
 Ni   15.1462202       7.28723001       4.54539013    
 Ni   17.6705894       11.6595697       4.54539013    
 Ni   12.6218500       2.91489005       4.54539013    
 Ni   5.04873991       7.28723001       4.54539013    
 Ni   7.57311010       11.6595697       4.54539013    
 Ni   2.52436996       2.91489005       4.54539013    
 Ni   12.6218500       8.74468040       6.76043987    
 Ni   7.57311010       0.00000000       6.76043987    
 Ni   10.0974798       4.37234020       6.76043987    
 Ni   17.6705894       8.74468040       6.76043987    
 Ni   12.6218500       0.00000000       6.76043987    
 Ni   15.1462202       4.37234020       6.76043987    
 Ni   7.57311010       8.74468040       6.76043987    
 Ni   2.52436996       0.00000000       6.76043987    
 Ni   5.04873991       4.37234020       6.76043987    
 Ni   15.1462202       10.2021198       9.04018974    
 Ni   10.0974798       1.45745003       9.04018974    
 Ni   12.6218500       5.82978010       9.04018974    
 Ni   20.1949596       10.2021198       9.04018974    
 Ni   15.1462202       1.45745003       9.04018974    
 Ni   17.6705894       5.82978010       9.04018974    
 Ni   10.0974798       10.2021198       9.04018974    
 Ni   5.04873991       1.45745003       9.04018974    
 Ni   7.57311010       5.82978010       9.04018974    
 Ni   17.6705894       11.6595697       11.3199396    
 Ni   12.6218500       2.91489005       11.3199396    
 Ni   15.1462202       7.28723001       11.3199396    
 Ni   7.57311010       11.6595697       11.3199396    
 Ni   2.52436996       2.91489005       11.3199396    
 Ni   5.04873991       7.28723001       11.3199396    
 Ni   12.6218500       11.6595697       11.3199396    
 Ni   7.57311010       2.91489005       11.3199396    
 Ni   10.0974798       7.28723001       11.3199396    
 Ni   12.6218500       0.00000000       13.5349903    
 Ni   15.1462202       4.37234020       13.5349903    
 Ni   17.6705894       8.74468040       13.5349903    
 Ni   2.52436996       0.00000000       13.5349903    
 Ni   5.04873991       4.37234020       13.5349903    
 Ni   7.57311010       8.74468040       13.5349903    
 Ni   7.57311010       0.00000000       13.5349903    
 Ni   10.0974798       4.37234020       13.5349903    
 Ni   12.6218500       8.74468040       13.5349903    
 Ni   15.1462202       1.45745003       15.8239803    
 Ni   17.6705894       5.82978010       15.8239803    
 Ni   20.1949596       10.2021198       15.8239803    
 Ni   5.04873991       1.45745003       15.8239803    
 Ni   7.57311010       5.82978010       15.8239803    
 Ni   10.0974798       10.2021198       15.8239803    
 Ni   10.0974798       1.45745003       15.8239803    
 Ni   12.6218500       5.82978010       15.8239803    
 Ni   15.1462202       10.2021198       15.8239803    
 Ni   8.83530045       3.64361000       2.25640011    
 Ni   11.3596697       8.01595020       2.25640011    
 Ni   13.8840399       12.3882904       2.25640011    
 Ni   13.8840399       3.64361000       2.25640011    
 Ni   16.4084091       8.01595020       2.25640011    
 Ni   18.9327793       12.3882904       2.25640011    
 Ni   3.78656006       3.64361000       2.25640011    
 Ni   6.31092978       8.01595020       2.25640011    
 Ni   8.83530045       12.3882904       2.25640011    
 Ni   11.3596697       5.10105991       4.54539013    
 Ni   13.8840399       9.47340012       4.54539013    
 Ni   8.83530045      0.728720009       4.54539013    
 Ni   16.4084091       5.10105991       4.54539013    
 Ni   18.9327793       9.47340012       4.54539013    
 Ni   13.8840399      0.728720009       4.54539013    
 Ni   6.31092978       5.10105991       4.54539013    
 Ni   8.83530045       9.47340012       4.54539013    
 Ni   3.78656006      0.728720009       4.54539013    
 Ni   13.8840399       6.55850983       6.76043987    
 Ni   16.4084091       10.9308395       6.76043987    
 Ni   11.3596697       2.18617010       6.76043987    
 Ni   3.78656006       6.55850983       6.76043987    
 Ni   6.31092978       10.9308395       6.76043987    
 Ni   1.26218998       2.18617010       6.76043987    
 Ni   8.83530045       6.55850983       6.76043987    
 Ni   11.3596697       10.9308395       6.76043987    
 Ni   6.31092978       2.18617010       6.76043987    
 Ni   16.4084091       8.01595020       9.04018974    
 Ni   18.9327793       12.3882904       9.04018974    
 Ni   13.8840399       3.64361000       9.04018974    
 Ni   6.31092978       8.01595020       9.04018974    
 Ni   8.83530045       12.3882904       9.04018974    
 Ni   3.78656006       3.64361000       9.04018974    
 Ni   11.3596697       8.01595020       9.04018974    
 Ni   13.8840399       12.3882904       9.04018974    
 Ni   8.83530045       3.64361000       9.04018974    
 Ni   18.9327793       9.47340012       11.3199396    
 Ni   13.8840399      0.728720009       11.3199396    
 Ni   16.4084091       5.10105991       11.3199396    
 Ni   8.83530045       9.47340012       11.3199396    
 Ni   3.78656006      0.728720009       11.3199396    
 Ni   6.31092978       5.10105991       11.3199396    
 Ni   13.8840399       9.47340012       11.3199396    
 Ni   8.83530045      0.728720009       11.3199396    
 Ni   11.3596697       5.10105991       11.3199396    
 Ni   6.31092978       10.9308395       13.5349903    
 Ni   1.26218998       2.18617010       13.5349903    
 Ni   3.78656006       6.55850983       13.5349903    
 Ni   11.3596697       10.9308395       13.5349903    
 Ni   6.31092978       2.18617010       13.5349903    
 Ni   8.83530045       6.55850983       13.5349903    
 Ni   16.4084091       10.9308395       13.5349903    
 Ni   11.3596697       2.18617010       13.5349903    
 Ni   13.8840399       6.55850983       13.5349903    
 Ni   8.83530045       12.3882904       15.8239803    
 Ni   3.78656006       3.64361000       15.8239803    
 Ni   6.31092978       8.01595020       15.8239803    
 Ni   13.8840399       12.3882904       15.8239803    
 Ni   8.83530045       3.64361000       15.8239803    
 Ni   11.3596697       8.01595020       15.8239803    
 Ni   18.9327793       12.3882904       15.8239803    
 Ni   13.8840399       3.64361000       15.8239803    
 Ni   16.4084091       8.01595020       15.8239803    
 O    0.00000000       0.00000000       17.2239799    
 O    0.00000000       0.00000000       18.4239807    
 O    0.00000000       0.00000000       19.6239796    
 O    0.00000000       0.00000000       20.8239803    
 O   0.946640015       1.63962996       17.2239799    
 O   0.946640015       1.63962996       18.4239807    
 O   0.946640015       1.63962996       19.6239796    
 O   0.946640015       1.63962996       20.8239803    
 O    1.89328003       3.27924991       17.2239799    
 O    1.89328003       3.27924991       18.4239807    
 O    1.89328003       3.27924991       19.6239796    
 O    1.89328003       3.27924991       20.8239803    
 O    2.83992004       4.91887999       17.2239799    
 O    2.83992004       4.91887999       18.4239807    
 O    2.83992004       4.91887999       19.6239796    
 O    2.83992004       4.91887999       20.8239803    
 O    3.78656006       6.55850983       17.2239799    
 O    3.78656006       6.55850983       18.4239807    
 O    3.78656006       6.55850983       19.6239796    
 O    3.78656006       6.55850983       20.8239803    
 O    4.73319006       8.19812965       17.2239799    
 O    4.73319006       8.19812965       18.4239807    
 O    4.73319006       8.19812965       19.6239796    
 O    4.73319006       8.19812965       20.8239803    
 O    5.67983007       9.83775997       17.2239799    
 O    5.67983007       9.83775997       18.4239807    
 O    5.67983007       9.83775997       19.6239796    
 O    5.67983007       9.83775997       20.8239803    
 O    6.62647009       11.4773903       17.2239799    
 O    6.62647009       11.4773903       18.4239807    
 O    6.62647009       11.4773903       19.6239796    
 O    6.62647009       11.4773903       20.8239803    
 O    1.89328003       0.00000000       17.2239799    
 O    1.89328003       0.00000000       18.4239807    
 O    1.89328003       0.00000000       19.6239796    
 O    1.89328003       0.00000000       20.8239803    
 O    2.83992004       1.63962996       17.2239799    
 O    2.83992004       1.63962996       18.4239807    
 O    2.83992004       1.63962996       19.6239796    
 O    2.83992004       1.63962996       20.8239803    
 O    3.78656006       3.27924991       17.2239799    
 O    3.78656006       3.27924991       18.4239807    
 O    3.78656006       3.27924991       19.6239796    
 O    3.78656006       3.27924991       20.8239803    
 O    4.73319006       4.91887999       17.2239799    
 O    4.73319006       4.91887999       18.4239807    
 O    4.73319006       4.91887999       19.6239796    
 O    4.73319006       4.91887999       20.8239803    
 O    5.67983007       6.55850983       17.2239799    
 O    5.67983007       6.55850983       18.4239807    
 O    5.67983007       6.55850983       19.6239796    
 O    5.67983007       6.55850983       20.8239803    
 O    6.62647009       8.19812965       17.2239799    
 O    6.62647009       8.19812965       18.4239807    
 O    6.62647009       8.19812965       19.6239796    
 O    6.62647009       8.19812965       20.8239803    
 O    7.57311010       9.83775997       17.2239799    
 O    7.57311010       9.83775997       18.4239807    
 O    7.57311010       9.83775997       19.6239796    
 O    7.57311010       9.83775997       20.8239803    
 O    8.51974964       11.4773903       17.2239799    
 O    8.51974964       11.4773903       18.4239807    
 O    8.51974964       11.4773903       19.6239796    
 O    8.51974964       11.4773903       20.8239803    
 O    3.78656006       0.00000000       17.2239799    
 O    3.78656006       0.00000000       18.4239807    
 O    3.78656006       0.00000000       19.6239796    
 O    3.78656006       0.00000000       20.8239803    
 O    4.73319006       1.63962996       17.2239799    
 O    4.73319006       1.63962996       18.4239807    
 O    4.73319006       1.63962996       19.6239796    
 O    4.73319006       1.63962996       20.8239803    
 O    5.67983007       3.27924991       17.2239799    
 O    5.67983007       3.27924991       18.4239807    
 O    5.67983007       3.27924991       19.6239796    
 O    5.67983007       3.27924991       20.8239803    
 O    6.62647009       4.91887999       17.2239799    
 O    6.62647009       4.91887999       18.4239807    
 O    6.62647009       4.91887999       19.6239796    
 O    6.62647009       4.91887999       20.8239803    
 O    7.57311010       6.55850983       17.2239799    
 O    7.57311010       6.55850983       18.4239807    
 O    7.57311010       6.55850983       19.6239796    
 O    7.57311010       6.55850983       20.8239803    
 O    8.51974964       8.19812965       17.2239799    
 O    8.51974964       8.19812965       18.4239807    
 O    8.51974964       8.19812965       19.6239796    
 O    8.51974964       8.19812965       20.8239803    
 O    9.46638966       9.83775997       17.2239799    
 O    9.46638966       9.83775997       18.4239807    
 O    9.46638966       9.83775997       19.6239796    
 O    9.46638966       9.83775997       20.8239803    
 O    10.4130297       11.4773903       17.2239799    
 O    10.4130297       11.4773903       18.4239807    
 O    10.4130297       11.4773903       19.6239796    
 O    10.4130297       11.4773903       20.8239803    
 O    5.67983007       0.00000000       17.2239799    
 O    5.67983007       0.00000000       18.4239807    
 O    5.67983007       0.00000000       19.6239796    
 O    5.67983007       0.00000000       20.8239803    
 O    6.62647009       1.63962996       17.2239799    
 O    6.62647009       1.63962996       18.4239807    
 O    6.62647009       1.63962996       19.6239796    
 O    6.62647009       1.63962996       20.8239803    
 O    7.57311010       3.27924991       17.2239799    
 O    7.57311010       3.27924991       18.4239807    
 O    7.57311010       3.27924991       19.6239796    
 O    7.57311010       3.27924991       20.8239803    
 O    8.51974964       4.91887999       17.2239799    
 O    8.51974964       4.91887999       18.4239807    
 O    8.51974964       4.91887999       19.6239796    
 O    8.51974964       4.91887999       20.8239803    
 O    9.46638966       6.55850983       17.2239799    
 O    9.46638966       6.55850983       18.4239807    
 O    9.46638966       6.55850983       19.6239796    
 O    9.46638966       6.55850983       20.8239803    
 O    10.4130297       8.19812965       17.2239799    
 O    10.4130297       8.19812965       18.4239807    
 O    10.4130297       8.19812965       19.6239796    
 O    10.4130297       8.19812965       20.8239803    
 O    11.3596697       9.83775997       17.2239799    
 O    11.3596697       9.83775997       18.4239807    
 O    11.3596697       9.83775997       19.6239796    
 O    11.3596697       9.83775997       20.8239803    
 O    12.3063097       11.4773903       17.2239799    
 O    12.3063097       11.4773903       18.4239807    
 O    12.3063097       11.4773903       19.6239796    
 O    12.3063097       11.4773903       20.8239803    
 O    7.57311010       0.00000000       17.2239799    
 O    7.57311010       0.00000000       18.4239807    
 O    7.57311010       0.00000000       19.6239796    
 O    7.57311010       0.00000000       20.8239803    
 O    8.51974964       1.63962996       17.2239799    
 O    8.51974964       1.63962996       18.4239807    
 O    8.51974964       1.63962996       19.6239796    
 O    8.51974964       1.63962996       20.8239803    
 O    9.46638966       3.27924991       17.2239799    
 O    9.46638966       3.27924991       18.4239807    
 O    9.46638966       3.27924991       19.6239796    
 O    9.46638966       3.27924991       20.8239803    
 O    10.4130297       4.91887999       17.2239799    
 O    10.4130297       4.91887999       18.4239807    
 O    10.4130297       4.91887999       19.6239796    
 O    10.4130297       4.91887999       20.8239803    
 O    11.3596697       6.55850983       17.2239799    
 O    11.3596697       6.55850983       18.4239807    
 O    11.3596697       6.55850983       19.6239796    
 O    11.3596697       6.55850983       20.8239803    
 O    12.3063097       8.19812965       17.2239799    
 O    12.3063097       8.19812965       18.4239807    
 O    12.3063097       8.19812965       19.6239796    
 O    12.3063097       8.19812965       20.8239803    
 O    13.2529402       9.83775997       17.2239799    
 O    13.2529402       9.83775997       18.4239807    
 O    13.2529402       9.83775997       19.6239796    
 O    13.2529402       9.83775997       20.8239803    
 O    14.1995802       11.4773903       17.2239799    
 O    14.1995802       11.4773903       18.4239807    
 O    14.1995802       11.4773903       19.6239796    
 O    14.1995802       11.4773903       20.8239803    
 O    9.46638966       0.00000000       17.2239799    
 O    9.46638966       0.00000000       18.4239807    
 O    9.46638966       0.00000000       19.6239796    
 O    9.46638966       0.00000000       20.8239803    
 O    10.4130297       1.63962996       17.2239799    
 O    10.4130297       1.63962996       18.4239807    
 O    10.4130297       1.63962996       19.6239796    
 O    10.4130297       1.63962996       20.8239803    
 O    11.3596697       3.27924991       17.2239799    
 O    11.3596697       3.27924991       18.4239807    
 O    11.3596697       3.27924991       19.6239796    
 O    11.3596697       3.27924991       20.8239803    
 O    12.3063097       4.91887999       17.2239799    
 O    12.3063097       4.91887999       18.4239807    
 O    12.3063097       4.91887999       19.6239796    
 O    12.3063097       4.91887999       20.8239803    
 O    13.2529402       6.55850983       17.2239799    
 O    13.2529402       6.55850983       18.4239807    
 O    13.2529402       6.55850983       19.6239796    
 O    13.2529402       6.55850983       20.8239803    
 O    14.1995802       8.19812965       17.2239799    
 O    14.1995802       8.19812965       18.4239807    
 O    14.1995802       8.19812965       19.6239796    
 O    14.1995802       8.19812965       20.8239803    
 O    15.1462202       9.83775997       17.2239799    
 O    15.1462202       9.83775997       18.4239807    
 O    15.1462202       9.83775997       19.6239796    
 O    15.1462202       9.83775997       20.8239803    
 O    16.0928593       11.4773903       17.2239799    
 O    16.0928593       11.4773903       18.4239807    
 O    16.0928593       11.4773903       19.6239796    
 O    16.0928593       11.4773903       20.8239803    
 O    11.3596697       0.00000000       17.2239799    
 O    11.3596697       0.00000000       18.4239807    
 O    11.3596697       0.00000000       19.6239796    
 O    11.3596697       0.00000000       20.8239803    
 O    12.3063097       1.63962996       17.2239799    
 O    12.3063097       1.63962996       18.4239807    
 O    12.3063097       1.63962996       19.6239796    
 O    12.3063097       1.63962996       20.8239803    
 O    13.2529402       3.27924991       17.2239799    
 O    13.2529402       3.27924991       18.4239807    
 O    13.2529402       3.27924991       19.6239796    
 O    13.2529402       3.27924991       20.8239803    
 O    14.1995802       4.91887999       17.2239799    
 O    14.1995802       4.91887999       18.4239807    
 O    14.1995802       4.91887999       19.6239796    
 O    14.1995802       4.91887999       20.8239803    
 O    15.1462202       6.55850983       17.2239799    
 O    15.1462202       6.55850983       18.4239807    
 O    15.1462202       6.55850983       19.6239796    
 O    15.1462202       6.55850983       20.8239803    
 O    16.0928593       8.19812965       17.2239799    
 O    16.0928593       8.19812965       18.4239807    
 O    16.0928593       8.19812965       19.6239796    
 O    16.0928593       8.19812965       20.8239803    
 O    17.0394993       9.83775997       17.2239799    
 O    17.0394993       9.83775997       18.4239807    
 O    17.0394993       9.83775997       19.6239796    
 O    17.0394993       9.83775997       20.8239803    
 O    17.9861393       11.4773903       17.2239799    
 O    17.9861393       11.4773903       18.4239807    
 O    17.9861393       11.4773903       19.6239796    
 O    17.9861393       11.4773903       20.8239803    
 O    13.2529402       0.00000000       17.2239799    
 O    13.2529402       0.00000000       18.4239807    
 O    13.2529402       0.00000000       19.6239796    
 O    13.2529402       0.00000000       20.8239803    
 O    14.1995802       1.63962996       17.2239799    
 O    14.1995802       1.63962996       18.4239807    
 O    14.1995802       1.63962996       19.6239796    
 O    14.1995802       1.63962996       20.8239803    
 O    15.1462202       3.27924991       17.2239799    
 O    15.1462202       3.27924991       18.4239807    
 O    15.1462202       3.27924991       19.6239796    
 O    15.1462202       3.27924991       20.8239803    
 O    16.0928593       4.91887999       17.2239799    
 O    16.0928593       4.91887999       18.4239807    
 O    16.0928593       4.91887999       19.6239796    
 O    16.0928593       4.91887999       20.8239803    
 O    17.0394993       6.55850983       17.2239799    
 O    17.0394993       6.55850983       18.4239807    
 O    17.0394993       6.55850983       19.6239796    
 O    17.0394993       6.55850983       20.8239803    
 O    17.9861393       8.19812965       17.2239799    
 O    17.9861393       8.19812965       18.4239807    
 O    17.9861393       8.19812965       19.6239796    
 O    17.9861393       8.19812965       20.8239803    
 O    18.9327793       9.83775997       17.2239799    
 O    18.9327793       9.83775997       18.4239807    
 O    18.9327793       9.83775997       19.6239796    
 O    18.9327793       9.83775997       20.8239803    
 O    19.8794193       11.4773903       17.2239799    
 O    19.8794193       11.4773903       18.4239807    
 O    19.8794193       11.4773903       19.6239796    
 O    19.8794193       11.4773903       20.8239803    
         516
 Energy:  -672467.62044289999     
 X   0.00000000       0.00000000       0.00000000    
 X   15.1462221       0.00000000       0.00000000    
 X   7.57311106       13.1170130       0.00000000    
 X   0.00000000       0.00000000       40.0000000    
 X   22.7193336       13.1170130       0.00000000    
 X   15.1462221       0.00000000       40.0000000    
 X   7.57311106       13.1170130       40.0000000    
 X   22.7193336       13.1170130       40.0000000    
 Ni   10.0830097       5.82143021       2.13203001    
 Ni   12.6305304       10.1971102       2.19284010    
 Ni   7.57311010       1.47415996       2.13203001    
 Ni   15.1462202       5.83980989       2.19284010    
 Ni   17.6619091       10.1971102       2.19284010    
 Ni   12.6013098       1.46930003       2.19478011    
 Ni   5.06321001       5.82143021       2.13203001    
 Ni   7.57311010       10.1784096       2.19478011    
 Ni   2.54490995       1.46930003       2.19478011    
 Ni   12.5089703       7.22206020       4.69415998    
 Ni   15.1462202       11.7899103       4.69415998    
 Ni   10.1587896       2.87949991       4.44289017    
 Ni   17.7834797       7.22206020       4.69415998    
 Ni   20.0954800       11.6021299       4.63807011    
 Ni   15.1462202       3.02975988       4.63807011    
 Ni   7.57311010       7.35801983       4.44289017    
 Ni   10.1969604       11.6021299       4.63807011    
 Ni   4.98743010       2.87949991       4.44289017    
 Ni   15.1462202       8.74468040       6.80537987    
 Ni   10.1873102     -0.114759997       6.68962002    