NiAl                                    
            1
    15.146222    0.000000    0.000000
     7.573111   13.117013    0.000000
     0.000000    0.000000   40.000000
   Ni   O 
   252   256
Direct configuration=     1
   0.44444444  0.44444444  0.05641000
   0.44444444  0.77777778  0.05641000
   0.44444444  0.11111111  0.05641000
   0.77777778  0.44444444  0.05641000
   0.77777778  0.77777778  0.05641000
   0.77777778  0.11111111  0.05641000
   0.11111111  0.44444444  0.05641000
   0.11111111  0.77777778  0.05641000
   0.11111111  0.11111111  0.05641000
   0.55555556  0.55555556  0.11363480
   0.55555556  0.88888889  0.11363480
   0.55555556  0.22222222  0.11363480
   0.88888889  0.55555556  0.11363480
   0.88888889  0.88888889  0.11363480
   0.88888889  0.22222222  0.11363480
   0.22222222  0.55555556  0.11363480
   0.22222222  0.88888889  0.11363480
   0.22222222  0.22222222  0.11363480
   0.66666667  0.66666667  0.16901098
   0.66666667  0.00000000  0.16901098
   0.66666667  0.33333333  0.16901098
   0.00000000  0.66666667  0.16901098
   0.00000000  0.00000000  0.16901098
   0.00000000  0.33333333  0.16901098
   0.33333333  0.66666667  0.16901098
   0.33333333  0.00000000  0.16901098
   0.33333333  0.33333333  0.16901098
   0.77777778  0.77777778  0.22600473
   0.77777778  0.11111111  0.22600473
   0.77777778  0.44444444  0.22600473
   0.11111111  0.77777778  0.22600473
   0.11111111  0.11111111  0.22600473
   0.11111111  0.44444444  0.22600473
   0.44444444  0.77777778  0.22600473
   0.44444444  0.11111111  0.22600473
   0.44444444  0.44444444  0.22600473
   0.88888889  0.88888889  0.28299847
   0.88888889  0.22222222  0.28299847
   0.88888889  0.55555556  0.28299847
   0.22222222  0.88888889  0.28299847
   0.22222222  0.22222222  0.28299847
   0.22222222  0.55555556  0.28299847
   0.55555556  0.88888889  0.28299847
   0.55555556  0.22222222  0.28299847
   0.55555556  0.55555556  0.28299847
   0.00000000  0.00000000  0.33837465
   0.00000000  0.33333333  0.33837465
   0.00000000  0.66666667  0.33837465
   0.33333333  0.00000000  0.33837465
   0.33333333  0.33333333  0.33837465
   0.33333333  0.66666667  0.33837465
   0.66666667  0.00000000  0.33837465
   0.66666667  0.33333333  0.33837465
   0.66666667  0.66666667  0.33837465
   0.11111111  0.11111111  0.39559945
   0.11111111  0.44444444  0.39559945
   0.11111111  0.77777778  0.39559945
   0.44444444  0.11111111  0.39559945
   0.44444444  0.44444444  0.39559945
   0.44444444  0.77777778  0.39559945
   0.77777778  0.11111111  0.39559945
   0.77777778  0.44444444  0.39559945
   0.77777778  0.77777778  0.39559945
   0.27777778  0.27777778  0.05641000
   0.27777778  0.61111111  0.05641000
   0.27777778  0.94444444  0.05641000
   0.61111111  0.27777778  0.05641000
   0.61111111  0.61111111  0.05641000
   0.61111111  0.94444444  0.05641000
   0.94444444  0.27777778  0.05641000
   0.94444444  0.61111111  0.05641000
   0.94444444  0.94444444  0.05641000
   0.38888889  0.38888889  0.11363480
   0.38888889  0.72222222  0.11363480
   0.38888889  0.05555556  0.11363480
   0.72222222  0.38888889  0.11363480
   0.72222222  0.72222222  0.11363480
   0.72222222  0.05555556  0.11363480
   0.05555556  0.38888889  0.11363480
   0.05555556  0.72222222  0.11363480
   0.05555556  0.05555556  0.11363480
   0.50000000  0.50000000  0.16901098
   0.50000000  0.83333333  0.16901098
   0.50000000  0.16666667  0.16901098
   0.83333333  0.50000000  0.16901098
   0.83333333  0.83333333  0.16901098
   0.83333333  0.16666667  0.16901098
   0.16666667  0.50000000  0.16901098
   0.16666667  0.83333333  0.16901098
   0.16666667  0.16666667  0.16901098
   0.61111111  0.61111111  0.22600473
   0.61111111  0.94444444  0.22600473
   0.61111111  0.27777778  0.22600473
   0.94444444  0.61111111  0.22600473
   0.94444444  0.94444444  0.22600473
   0.94444444  0.27777778  0.22600473
   0.27777778  0.61111111  0.22600473
   0.27777778  0.94444444  0.22600473
   0.27777778  0.27777778  0.22600473
   0.72222222  0.72222222  0.28299847
   0.72222222  0.05555556  0.28299847
   0.72222222  0.38888889  0.28299847
   0.05555556  0.72222222  0.28299847
   0.05555556  0.05555556  0.28299847
   0.05555556  0.38888889  0.28299847
   0.38888889  0.72222222  0.28299847
   0.38888889  0.05555556  0.28299847
   0.38888889  0.38888889  0.28299847
   0.83333333  0.83333333  0.33837465
   0.83333333  0.16666667  0.33837465
   0.83333333  0.50000000  0.33837465
   0.16666667  0.83333333  0.33837465
   0.16666667  0.16666667  0.33837465
   0.16666667  0.50000000  0.33837465
   0.50000000  0.83333333  0.33837465
   0.50000000  0.16666667  0.33837465
   0.50000000  0.50000000  0.33837465
   0.94444444  0.94444444  0.39559945
   0.94444444  0.27777778  0.39559945
   0.94444444  0.61111111  0.39559945
   0.27777778  0.94444444  0.39559945
   0.27777778  0.27777778  0.39559945
   0.27777778  0.61111111  0.39559945
   0.61111111  0.94444444  0.39559945
   0.61111111  0.27777778  0.39559945
   0.61111111  0.61111111  0.39559945
   0.27777778  0.44444444  0.05641000
   0.27777778  0.77777778  0.05641000
   0.27777778  0.11111111  0.05641000
   0.61111111  0.44444444  0.05641000
   0.61111111  0.77777778  0.05641000
   0.61111111  0.11111111  0.05641000
   0.94444444  0.44444444  0.05641000
   0.94444444  0.77777778  0.05641000
   0.94444444  0.11111111  0.05641000
   0.38888889  0.55555556  0.11363480
   0.38888889  0.88888889  0.11363480
   0.38888889  0.22222222  0.11363480
   0.72222222  0.55555556  0.11363480
   0.72222222  0.88888889  0.11363480
   0.72222222  0.22222222  0.11363480
   0.05555556  0.55555556  0.11363480
   0.05555556  0.88888889  0.11363480
   0.05555556  0.22222222  0.11363480
   0.50000000  0.66666667  0.16901098
   0.50000000  0.00000000  0.16901098
   0.50000000  0.33333333  0.16901098
   0.83333333  0.66666667  0.16901098
   0.83333333  0.00000000  0.16901098
   0.83333333  0.33333333  0.16901098
   0.16666667  0.66666667  0.16901098
   0.16666667  0.00000000  0.16901098
   0.16666667  0.33333333  0.16901098
   0.61111111  0.77777778  0.22600473
   0.61111111  0.11111111  0.22600473
   0.61111111  0.44444444  0.22600473
   0.94444444  0.77777778  0.22600473
   0.94444444  0.11111111  0.22600473
   0.94444444  0.44444444  0.22600473
   0.27777778  0.77777778  0.22600473
   0.27777778  0.11111111  0.22600473
   0.27777778  0.44444444  0.22600473
   0.72222222  0.88888889  0.28299847
   0.72222222  0.22222222  0.28299847
   0.72222222  0.55555556  0.28299847
   0.05555556  0.88888889  0.28299847
   0.05555556  0.22222222  0.28299847
   0.05555556  0.55555556  0.28299847
   0.38888889  0.88888889  0.28299847
   0.38888889  0.22222222  0.28299847
   0.38888889  0.55555556  0.28299847
   0.83333333  0.00000000  0.33837465
   0.83333333  0.33333333  0.33837465
   0.83333333  0.66666667  0.33837465
   0.16666667  0.00000000  0.33837465
   0.16666667  0.33333333  0.33837465
   0.16666667  0.66666667  0.33837465
   0.50000000  0.00000000  0.33837465
   0.50000000  0.33333333  0.33837465
   0.50000000  0.66666667  0.33837465
   0.94444444  0.11111111  0.39559945
   0.94444444  0.44444444  0.39559945
   0.94444444  0.77777778  0.39559945
   0.27777778  0.11111111  0.39559945
   0.27777778  0.44444444  0.39559945
   0.27777778  0.77777778  0.39559945
   0.61111111  0.11111111  0.39559945
   0.61111111  0.44444444  0.39559945
   0.61111111  0.77777778  0.39559945
   0.44444444  0.27777778  0.05641000
   0.44444444  0.61111111  0.05641000
   0.44444444  0.94444444  0.05641000
   0.77777778  0.27777778  0.05641000
   0.77777778  0.61111111  0.05641000
   0.77777778  0.94444444  0.05641000
   0.11111111  0.27777778  0.05641000
   0.11111111  0.61111111  0.05641000
   0.11111111  0.94444444  0.05641000
   0.55555556  0.38888889  0.11363480
   0.55555556  0.72222222  0.11363480
   0.55555556  0.05555556  0.11363480
   0.88888889  0.38888889  0.11363480
   0.88888889  0.72222222  0.11363480
   0.88888889  0.05555556  0.11363480
   0.22222222  0.38888889  0.11363480
   0.22222222  0.72222222  0.11363480
   0.22222222  0.05555556  0.11363480
   0.66666667  0.50000000  0.16901098
   0.66666667  0.83333333  0.16901098
   0.66666667  0.16666667  0.16901098
   0.00000000  0.50000000  0.16901098
   0.00000000  0.83333333  0.16901098
   0.00000000  0.16666667  0.16901098
   0.33333333  0.50000000  0.16901098
   0.33333333  0.83333333  0.16901098
   0.33333333  0.16666667  0.16901098
   0.77777778  0.61111111  0.22600473
   0.77777778  0.94444444  0.22600473
   0.77777778  0.27777778  0.22600473
   0.11111111  0.61111111  0.22600473
   0.11111111  0.94444444  0.22600473
   0.11111111  0.27777778  0.22600473
   0.44444444  0.61111111  0.22600473
   0.44444444  0.94444444  0.22600473
   0.44444444  0.27777778  0.22600473
   0.88888889  0.72222222  0.28299847
   0.88888889  0.05555556  0.28299847
   0.88888889  0.38888889  0.28299847
   0.22222222  0.72222222  0.28299847
   0.22222222  0.05555556  0.28299847
   0.22222222  0.38888889  0.28299847
   0.55555556  0.72222222  0.28299847
   0.55555556  0.05555556  0.28299847
   0.55555556  0.38888889  0.28299847
   0.00000000  0.83333333  0.33837465
   0.00000000  0.16666667  0.33837465
   0.00000000  0.50000000  0.33837465
   0.33333333  0.83333333  0.33837465
   0.33333333  0.16666667  0.33837465
   0.33333333  0.50000000  0.33837465
   0.66666667  0.83333333  0.33837465
   0.66666667  0.16666667  0.33837465
   0.66666667  0.50000000  0.33837465
   0.11111111  0.94444444  0.39559945
   0.11111111  0.27777778  0.39559945
   0.11111111  0.61111111  0.39559945
   0.44444444  0.94444444  0.39559945
   0.44444444  0.27777778  0.39559945
   0.44444444  0.61111111  0.39559945
   0.77777778  0.94444444  0.39559945
   0.77777778  0.27777778  0.39559945
   0.77777778  0.61111111  0.39559945
   0.00000000  0.00000000  0.43059945
   0.00000000  0.00000000  0.46059945
   0.00000000  0.00000000  0.49059945
   0.00000000  0.00000000  0.52059945
   0.00000000  0.12500000  0.43059945
   0.00000000  0.12500000  0.46059945
   0.00000000  0.12500000  0.49059945
   0.00000000  0.12500000  0.52059945
   0.00000000  0.25000000  0.43059945
   0.00000000  0.25000000  0.46059945
   0.00000000  0.25000000  0.49059945
   0.00000000  0.25000000  0.52059945
   0.00000000  0.37500000  0.43059945
   0.00000000  0.37500000  0.46059945
   0.00000000  0.37500000  0.49059945
   0.00000000  0.37500000  0.52059945
   0.00000000  0.50000000  0.43059945
   0.00000000  0.50000000  0.46059945
   0.00000000  0.50000000  0.49059945
   0.00000000  0.50000000  0.52059945
   0.00000000  0.62500000  0.43059945
   0.00000000  0.62500000  0.46059945
   0.00000000  0.62500000  0.49059945
   0.00000000  0.62500000  0.52059945
   0.00000000  0.75000000  0.43059945
   0.00000000  0.75000000  0.46059945
   0.00000000  0.75000000  0.49059945
   0.00000000  0.75000000  0.52059945
   0.00000000  0.87500000  0.43059945
   0.00000000  0.87500000  0.46059945
   0.00000000  0.87500000  0.49059945
   0.00000000  0.87500000  0.52059945
   0.12500000  0.00000000  0.43059945
   0.12500000  0.00000000  0.46059945
   0.12500000  0.00000000  0.49059945
   0.12500000  0.00000000  0.52059945
   0.12500000  0.12500000  0.43059945
   0.12500000  0.12500000  0.46059945
   0.12500000  0.12500000  0.49059945
   0.12500000  0.12500000  0.52059945
   0.12500000  0.25000000  0.43059945
   0.12500000  0.25000000  0.46059945
   0.12500000  0.25000000  0.49059945
   0.12500000  0.25000000  0.52059945
   0.12500000  0.37500000  0.43059945
   0.12500000  0.37500000  0.46059945
   0.12500000  0.37500000  0.49059945
   0.12500000  0.37500000  0.52059945
   0.12500000  0.50000000  0.43059945
   0.12500000  0.50000000  0.46059945
   0.12500000  0.50000000  0.49059945
   0.12500000  0.50000000  0.52059945
   0.12500000  0.62500000  0.43059945
   0.12500000  0.62500000  0.46059945
   0.12500000  0.62500000  0.49059945
   0.12500000  0.62500000  0.52059945
   0.12500000  0.75000000  0.43059945
   0.12500000  0.75000000  0.46059945
   0.12500000  0.75000000  0.49059945
   0.12500000  0.75000000  0.52059945
   0.12500000  0.87500000  0.43059945
   0.12500000  0.87500000  0.46059945
   0.12500000  0.87500000  0.49059945
   0.12500000  0.87500000  0.52059945
   0.25000000  0.00000000  0.43059945
   0.25000000  0.00000000  0.46059945
   0.25000000  0.00000000  0.49059945
   0.25000000  0.00000000  0.52059945
   0.25000000  0.12500000  0.43059945
   0.25000000  0.12500000  0.46059945
   0.25000000  0.12500000  0.49059945
   0.25000000  0.12500000  0.52059945
   0.25000000  0.25000000  0.43059945
   0.25000000  0.25000000  0.46059945
   0.25000000  0.25000000  0.49059945
   0.25000000  0.25000000  0.52059945
   0.25000000  0.37500000  0.43059945
   0.25000000  0.37500000  0.46059945
   0.25000000  0.37500000  0.49059945
   0.25000000  0.37500000  0.52059945
   0.25000000  0.50000000  0.43059945
   0.25000000  0.50000000  0.46059945
   0.25000000  0.50000000  0.49059945
   0.25000000  0.50000000  0.52059945
   0.25000000  0.62500000  0.43059945
   0.25000000  0.62500000  0.46059945
   0.25000000  0.62500000  0.49059945
   0.25000000  0.62500000  0.52059945
   0.25000000  0.75000000  0.43059945
   0.25000000  0.75000000  0.46059945
   0.25000000  0.75000000  0.49059945
   0.25000000  0.75000000  0.52059945
   0.25000000  0.87500000  0.43059945
   0.25000000  0.87500000  0.46059945
   0.25000000  0.87500000  0.49059945
   0.25000000  0.87500000  0.52059945
   0.37500000  0.00000000  0.43059945
   0.37500000  0.00000000  0.46059945
   0.37500000  0.00000000  0.49059945
   0.37500000  0.00000000  0.52059945
   0.37500000  0.12500000  0.43059945
   0.37500000  0.12500000  0.46059945
   0.37500000  0.12500000  0.49059945
   0.37500000  0.12500000  0.52059945
   0.37500000  0.25000000  0.43059945
   0.37500000  0.25000000  0.46059945
   0.37500000  0.25000000  0.49059945
   0.37500000  0.25000000  0.52059945
   0.37500000  0.37500000  0.43059945
   0.37500000  0.37500000  0.46059945
   0.37500000  0.37500000  0.49059945
   0.37500000  0.37500000  0.52059945
   0.37500000  0.50000000  0.43059945
   0.37500000  0.50000000  0.46059945
   0.37500000  0.50000000  0.49059945
   0.37500000  0.50000000  0.52059945
   0.37500000  0.62500000  0.43059945
   0.37500000  0.62500000  0.46059945
   0.37500000  0.62500000  0.49059945
   0.37500000  0.62500000  0.52059945
   0.37500000  0.75000000  0.43059945
   0.37500000  0.75000000  0.46059945
   0.37500000  0.75000000  0.49059945
   0.37500000  0.75000000  0.52059945
   0.37500000  0.87500000  0.43059945
   0.37500000  0.87500000  0.46059945
   0.37500000  0.87500000  0.49059945
   0.37500000  0.87500000  0.52059945
   0.50000000  0.00000000  0.43059945
   0.50000000  0.00000000  0.46059945
   0.50000000  0.00000000  0.49059945
   0.50000000  0.00000000  0.52059945
   0.50000000  0.12500000  0.43059945
   0.50000000  0.12500000  0.46059945
   0.50000000  0.12500000  0.49059945
   0.50000000  0.12500000  0.52059945
   0.50000000  0.25000000  0.43059945
   0.50000000  0.25000000  0.46059945
   0.50000000  0.25000000  0.49059945
   0.50000000  0.25000000  0.52059945
   0.50000000  0.37500000  0.43059945
   0.50000000  0.37500000  0.46059945
   0.50000000  0.37500000  0.49059945
   0.50000000  0.37500000  0.52059945
   0.50000000  0.50000000  0.43059945
   0.50000000  0.50000000  0.46059945
   0.50000000  0.50000000  0.49059945
   0.50000000  0.50000000  0.52059945
   0.50000000  0.62500000  0.43059945
   0.50000000  0.62500000  0.46059945
   0.50000000  0.62500000  0.49059945
   0.50000000  0.62500000  0.52059945
   0.50000000  0.75000000  0.43059945
   0.50000000  0.75000000  0.46059945
   0.50000000  0.75000000  0.49059945
   0.50000000  0.75000000  0.52059945
   0.50000000  0.87500000  0.43059945
   0.50000000  0.87500000  0.46059945
   0.50000000  0.87500000  0.49059945
   0.50000000  0.87500000  0.52059945
   0.62500000  0.00000000  0.43059945
   0.62500000  0.00000000  0.46059945
   0.62500000  0.00000000  0.49059945
   0.62500000  0.00000000  0.52059945
   0.62500000  0.12500000  0.43059945
   0.62500000  0.12500000  0.46059945
   0.62500000  0.12500000  0.49059945
   0.62500000  0.12500000  0.52059945
   0.62500000  0.25000000  0.43059945
   0.62500000  0.25000000  0.46059945
   0.62500000  0.25000000  0.49059945
   0.62500000  0.25000000  0.52059945
   0.62500000  0.37500000  0.43059945
   0.62500000  0.37500000  0.46059945
   0.62500000  0.37500000  0.49059945
   0.62500000  0.37500000  0.52059945
   0.62500000  0.50000000  0.43059945
   0.62500000  0.50000000  0.46059945
   0.62500000  0.50000000  0.49059945
   0.62500000  0.50000000  0.52059945
   0.62500000  0.62500000  0.43059945
   0.62500000  0.62500000  0.46059945
   0.62500000  0.62500000  0.49059945
   0.62500000  0.62500000  0.52059945
   0.62500000  0.75000000  0.43059945
   0.62500000  0.75000000  0.46059945
   0.62500000  0.75000000  0.49059945
   0.62500000  0.75000000  0.52059945
   0.62500000  0.87500000  0.43059945
   0.62500000  0.87500000  0.46059945
   0.62500000  0.87500000  0.49059945
   0.62500000  0.87500000  0.52059945
   0.75000000  0.00000000  0.43059945
   0.75000000  0.00000000  0.46059945
   0.75000000  0.00000000  0.49059945
   0.75000000  0.00000000  0.52059945
   0.75000000  0.12500000  0.43059945
   0.75000000  0.12500000  0.46059945
   0.75000000  0.12500000  0.49059945
   0.75000000  0.12500000  0.52059945
   0.75000000  0.25000000  0.43059945
   0.75000000  0.25000000  0.46059945
   0.75000000  0.25000000  0.49059945
   0.75000000  0.25000000  0.52059945
   0.75000000  0.37500000  0.43059945
   0.75000000  0.37500000  0.46059945
   0.75000000  0.37500000  0.49059945
   0.75000000  0.37500000  0.52059945
   0.75000000  0.50000000  0.43059945
   0.75000000  0.50000000  0.46059945
   0.75000000  0.50000000  0.49059945
   0.75000000  0.50000000  0.52059945
   0.75000000  0.62500000  0.43059945
   0.75000000  0.62500000  0.46059945
   0.75000000  0.62500000  0.49059945
   0.75000000  0.62500000  0.52059945
   0.75000000  0.75000000  0.43059945
   0.75000000  0.75000000  0.46059945
   0.75000000  0.75000000  0.49059945
   0.75000000  0.75000000  0.52059945
   0.75000000  0.87500000  0.43059945
   0.75000000  0.87500000  0.46059945
   0.75000000  0.87500000  0.49059945
   0.75000000  0.87500000  0.52059945
   0.87500000  0.00000000  0.43059945
   0.87500000  0.00000000  0.46059945
   0.87500000  0.00000000  0.49059945
   0.87500000  0.00000000  0.52059945
   0.87500000  0.12500000  0.43059945
   0.87500000  0.12500000  0.46059945
   0.87500000  0.12500000  0.49059945
   0.87500000  0.12500000  0.52059945
   0.87500000  0.25000000  0.43059945
   0.87500000  0.25000000  0.46059945
   0.87500000  0.25000000  0.49059945
   0.87500000  0.25000000  0.52059945
   0.87500000  0.37500000  0.43059945
   0.87500000  0.37500000  0.46059945
   0.87500000  0.37500000  0.49059945
   0.87500000  0.37500000  0.52059945
   0.87500000  0.50000000  0.43059945
   0.87500000  0.50000000  0.46059945
   0.87500000  0.50000000  0.49059945
   0.87500000  0.50000000  0.52059945
   0.87500000  0.62500000  0.43059945
   0.87500000  0.62500000  0.46059945
   0.87500000  0.62500000  0.49059945
   0.87500000  0.62500000  0.52059945
   0.87500000  0.75000000  0.43059945
   0.87500000  0.75000000  0.46059945
   0.87500000  0.75000000  0.49059945
   0.87500000  0.75000000  0.52059945
   0.87500000  0.87500000  0.43059945
   0.87500000  0.87500000  0.46059945
   0.87500000  0.87500000  0.49059945
   0.87500000  0.87500000  0.52059945
Direct configuration=     2
   0.44380736  0.44380736  0.05330069
   0.44520883  0.77739558  0.05482099
   0.44380736  0.11238528  0.05330069
   0.77739558  0.44520883  0.05482099
   0.77739558  0.77739558  0.05482099
   0.77596991  0.11201504  0.05486938
   0.11238528  0.44380736  0.05330069
   0.11201504  0.77596991  0.05486938
   0.11201504  0.11201504  0.05486938
   0.55058692  0.55058692  0.11735405
   0.55058692  0.89882617  0.11735405
   0.56095253  0.21952373  0.11107236
   0.89882617  0.55058692  0.11735405
   0.88451028  0.88451028  0.11595169
   0.88451028  0.23097944  0.11595169
   0.21952373  0.56095253  0.11107236
   0.23097944  0.88451028  0.11595169
   0.21952373  0.21952373  0.11107236
   0.66666667  0.66666667  0.17013440
   0.67697170 -0.00874880  0.16724043
   0.67697170  0.33177710  0.16724043
  -0.00874880  0.67697170  0.16724043
   0.00000000  0.00000000  0.17391329
  -0.00874880  0.33177710  0.16724043
   0.33177710  0.67697170  0.16724043
   0.33177710 -0.00874880  0.16724043
   0.33333333  0.33333333  0.17060781
   0.77858207  0.77858207  0.22856250
   0.77660967  0.11169516  0.22825952
   0.77858207  0.44283587  0.22856250
   0.11169516  0.77660967  0.22825952
   0.11169516  0.11169516  0.22825952
   0.10871799  0.44564100  0.22800422
   0.44283587  0.77858207  0.22856250
   0.44564100  0.10871799  0.22800422
   0.44564100  0.44564100  0.22800422
   0.88898434  0.88898434  0.28049301
   0.88898434  0.22203131  0.28049301
   0.88900767  0.55549617  0.28044673
   0.22203131  0.88898434  0.28049301
   0.22212878  0.22212878  0.28055002
   0.22212878  0.55574244  0.28055002
   0.55549617  0.88900767  0.28044673
   0.55574244  0.22212878  0.28055002
   0.55549617  0.55549617  0.28044673
   0.00000000  0.00000000  0.33697088
  -0.00019149  0.33273755  0.33730523
  -0.00019149  0.66745394  0.33730523
   0.33273755 -0.00019149  0.33730523
   0.33333333  0.33333333  0.33857369
   0.33273755  0.66745394  0.33730523
   0.66745394 -0.00019149  0.33730523
   0.66745394  0.33273755  0.33730523
   0.66666667  0.66666667  0.33767057
   0.11036531  0.11036531  0.38562461
   0.10867455  0.44566273  0.39023320
   0.11036531  0.77926938  0.38562461
   0.44566273  0.10867455  0.39023320
   0.44566273  0.44566273  0.39023320
   0.44078783  0.77960609  0.38872277
   0.77926938  0.11036531  0.38562461
   0.77960609  0.44078783  0.38872277
   0.77960609  0.77960609  0.38872277
   0.27739558  0.27739558  0.05482099
   0.27596991  0.61201504  0.05486938
   0.27739558  0.94520883  0.05482099
   0.61201504  0.27596991  0.05486938
   0.61201504  0.61201504  0.05486938
   0.61238528  0.94380736  0.05330069
   0.94520883  0.27739558  0.05482099
   0.94380736  0.61238528  0.05330069
   0.94380736  0.94380736  0.05330069
   0.38451028  0.38451028  0.11595169
   0.38451028  0.73097944  0.11595169
   0.39882617  0.05058692  0.11735405
   0.73097944  0.38451028  0.11595169
   0.71952373  0.71952373  0.11107236
   0.71952373  0.06095253  0.11107236
   0.05058692  0.39882617  0.11735405
   0.06095253  0.71952373  0.11107236
   0.05058692  0.05058692  0.11735405
   0.50000000  0.50000000  0.17391329
   0.49125120  0.83177710  0.16724043
   0.49125120  0.17697170  0.16724043
   0.83177710  0.49125120  0.16724043
   0.83333333  0.83333333  0.17060781
   0.83177710  0.17697170  0.16724043
   0.17697170  0.49125120  0.16724043
   0.17697170  0.83177710  0.16724043
   0.16666667  0.16666667  0.17013440
   0.61169516  0.61169516  0.22825952
   0.60871799  0.94564100  0.22800422
   0.61169516  0.27660967  0.22825952
   0.94564100  0.60871799  0.22800422
   0.94564100  0.94564100  0.22800422
   0.94283587  0.27858207  0.22856250
   0.27660967  0.61169516  0.22825952
   0.27858207  0.94283587  0.22856250
   0.27858207  0.27858207  0.22856250
   0.72212878  0.72212878  0.28055002
   0.72212878  0.05574244  0.28055002
   0.72203131  0.38898434  0.28049301
   0.05574244  0.72212878  0.28055002
   0.05549617  0.05549617  0.28044673
   0.05549617  0.38900767  0.28044673
   0.38898434  0.72203131  0.28049301
   0.38900767  0.05549617  0.28044673
   0.38898434  0.38898434  0.28049301
   0.83333333  0.83333333  0.33857369
   0.83273755  0.16745394  0.33730523
   0.83273755  0.49980851  0.33730523
   0.16745394  0.83273755  0.33730523
   0.16666667  0.16666667  0.33767057
   0.16745394  0.49980851  0.33730523
   0.49980851  0.83273755  0.33730523
   0.49980851  0.16745394  0.33730523
   0.50000000  0.50000000  0.33697088
   0.94566273  0.94566273  0.39023320
   0.94078783  0.27960609  0.38872277
   0.94566273  0.60867455  0.39023320
   0.27960609  0.94078783  0.38872277
   0.27960609  0.27960609  0.38872277
   0.27926938  0.61036531  0.38562461
   0.60867455  0.94566273  0.39023320
   0.61036531  0.27926938  0.38562461
   0.61036531  0.61036531  0.38562461
   0.27739558  0.44520883  0.05482099
   0.27739558  0.77739558  0.05482099
   0.27596991  0.11201504  0.05486938
   0.61238528  0.44380736  0.05330069
   0.61201504  0.77596991  0.05486938
   0.61201504  0.11201504  0.05486938
   0.94380736  0.44380736  0.05330069
   0.94520883  0.77739558  0.05482099
   0.94380736  0.11238528  0.05330069
   0.39882617  0.55058692  0.11735405
   0.38451028  0.88451028  0.11595169
   0.38451028  0.23097944  0.11595169
   0.71952373  0.56095253  0.11107236
   0.73097944  0.88451028  0.11595169
   0.71952373  0.21952373  0.11107236
   0.05058692  0.55058692  0.11735405
   0.05058692  0.89882617  0.11735405
   0.06095253  0.21952373  0.11107236
   0.49125120  0.67697170  0.16724043
   0.50000000  0.00000000  0.17391329
   0.49125120  0.33177710  0.16724043
   0.83177710  0.67697170  0.16724043
   0.83177710 -0.00874880  0.16724043
   0.83333333  0.33333333  0.17060781
   0.16666667  0.66666667  0.17013440
   0.17697170 -0.00874880  0.16724043
   0.17697170  0.33177710  0.16724043
   0.61169516  0.77660967  0.22825952
   0.61169516  0.11169516  0.22825952
   0.60871799  0.44564100  0.22800422
   0.94283587  0.77858207  0.22856250
   0.94564100  0.10871799  0.22800422
   0.94564100  0.44564100  0.22800422
   0.27858207  0.77858207  0.22856250
   0.27660967  0.11169516  0.22825952
   0.27858207  0.44283587  0.22856250
   0.72203131  0.88898434  0.28049301
   0.72212878  0.22212878  0.28055002
   0.72212878  0.55574244  0.28055002
   0.05549617  0.88900767  0.28044673
   0.05574244  0.22212878  0.28055002
   0.05549617  0.55549617  0.28044673
   0.38898434  0.88898434  0.28049301
   0.38898434  0.22203131  0.28049301
   0.38900767  0.55549617  0.28044673
   0.83273755 -0.00019149  0.33730523
   0.83333333  0.33333333  0.33857369
   0.83273755  0.66745394  0.33730523
   0.16745394 -0.00019149  0.33730523
   0.16745394  0.33273755  0.33730523
   0.16666667  0.66666667  0.33767057
   0.50000000  0.00000000  0.33697088
   0.49980851  0.33273755  0.33730523
   0.49980851  0.66745394  0.33730523
   0.94566273  0.10867455  0.39023320
   0.94566273  0.44566273  0.39023320
   0.94078783  0.77960609  0.38872277
   0.27926938  0.11036531  0.38562461
   0.27960609  0.44078783  0.38872277
   0.27960609  0.77960609  0.38872277
   0.61036531  0.11036531  0.38562461
   0.60867455  0.44566273  0.39023320
   0.61036531  0.77926938  0.38562461
   0.44520883  0.27739558  0.05482099
   0.44380736  0.61238528  0.05330069
   0.44380736  0.94380736  0.05330069
   0.77739558  0.27739558  0.05482099
   0.77596991  0.61201504  0.05486938
   0.77739558  0.94520883  0.05482099
   0.11201504  0.27596991  0.05486938
   0.11201504  0.61201504  0.05486938
   0.11238528  0.94380736  0.05330069
   0.55058692  0.39882617  0.11735405
   0.56095253  0.71952373  0.11107236
   0.55058692  0.05058692  0.11735405
   0.88451028  0.38451028  0.11595169
   0.88451028  0.73097944  0.11595169
   0.89882617  0.05058692  0.11735405
   0.23097944  0.38451028  0.11595169
   0.21952373  0.71952373  0.11107236
   0.21952373  0.06095253  0.11107236
   0.67697170  0.49125120  0.16724043
   0.67697170  0.83177710  0.16724043
   0.66666667  0.16666667  0.17013440
   0.00000000  0.50000000  0.17391329
  -0.00874880  0.83177710  0.16724043
  -0.00874880  0.17697170  0.16724043
   0.33177710  0.49125120  0.16724043
   0.33333333  0.83333333  0.17060781
   0.33177710  0.17697170  0.16724043
   0.77660967  0.61169516  0.22825952
   0.77858207  0.94283587  0.22856250
   0.77858207  0.27858207  0.22856250
   0.11169516  0.61169516  0.22825952
   0.10871799  0.94564100  0.22800422
   0.11169516  0.27660967  0.22825952
   0.44564100  0.60871799  0.22800422
   0.44564100  0.94564100  0.22800422
   0.44283587  0.27858207  0.22856250
   0.88898434  0.72203131  0.28049301
   0.88900767  0.05549617  0.28044673
   0.88898434  0.38898434  0.28049301
   0.22212878  0.72212878  0.28055002
   0.22212878  0.05574244  0.28055002
   0.22203131  0.38898434  0.28049301
   0.55574244  0.72212878  0.28055002
   0.55549617  0.05549617  0.28044673
   0.55549617  0.38900767  0.28044673
  -0.00019149  0.83273755  0.33730523
  -0.00019149  0.16745394  0.33730523
   0.00000000  0.50000000  0.33697088
   0.33333333  0.83333333  0.33857369
   0.33273755  0.16745394  0.33730523
   0.33273755  0.49980851  0.33730523
   0.66745394  0.83273755  0.33730523
   0.66666667  0.16666667  0.33767057
   0.66745394  0.49980851  0.33730523
   0.10867455  0.94566273  0.39023320
   0.11036531  0.27926938  0.38562461
   0.11036531  0.61036531  0.38562461
   0.44566273  0.94566273  0.39023320
   0.44078783  0.27960609  0.38872277
   0.44566273  0.60867455  0.39023320
   0.77960609  0.94078783  0.38872277
   0.77960609  0.27960609  0.38872277
   0.77926938  0.61036531  0.38562461
   0.00000000  0.00000000  0.42108875
   0.00000000  0.00000000  0.45659334
   0.00000000  0.00000000  0.49843259
   0.00000000  0.00000000  0.52969257
   0.00251680  0.12558214  0.42264425
  -0.00055553  0.12435123  0.45599117
   0.00016607  0.12504014  0.49872796
  -0.00013437  0.12490835  0.52942500
   0.00563170  0.24718415  0.42502578
  -0.00169723  0.25084862  0.45672492
  -0.00009345  0.25004672  0.49761923
  -0.00081223  0.25040611  0.52971813
   0.00251680  0.37190106  0.42264425
  -0.00055553  0.37620430  0.45599117
   0.00016607  0.37479379  0.49872796
  -0.00013437  0.37522601  0.52942500
   0.00000000  0.50000000  0.42108875
   0.00000000  0.50000000  0.45659334
   0.00000000  0.50000000  0.49843259
   0.00000000  0.50000000  0.52969257
   0.00251680  0.62558214  0.42264425
  -0.00055553  0.62435123  0.45599117