  250  250   40    1
  0.4057868E+01  0.1054150E-08  0.1054150E-08  0.1054150E-08  0.2000000E-15
   1.0000000000000000E-004
  CAR 
 NiAl                                    
   2000      6   1200
 
  0.1262379E-14  0.1262379E-14  0.1262379E-14  0.1250000E+00
    1      -11.212441   1.000000
    2      -10.080416   1.000000
    3      -10.080416   1.000000
    4      -10.065532   1.000000
    5      -10.065524   1.000000
    6       -9.724195   1.000000
    7       -9.724195   1.000000
    8       -9.724190   1.000000
    9       -9.724190   1.000000
   10       -9.004381   1.000000
   11       -9.004381   1.000000
   12       -9.004373   1.000000
   13       -9.004373   1.000000
   14       -8.904636   1.000000
   15       -8.904636   1.000000
   16       -8.904630   1.000000
   17       -8.904630   1.000000
   18       -8.904628   1.000000
   19       -8.904628   1.000000
   20       -8.904623   1.000000
   21       -8.904623   1.000000
   22       -7.850872   1.000000
   23       -7.850872   1.000000
   24       -7.839934   1.000000
   25       -7.839934   1.000000
   26       -7.839934   1.000000
   27       -7.839934   1.000000
   28       -7.575070   1.000000
   29       -7.575047   1.000000
   30       -7.536456   1.000000
   31       -7.536456   1.000000
   32       -7.536427   1.000000
   33       -7.536427   1.000000
   34       -7.430226   1.000000
   35       -7.430226   1.000000
   36       -7.430222   1.000000
   37       -7.430222   1.000000
   38       -7.430201   1.000000
   39       -7.430201   1.000000
   40       -7.430196   1.000000
   41       -7.430196   1.000000
   42       -7.249960   1.000000
   43       -7.249960   1.000000
   44       -7.249940   1.000000
   45       -7.249940   1.000000
   46       -7.249932   1.000000
   47       -7.249932   1.000000
   48       -7.249911   1.000000
   49       -7.249911   1.000000
   50       -7.161897   1.000000
   51       -7.161897   1.000000
   52       -7.161891   1.000000
   53       -7.161891   1.000000
   54       -7.161214   1.000000
   55       -7.161214   1.000000
   56       -7.161214   1.000000
   57       -7.161214   1.000000
   58       -7.161207   1.000000
   59       -7.161207   1.000000
   60       -7.161207   1.000000
   61       -7.161207   1.000000
   62       -7.041708   1.000000
   63       -7.041708   1.000000
   64       -6.773355   1.000000
   65       -6.773355   1.000000
   66       -6.773347   1.000000
   67       -6.773347   1.000000
   68       -6.689007   1.000000
   69       -6.689007   1.000000
   70       -6.689007   1.000000
   71       -6.689007   1.000000
   72       -6.688978   1.000000
   73       -6.688978   1.000000
   74       -6.688978   1.000000
   75       -6.688978   1.000000
   76       -6.679353   1.000000
   77       -6.679353   1.000000
   78       -6.679330   1.000000
   79       -6.679330   1.000000
   80       -6.557881   1.000000
   81       -6.557881   1.000000
   82       -6.557875   1.000000
   83       -6.557875   1.000000
   84       -6.557863   1.000000
   85       -6.557863   1.000000
   86       -6.557857   1.000000
   87       -6.557857   1.000000
   88       -6.404855   1.000000
   89       -6.404855   1.000000
   90       -6.217879   1.000000
   91       -6.217879   1.000000
   92       -6.217864   1.000000
   93       -6.217864   1.000000
   94       -6.042493   1.000000
   95       -6.042493   1.000000
   96       -6.042493   1.000000
   97       -6.042493   1.000000
   98       -6.042468   1.000000
   99       -6.042468   1.000000
  100       -6.042468   1.000000
  101       -6.042468   1.000000
  102       -5.741359   1.000000
  103       -5.741359   1.000000
  104       -5.741352   1.000000
  105       -5.741352   1.000000
  106       -5.715215   1.000000
  107       -5.715215   1.000000
  108       -5.715215   1.000000
  109       -5.715215   1.000000
  110       -5.715210   1.000000
  111       -5.715210   1.000000
  112       -5.715210   1.000000
  113       -5.715210   1.000000
  114       -5.092073   1.000000
  115       -5.092073   1.000000
  116       -5.092073   1.000000
  117       -5.092073   1.000000
  118       -4.692286   1.000000
  119       -4.692286   1.000000
  120       -4.692260   1.000000
  121       -4.692260   1.000000
  122       -4.351262   1.000000
  123       -4.351262   1.000000
  124       -4.351241   1.000000
  125       -4.351241   1.000000
  126        2.008063   1.000000
  127        2.008089   1.000000
  128        2.166004   1.000000
  129        2.166004   1.000000
  130        2.166004   1.000000
  131        2.166004   1.000000
  132        2.452550   1.000000
  133        2.452550   1.000000
  134        2.452567   1.000000
  135        2.452567   1.000000
  136        2.555099   1.000000
  137        2.555099   1.000000
  138        2.555125   1.000000
  139        2.555125   1.000000
  140        2.583320   1.000000
  141        2.583320   1.000000
  142        2.583325   1.000000
  143        2.583325   1.000000
  144        2.963596   1.000000
  145        2.963596   1.000000
  146        2.963623   1.000000
  147        2.963623   1.000000
  148        3.185488   1.000000
  149        3.185488   1.000000
  150        3.185493   1.000000
  151        3.185493   1.000000
  152        3.185503   1.000000
  153        3.185503   1.000000
  154        3.185509   1.000000
  155        3.185509   1.000000
  156        3.261955   1.000000
  157        3.261955   1.000000
  158        3.261959   1.000000
  159        3.261959   1.000000
  160        3.261979   1.000000
  161        3.261979   1.000000
  162        3.261983   1.000000
  163        3.261983   1.000000
  164        3.314821   1.000000
  165        3.314821   1.000000
  166        3.314821   1.000000
  167        3.314821   1.000000
  168        3.314827   1.000000
  169        3.314827   1.000000
  170        3.314827   1.000000
  171        3.314827   1.000000
  172        3.464214   1.000000
  173        3.464214   1.000000
  174        3.464220   1.000000
  175        3.464220   1.000000
  176        3.571865   1.000000
  177        3.571865   1.000000
  178        3.571871   1.000000
  179        3.571871   1.000000
  180        3.696116   1.000000
  181        3.696116   1.000000
  182        3.696136   1.000000
  183        3.696136   1.000000
  184        3.728979   1.000000
  185        3.728979   1.000000
  186        3.728988   1.000000
  187        3.728988   1.000000
  188        3.744979   1.000000
  189        3.744979   1.000000
  190        3.759516   1.000000
  191        3.759516   1.000000
  192        3.759516   1.000000
  193        3.759516   1.000000
  194        3.759533   1.000000
  195        3.759533   1.000000
  196        3.759533   1.000000
  197        3.759533   1.000000
  198        4.102101   1.000000
  199        4.102101   1.000000
  200        4.140798   1.000000
  201        4.140798   1.000000
  202        4.373493   1.000000
  203        4.373493   1.000000
  204        4.373494   1.000000
  205        4.373494   1.000000
  206        4.879125   1.000000
  207        4.879125   1.000000
  208        4.879125   1.000000
  209        4.879125   1.000000
  210        4.879129   1.000000
  211        4.879129   1.000000
  212        4.879129   1.000000
  213        4.879129   1.000000
  214        4.918714   1.000000
  215        4.918714   1.000000
  216        4.918714   1.000000
  217        4.918714   1.000000
  218        4.965105   1.000000
  219        4.965105   1.000000
  220        4.965105   1.000000
  221        4.965105   1.000000
  222        4.965123   1.000000
  223        4.965123   1.000000
  224        4.965123   1.000000
  225        4.965123   1.000000
  226        5.017588   1.000000
  227        5.017588   1.000000
  228        5.017618   1.000000
  229        5.017618   1.000000
  230        5.112926   1.000000
  231        5.112926   1.000000
  232        5.112926   1.000000
  233        5.112926   1.000000
  234        5.289726   1.000000
  235        5.289726   1.000000
  236        5.289726   1.000000
  237        5.289726   1.000000
  238        5.408871   1.000000
  239        5.408871   1.000000
  240        5.408893   1.000000
  241        5.408893   1.000000
  242        5.425747   1.000000
  243        5.425747   1.000000
  244        5.484186   1.000000
  245        5.484186   1.000000
  246        5.484197   1.000000
  247        5.484197   1.000000
  248        5.484197   1.000000
  249        5.484197   1.000000
  250        5.484208   1.000000
  251        5.484208   1.000000
  252        5.489375   1.000000
  253        5.489375   1.000000
  254        5.489375   1.000000
  255        5.489375   1.000000
  256        5.489397   1.000000
  257        5.489397   1.000000
  258        5.489397   1.000000
  259        5.489397   1.000000
  260        5.513528   1.000000
  261        5.513528   1.000000
  262        5.513528   1.000000
  263        5.513528   1.000000
  264        5.557070   1.000000
  265        5.557070   1.000000
  266        5.557070   1.000000
  267        5.557070   1.000000
  268        5.557072   1.000000
  269        5.557072   1.000000
  270        5.557072   1.000000
  271        5.557072   1.000000
  272        5.568882   1.000000
  273        5.568882   1.000000
  274        5.568883   1.000000
  275        5.568883   1.000000
  276        5.568886   1.000000
  277        5.568886   1.000000
  278        5.568887   1.000000
  279        5.568887   1.000000
  280        5.683430   1.000000
  281        5.683430   1.000000
  282        5.683430   1.000000
  283        5.683430   1.000000
  284        5.683431   1.000000
  285        5.683431   1.000000
  286        5.683431   1.000000
  287        5.683431   1.000000
  288        5.721974   1.000000
  289        5.721974   1.000000
  290        5.721992   1.000000
  291        5.721992   1.000000
  292        5.832275   1.000000
  293        5.832275   1.000000
  294        5.832306   1.000000
  295        5.832306   1.000000
  296        6.126659   1.000000
  297        6.126659   1.000000
  298        6.126661   1.000000
  299        6.126661   1.000000
  300        6.126676   1.000000
  301        6.126676   1.000000
  302        6.126678   1.000000
  303        6.126678   1.000000
  304        6.177054   1.000000
  305        6.177055   1.000000
  306        6.314895   1.000000
  307        6.314895   1.000000
  308        6.314897   1.000000
  309        6.314897   1.000000
  310        6.337340   1.000000
  311        6.337340   1.000000
  312        6.377414   1.000000
  313        6.377445   1.000000
  314        6.390120   1.000000
  315        6.390120   1.000000
  316        6.390121   1.000000
  317        6.390121   1.000000
  318        6.391588   1.000000
  319        6.391588   1.000000
  320        6.391612   1.000000
  321        6.391612   1.000000
  322        6.398216   1.000000
  323        6.398216   1.000000
  324        6.398216   1.000000
  325        6.398216   1.000000
  326        6.398240   1.000000
  327        6.398240   1.000000
  328        6.398240   1.000000
  329        6.398240   1.000000
  330        6.479423   1.000000
  331        6.479423   1.000000
  332        6.479443   1.000000
  333        6.479443   1.000000
  334        6.611133   1.000000
  335        6.611133   1.000000
  336        6.611133   1.000000
  337        6.611133   1.000000
  338        6.611136   1.000000
  339        6.611136   1.000000
  340        6.611136   1.000000
  341        6.611136   1.000000
  342        6.613004   1.000000
  343        6.613004   1.000000
  344        6.613007   1.000000
  345        6.613007   1.000000
  346        6.613029   1.000000
  347        6.613029   1.000000
  348        6.613031   1.000000
  349        6.613031   1.000000
  350        6.684712   1.000000
  351        6.684712   1.000000
  352        6.930209   1.000000
  353        6.930209   1.000000
  354        6.930218   1.000000
  355        6.930218   1.000000
  356        6.930226   1.000000
  357        6.930226   1.000000
  358        6.930234   1.000000
  359        6.930234   1.000000
  360        7.454133   1.000000
  361        7.454133   1.000000
  362        7.454133   1.000000
  363        7.454133   1.000000
  364        7.454288   1.000000
  365        7.454288   1.000000
  366        7.454289   1.000000
  367        7.454289   1.000000
  368        7.456647   1.000000
  369        7.456647   1.000000
  370        7.456648   1.000000
  371        7.456648   1.000000
  372        7.499379   1.000000
  373        7.499379   1.000000
  374        7.499388   1.000000
  375        7.499388   1.000000
  376        7.499402   1.000000
  377        7.499402   1.000000
  378        7.499410   1.000000
  379        7.499410   1.000000
  380        7.501493   1.000000
  381        7.501493   1.000000
  382        7.501494   1.000000
  383        7.501494   1.000000
  384        7.501499   1.000000
  385        7.501499   1.000000
  386        7.501500   1.000000
  387        7.501500   1.000000
  388        7.509484   1.000000
  389        7.509484   1.000000
  390        7.509487   1.000000
  391        7.509487   1.000000
  392        7.563776   1.000000
  393        7.563776   1.000000
  394        7.563790   1.000000
  395        7.563790   1.000000
  396        7.573687   1.000000
  397        7.573687   1.000000
  398        7.573696   1.000000
  399        7.573696   1.000000
  400        7.821290   1.000000
  401        7.821290   1.000000
  402        7.821292   1.000000
  403        7.821292   1.000000
  404        8.034019   1.000000
  405        8.034019   1.000000
  406        8.078629   1.000000
  407        8.078629   1.000000
  408        8.078631   1.000000
  409        8.078631   1.000000
  410        8.129790   1.000000
  411        8.129790   1.000000
  412        8.129790   1.000000
  413        8.129790   1.000000
  414        8.129813   1.000000
  415        8.129813   1.000000
  416        8.129813   1.000000
  417        8.129813   1.000000
  418        8.205483   1.000000
  419        8.205483   1.000000
  420        8.205483   1.000000
  421        8.205483   1.000000
  422        8.205489   1.000000
  423        8.205489   1.000000
  424        8.205489   1.000000
  425        8.205489   1.000000
  426        8.236331   1.000000
  427        8.236331   1.000000
  428        8.236331   1.000000
  429        8.236331   1.000000
  430        8.449863   1.000000
  431        8.449863   1.000000
  432        8.449863   1.000000
  433        8.449863   1.000000
  434        8.449883   1.000000
  435        8.449883   1.000000
  436        8.449883   1.000000
  437        8.449883   1.000000
  438        8.498865   1.000000
  439        8.498865   1.000000
  440        8.590862   1.000000
  441        8.590862   1.000000
  442        8.590864   1.000000
  443        8.590864   1.000000
  444        8.790416   1.000000
  445        8.790416   1.000000
  446        8.790422   1.000000
  447        8.790422   1.000000
  448        8.876104   1.000000
  449        8.876104   1.000000
  450        8.876105   1.000000
  451        8.876105   1.000000
  452        9.099595   1.000000
  453        9.172787   1.000000
  454        9.172787   1.000000
  455        9.172812   1.000000
  456        9.172812   1.000000
  457        9.173919   1.000000
  458        9.173920   1.000000
  459        9.614823   1.000000
  460        9.614823   1.000000
  461        9.668731   1.000000
  462        9.668731   1.000000
  463        9.668732   1.000000
  464        9.668732   1.000000
  465        9.668739   1.000000
  466        9.668739   1.000000
  467        9.668740   1.000000
  468        9.668740   1.000000
  469        9.698015   1.000000
  470        9.698015   1.000000
  471        9.982262   1.000000
  472        9.982262   1.000000
  473        9.982270   1.000000
  474        9.982270   1.000000
  475       10.016749   1.000000
  476       10.016749   1.000000
  477       10.016767   1.000000
  478       10.016767   1.000000
  479       10.016772   1.000000
  480       10.016772   1.000000
  481       10.016790   1.000000
  482       10.016790   1.000000
  483       11.628081   1.000000
  484       11.628081   1.000000
  485       11.628082   1.000000
  486       11.628082   1.000000
  487       11.628092   1.000000
  488       11.628092   1.000000
  489       11.628093   1.000000
  490       11.628093   1.000000
  491       11.635847   1.000000
  492       11.724106   1.000000
  493       11.724106   1.000000
  494       11.842291   1.000000
  495       11.842291   1.000000
  496       12.220802   1.000000
  497       12.220808   1.000000
  498       12.382842   1.000000
  499       12.382842   1.000000
  500       12.382842   1.000000
  501       12.382842   1.000000
  502       12.382864   1.000000
  503       12.382864   1.000000
  504       12.382864   1.000000
  505       12.382864   1.000000
  506       12.563852   1.000000
  507       12.563852   1.000000
  508       12.597243   1.000000
  509       12.687359   1.000000
  510       12.687359   1.000000
  511       12.977566   1.000000
  512       12.977597   1.000000
  513       13.011239   1.000000
  514       13.011239   1.000000
  515       13.011239   1.000000
  516       13.011239   1.000000
  517       13.011264   1.000000
  518       13.011264   1.000000
  519       13.011264   1.000000
  520       13.011264   1.000000
  521       13.265122   1.000000
  522       13.265152   1.000000
  523       13.356978   1.000000
  524       13.356978   1.000000
  525       13.356982   1.000000
  526       13.356982   1.000000
  527       13.581311   1.000000
  528       13.593390   1.000000
  529       13.593390   1.000000
  530       13.593403   1.000000
  531       13.593403   1.000000
  532       13.593417   1.000000
  533       13.593417   1.000000
  534       13.593430   1.000000
  535       13.593430   1.000000
  536       13.600148   1.000000
  537       13.600148   1.000000
  538       13.687419   1.000000
  539       13.720112   1.000000
  540       13.720112   1.000000
  541       13.720113   1.000000
  542       13.720113   1.000000
  543       13.720122   1.000000
  544       13.720122   1.000000
  545       13.720124   1.000000
  546       13.720124   1.000000
  547       13.764197   1.000000
  548       13.764197   1.000000
  549       13.764223   1.000000
  550       13.764223   1.000000
  551       13.803284   1.000000
  552       13.803284   1.000000
  553       13.803287   1.000000
  554       13.803287   1.000000
  555       13.809537   1.000000
  556       13.809537   1.000000
  557       13.809537   1.000000
  558       13.809537   1.000000
  559       13.922513   1.000000
  560       13.922521   1.000000
  561       14.097714   1.000000
  562       14.097714   1.000000
  563       14.097716   1.000000
  564       14.097716   1.000000
  565       14.101220   1.000000
  566       14.101220   1.000000
  567       14.101224   1.000000
  568       14.101224   1.000000
  569       14.134168   1.000000
  570       14.134171   1.000000
  571       14.175808   1.000000
  572       14.175808   1.000000
  573       14.175808   1.000000
  574       14.175808   1.000000
  575       14.175809   1.000000
  576       14.175809   1.000000
  577       14.175809   1.000000
  578       14.175809   1.000000
  579       14.194306   1.000000
  580       14.194306   1.000000
  581       14.194306   1.000000
  582       14.194306   1.000000
  583       14.194308   1.000000
  584       14.194308   1.000000
  585       14.194308   1.000000
  586       14.194308   1.000000
  587       14.310302   1.000000
  588       14.310334   1.000000
  589       14.457733   1.000000
  590       14.457737   1.000000
  591       14.531781   1.000000
  592       14.531781   1.000000
  593       14.531786   1.000000
  594       14.531786   1.000000
  595       14.531789   1.000000
  596       14.531789   1.000000
  597       14.531793   1.000000
  598       14.531793   1.000000
  599       14.552736   1.000000
  600       14.552736   1.000000
  601       14.598762   1.000000
  602       14.627429   1.000000
  603       14.627429   1.000000
  604       14.627440   1.000000
  605       14.627440   1.000000
  606       14.627448   1.000000
  607       14.627448   1.000000
  608       14.627459   1.000000
  609       14.627459   1.000000
  610       14.652169   1.000000
  611       14.652169   1.000000
  612       14.652170   1.000000
  613       14.652170   1.000000
  614       14.736333   1.000000
  615       14.736333   1.000000
  616       14.860559   1.000000
  617       14.860559   1.000000
  618       14.867191   1.000000
  619       14.867191   1.000000
  620       14.867196   1.000000
  621       14.867196   1.000000
  622       14.867220   1.000000
  623       14.867220   1.000000
  624       14.867225   1.000000
  625       14.867225   1.000000
  626       14.998576   1.000000
  627       14.998576   1.000000
  628       14.998577   1.000000
  629       14.998577   1.000000
  630       15.025449   1.000000
  631       15.025449   1.000000
  632       15.039477   1.000000
  633       15.042508   1.000000
  634       15.042508   1.000000
  635       15.042535   1.000000
  636       15.042535   1.000000
  637       15.068058   1.000000
  638       15.068058   1.000000
  639       15.068058   1.000000
  640       15.068058   1.000000
  641       15.068750   1.000000
  642       15.068750   1.000000
  643       15.177310   1.000000
  644       15.177310   1.000000
  645       15.177318   1.000000
  646       15.177318   1.000000
  647       15.248793   1.000000
  648       15.248793   1.000000
  649       15.248798   1.000000
  650       15.248798   1.000000
  651       15.248815   1.000000
  652       15.248815   1.000000
  653       15.248821   1.000000
  654       15.248821   1.000000
  655       15.334898   1.000000
  656       15.334898   1.000000
  657       15.334905   1.000000
  658       15.334905   1.000000
  659       15.443429   1.000000
  660       15.443429   1.000000
  661       15.478569   1.000000
  662       15.478569   1.000000
  663       15.478601   1.000000
  664       15.478601   1.000000
  665       15.482699   1.000000
  666       15.482699   1.000000
  667       15.482702   1.000000
  668       15.482702   1.000000
  669       15.521609   1.000000
  670       15.521609   1.000000
  671       15.521639   1.000000
  672       15.521639   1.000000
  673       15.528693   1.000000
  674       15.528693   1.000000
  675       15.528698   1.000000
  676       15.528698   1.000000
  677       15.625325   1.000000
  678       15.625325   1.000000
  679       15.625327   1.000000
  680       15.625327   1.000000
  681       15.625327   1.000000
  682       15.625327   1.000000
  683       15.625330   1.000000
  684       15.625330   1.000000
  685       15.696302   1.000000
  686       15.696302   1.000000
  687       15.696302   1.000000
  688       15.696302   1.000000
  689       15.863406   1.000000
  690       15.863406   1.000000
  691       15.863406   1.000000
  692       15.863406   1.000000
  693       16.117225   1.000000
  694       16.117225   1.000000
  695       16.117225   1.000000
  696       16.117225   1.000000
  697       16.193034   1.000000
  698       16.193034   1.000000
  699       16.193058   1.000000
  700       16.193058   1.000000
  701       16.232101   1.000000
  702       16.232101   1.000000
  703       16.232101   1.000000
  704       16.232101   1.000000
  705       16.232106   1.000000
  706       16.232106   1.000000
  707       16.232106   1.000000
  708       16.232106   1.000000
  709       16.443550   1.000000
  710       16.443550   1.000000
  711       16.443572   1.000000
  712       16.443572   1.000000
  713       16.444503   1.000000
  714       16.444503   1.000000
  715       16.444506   1.000000
  716       16.444506   1.000000
  717       16.444508   1.000000
  718       16.444508   1.000000
  719       16.444510   1.000000
  720       16.444510   1.000000
  721       16.462627   1.000000
  722       16.462627   1.000000
  723       16.462631   1.000000
  724       16.462631   1.000000
  725       16.526860   1.000000
  726       16.526860   1.000000
  727       16.526884   1.000000
  728       16.526884   1.000000
  729       16.564080   1.000000
  730       16.564080   1.000000
  731       16.564109   1.000000
  732       16.564109   1.000000
  733       16.657208   1.000000
  734       16.657208   1.000000
  735       16.802890   1.000000
  736       16.802890   1.000000
  737       16.848912   1.000000
  738       16.848912   1.000000
  739       16.848920   1.000000
  740       16.848920   1.000000
  741       16.848932   1.000000
  742       16.848932   1.000000
  743       16.848940   1.000000
  744       16.848940   1.000000
  745       16.875510   1.000000
  746       16.875510   1.000000
  747       16.875510   1.000000
  748       16.875510   1.000000
  749       16.875517   1.000000
  750       16.875517   1.000000
  751       16.875517   1.000000
  752       16.875517   1.000000
  753       16.909205   1.000000
  754       16.909205   1.000000
  755       16.909208   1.000000
  756       16.909208   1.000000
  757       16.909225   1.000000
  758       16.909225   1.000000
  759       16.909228   1.000000
  760       16.909228   1.000000
  761       16.956689   1.000000
  762       16.956689   1.000000
  763       16.956710   1.000000
  764       16.956710   1.000000
  765       16.995011   1.000000
  766       16.995011   1.000000
  767       16.995016   1.000000
  768       16.995016   1.000000
  769       17.124078   1.000000
  770       17.124106   1.000000
  771       17.222994   1.000000
  772       17.222994   1.000000
  773       17.222994   1.000000
  774       17.222994   1.000000
  775       17.223017   1.000000
  776       17.223017   1.000000
  777       17.223017   1.000000
  778       17.223017   1.000000
  779       17.258455   1.000000
  780       17.258455   1.000000
  781       17.299405   1.000000
  782       17.299405   1.000000
  783       17.299432   1.000000
  784       17.299432   1.000000
  785       17.344756   1.000000
  786       17.344756   1.000000
  787       17.344756   1.000000
  788       17.344756   1.000000
  789       17.352361   1.000000
  790       17.486555   1.000000
  791       17.486555   1.000000
  792       17.486563   1.000000
  793       17.486563   1.000000
  794       17.534733   1.000000
  795       17.534733   1.000000
  796       17.537311   1.000000
  797       17.537311   1.000000
  798       17.537332   1.000000
  799       17.537332   1.000000
  800       17.537343   1.000000
  801       17.537343   1.000000
  802       17.537363   1.000000
  803       17.537363   1.000000
  804       17.597840   1.000000
  805       17.597840   1.000000
  806       17.597845   1.000000
  807       17.597845   1.000000
  808       17.597864   1.000000
  809       17.597864   1.000000
  810       17.597869   1.000000
  811       17.597869   1.000000
  812       17.667671   1.000000
  813       17.667671   1.000000
  814       17.667703   1.000000
  815       17.667703   1.000000
  816       17.732351   1.000000
  817       17.732351   1.000000
  818       17.737844   1.000000
  819       17.737844   1.000000
  820       17.737858   1.000000
  821       17.737858   1.000000
  822       17.761539   1.000000
  823       17.761539   1.000000
  824       17.761568   1.000000
  825       17.761568   1.000000
  826       17.763708   1.000000
  827       17.763708   1.000000
  828       17.763715   1.000000
  829       17.763715   1.000000
  830       17.771869   1.000000
  831       17.771869   1.000000
  832       17.771869   1.000000
  833       17.771869   1.000000
  834       17.771894   1.000000
  835       17.771894   1.000000
  836       17.771894   1.000000
  837       17.771894   1.000000
  838       17.803780   1.000000
  839       17.803780   1.000000
  840       17.803780   1.000000
  841       17.803780   1.000000
  842       17.803784   1.000000
  843       17.803784   1.000000
  844       17.803784   1.000000
  845       17.803784   1.000000
  846       17.805632   1.000000
  847       17.805634   1.000000
  848       17.821511   1.000000
  849       17.821511   1.000000
  850       17.821511   1.000000
  851       17.821511   1.000000
  852       17.821540   1.000000
  853       17.821540   1.000000
  854       17.821540   1.000000
  855       17.821540   1.000000
  856       17.967981   1.000000
  857       17.967981   1.000000
  858       17.968002   1.000000
  859       17.968002   1.000000
  860       17.968008   1.000000
  861       17.968008   1.000000
  862       17.968030   1.000000
  863       17.968030   1.000000
  864       18.093153   1.000000
  865       18.093153   1.000000
  866       18.135890   1.000000
  867       18.135890   1.000000
  868       18.135891   1.000000
  869       18.135891   1.000000
  870       18.135893   1.000000
  871       18.135893   1.000000
  872       18.135894   1.000000
  873       18.135894   1.000000
  874       18.165577   1.000000
  875       18.165577   1.000000
  876       18.165583   1.000000
  877       18.165583   1.000000
  878       18.165599   1.000000
  879       18.165599   1.000000
  880       18.165604   1.000000
  881       18.165604   1.000000
  882       18.174393   1.000000
  883       18.174393   1.000000
  884       18.174393   1.000000
  885       18.174393   1.000000
  886       18.333471   1.000000
  887       18.333471   1.000000
  888       18.333473   1.000000
  889       18.333473   1.000000
  890       18.353418   1.000000
  891       18.353418   1.000000
  892       18.353418   1.000000
  893       18.353418   1.000000
  894       18.353444   1.000000
  895       18.353444   1.000000
  896       18.353444   1.000000
  897       18.353444   1.000000
  898       18.405559   1.000000
  899       18.405559   1.000000
  900       18.405559   1.000000
  901       18.405559   1.000000