 vasp.6.2.1 16May21 (build Jun 16 2021 03:23:30) complex                         
 executed on             LinuxPGI date 2022.04.25  11:32:51
 running on    1 total cores
 distrk:  each k-point on    1 cores,    1 groups
 distr:  one band on NCORE=   1 cores,    1 groups


--------------------------------------------------------------------------------------------------------


 INCAR:
   SYSTEM = NiAl
   ISTART = 0
   EDIFF = 5E-6
   NELMIN = 6
   ISIF = 0
   IVDW = 12
   LWAVE = .FALSE.
   LCHARG = .FALSE.
   LREAL = Auto
   NCORE = 1
   LPLANE = .TRUE.
   ENCUT = 360.00 eV
   ISMEAR = 0
   SIGMA = 0.05

 POTCAR:    PAW Al_GW 19Mar2012                   
 POTCAR:    PAW O_GW 19Mar2012                    
 POTCAR:    PAW Al_GW 19Mar2012                   
   VRHFIN =Al: s2p1                                                                                 
   LEXCH  = PE                                                                                      
   EATOM  =    53.5387 eV,    3.9350 Ry                                                             
                                                                                                    
   TITEL  = PAW Al_GW 19Mar2012                                                                     
   LULTRA =        F    use ultrasoft PP ?                                                          
   IUNSCR =        1    unscreen: 0-lin 1-nonlin 2-no                                               
   RPACOR =    1.500    partial core radius                                                         
   POMASS =   26.982; ZVAL   =    3.000    mass and valenz                                          
   RCORE  =    2.000    outmost cutoff radius                                                       
   RWIGS  =    2.000; RWIGS  =    1.058    wigner-seitz radius (au A)                               
   ENMAX  =  240.300; ENMIN  =  180.225 eV                                                          
   ICORE  =        3    local potential                                                             
   LCOR   =        T    correct aug charges                                                         
   LPAW   =        T    paw PP                                                                      
   EAUG   =  482.059                                                                                
   DEXC   =    0.000                                                                                
   RMAX   =    2.051    core radius for proj-oper                                                   
   RAUG   =    1.300    factor for augmentation sphere                                              
   RDEP   =    2.096    radius for radial grids                                                     
   RDEPT  =    1.856    core radius for aug-charge                                                  
                                                                                                    
   Atomic configuration                                                                             
    7 entries                                                                                       
     n  l   j            E        occ.                                                              
     1  0  0.50     -1511.1048   2.0000                                                             
     2  0  0.50      -108.1629   2.0000                                                             
     2  1  1.50       -69.6402   6.0000                                                             
     3  0  0.50        -7.7528   2.0000                                                             
     3  1  1.50        -2.7121   1.0000                                                             
     3  2  2.50        -2.7212   0.0000                                                             
     4  3  2.50        -2.7212   0.0000                                                             
   Description                                                                                      
     l       E           TYP  RCUT    TYP  RCUT                                                     
     0     -7.7528455     23  1.900                                                                 
     0     68.0291300     23  1.900                                                                 
     1     -2.7120682     23  1.900                                                                 
     1     68.0291300     23  1.900                                                                 
     2     -1.3605826     23  1.900                                                                 
     2     81.6349560     23  1.900                                                                 
     3     74.8320430     23  2.000                                                                 
  local pseudopotential read in
  partial core-charges read in
  partial kinetic energy density read in
  kinetic energy density of atom read in
  atomic valenz-charges read in
  non local Contribution for L=            0  read in
    real space projection operators read in
  non local Contribution for L=            0  read in
    real space projection operators read in
  non local Contribution for L=            1  read in
    real space projection operators read in
  non local Contribution for L=            1  read in
    real space projection operators read in
  non local Contribution for L=            2  read in
    real space projection operators read in
  non local Contribution for L=            2  read in
    real space projection operators read in
    PAW grid and wavefunctions read in
 
   number of l-projection  operators is LMAX  =            6
   number of lm-projection operators is LMMAX =           18
 
 POTCAR:    PAW O_GW 19Mar2012                    
   VRHFIN =O: s2p4                                                                                  
   LEXCH  = PE                                                                                      
   EATOM  =   432.3788 eV,   31.7789 Ry                                                             
                                                                                                    
   TITEL  = PAW O_GW 19Mar2012                                                                      
   LULTRA =        F    use ultrasoft PP ?                                                          
   IUNSCR =        1    unscreen: 0-lin 1-nonlin 2-no                                               
   RPACOR =    0.800    partial core radius                                                         
   POMASS =   16.000; ZVAL   =    6.000    mass and valenz                                          
   RCORE  =    1.600    outmost cutoff radius                                                       
   RWIGS  =    1.600; RWIGS  =    0.847    wigner-seitz radius (au A)                               
   ENMAX  =  434.431; ENMIN  =  325.824 eV                                                          
   ICORE  =        3    local potential                                                             
   LCOR   =        T    correct aug charges                                                         
   LPAW   =        T    paw PP                                                                      
   EAUG   = 1139.609                                                                                
   DEXC   =    0.000                                                                                
   RMAX   =    1.629    core radius for proj-oper                                                   
   RAUG   =    1.300    factor for augmentation sphere                                              
   RDEP   =    1.652    radius for radial grids                                                     
   RDEPT  =    1.200    core radius for aug-charge                                                  
                                                                                                    
   Atomic configuration                                                                             
    5 entries                                                                                       
     n  l   j            E        occ.                                                              
     1  0  0.50      -514.6923   2.0000                                                             
     2  0  0.50       -23.9615   2.0000                                                             
     2  1  0.50        -9.0305   4.0000                                                             
     3  2  1.50        -9.5241   0.0000                                                             
     4  3  2.50        -9.5241   0.0000                                                             
   Description                                                                                      
     l       E           TYP  RCUT    TYP  RCUT                                                     
     0    -23.9615316     23  1.150                                                                 
     0    -25.3221142     23  1.150                                                                 
     0    244.9048680     23  1.300                                                                 
     1     -9.0304908     23  1.500                                                                 
     1     -6.9258396     23  1.500                                                                 
     1    122.4524340     23  1.500                                                                 
     2     13.6058260     23  1.500                                                                 
     2    190.4815640     23  1.600                                                                 
     3     54.4233040     23  1.400                                                                 
  local pseudopotential read in
  partial core-charges read in
  partial kinetic energy density read in
  kinetic energy density of atom read in
  atomic valenz-charges read in
  non local Contribution for L=            0  read in
    real space projection operators read in
  non local Contribution for L=            0  read in
    real space projection operators read in
  non local Contribution for L=            0  read in
    real space projection operators read in
  non local Contribution for L=            1  read in
    real space projection operators read in
  non local Contribution for L=            1  read in
    real space projection operators read in
  non local Contribution for L=            1  read in
    real space projection operators read in
  non local Contribution for L=            2  read in
    real space projection operators read in
  non local Contribution for L=            2  read in
    real space projection operators read in
    PAW grid and wavefunctions read in
 
   number of l-projection  operators is LMAX  =            8
   number of lm-projection operators is LMMAX =           22
 
 Optimization of the real space projectors (new method)

 maximal supplied QI-value         = 18.90
 optimisation between [QCUT,QGAM] = [  9.64, 19.28] = [ 26.01,104.04] Ry 
 Optimized for a Real-space Cutoff    1.46 Angstroem

   l    n(q)    QCUT    max X(q) W(low)/X(q) W(high)/X(q)  e(spline) 
   0      8     9.638    11.519    0.10E-03    0.23E-03    0.86E-07
   0      8     9.638     5.834    0.72E-04    0.17E-03    0.68E-07
   1      8     9.638    10.132    0.33E-03    0.11E-03    0.32E-06
   1      8     9.638     3.004    0.25E-03    0.10E-03    0.24E-06
   2      7     9.638     3.169    0.30E-03    0.50E-03    0.35E-06
   2      7     9.638     1.607    0.15E-03    0.13E-03    0.12E-06
 Optimization of the real space projectors (new method)

 maximal supplied QI-value         = 23.62
 optimisation between [QCUT,QGAM] = [  9.68, 19.37] = [ 26.27,105.06] Ry 
 Optimized for a Real-space Cutoff    2.14 Angstroem

   l    n(q)    QCUT    max X(q) W(low)/X(q) W(high)/X(q)  e(spline) 
   0     13     9.685   116.464    0.15E-03    0.15E-03    0.47E-05
   0     13     9.685   116.329    0.15E-03    0.15E-03    0.46E-05
   0     13     9.685     0.942    0.20E-04    0.50E-04    0.17E-05
   1     12     9.685    29.046    0.36E-03    0.11E-02    0.25E-04
   1     12     9.685    24.247    0.38E-03    0.11E-02    0.26E-04
   1     12     9.685     2.381    0.13E-03    0.38E-03    0.78E-05
   2     12     9.685     2.237    0.60E-05    0.28E-04    0.14E-05
   2     12     9.685     1.850    0.17E-04    0.70E-04    0.25E-05
  PAW Al_GW 19Mar2012                   :
 energy of atom  1       EATOM=  -53.5387
 kinetic energy error for atom=    0.0006 (will be added to EATOM!!)
  PAW O_GW 19Mar2012                    :
 energy of atom  2       EATOM= -432.3788
 kinetic energy error for atom=    0.3913 (will be added to EATOM!!)
 
 
 POSCAR: New structure
  positions in cartesian coordinates
  No initial velocities read in
 exchange correlation table for  LEXCH =        8
   RHO(1)=    0.500       N(1)  =     2000
   RHO(2)=  100.500       N(2)  =     4000

 VTST: version 4.1, (05/19/21)

 CHAIN: initializing optimizer
 
 OPT: Using VASP Dynamics algorithm
 CHAIN: Read ICHAIN             0
 
 POSCAR: New structure
  positions in cartesian coordinates
  No initial velocities read in
 


--------------------------------------------------------------------------------------------------------


 ion  position               nearest neighbor table
   1  0.444  0.444  0.079-
   2  0.444  0.778  0.079-
   3  0.444  0.111  0.079-
   4  0.778  0.444  0.079-
   5  0.778  0.778  0.079-
   6  0.778  0.111  0.079-
   7  0.111  0.444  0.079-
   8  0.111  0.778  0.079-
   9  0.111  0.111  0.079-
  10  0.556  0.556  0.157-
  11  0.556  0.889  0.157-
  12  0.556  0.222  0.157-
  13  0.889  0.556  0.157-
  14  0.889  0.889  0.157-
  15  0.889  0.222  0.157-
  16  0.222  0.556  0.157-
  17  0.222  0.889  0.157-
  18  0.222  0.222  0.157-
  19  0.667  0.667  0.234-
  20  0.667  0.000  0.234-
  21  0.667  0.333  0.234-
  22  0.000  0.667  0.234-
  23  0.000  0.000  0.234-
  24  0.000  0.333  0.234-
  25  0.333  0.667  0.234-
  26  0.333  0.000  0.234-
  27  0.333  0.333  0.234-
  28  0.778  0.778  0.312-
  29  0.778  0.111  0.312-
  30  0.778  0.444  0.312-
  31  0.111  0.778  0.312-
  32  0.111  0.111  0.312-
  33  0.111  0.444  0.312-
  34  0.444  0.778  0.312-
  35  0.444  0.111  0.312-
  36  0.444  0.444  0.312-
  37  0.889  0.889  0.390-
  38  0.889  0.222  0.390-
  39  0.889  0.556  0.390-
  40  0.222  0.889  0.390-
  41  0.222  0.222  0.390-
  42  0.222  0.556  0.390-
  43  0.556  0.889  0.390-
  44  0.556  0.222  0.390-
  45  0.556  0.556  0.390-
  46  0.000  0.000  0.466-
  47  0.000  0.333  0.466-
  48  0.000  0.667  0.466-
  49  0.333  0.000  0.466-
  50  0.333  0.333  0.466-
  51  0.333  0.667  0.466-
  52  0.667  0.000  0.466-
  53  0.667  0.333  0.466-
  54  0.667  0.667  0.466-
  55  0.111  0.111  0.545-
  56  0.111  0.444  0.545-
  57  0.111  0.778  0.545-
  58  0.444  0.111  0.545-
  59  0.444  0.444  0.545- 253 1.95 254 1.95
  60  0.444  0.778  0.545-
  61  0.778  0.111  0.545-
  62  0.778  0.444  0.545-
  63  0.778  0.778  0.545-
  64  0.278  0.278  0.079-
  65  0.278  0.611  0.079-
  66  0.278  0.944  0.079-
  67  0.611  0.278  0.079-
  68  0.611  0.611  0.079-
  69  0.611  0.944  0.079-
  70  0.944  0.278  0.079-
  71  0.944  0.611  0.079-
  72  0.944  0.944  0.079-
  73  0.389  0.389  0.157-
  74  0.389  0.722  0.157-
  75  0.389  0.056  0.157-
  76  0.722  0.389  0.157-
  77  0.722  0.722  0.157-
  78  0.722  0.056  0.157-
  79  0.056  0.389  0.157-
  80  0.056  0.722  0.157-
  81  0.056  0.056  0.157-
  82  0.500  0.500  0.234-
  83  0.500  0.833  0.234-
  84  0.500  0.167  0.234-
  85  0.833  0.500  0.234-
  86  0.833  0.833  0.234-
  87  0.833  0.167  0.234-
  88  0.167  0.500  0.234-
  89  0.167  0.833  0.234-
  90  0.167  0.167  0.234-
  91  0.611  0.611  0.312-
  92  0.611  0.944  0.312-
  93  0.611  0.278  0.312-
  94  0.944  0.611  0.312-
  95  0.944  0.944  0.312-
  96  0.944  0.278  0.312-
  97  0.278  0.611  0.312-
  98  0.278  0.944  0.312-
  99  0.278  0.278  0.312-
 100  0.722  0.722  0.390-
 101  0.722  0.056  0.390-
 102  0.722  0.389  0.390-
 103  0.056  0.722  0.390-
 104  0.056  0.056  0.390-
 105  0.056  0.389  0.390-
 106  0.389  0.722  0.390-
 107  0.389  0.056  0.390-
 108  0.389  0.389  0.390-
 109  0.833  0.833  0.466-
 110  0.833  0.167  0.466-
 111  0.833  0.500  0.466-
 112  0.167  0.833  0.466-
 113  0.167  0.167  0.466-
 114  0.167  0.500  0.466-
 115  0.500  0.833  0.466-
 116  0.500  0.167  0.466-
 117  0.500  0.500  0.466-
 118  0.944  0.944  0.545-
 119  0.944  0.278  0.545-
 120  0.944  0.611  0.545-
 121  0.278  0.944  0.545-
 122  0.278  0.278  0.545-
 123  0.278  0.611  0.545- 253 2.27
 124  0.611  0.944  0.545-
 125  0.611  0.278  0.545-
 126  0.611  0.611  0.545-
 127  0.278  0.444  0.079-
 128  0.278  0.778  0.079-
 129  0.278  0.111  0.079-
 130  0.611  0.444  0.079-
 131  0.611  0.778  0.079-
 132  0.611  0.111  0.079-
 133  0.944  0.444  0.079-
 134  0.944  0.778  0.079-
 135  0.944  0.111  0.079-
 136  0.389  0.556  0.157-
 137  0.389  0.889  0.157-
 138  0.389  0.222  0.157-
 139  0.722  0.556  0.157-
 140  0.722  0.889  0.157-
 141  0.722  0.222  0.157-
 142  0.056  0.556  0.157-
 143  0.056  0.889  0.157-
 144  0.056  0.222  0.157-
 145  0.500  0.667  0.234-
 146  0.500  0.000  0.234-
 147  0.500  0.333  0.234-
 148  0.833  0.667  0.234-
 149  0.833  0.000  0.234-
 150  0.833  0.333  0.234-
 151  0.167  0.667  0.234-
 152  0.167  0.000  0.234-
 153  0.167  0.333  0.234-
 154  0.611  0.778  0.312-
 155  0.611  0.111  0.312-
 156  0.611  0.444  0.312-
 157  0.944  0.778  0.312-
 158  0.944  0.111  0.312-
 159  0.944  0.444  0.312-
 160  0.278  0.778  0.312-
 161  0.278  0.111  0.312-
 162  0.278  0.444  0.312-
 163  0.722  0.889  0.390-
 164  0.722  0.222  0.390-
 165  0.722  0.556  0.390-
 166  0.056  0.889  0.390-
 167  0.056  0.222  0.390-
 168  0.056  0.556  0.390-
 169  0.389  0.889  0.390-
 170  0.389  0.222  0.390-
 171  0.389  0.556  0.390-
 172  0.833  0.000  0.466-
 173  0.833  0.333  0.466-
 174  0.833  0.667  0.466-
 175  0.167  0.000  0.466-
 176  0.167  0.333  0.466-
 177  0.167  0.667  0.466-
 178  0.500  0.000  0.466-
 179  0.500  0.333  0.466-
 180  0.500  0.667  0.466-
 181  0.944  0.111  0.545-
 182  0.944  0.444  0.545-
 183  0.944  0.778  0.545-
 184  0.278  0.111  0.545-
 185  0.278  0.444  0.545- 253 1.95 254 1.95
 186  0.278  0.778  0.545-
 187  0.611  0.111  0.545-
 188  0.611  0.444  0.545-
 189  0.611  0.778  0.545-
 190  0.444  0.278  0.079-
 191  0.444  0.611  0.079-
 192  0.444  0.944  0.079-
 193  0.778  0.278  0.079-
 194  0.778  0.611  0.079-
 195  0.778  0.944  0.079-
 196  0.111  0.278  0.079-
 197  0.111  0.611  0.079-
 198  0.111  0.944  0.079-
 199  0.556  0.389  0.157-
 200  0.556  0.722  0.157-
 201  0.556  0.056  0.157-
 202  0.889  0.389  0.157-
 203  0.889  0.722  0.157-
 204  0.889  0.056  0.157-
 205  0.222  0.389  0.157-
 206  0.222  0.722  0.157-
 207  0.222  0.056  0.157-
 208  0.667  0.500  0.234-
 209  0.667  0.833  0.234-
 210  0.667  0.167  0.234-
 211  1.000  0.500  0.234-
 212  1.000  0.833  0.234-
 213  1.000  0.167  0.234-
 214  0.333  0.500  0.234-
 215  0.333  0.833  0.234-
 216  0.333  0.167  0.234-
 217  0.778  0.611  0.312-
 218  0.778  0.944  0.312-
 219  0.778  0.278  0.312-
 220  0.111  0.611  0.312-
 221  0.111  0.944  0.312-
 222  0.111  0.278  0.312-
 223  0.444  0.611  0.312-
 224  0.444  0.944  0.312-
 225  0.444  0.278  0.312-
 226  0.889  0.722  0.390-
 227  0.889  0.056  0.390-
 228  0.889  0.389  0.390-
 229  0.222  0.722  0.390-
 230  0.222  0.056  0.390-
 231  0.222  0.389  0.390-
 232  0.556  0.722  0.390-
 233  0.556  0.056  0.390-
 234  0.556  0.389  0.390-
 235  1.000  0.833  0.466-
 236  1.000  0.167  0.466-
 237  1.000  0.500  0.466-
 238  0.333  0.833  0.466-
 239  0.333  0.167  0.466-
 240  0.333  0.500  0.466-
 241  0.667  0.833  0.466-
 242  0.667  0.167  0.466-
 243  0.667  0.500  0.466-
 244  0.111  0.944  0.545-
 245  0.111  0.278  0.545-
 246  0.111  0.611  0.545-
 247  0.444  0.944  0.545-
 248  0.444  0.278  0.545- 254 2.27
 249  0.444  0.611  0.545-
 250  0.778  0.944  0.545-
 251  0.778  0.278  0.545-
 252  0.778  0.611  0.545-
 253  0.343  0.481  0.585- 254 1.10 185 1.95  59 1.95 123 2.27
 254  0.380  0.407  0.585- 253 1.10 185 1.95  59 1.95 248 2.27
 
  LATTYP: Found a hexagonal cell.
 ALAT       =    17.1805734625
 C/A-ratio  =     1.7461582447
  
  Lattice vectors:
  
 A1 = (   0.0000000000,   8.5902867312,  14.8788130701)
 A2 = (   0.0000000000, -17.1805734625,   0.0000000000)
 A3 = (  30.0000000000,   0.0000000000,   0.0000000000)


Analysis of symmetry for initial positions (statically):
=====================================================================
 Subroutine PRICEL returns:
 Original cell was already a primitive cell.
 

 Routine SETGRP: Setting up the symmetry group for a 
 hexagonal supercell.


 Subroutine GETGRP returns: Found  2 space group operations
 (whereof  1 operations were pure point group operations)
 out of a pool of 24 trial point group operations.


The static configuration has the point symmetry C_1 .
 The point group associated with its full space group is C_1h.


Analysis of symmetry for dynamics (positions and initial velocities):
=====================================================================
 Subroutine PRICEL returns:
 Original cell was already a primitive cell.
 

 Routine SETGRP: Setting up the symmetry group for a 
 hexagonal supercell.


 Subroutine GETGRP returns: Found  2 space group operations
 (whereof  1 operations were pure point group operations)
 out of a pool of 24 trial point group operations.


The dynamic configuration has the point symmetry C_1 .
 The point group associated with its full space group is C_1h.


 Subroutine INISYM returns: Found  2 space group operations
 (whereof  1 operations are pure point group operations),
 and found     1 'primitive' translations


----------------------------------------------------------------------------------------

                                     Primitive cell                                     

  volume of cell :    7668.7962

  direct lattice vectors                    reciprocal lattice vectors
     0.000000000-17.180573462  0.000000000     0.000000000 -0.058205275  0.033604831
     0.000000000 -8.590286731-14.878813070     0.000000000  0.000000000 -0.067209662
    30.000000000  0.000000000  0.000000000     0.033333333  0.000000000  0.000000000

  length of vectors
    17.180573462 17.180573462 30.000000000     0.067209662  0.067209662  0.033333333

  position of ions in fractional coordinates (direct lattice)
     0.444444557  0.444444726  0.078734667
     0.444444185  0.777777767  0.078734667
     0.444444684  0.111111014  0.078734667
     0.777777435  0.444444726  0.078734667
     0.777777645  0.777777767  0.078734667
     0.777777562  0.111111014  0.078734667
     0.111111097  0.444444726  0.078734667
     0.111111307  0.777777767  0.078734667
     0.111111223  0.111111014  0.078734667
     0.555555199  0.555555740  0.157026000
     0.555555408  0.888888780  0.157026000
     0.555555907  0.222222027  0.157026000
     0.888888659  0.555555740  0.157026000
     0.888888869  0.888888780  0.157026000
     0.888888785  0.222222027  0.157026000
     0.222222320  0.555555740  0.157026000
     0.222222530  0.888888780  0.157026000
     0.222222447  0.222222027  0.157026000
     0.666666422  0.666666753  0.233757333
     0.666666920  0.000000000  0.233757333
     0.666666548  0.333333041  0.233757333
     0.000000084  0.666666753  0.233757333
     0.000000000  0.000000000  0.233757333
     0.000000210  0.333333041  0.233757333
     0.333333544  0.666666753  0.233757333
     0.333333460  0.000000000  0.233757333
     0.333333670  0.333333041  0.233757333
     0.777777645  0.777777767  0.311730667
     0.777777562  0.111111014  0.311730667
     0.777777435  0.444444726  0.311730667
     0.111111307  0.777777767  0.311730667
     0.111111223  0.111111014  0.311730667
     0.111111097  0.444444726  0.311730667
     0.444444185  0.777777767  0.311730667
     0.444444684  0.111111014  0.311730667
     0.444444557  0.444444726  0.311730667
     0.888888869  0.888888780  0.389704000
     0.888888785  0.222222027  0.389704000
     0.888888659  0.555555740  0.389704000
     0.222222530  0.888888780  0.389704000
     0.222222447  0.222222027  0.389704000
     0.222222320  0.555555740  0.389704000
     0.555555408  0.888888780  0.389704000
     0.555555907  0.222222027  0.389704000
     0.555555199  0.555555740  0.389704000
     0.000000000  0.000000000  0.466435333
     0.000000210  0.333333041  0.466435333
     0.000000084  0.666666753  0.466435333
     0.333333460  0.000000000  0.466435333
     0.333333670  0.333333041  0.466435333
     0.333333544  0.666666753  0.466435333
     0.666666920  0.000000000  0.466435333
     0.666666548  0.333333041  0.466435333
     0.666666422  0.666666753  0.466435333
     0.111111223  0.111111014  0.544726667
     0.111111097  0.444444726  0.544726667
     0.111111307  0.777777767  0.544726667
     0.444444684  0.111111014  0.544726667
     0.444444557  0.444444726  0.544726667
     0.444444185  0.777777767  0.544726667
     0.777777562  0.111111014  0.544726667
     0.777777435  0.444444726  0.544726667
     0.777777645  0.777777767  0.544726667
     0.277777767  0.277777534  0.078734667
     0.277777641  0.611111246  0.078734667
     0.277777851  0.944444287  0.078734667
     0.611111227  0.277777534  0.078734667
     0.611111101  0.611111246  0.078734667
     0.611111311  0.944444287  0.078734667
     0.944444688  0.277777534  0.078734667
     0.944444561  0.611111246  0.078734667
     0.944444771  0.944444287  0.078734667
     0.388888655  0.388889219  0.157026000
     0.388888864  0.722222260  0.157026000
     0.388888781  0.055555507  0.157026000
     0.722222115  0.388889219  0.157026000
     0.722222325  0.722222260  0.157026000
     0.722222241  0.055555507  0.157026000
     0.055555194  0.388889219  0.157026000
     0.055555404  0.722222260  0.157026000
     0.055555321  0.055555507  0.157026000
     0.499999878  0.500000233  0.233757333
     0.500000088  0.833333273  0.233757333
     0.500000004  0.166666520  0.233757333
     0.833333338  0.500000233  0.233757333
     0.833333548  0.833333273  0.233757333
     0.833333464  0.166666520  0.233757333
     0.166666418  0.500000233  0.233757333
     0.166666628  0.833333273  0.233757333
     0.166666544  0.166666520  0.233757333
     0.611111101  0.611111246  0.311730667
     0.611111311  0.944444287  0.311730667
     0.611111227  0.277777534  0.311730667
     0.944444561  0.611111246  0.311730667
     0.944444771  0.944444287  0.311730667
     0.944444688  0.277777534  0.311730667
     0.277777641  0.611111246  0.311730667
     0.277777851  0.944444287  0.311730667
     0.277777767  0.277777534  0.311730667
     0.722222325  0.722222260  0.389704000
     0.722222241  0.055555507  0.389704000
     0.722222115  0.388889219  0.389704000
     0.055555404  0.722222260  0.389704000
     0.055555321  0.055555507  0.389704000
     0.055555194  0.388889219  0.389704000
     0.388888864  0.722222260  0.389704000
     0.388888781  0.055555507  0.389704000
     0.388888655  0.388889219  0.389704000
     0.833333548  0.833333273  0.466435333
     0.833333464  0.166666520  0.466435333
     0.833333338  0.500000233  0.466435333
     0.166666628  0.833333273  0.466435333
     0.166666544  0.166666520  0.466435333
     0.166666418  0.500000233  0.466435333
     0.500000088  0.833333273  0.466435333
     0.500000004  0.166666520  0.466435333
     0.499999878  0.500000233  0.466435333
     0.944444771  0.944444287  0.544726667
     0.944444688  0.277777534  0.544726667
     0.944444561  0.611111246  0.544726667
     0.277777851  0.944444287  0.544726667
     0.277777767  0.277777534  0.544726667
     0.277777641  0.611111246  0.544726667
     0.611111311  0.944444287  0.544726667
     0.611111227  0.277777534  0.544726667
     0.611111101  0.611111246  0.544726667
     0.277777827  0.444444726  0.078734667
     0.277778037  0.777777767  0.078734667
     0.277777953  0.111111014  0.078734667
     0.611110705  0.444444726  0.078734667
     0.611110915  0.777777767  0.078734667
     0.611111414  0.111111014  0.078734667
     0.944444165  0.444444726  0.078734667
     0.944444375  0.777777767  0.078734667
     0.944444292  0.111111014  0.078734667
     0.388889051  0.555555740  0.157026000
     0.388888678  0.888888780  0.157026000
     0.388889177  0.222222027  0.157026000
     0.722221929  0.555555740  0.157026000
     0.722222138  0.888888780  0.157026000
     0.722222055  0.222222027  0.157026000
     0.055555590  0.555555740  0.157026000
     0.055555800  0.888888780  0.157026000
     0.055555717  0.222222027  0.157026000
     0.499999692  0.666666753  0.233757333
     0.500000190  0.000000000  0.233757333
     0.500000400  0.333333041  0.233757333
     0.833333152  0.666666753  0.233757333
     0.833333068  0.000000000  0.233757333
     0.833333278  0.333333041  0.233757333
     0.166666814  0.666666753  0.233757333
     0.166666730  0.000000000  0.233757333
     0.166666940  0.333333041  0.233757333
     0.611110915  0.777777767  0.311730667
     0.611111414  0.111111014  0.311730667
     0.611110705  0.444444726  0.311730667
     0.944444375  0.777777767  0.311730667
     0.944444292  0.111111014  0.311730667
     0.944444165  0.444444726  0.311730667
     0.277778037  0.777777767  0.311730667
     0.277777953  0.111111014  0.311730667
     0.277777827  0.444444726  0.311730667
     0.722222138  0.888888780  0.389704000
     0.722222055  0.222222027  0.389704000
     0.722221929  0.555555740  0.389704000
     0.055555800  0.888888780  0.389704000
     0.055555717  0.222222027  0.389704000
     0.055555590  0.555555740  0.389704000
     0.388888678  0.888888780  0.389704000
     0.388889177  0.222222027  0.389704000
     0.388889051  0.555555740  0.389704000
     0.833333068  0.000000000  0.466435333
     0.833333278  0.333333041  0.466435333
     0.833333152  0.666666753  0.466435333
     0.166666730  0.000000000  0.466435333
     0.166666940  0.333333041  0.466435333
     0.166666814  0.666666753  0.466435333
     0.500000190  0.000000000  0.466435333
     0.500000400  0.333333041  0.466435333
     0.499999692  0.666666753  0.466435333
     0.944444292  0.111111014  0.544726667
     0.944444165  0.444444726  0.544726667
     0.944444375  0.777777767  0.544726667
     0.277777953  0.111111014  0.544726667
     0.277777827  0.444444726  0.544726667
     0.277778037  0.777777767  0.544726667
     0.611111414  0.111111014  0.544726667
     0.611110705  0.444444726  0.544726667
     0.611110915  0.777777767  0.544726667
     0.444444497  0.277777534  0.078734667
     0.444444371  0.611111246  0.078734667
     0.444444581  0.944444287  0.078734667
     0.777777958  0.277777534  0.078734667
     0.777777831  0.611111246  0.078734667
     0.777778041  0.944444287  0.078734667
     0.111111037  0.277777534  0.078734667
     0.111110911  0.611111246  0.078734667
     0.111111121  0.944444287  0.078734667
     0.555555385  0.388889219  0.157026000
     0.555555595  0.722222260  0.157026000
     0.555555511  0.055555507  0.157026000
     0.888888845  0.388889219  0.157026000
     0.888889055  0.722222260  0.157026000
     0.888888971  0.055555507  0.157026000
     0.222221925  0.388889219  0.157026000
     0.222222134  0.722222260  0.157026000
     0.222222051  0.055555507  0.157026000
     0.666666608  0.500000233  0.233757333
     0.666666818  0.833333273  0.233757333
     0.666666734  0.166666520  0.233757333
     0.999999688  0.500000233  0.233757333
     0.999999897  0.833333273  0.233757333
     0.999999814  0.166666520  0.233757333
     0.333333148  0.500000233  0.233757333
     0.333333358  0.833333273  0.233757333
     0.333333274  0.166666520  0.233757333
     0.777777831  0.611111246  0.311730667
     0.777778041  0.944444287  0.311730667
     0.777777958  0.277777534  0.311730667
     0.111110911  0.611111246  0.311730667
     0.111111121  0.944444287  0.311730667
     0.111111037  0.277777534  0.311730667
     0.444444371  0.611111246  0.311730667
     0.444444581  0.944444287  0.311730667
     0.444444497  0.277777534  0.311730667
     0.888889055  0.722222260  0.389704000
     0.888888971  0.055555507  0.389704000
     0.888888845  0.388889219  0.389704000
     0.222222134  0.722222260  0.389704000
     0.222222051  0.055555507  0.389704000
     0.222221925  0.388889219  0.389704000
     0.555555595  0.722222260  0.389704000
     0.555555511  0.055555507  0.389704000
     0.555555385  0.388889219  0.389704000
     0.999999897  0.833333273  0.466435333
     0.999999814  0.166666520  0.466435333
     0.999999688  0.500000233  0.466435333
     0.333333358  0.833333273  0.466435333
     0.333333274  0.166666520  0.466435333
     0.333333148  0.500000233  0.466435333
     0.666666818  0.833333273  0.466435333
     0.666666734  0.166666520  0.466435333
     0.666666608  0.500000233  0.466435333
     0.111111121  0.944444287  0.544726667
     0.111111037  0.277777534  0.544726667
     0.111110911  0.611111246  0.544726667
     0.444444581  0.944444287  0.544726667
     0.444444497  0.277777534  0.544726667
     0.444444371  0.611111246  0.544726667
     0.777778041  0.944444287  0.544726667
     0.777777958  0.277777534  0.544726667
     0.777777831  0.611111246  0.544726667
     0.342722674  0.481221181  0.584666667
     0.379587367  0.407492182  0.584666667

  ion indices of the primitive-cell ions
   primitive index   ion index
                 1           1
                 2           2
                 3           3
                 4           4
                 5           5
                 6           6
                 7           7
                 8           8
                 9           9
                10          10
                11          11
                12          12
                13          13
                14          14
                15          15
                16          16
                17          17
                18          18
                19          19
                20          20
                21          21
                22          22
                23          23
                24          24
                25          25
                26          26
                27          27
                28          28
                29          29
                30          30
                31          31
                32          32
                33          33
                34          34
                35          35
                36          36
                37          37
                38          38
                39          39
                40          40
                41          41
                42          42
                43          43
                44          44
                45          45
                46          46
                47          47
                48          48
                49          49
                50          50
                51          51
                52          52
                53          53
                54          54
                55          55
                56          56
                57          57
                58          58
                59          59
                60          60
                61          61
                62          62
                63          63
                64          64
                65          65
                66          66
                67          67
                68          68
                69          69
                70          70
                71          71
                72          72
                73          73
                74          74
                75          75
                76          76
                77          77
                78          78
                79          79
                80          80
                81          81
                82          82
                83          83
                84          84
                85          85
                86          86
                87          87
                88          88
                89          89
                90          90
                91          91
                92          92
                93          93
                94          94
                95          95
                96          96
                97          97
                98          98
                99          99
               100         100
               101         101
               102         102
               103         103
               104         104
               105         105
               106         106
               107         107
               108         108
               109         109
               110         110
               111         111
               112         112
               113         113
               114         114
               115         115
               116         116
               117         117
               118         118
               119         119
               120         120
               121         121
               122         122
               123         123
               124         124
               125         125
               126         126
               127         127
               128         128
               129         129
               130         130
               131         131
               132         132
               133         133
               134         134
               135         135
               136         136
               137         137
               138         138
               139         139
               140         140
               141         141
               142         142
               143         143
               144         144
               145         145
               146         146
               147         147
               148         148
               149         149
               150         150
               151         151
               152         152
               153         153
               154         154
               155         155
               156         156
               157         157
               158         158
               159         159
               160         160
               161         161
               162         162
               163         163
               164         164
               165         165
               166         166
               167         167
               168         168
               169         169
               170         170
               171         171
               172         172
               173         173
               174         174
               175         175
               176         176
               177         177
               178         178
               179         179
               180         180
               181         181
               182         182
               183         183
               184         184
               185         185
               186         186
               187         187
               188         188
               189         189
               190         190
               191         191
               192         192
               193         193
               194         194
               195         195
               196         196
               197         197
               198         198
               199         199
               200         200
               201         201
               202         202
               203         203
               204         204
               205         205
               206         206
               207         207
               208         208
               209         209
               210         210
               211         211
               212         212
               213         213
               214         214
               215         215
               216         216
               217         217
               218         218
               219         219
               220         220
               221         221
               222         222
               223         223
               224         224
               225         225
               226         226
               227         227
               228         228
               229         229
               230         230
               231         231
               232         232
               233         233
               234         234
               235         235
               236         236
               237         237
               238         238
               239         239
               240         240
               241         241
               242         242
               243         243
               244         244
               245         245
               246         246
               247         247
               248         248
               249         249
               250         250
               251         251
               252         252
               253         253
               254         254

----------------------------------------------------------------------------------------

 
 
 KPOINTS: Automatic generation                    

Automatic generation of k-mesh.
 Grid dimensions read from file:
 generate k-points for:    2    2    1

 Generating k-lattice:

  Cartesian coordinates                     Fractional coordinates (reciprocal lattice)
     0.000000000 -0.029102637  0.016802416     0.500000000  0.000000000  0.000000000
     0.000000000  0.000000000 -0.033604831     0.000000000  0.500000000  0.000000000
     0.033333333  0.000000000  0.000000000     0.000000000  0.000000000  1.000000000

  Length of vectors
     0.033604831  0.033604831  0.033333333

  Shift w.r.t. Gamma in fractional coordinates (k-lattice)
     0.000000000  0.000000000  0.000000000

 
 Subroutine IBZKPT returns following result:
 ===========================================
 
 Found      3 irreducible k-points:
 
 Following reciprocal coordinates:
            Coordinates               Weight
  0.000000  0.000000  0.000000      1.000000
  0.500000  0.000000  0.000000      2.000000
  0.000000  0.500000  0.000000      1.000000
 
 Following cartesian coordinates:
            Coordinates               Weight
  0.000000 -0.000000 -0.000000      1.000000
  0.000000 -0.029103  0.016802      2.000000
  0.000000 -0.000000 -0.033605      1.000000
 


--------------------------------------------------------------------------------------------------------




 Dimension of arrays:
   k-points           NKPTS =      3   k-points in BZ     NKDIM =      3   number of bands    NBANDS=    512
   number of dos      NEDOS =    301   number of ions     NIONS =    254
   non local maximal  LDIM  =      8   non local SUM 2l+1 LMDIM =     22
   total plane-waves  NPLWV = 896000
   max r-space proj   IRMAX =   4826   max aug-charges    IRDMAX=   4746
   dimension x,y,z NGX =    80 NGY =   80 NGZ =  140
   dimension x,y,z NGXF=   160 NGYF=  160 NGZF=  280
   support grid    NGXF=   160 NGYF=  160 NGZF=  280
   ions per type =             252   2
   NGX,Y,Z   is equivalent  to a cutoff of   7.74,  7.74,  7.76 a.u.
   NGXF,Y,Z  is equivalent  to a cutoff of  15.48, 15.48, 15.52 a.u.

 SYSTEM =  NiAl                                    
 POSCAR =  New structure                           

 Startparameter for this run:
   NWRITE =      2    write-flag & timer
   PREC   = normal    normal or accurate (medium, high low for compatibility)
   ISTART =      0    job   : 0-new  1-cont  2-samecut
   ICHARG =      2    charge: 1-file 2-atom 10-const
   ISPIN  =      1    spin polarized calculation?
   LNONCOLLINEAR =      F non collinear calculations
   LSORBIT =      F    spin-orbit coupling
   INIWAV =      1    electr: 0-lowe 1-rand  2-diag
   LASPH  =      F    aspherical Exc in radial PAW
 Electronic Relaxation 1
   ENCUT  =  360.0 eV  26.46 Ry    5.14 a.u.  26.58 26.58 46.41*2*pi/ulx,y,z
   ENINI  =  360.0     initial cutoff
   ENAUG  = 1139.6 eV  augmentation charge cutoff
   NELM   =     60;   NELMIN=  6; NELMDL= -5     # of ELM steps 
   EDIFF  = 0.5E-05   stopping-criterion for ELM
   LREAL  =      T    real-space projection
   NLSPLINE    = F    spline interpolate recip. space projectors
   LCOMPAT=      F    compatible to vasp.4.4
   GGA_COMPAT  = T    GGA compatible to vasp.4.4-vasp.4.6
   LMAXPAW     = -100 max onsite density
   LMAXMIX     =    2 max onsite mixed and CHGCAR
   VOSKOWN=      0    Vosko Wilk Nusair interpolation
   ROPT   =   -0.00050  -0.00050
 Ionic relaxation
   EDIFFG = 0.5E-04   stopping-criterion for IOM
   NSW    =      0    number of steps for IOM
   NBLOCK =      1;   KBLOCK =      1    inner block; outer block 
   IBRION =     -1    ionic relax: 0-MD 1-quasi-New 2-CG
   NFREE  =      0    steps in history (QN), initial steepest desc. (CG)
   ISIF   =      0    stress and relaxation
   IWAVPR =     10    prediction:  0-non 1-charg 2-wave 3-comb
   ISYM   =      2    0-nonsym 1-usesym 2-fastsym
   LCORR  =      T    Harris-Foulkes like correction to forces

   POTIM  = 0.5000    time-step for ionic-motion
   TEIN   =    0.0    initial temperature
   TEBEG  =    0.0;   TEEND  =   0.0 temperature during run
   SMASS  =  -3.00    Nose mass-parameter (am)
   estimated Nose-frequenzy (Omega)   =  0.10E-29 period in steps = 0.13E+47 mass=  -0.675E-26a.u.
   SCALEE = 1.0000    scale energy and forces
   NPACO  =    256;   APACO  = 16.0  distance and # of slots for P.C.
   PSTRESS=    0.0 pullay stress

  Mass of Ions in am
   POMASS =  26.98 16.00
  Ionic Valenz
   ZVAL   =   3.00  6.00
  Atomic Wigner-Seitz radii
   RWIGS  =  -1.00 -1.00
  virtual crystal weights 
   VCA    =   1.00  1.00
   NELECT =     768.0000    total number of electrons
   NUPDOWN=      -1.0000    fix difference up-down

 DOS related values:
   EMIN   =  10.00;   EMAX   =-10.00  energy-range for DOS
   EFERMI =   0.00
   ISMEAR =     0;   SIGMA  =   0.05  broadening in eV -4-tet -1-fermi 0-gaus

 Electronic relaxation 2 (details)
   IALGO  =     38    algorithm
   LDIAG  =      T    sub-space diagonalisation (order eigenvalues)
   LSUBROT=      F    optimize rotation matrix (better conditioning)
   TURBO    =      0    0=normal 1=particle mesh
   IRESTART =      0    0=no restart 2=restart with 2 vectors
   NREBOOT  =      0    no. of reboots
   NMIN     =      0    reboot dimension
   EREF     =   0.00    reference energy to select bands
   IMIX   =      4    mixing-type and parameters
     AMIX     =   0.40;   BMIX     =  1.00
     AMIX_MAG =   1.60;   BMIX_MAG =  1.00
     AMIN     =   0.10
     WC   =   100.;   INIMIX=   1;  MIXPRE=   1;  MAXMIX= -45

 Intra band minimization:
   WEIMIN = 0.0000     energy-eigenvalue tresh-hold
   EBREAK =  0.24E-08  absolut break condition
   DEPER  =   0.30     relativ break condition  

   TIME   =   0.40     timestep for ELM

  volume/ion in A,a.u.               =      30.19       203.75
  Fermi-wavevector in a.u.,A,eV,Ry     =   0.760244  1.436652  7.863766  0.577971
  Thomas-Fermi vector in A             =   1.859218
 
 Write flags
   LWAVE        =      F    write WAVECAR
   LDOWNSAMPLE  =      F    k-point downsampling of WAVECAR
   LCHARG       =      F    write CHGCAR
   LVTOT        =      F    write LOCPOT, total local potential
   LVHAR        =      F    write LOCPOT, Hartree potential only
   LELF         =      F    write electronic localiz. function (ELF)
   LORBIT       =      0    0 simple, 1 ext, 2 COOP (PROOUT), +10 PAW based schemes


 Dipole corrections
   LMONO  =      F    monopole corrections only (constant potential shift)
   LDIPOL =      F    correct potential (dipole corrections)
   IDIPOL =      0    1-x, 2-y, 3-z, 4-all directions 
   EPSILON=  1.0000000 bulk dielectric constant

 Exchange correlation treatment:
   GGA     =    --    GGA type
   LEXCH   =     8    internal setting for exchange type
   VOSKOWN=      0    Vosko Wilk Nusair interpolation
   LHFCALC =     F    Hartree Fock is set to
   LHFONE  =     F    Hartree Fock one center treatment
   AEXX    =    0.0000 exact exchange contribution

 Linear response parameters
   LEPSILON=     F    determine dielectric tensor
   LRPA    =     F    only Hartree local field effects (RPA)
   LNABLA  =     F    use nabla operator in PAW spheres
   LVEL    =     F    velocity operator in full k-point grid
   LINTERFAST=   F  fast interpolation
   KINTER  =     0    interpolate to denser k-point grid
   CSHIFT  =0.1000    complex shift for real part using Kramers Kronig
   OMEGAMAX=  -1.0    maximum frequency
   DEG_THRESHOLD= 0.2000000E-02 threshold for treating states as degnerate
   RTIME   =   -0.100 relaxation time in fs
  (WPLASMAI=    0.000 imaginary part of plasma frequency in eV, 0.658/RTIME)
   DFIELD  = 0.0000000 0.0000000 0.0000000 field for delta impulse in time
 
 Orbital magnetization related:
   ORBITALMAG=     F  switch on orbital magnetization
   LCHIMAG   =     F  perturbation theory with respect to B field
   DQ        =  0.001000  dq finite difference perturbation B field
   LLRAUG    =     F  two centre corrections for induced B field



--------------------------------------------------------------------------------------------------------


 Static calculation
 charge density and potential will be updated during run
 non-spin polarized calculation
 Variant of blocked Davidson
 Davidson routine will perform the subspace rotation
 perform sub-space diagonalisation
    after iterative eigenvector-optimisation
 modified Broyden-mixing scheme, WC =      100.0
 initial mixing is a Kerker type mixing with AMIX =  0.4000 and BMIX =      1.0000
 Hartree-type preconditioning will be used
 using additional bands           128
 real space projection scheme for non local part
 use partial core corrections
 calculate Harris-corrections to forces 
   (improved forces if not selfconsistent)
 use gradient corrections 
 use of overlap-Matrix (Vanderbilt PP)
 Gauss-broadening in eV      SIGMA  =   0.05


--------------------------------------------------------------------------------------------------------


  energy-cutoff  :      360.00
  volume of cell :     7668.80
      direct lattice vectors                 reciprocal lattice vectors
     0.000000000-17.180573462  0.000000000     0.000000000 -0.058205275  0.033604831
     0.000000000 -8.590286731-14.878813070     0.000000000  0.000000000 -0.067209662
    30.000000000  0.000000000  0.000000000     0.033333333  0.000000000  0.000000000

  length of vectors
    17.180573462 17.180573462 30.000000000     0.067209662  0.067209662  0.033333333


 
 k-points in units of 2pi/SCALE and weight: Automatic generation                    
   0.00000000 -0.00000000 -0.00000000       0.250
   0.00000000 -0.02910264  0.01680242       0.500
   0.00000000 -0.00000000 -0.03360483       0.250
 
 k-points in reciprocal lattice and weights: Automatic generation                    
   0.00000000  0.00000000  0.00000000       0.250
   0.50000000  0.00000000  0.00000000       0.500
   0.00000000  0.50000000  0.00000000       0.250
 
 position of ions in fractional coordinates (direct lattice) 
   0.44444456  0.44444473  0.07873467
   0.44444419  0.77777777  0.07873467
   0.44444468  0.11111101  0.07873467
   0.77777744  0.44444473  0.07873467
   0.77777765  0.77777777  0.07873467
   0.77777756  0.11111101  0.07873467
   0.11111110  0.44444473  0.07873467
   0.11111131  0.77777777  0.07873467
   0.11111122  0.11111101  0.07873467
   0.55555520  0.55555574  0.15702600
   0.55555541  0.88888878  0.15702600
   0.55555591  0.22222203  0.15702600
   0.88888866  0.55555574  0.15702600
   0.88888887  0.88888878  0.15702600
   0.88888878  0.22222203  0.15702600
   0.22222232  0.55555574  0.15702600
   0.22222253  0.88888878  0.15702600
   0.22222245  0.22222203  0.15702600
   0.66666642  0.66666675  0.23375733
   0.66666692  0.00000000  0.23375733
   0.66666655  0.33333304  0.23375733
   0.00000008  0.66666675  0.23375733
   0.00000000  0.00000000  0.23375733
   0.00000021  0.33333304  0.23375733
   0.33333354  0.66666675  0.23375733
   0.33333346  0.00000000  0.23375733
   0.33333367  0.33333304  0.23375733
   0.77777765  0.77777777  0.31173067
   0.77777756  0.11111101  0.31173067
   0.77777744  0.44444473  0.31173067
   0.11111131  0.77777777  0.31173067
   0.11111122  0.11111101  0.31173067
   0.11111110  0.44444473  0.31173067
   0.44444419  0.77777777  0.31173067
   0.44444468  0.11111101  0.31173067
   0.44444456  0.44444473  0.31173067
   0.88888887  0.88888878  0.38970400
   0.88888878  0.22222203  0.38970400
   0.88888866  0.55555574  0.38970400
   0.22222253  0.88888878  0.38970400
   0.22222245  0.22222203  0.38970400
   0.22222232  0.55555574  0.38970400
   0.55555541  0.88888878  0.38970400
   0.55555591  0.22222203  0.38970400
   0.55555520  0.55555574  0.38970400
   0.00000000  0.00000000  0.46643533
   0.00000021  0.33333304  0.46643533
   0.00000008  0.66666675  0.46643533
   0.33333346  0.00000000  0.46643533
   0.33333367  0.33333304  0.46643533
   0.33333354  0.66666675  0.46643533
   0.66666692  0.00000000  0.46643533
   0.66666655  0.33333304  0.46643533
   0.66666642  0.66666675  0.46643533
   0.11111122  0.11111101  0.54472667
   0.11111110  0.44444473  0.54472667
   0.11111131  0.77777777  0.54472667
   0.44444468  0.11111101  0.54472667
   0.44444456  0.44444473  0.54472667
   0.44444419  0.77777777  0.54472667
   0.77777756  0.11111101  0.54472667
   0.77777744  0.44444473  0.54472667
   0.77777765  0.77777777  0.54472667
   0.27777777  0.27777753  0.07873467
   0.27777764  0.61111125  0.07873467
   0.27777785  0.94444429  0.07873467
   0.61111123  0.27777753  0.07873467
   0.61111110  0.61111125  0.07873467
   0.61111131  0.94444429  0.07873467
   0.94444469  0.27777753  0.07873467
   0.94444456  0.61111125  0.07873467
   0.94444477  0.94444429  0.07873467
   0.38888865  0.38888922  0.15702600
   0.38888886  0.72222226  0.15702600
   0.38888878  0.05555551  0.15702600
   0.72222211  0.38888922  0.15702600
   0.72222232  0.72222226  0.15702600
   0.72222224  0.05555551  0.15702600
   0.05555519  0.38888922  0.15702600
   0.05555540  0.72222226  0.15702600
   0.05555532  0.05555551  0.15702600
   0.49999988  0.50000023  0.23375733
   0.50000009  0.83333327  0.23375733
   0.50000000  0.16666652  0.23375733
   0.83333334  0.50000023  0.23375733
   0.83333355  0.83333327  0.23375733
   0.83333346  0.16666652  0.23375733
   0.16666642  0.50000023  0.23375733
   0.16666663  0.83333327  0.23375733
   0.16666654  0.16666652  0.23375733
   0.61111110  0.61111125  0.31173067
   0.61111131  0.94444429  0.31173067
   0.61111123  0.27777753  0.31173067
   0.94444456  0.61111125  0.31173067
   0.94444477  0.94444429  0.31173067
   0.94444469  0.27777753  0.31173067
   0.27777764  0.61111125  0.31173067
   0.27777785  0.94444429  0.31173067
   0.27777777  0.27777753  0.31173067
   0.72222232  0.72222226  0.38970400
   0.72222224  0.05555551  0.38970400
   0.72222211  0.38888922  0.38970400
   0.05555540  0.72222226  0.38970400
   0.05555532  0.05555551  0.38970400
   0.05555519  0.38888922  0.38970400
   0.38888886  0.72222226  0.38970400
   0.38888878  0.05555551  0.38970400
   0.38888865  0.38888922  0.38970400
   0.83333355  0.83333327  0.46643533
   0.83333346  0.16666652  0.46643533
   0.83333334  0.50000023  0.46643533
   0.16666663  0.83333327  0.46643533
   0.16666654  0.16666652  0.46643533
   0.16666642  0.50000023  0.46643533
   0.50000009  0.83333327  0.46643533
   0.50000000  0.16666652  0.46643533
   0.49999988  0.50000023  0.46643533
   0.94444477  0.94444429  0.54472667
   0.94444469  0.27777753  0.54472667
   0.94444456  0.61111125  0.54472667
   0.27777785  0.94444429  0.54472667
   0.27777777  0.27777753  0.54472667
   0.27777764  0.61111125  0.54472667
   0.61111131  0.94444429  0.54472667
   0.61111123  0.27777753  0.54472667
   0.61111110  0.61111125  0.54472667
   0.27777783  0.44444473  0.07873467
   0.27777804  0.77777777  0.07873467
   0.27777795  0.11111101  0.07873467
   0.61111071  0.44444473  0.07873467
   0.61111092  0.77777777  0.07873467
   0.61111141  0.11111101  0.07873467
   0.94444417  0.44444473  0.07873467
   0.94444438  0.77777777  0.07873467
   0.94444429  0.11111101  0.07873467
   0.38888905  0.55555574  0.15702600
   0.38888868  0.88888878  0.15702600
   0.38888918  0.22222203  0.15702600
   0.72222193  0.55555574  0.15702600
   0.72222214  0.88888878  0.15702600
   0.72222205  0.22222203  0.15702600
   0.05555559  0.55555574  0.15702600
   0.05555580  0.88888878  0.15702600
   0.05555572  0.22222203  0.15702600
   0.49999969  0.66666675  0.23375733
   0.50000019  0.00000000  0.23375733
   0.50000040  0.33333304  0.23375733
   0.83333315  0.66666675  0.23375733
   0.83333307  0.00000000  0.23375733
   0.83333328  0.33333304  0.23375733
   0.16666681  0.66666675  0.23375733
   0.16666673  0.00000000  0.23375733
   0.16666694  0.33333304  0.23375733
   0.61111092  0.77777777  0.31173067
   0.61111141  0.11111101  0.31173067
   0.61111071  0.44444473  0.31173067
   0.94444438  0.77777777  0.31173067
   0.94444429  0.11111101  0.31173067
   0.94444417  0.44444473  0.31173067
   0.27777804  0.77777777  0.31173067
   0.27777795  0.11111101  0.31173067
   0.27777783  0.44444473  0.31173067
   0.72222214  0.88888878  0.38970400
   0.72222205  0.22222203  0.38970400
   0.72222193  0.55555574  0.38970400
   0.05555580  0.88888878  0.38970400
   0.05555572  0.22222203  0.38970400
   0.05555559  0.55555574  0.38970400
   0.38888868  0.88888878  0.38970400
   0.38888918  0.22222203  0.38970400
   0.38888905  0.55555574  0.38970400
   0.83333307  0.00000000  0.46643533
   0.83333328  0.33333304  0.46643533
   0.83333315  0.66666675  0.46643533
   0.16666673  0.00000000  0.46643533
   0.16666694  0.33333304  0.46643533
   0.16666681  0.66666675  0.46643533
   0.50000019  0.00000000  0.46643533
   0.50000040  0.33333304  0.46643533
   0.49999969  0.66666675  0.46643533
   0.94444429  0.11111101  0.54472667
   0.94444417  0.44444473  0.54472667
   0.94444438  0.77777777  0.54472667
   0.27777795  0.11111101  0.54472667
   0.27777783  0.44444473  0.54472667
   0.27777804  0.77777777  0.54472667
   0.61111141  0.11111101  0.54472667
   0.61111071  0.44444473  0.54472667
   0.61111092  0.77777777  0.54472667
   0.44444450  0.27777753  0.07873467
   0.44444437  0.61111125  0.07873467
   0.44444458  0.94444429  0.07873467
   0.77777796  0.27777753  0.07873467
   0.77777783  0.61111125  0.07873467
   0.77777804  0.94444429  0.07873467
   0.11111104  0.27777753  0.07873467
   0.11111091  0.61111125  0.07873467
   0.11111112  0.94444429  0.07873467
   0.55555538  0.38888922  0.15702600
   0.55555559  0.72222226  0.15702600
   0.55555551  0.05555551  0.15702600
   0.88888884  0.38888922  0.15702600
   0.88888905  0.72222226  0.15702600
   0.88888897  0.05555551  0.15702600
   0.22222192  0.38888922  0.15702600
   0.22222213  0.72222226  0.15702600
   0.22222205  0.05555551  0.15702600
   0.66666661  0.50000023  0.23375733
   0.66666682  0.83333327  0.23375733
   0.66666673  0.16666652  0.23375733
   0.99999969  0.50000023  0.23375733
   0.99999990  0.83333327  0.23375733
   0.99999981  0.16666652  0.23375733
   0.33333315  0.50000023  0.23375733
   0.33333336  0.83333327  0.23375733
   0.33333327  0.16666652  0.23375733
   0.77777783  0.61111125  0.31173067
   0.77777804  0.94444429  0.31173067
   0.77777796  0.27777753  0.31173067
   0.11111091  0.61111125  0.31173067
   0.11111112  0.94444429  0.31173067
   0.11111104  0.27777753  0.31173067
   0.44444437  0.61111125  0.31173067
   0.44444458  0.94444429  0.31173067
   0.44444450  0.27777753  0.31173067
   0.88888905  0.72222226  0.38970400
   0.88888897  0.05555551  0.38970400
   0.88888884  0.38888922  0.38970400
   0.22222213  0.72222226  0.38970400
   0.22222205  0.05555551  0.38970400
   0.22222192  0.38888922  0.38970400
   0.55555559  0.72222226  0.38970400
   0.55555551  0.05555551  0.38970400
   0.55555538  0.38888922  0.38970400
   0.99999990  0.83333327  0.46643533
   0.99999981  0.16666652  0.46643533
   0.99999969  0.50000023  0.46643533
   0.33333336  0.83333327  0.46643533
   0.33333327  0.16666652  0.46643533
   0.33333315  0.50000023  0.46643533
   0.66666682  0.83333327  0.46643533
   0.66666673  0.16666652  0.46643533
   0.66666661  0.50000023  0.46643533
   0.11111112  0.94444429  0.54472667
   0.11111104  0.27777753  0.54472667
   0.11111091  0.61111125  0.54472667
   0.44444458  0.94444429  0.54472667
   0.44444450  0.27777753  0.54472667
   0.44444437  0.61111125  0.54472667
   0.77777804  0.94444429  0.54472667
   0.77777796  0.27777753  0.54472667
   0.77777783  0.61111125  0.54472667
   0.34272267  0.48122118  0.58466667
   0.37958737  0.40749218  0.58466667
 
 position of ions in cartesian coordinates  (Angst):
   2.36204000-11.45372000 -6.61281000
   2.36204000-14.31714000-11.57241000
   2.36204000 -8.59029000 -1.65320000
   2.36204000-17.18057000 -6.61281000
   2.36204000-20.04400000-11.57241000
   2.36204000-14.31714000 -1.65320000
   2.36204000 -5.72686000 -6.61281000
   2.36204000 -8.59029000-11.57241000
   2.36204000 -2.86343000 -1.65320000
   4.71078000-14.31714000 -8.26601000
   4.71078000-17.18057000-13.22561000
   4.71078000-11.45372000 -3.30640000
   4.71078000-20.04400000 -8.26601000
   4.71078000-22.90743000-13.22561000
   4.71078000-17.18057000 -3.30640000
   4.71078000 -8.59029000 -8.26601000
   4.71078000-11.45372000-13.22561000
   4.71078000 -5.72686000 -3.30640000
   7.01272000-17.18057000 -9.91921000
   7.01272000-11.45372000  0.00000000
   7.01272000-14.31714000 -4.95960000
   7.01272000 -5.72686000 -9.91921000
   7.01272000  0.00000000  0.00000000
   7.01272000 -2.86343000 -4.95960000
   7.01272000-11.45372000 -9.91921000
   7.01272000 -5.72686000  0.00000000
   7.01272000 -8.59029000 -4.95960000
   9.35192000-20.04400000-11.57241000
   9.35192000-14.31714000 -1.65320000
   9.35192000-17.18057000 -6.61281000
   9.35192000 -8.59029000-11.57241000
   9.35192000 -2.86343000 -1.65320000
   9.35192000 -5.72686000 -6.61281000
   9.35192000-14.31714000-11.57241000
   9.35192000 -8.59029000 -1.65320000
   9.35192000-11.45372000 -6.61281000
  11.69112000-22.90743000-13.22561000
  11.69112000-17.18057000 -3.30640000
  11.69112000-20.04400000 -8.26601000
  11.69112000-11.45372000-13.22561000
  11.69112000 -5.72686000 -3.30640000
  11.69112000 -8.59029000 -8.26601000
  11.69112000-17.18057000-13.22561000
  11.69112000-11.45372000 -3.30640000
  11.69112000-14.31714000 -8.26601000
  13.99306000  0.00000000  0.00000000
  13.99306000 -2.86343000 -4.95960000
  13.99306000 -5.72686000 -9.91921000
  13.99306000 -5.72686000  0.00000000
  13.99306000 -8.59029000 -4.95960000
  13.99306000-11.45372000 -9.91921000
  13.99306000-11.45372000  0.00000000
  13.99306000-14.31714000 -4.95960000
  13.99306000-17.18057000 -9.91921000
  16.34180000 -2.86343000 -1.65320000
  16.34180000 -5.72686000 -6.61281000
  16.34180000 -8.59029000-11.57241000
  16.34180000 -8.59029000 -1.65320000
  16.34180000-11.45372000 -6.61281000
  16.34180000-14.31714000-11.57241000
  16.34180000-14.31714000 -1.65320000
  16.34180000-17.18057000 -6.61281000
  16.34180000-20.04400000-11.57241000
   2.36204000 -7.15857000 -4.13300000
   2.36204000-10.02200000 -9.09261000
   2.36204000-12.88543000-14.05221000
   2.36204000-12.88543000 -4.13300000
   2.36204000-15.74886000 -9.09261000
   2.36204000-18.61229000-14.05221000
   2.36204000-18.61229000 -4.13300000
   2.36204000-21.47572000 -9.09261000
   2.36204000-24.33915000-14.05221000
   4.71078000-10.02200000 -5.78621000
   4.71078000-12.88543000-10.74581000
   4.71078000 -7.15857000 -0.82660000
   4.71078000-15.74886000 -5.78621000
   4.71078000-18.61229000-10.74581000
   4.71078000-12.88543000 -0.82660000
   4.71078000 -4.29514000 -5.78621000
   4.71078000 -7.15857000-10.74581000
   4.71078000 -1.43171000 -0.82660000
   7.01272000-12.88543000 -7.43941000
   7.01272000-15.74886000-12.39901000
   7.01272000-10.02200000 -2.47980000
   7.01272000-18.61229000 -7.43941000
   7.01272000-21.47572000-12.39901000
   7.01272000-15.74886000 -2.47980000
   7.01272000 -7.15857000 -7.43941000
   7.01272000-10.02200000-12.39901000
   7.01272000 -4.29514000 -2.47980000
   9.35192000-15.74886000 -9.09261000
   9.35192000-18.61229000-14.05221000
   9.35192000-12.88543000 -4.13300000
   9.35192000-21.47572000 -9.09261000
   9.35192000-24.33915000-14.05221000
   9.35192000-18.61229000 -4.13300000
   9.35192000-10.02200000 -9.09261000
   9.35192000-12.88543000-14.05221000
   9.35192000 -7.15857000 -4.13300000
  11.69112000-18.61229000-10.74581000
  11.69112000-12.88543000 -0.82660000
  11.69112000-15.74886000 -5.78621000
  11.69112000 -7.15857000-10.74581000
  11.69112000 -1.43171000 -0.82660000
  11.69112000 -4.29514000 -5.78621000
  11.69112000-12.88543000-10.74581000
  11.69112000 -7.15857000 -0.82660000
  11.69112000-10.02200000 -5.78621000
  13.99306000-21.47572000-12.39901000
  13.99306000-15.74886000 -2.47980000
  13.99306000-18.61229000 -7.43941000
  13.99306000-10.02200000-12.39901000
  13.99306000 -4.29514000 -2.47980000
  13.99306000 -7.15857000 -7.43941000
  13.99306000-15.74886000-12.39901000
  13.99306000-10.02200000 -2.47980000
  13.99306000-12.88543000 -7.43941000
  16.34180000-24.33915000-14.05221000
  16.34180000-18.61229000 -4.13300000
  16.34180000-21.47572000 -9.09261000
  16.34180000-12.88543000-14.05221000
  16.34180000 -7.15857000 -4.13300000
  16.34180000-10.02200000 -9.09261000
  16.34180000-18.61229000-14.05221000
  16.34180000-12.88543000 -4.13300000
  16.34180000-15.74886000 -9.09261000
   2.36204000 -8.59029000 -6.61281000
   2.36204000-11.45372000-11.57241000
   2.36204000 -5.72686000 -1.65320000
   2.36204000-14.31714000 -6.61281000
   2.36204000-17.18057000-11.57241000
   2.36204000-11.45372000 -1.65320000
   2.36204000-20.04400000 -6.61281000
   2.36204000-22.90743000-11.57241000
   2.36204000-17.18057000 -1.65320000
   4.71078000-11.45372000 -8.26601000
   4.71078000-14.31714000-13.22561000
   4.71078000 -8.59029000 -3.30640000
   4.71078000-17.18057000 -8.26601000
   4.71078000-20.04400000-13.22561000
   4.71078000-14.31714000 -3.30640000
   4.71078000 -5.72686000 -8.26601000
   4.71078000 -8.59029000-13.22561000
   4.71078000 -2.86343000 -3.30640000
   7.01272000-14.31714000 -9.91921000
   7.01272000 -8.59029000  0.00000000
   7.01272000-11.45372000 -4.95960000
   7.01272000-20.04400000 -9.91921000
   7.01272000-14.31714000  0.00000000
   7.01272000-17.18057000 -4.95960000
   7.01272000 -8.59029000 -9.91921000
   7.01272000 -2.86343000  0.00000000
   7.01272000 -5.72686000 -4.95960000
   9.35192000-17.18057000-11.57241000
   9.35192000-11.45372000 -1.65320000
   9.35192000-14.31714000 -6.61281000
   9.35192000-22.90743000-11.57241000
   9.35192000-17.18057000 -1.65320000
   9.35192000-20.04400000 -6.61281000
   9.35192000-11.45372000-11.57241000
   9.35192000 -5.72686000 -1.65320000
   9.35192000 -8.59029000 -6.61281000
  11.69112000-20.04400000-13.22561000
  11.69112000-14.31714000 -3.30640000
  11.69112000-17.18057000 -8.26601000
  11.69112000 -8.59029000-13.22561000
  11.69112000 -2.86343000 -3.30640000
  11.69112000 -5.72686000 -8.26601000
  11.69112000-14.31714000-13.22561000
  11.69112000 -8.59029000 -3.30640000
  11.69112000-11.45372000 -8.26601000
  13.99306000-14.31714000  0.00000000
  13.99306000-17.18057000 -4.95960000
  13.99306000-20.04400000 -9.91921000
  13.99306000 -2.86343000  0.00000000
  13.99306000 -5.72686000 -4.95960000
  13.99306000 -8.59029000 -9.91921000
  13.99306000 -8.59029000  0.00000000
  13.99306000-11.45372000 -4.95960000
  13.99306000-14.31714000 -9.91921000
  16.34180000-17.18057000 -1.65320000
  16.34180000-20.04400000 -6.61281000
  16.34180000-22.90743000-11.57241000
  16.34180000 -5.72686000 -1.65320000
  16.34180000 -8.59029000 -6.61281000
  16.34180000-11.45372000-11.57241000
  16.34180000-11.45372000 -1.65320000
  16.34180000-14.31714000 -6.61281000
  16.34180000-17.18057000-11.57241000
   2.36204000-10.02200000 -4.13300000
   2.36204000-12.88543000 -9.09261000
   2.36204000-15.74886000-14.05221000
   2.36204000-15.74886000 -4.13300000
   2.36204000-18.61229000 -9.09261000
   2.36204000-21.47572000-14.05221000
   2.36204000 -4.29514000 -4.13300000
   2.36204000 -7.15857000 -9.09261000
   2.36204000-10.02200000-14.05221000
   4.71078000-12.88543000 -5.78621000
   4.71078000-15.74886000-10.74581000
   4.71078000-10.02200000 -0.82660000
   4.71078000-18.61229000 -5.78621000
   4.71078000-21.47572000-10.74581000
   4.71078000-15.74886000 -0.82660000
   4.71078000 -7.15857000 -5.78621000
   4.71078000-10.02200000-10.74581000
   4.71078000 -4.29514000 -0.82660000
   7.01272000-15.74886000 -7.43941000
   7.01272000-18.61229000-12.39901000
   7.01272000-12.88543000 -2.47980000
   7.01272000-21.47571346 -7.43941000
   7.01272000-24.33914346-12.39901000
   7.01272000-18.61228346 -2.47980000
   7.01272000-10.02200000 -7.43941000
   7.01272000-12.88543000-12.39901000
   7.01272000 -7.15857000 -2.47980000
   9.35192000-18.61229000 -9.09261000
   9.35192000-21.47572000-14.05221000
   9.35192000-15.74886000 -4.13300000
   9.35192000 -7.15857000 -9.09261000
   9.35192000-10.02200000-14.05221000
   9.35192000 -4.29514000 -4.13300000
   9.35192000-12.88543000 -9.09261000
   9.35192000-15.74886000-14.05221000
   9.35192000-10.02200000 -4.13300000
  11.69112000-21.47572000-10.74581000
  11.69112000-15.74886000 -0.82660000
  11.69112000-18.61229000 -5.78621000
  11.69112000-10.02200000-10.74581000
  11.69112000 -4.29514000 -0.82660000
  11.69112000 -7.15857000 -5.78621000
  11.69112000-15.74886000-10.74581000
  11.69112000-10.02200000 -0.82660000
  11.69112000-12.88543000 -5.78621000
  13.99306000-24.33914346-12.39901000
  13.99306000-18.61228346 -2.47980000
  13.99306000-21.47571346 -7.43941000
  13.99306000-12.88543000-12.39901000
  13.99306000 -7.15857000 -2.47980000
  13.99306000-10.02200000 -7.43941000
  13.99306000-18.61229000-12.39901000
  13.99306000-12.88543000 -2.47980000
  13.99306000-15.74886000 -7.43941000
  16.34180000-10.02200000-14.05221000
  16.34180000 -4.29514000 -4.13300000
  16.34180000 -7.15857000 -9.09261000
  16.34180000-15.74886000-14.05221000
  16.34180000-10.02200000 -4.13300000
  16.34180000-12.88543000 -9.09261000
  16.34180000-21.47572000-14.05221000
  16.34180000-15.74886000 -4.13300000
  16.34180000-18.61229000 -9.09261000
  17.54000000-10.02200000 -7.16000000
  17.54000000-10.02200333 -6.06300000
 


--------------------------------------------------------------------------------------------------------


 k-point   1 :   0.0000 0.0000 0.0000  plane waves:  119097
 k-point   2 :   0.5000 0.0000 0.0000  plane waves:  118852
 k-point   3 :   0.0000 0.5000 0.0000  plane waves:  118852

 maximum and minimum number of plane-waves per node :    119097   118852

 maximum number of plane-waves:    119097
 maximum index in each direction: 
   IXMAX=   26   IYMAX=   26   IZMAX=   46
   IXMIN=  -27   IYMIN=  -27   IZMIN=  -46


 serial   3D FFT for wavefunctions
 parallel 3D FFT for charge:
    minimum data exchange during FFTs selected (reduces bandwidth)


 total amount of memory used by VASP MPI-rank0  3841270. kBytes
=======================================================================

   base      :      30000. kBytes
   nonlr-proj:      80939. kBytes
   fftplans  :     245548. kBytes
   grid      :     439398. kBytes
   one-center:       5900. kBytes
   wavefun   :    3039485. kBytes
 
     INWAV:  cpu time    0.0002: real time    0.0004
 Broyden mixing: mesh for mixing (old mesh)
   NGX = 53   NGY = 53   NGZ = 93
  (NGX  =160   NGY  =160   NGZ  =280)
  gives a total of 261237 points

 initial charge density was supplied:
 charge density of overlapping atoms calculated
 number of electron     768.0000000 magnetization 
 keeping initial charge density in first step


--------------------------------------------------------------------------------------------------------


 Maximum index for non-local projection operator          4631
 Maximum index for augmentation-charges          4472 (set IRDMAX)


--------------------------------------------------------------------------------------------------------


 First call to EWALD:  gamma=   0.090
 Maximum number of real-space cells 3x 3x 2
 Maximum number of reciprocal cells 2x 2x 4

    FEWALD:  cpu time    0.2444: real time    0.2451


--------------------------------------- Iteration      1(   1)  ---------------------------------------


    POTLOK:  cpu time    0.1035: real time    0.1206
    SETDIJ:  cpu time    0.3622: real time    0.3631
     EDDAV:  cpu time    6.6295: real time    6.7679
       DOS:  cpu time    0.0017: real time    0.0017
    --------------------------------------------
      LOOP:  cpu time    7.0970: real time    7.2533

 eigenvalue-minimisations  :  3088
 total energy-change (2. order) : 0.2427508E+04  (-0.2046502E+05)
 number of electron     768.0000000 magnetization 
 augmentation part      768.0000000 magnetization 

 Free energy of the ion-electron system (eV)
  ---------------------------------------------------
  alpha Z        PSCENC =       504.51365917
  Ewald energy   TEWEN  =     89178.58011208
  -Hartree energ DENC   =   -103515.89085472
  -exchange      EXHF   =         0.00000000
  -V(xc)+E(xc)   XCENC  =     -6589.04422721
  PAW double counting   =     17380.74262607    -9326.59272269
  entropy T*S    EENTRO =        -0.07963585
  eigenvalues    EBANDS =       439.70187111
  atomic energy  EATOM  =     14355.57734864
  Solvation  Ediel_sol  =         0.00000000
  ---------------------------------------------------
  free energy    TOTEN  =      2427.50817660 eV

  energy without entropy =     2427.58781245  energy(sigma->0) =     2427.54799453


--------------------------------------------------------------------------------------------------------




--------------------------------------- Iteration      1(   2)  ---------------------------------------


     EDDAV:  cpu time    8.4438: real time    8.5997
       DOS:  cpu time    0.0017: real time    0.0017
    --------------------------------------------
      LOOP:  cpu time    8.4454: real time    8.6013

 eigenvalue-minimisations  :  4184
 total energy-change (2. order) :-0.3114109E+04  (-0.2942600E+04)
 number of electron     768.0000000 magnetization 
 augmentation part      768.0000000 magnetization 

 Free energy of the ion-electron system (eV)
  ---------------------------------------------------
  alpha Z        PSCENC =       504.51365917
  Ewald energy   TEWEN  =     89178.58011208
  -Hartree energ DENC   =   -103515.89085472
  -exchange      EXHF   =         0.00000000
  -V(xc)+E(xc)   XCENC  =     -6589.04422721
  PAW double counting   =     17380.74262607    -9326.59272269
  entropy T*S    EENTRO =        -0.11875448
  eigenvalues    EBANDS =     -2674.36783280
  atomic energy  EATOM  =     14355.57734864
  Solvation  Ediel_sol  =         0.00000000
  ---------------------------------------------------
  free energy    TOTEN  =      -686.60064594 eV

  energy without entropy =     -686.48189147  energy(sigma->0) =     -686.54126870


--------------------------------------------------------------------------------------------------------




--------------------------------------- Iteration      1(   3)  ---------------------------------------


     EDDAV:  cpu time    8.9126: real time    9.0708
       DOS:  cpu time    0.0017: real time    0.0022
    --------------------------------------------
      LOOP:  cpu time    8.9143: real time    9.0730

 eigenvalue-minimisations  :  4464
 total energy-change (2. order) :-0.2494201E+03  (-0.2379689E+03)
 number of electron     768.0000000 magnetization 
 augmentation part      768.0000000 magnetization 

 Free energy of the ion-electron system (eV)
  ---------------------------------------------------
  alpha Z        PSCENC =       504.51365917
  Ewald energy   TEWEN  =     89178.58011208
  -Hartree energ DENC   =   -103515.89085472
  -exchange      EXHF   =         0.00000000
  -V(xc)+E(xc)   XCENC  =     -6589.04422721
  PAW double counting   =     17380.74262607    -9326.59272269
  entropy T*S    EENTRO =        -0.21688916
  eigenvalues    EBANDS =     -2923.68979344
  atomic energy  EATOM  =     14355.57734864
  Solvation  Ediel_sol  =         0.00000000
  ---------------------------------------------------
  free energy    TOTEN  =      -936.02074126 eV

  energy without entropy =     -935.80385210  energy(sigma->0) =     -935.91229668


--------------------------------------------------------------------------------------------------------




--------------------------------------- Iteration      1(   4)  ---------------------------------------


     EDDAV:  cpu time    9.8012: real time    9.9898
       DOS:  cpu time    0.0017: real time    0.0017
    --------------------------------------------
      LOOP:  cpu time    9.8028: real time    9.9915

 eigenvalue-minimisations  :  4992
 total energy-change (2. order) :-0.1799077E+02  (-0.1714598E+02)
 number of electron     768.0000000 magnetization 
 augmentation part      768.0000000 magnetization 

 Free energy of the ion-electron system (eV)
  ---------------------------------------------------
  alpha Z        PSCENC =       504.51365917
  Ewald energy   TEWEN  =     89178.58011208
  -Hartree energ DENC   =   -103515.89085472
  -exchange      EXHF   =         0.00000000
  -V(xc)+E(xc)   XCENC  =     -6589.04422721
  PAW double counting   =     17380.74262607    -9326.59272269
  entropy T*S    EENTRO =        -0.23129132
  eigenvalues    EBANDS =     -2941.66616151
  atomic energy  EATOM  =     14355.57734864
  Solvation  Ediel_sol  =         0.00000000
  ---------------------------------------------------
  free energy    TOTEN  =      -954.01151149 eV

  energy without entropy =     -953.78022017  energy(sigma->0) =     -953.89586583


--------------------------------------------------------------------------------------------------------




--------------------------------------- Iteration      1(   5)  ---------------------------------------


     EDDAV:  cpu time    8.9901: real time    9.1276
       DOS:  cpu time    0.0018: real time    0.0018
    CHARGE:  cpu time    0.6942: real time    0.7258
    MIXING:  cpu time    0.1035: real time    0.1088
    --------------------------------------------
      LOOP:  cpu time    9.7895: real time    9.9639

 eigenvalue-minimisations  :  4512
 total energy-change (2. order) :-0.9369617E+00  (-0.9287195E+00)
 number of electron     768.0000038 magnetization 
 augmentation part       -8.9885666 magnetization 

 Broyden mixing:
  rms(total) = 0.60046E+01    rms(broyden)= 0.60023E+01
  rms(prec ) = 0.62744E+01
  weight for this iteration     100.00

 Free energy of the ion-electron system (eV)
  ---------------------------------------------------
  alpha Z        PSCENC =       504.51365917
  Ewald energy   TEWEN  =     89178.58011208
  -Hartree energ DENC   =   -103515.89085472
  -exchange      EXHF   =         0.00000000
  -V(xc)+E(xc)   XCENC  =     -6589.04422721
  PAW double counting   =     17380.74262607    -9326.59272269
[...]
     13.99306      0.00000      0.00000        -0.050567     -0.007794     -0.011421
     13.99306     -2.86343     -4.95960        -0.026971      0.002496     -0.001576
     13.99306     -5.72686     -9.91921        -0.041333      0.004631     -0.006329
     13.99306     -5.72686      0.00000        -0.023086      0.002497      0.005152
     13.99306     -8.59029     -4.95960        -0.030658     -0.018707      0.005877
     13.99306    -11.45372     -9.91921        -0.084668      0.013920     -0.013856
     13.99306    -11.45372      0.00000        -0.052151      0.000825      0.012170
     13.99306    -14.31714     -4.95960        -0.024063      0.034305     -0.005005
     13.99306    -17.18057     -9.91921        -0.055729      0.003759     -0.008717
     16.34180     -2.86343     -1.65320        -0.103545     -0.012012     -0.006965
     16.34180     -5.72686     -6.61281        -0.051854     -0.053266     -0.004579
     16.34180     -8.59029    -11.57241        -0.067325      0.004628     -0.038368
     16.34180     -8.59029     -1.65320        -0.089128     -0.014651      0.035942
     16.34180    -11.45372     -6.61281        -1.192125     -1.736260     -0.081354
     16.34180    -14.31714    -11.57241        -0.084596      0.018474      0.009665
     16.34180    -14.31714     -1.65320        -0.084679      0.005173     -0.013796
     16.34180    -17.18057     -6.61281        -0.094995      0.003014     -0.000004
     16.34180    -20.04400    -11.57241        -0.107814     -0.010909      0.003914
      2.36204     -7.15857     -4.13300         0.073849      0.001504      0.013112
      2.36204    -10.02200     -9.09261         0.101665     -0.000000     -0.006966
      2.36204    -12.88543    -14.05221         0.102616      0.008030      0.002093
      2.36204    -12.88543     -4.13300         0.073849     -0.001504      0.013112
      2.36204    -15.74886     -9.09261         0.099788      0.002898      0.012028
      2.36204    -18.61229    -14.05221         0.099564     -0.000000     -0.005678
      2.36204    -18.61229     -4.13300         0.097962     -0.000000      0.002636
      2.36204    -21.47572     -9.09261         0.099788     -0.002898      0.012028
      2.36204    -24.33915    -14.05221         0.102616     -0.008030      0.002093
      4.71078    -10.02200     -5.78621         0.080121     -0.000000      0.014058
      4.71078    -12.88543    -10.74581         0.039774      0.011440      0.002460
      4.71078     -7.15857     -0.82660         0.038903      0.001501     -0.004905
      4.71078    -15.74886     -5.78621         0.027403      0.002657      0.004735
      4.71078    -18.61229    -10.74581         0.051332     -0.000000      0.001340
      4.71078    -12.88543     -0.82660         0.038903     -0.001501     -0.004905
      4.71078     -4.29514     -5.78621         0.027403     -0.002657      0.004735
      4.71078     -7.15857    -10.74581         0.039774     -0.011440      0.002460
      4.71078     -1.43171     -0.82660         0.045699     -0.000000     -0.000720
      7.01272    -12.88543     -7.43941         0.008082     -0.004307      0.000510
      7.01272    -15.74886    -12.39901         0.015355     -0.012936      0.003889
      7.01272    -10.02200     -2.47980         0.016989     -0.000000     -0.007293
      7.01272    -18.61229     -7.43941         0.010896     -0.000000     -0.009368
      7.01272    -21.47572    -12.39901         0.015355      0.012936      0.003889
      7.01272    -15.74886     -2.47980         0.007481     -0.013225      0.001479
      7.01272     -7.15857     -7.43941         0.008082      0.004307      0.000510
      7.01272    -10.02200    -12.39901         0.012228     -0.000000     -0.003438
      7.01272     -4.29514     -2.47980         0.007481      0.013225      0.001479
      9.35192    -15.74886     -9.09261        -0.031538     -0.008040     -0.006234
      9.35192    -18.61229    -14.05221         0.001424     -0.000000      0.017600
      9.35192    -12.88543     -4.13300         0.005394      0.008933      0.002074
      9.35192    -21.47572     -9.09261        -0.031538      0.008040     -0.006234
      9.35192    -24.33915    -14.05221        -0.005494     -0.012599     -0.004934
      9.35192    -18.61229     -4.13300        -0.006338     -0.000000     -0.003266
      9.35192    -10.02200     -9.09261         0.002496     -0.000000     -0.009146
      9.35192    -12.88543    -14.05221        -0.005494      0.012599     -0.004934
      9.35192     -7.15857     -4.13300         0.005394     -0.008933      0.002074
     11.69112    -18.61229    -10.74581         0.009131     -0.000000      0.024489
     11.69112    -12.88543     -0.82660        -0.016018      0.017766      0.000265
     11.69112    -15.74886     -5.78621        -0.017263      0.009672      0.004684
     11.69112     -7.15857    -10.74581        -0.014144     -0.005091      0.013858
     11.69112     -1.43171     -0.82660        -0.010836     -0.000000     -0.002073
     11.69112     -4.29514     -5.78621        -0.017263     -0.009672      0.004684
     11.69112    -12.88543    -10.74581        -0.014144      0.005091      0.013858
     11.69112     -7.15857     -0.82660        -0.016018     -0.017766      0.000265
     11.69112    -10.02200     -5.78621        -0.025945     -0.000000     -0.020706
     13.99306    -21.47572    -12.39901        -0.043520     -0.005467      0.003720
     13.99306    -15.74886     -2.47980        -0.033522     -0.010496      0.003979
     13.99306    -18.61229     -7.43941        -0.038493     -0.000000      0.006530
     13.99306    -10.02200    -12.39901        -0.054982     -0.000000     -0.007470
     13.99306     -4.29514     -2.47980        -0.033522      0.010496      0.003979
     13.99306     -7.15857     -7.43941        -0.136249      0.048910     -0.026672
     13.99306    -15.74886    -12.39901        -0.043520      0.005467      0.003720
     13.99306    -10.02200     -2.47980        -0.069541     -0.000000      0.017233
     13.99306    -12.88543     -7.43941        -0.136249     -0.048910     -0.026672
     16.34180    -24.33915    -14.05221        -0.098463     -0.002983      0.005326
     16.34180    -18.61229     -4.13300        -0.098348     -0.000000     -0.000022
     16.34180    -21.47572     -9.09261        -0.081028     -0.011615      0.022579
     16.34180    -12.88543    -14.05221        -0.098463      0.002983      0.005326
     16.34180     -7.15857     -4.13300        -0.115042     -0.015076     -0.006084
     16.34180    -10.02200     -9.09261        -0.431007      0.000000     -0.414985
     16.34180    -18.61229    -14.05221        -0.098415     -0.000000      0.004026
     16.34180    -12.88543     -4.13300        -0.115042      0.015076     -0.006084
     16.34180    -15.74886     -9.09261        -0.081028      0.011615      0.022579
      2.36204     -8.59029     -6.61281         0.118203      0.018347     -0.006593
      2.36204    -11.45372    -11.57241         0.086411     -0.011578      0.001063
      2.36204     -5.72686     -1.65320         0.094109     -0.000902     -0.006923
      2.36204    -14.31714     -6.61281         0.093158     -0.013241      0.002292
      2.36204    -17.18057    -11.57241         0.100728      0.027630     -0.006830
      2.36204    -11.45372     -1.65320         0.097938     -0.011977     -0.011148
      2.36204    -20.04400     -6.61281         0.103084     -0.004965     -0.000132
      2.36204    -22.90743    -11.57241         0.098615      0.002214      0.002371
      2.36204    -17.18057     -1.65320         0.095702     -0.002618      0.004511
      4.71078    -11.45372     -8.26601         0.053629     -0.018023     -0.012609
      4.71078    -14.31714    -13.22561         0.049846      0.005069     -0.010097
      4.71078     -8.59029     -3.30640         0.046352      0.004823      0.009834
      4.71078    -17.18057     -8.26601         0.040072      0.002374     -0.007285
      4.71078    -20.04400    -13.22561         0.048217      0.011601      0.003340
      4.71078    -14.31714     -3.30640         0.041456      0.001003     -0.001587
      4.71078     -5.72686     -8.26601         0.042021     -0.000965      0.003577
      4.71078     -8.59029    -13.22561         0.036305      0.005665     -0.010857
      4.71078     -2.86343     -3.30640         0.051304      0.004484     -0.000947
      7.01272    -14.31714     -9.91921         0.018998     -0.000229      0.008888
      7.01272     -8.59029      0.00000         0.023923     -0.010777      0.012597
      7.01272    -11.45372     -4.95960         0.009903     -0.018746      0.018274
      7.01272    -20.04400     -9.91921         0.022134      0.004078      0.001100
      7.01272    -14.31714      0.00000         0.010422     -0.003502      0.007575
      7.01272    -17.18057     -4.95960         0.020390     -0.004951      0.008432
      7.01272     -8.59029     -9.91921         0.006699      0.005544      0.010631
      7.01272     -2.86343      0.00000         0.018040      0.003243      0.001500
      7.01272     -5.72686     -4.95960         0.027895     -0.020019     -0.003692
      9.35192    -17.18057    -11.57241        -0.000861      0.012165     -0.002700
      9.35192    -11.45372     -1.65320        -0.003765      0.000060     -0.016188
      9.35192    -14.31714     -6.61281        -0.002030      0.018717     -0.002306
      9.35192    -22.90743    -11.57241        -0.014815      0.000871     -0.004804
      9.35192    -17.18057     -1.65320         0.004457      0.012746     -0.002901
      9.35192    -20.04400     -6.61281        -0.013208     -0.004698      0.002389
      9.35192    -11.45372    -11.57241         0.002014     -0.002074      0.013320
      9.35192     -5.72686     -1.65320        -0.001403      0.004051     -0.000316
      9.35192     -8.59029     -6.61281        -0.016678      0.008056     -0.001163
     11.69112    -20.04400    -13.22561        -0.026458      0.008461     -0.027214
     11.69112    -14.31714     -3.30640        -0.014559      0.008744     -0.001871
     11.69112    -17.18057     -8.26601         0.004375      0.017907      0.001638
     11.69112     -8.59029    -13.22561        -0.018212     -0.002555     -0.017437
     11.69112     -2.86343     -3.30640        -0.023160     -0.006652     -0.006649
     11.69112     -5.72686     -8.26601         0.007354     -0.023925      0.008436
     11.69112    -14.31714    -13.22561        -0.010937      0.007202     -0.002010
     11.69112     -8.59029     -3.30640        -0.015737      0.010772     -0.006831
     11.69112    -11.45372     -8.26601        -0.047806      0.015050      0.001714
     13.99306    -14.31714      0.00000        -0.023086     -0.002497      0.005152
     13.99306    -17.18057     -4.95960        -0.026971     -0.002496     -0.001576
     13.99306    -20.04400     -9.91921        -0.055729     -0.003759     -0.008717
     13.99306     -2.86343      0.00000        -0.050567      0.007794     -0.011421
     13.99306     -5.72686     -4.95960        -0.024063     -0.034305     -0.005005
     13.99306     -8.59029     -9.91921        -0.084668     -0.013920     -0.013856
     13.99306     -8.59029      0.00000        -0.052151     -0.000825      0.012170
     13.99306    -11.45372     -4.95960        -0.030658      0.018707      0.005877
     13.99306    -14.31714     -9.91921        -0.041333     -0.004631     -0.006329
     16.34180    -17.18057     -1.65320        -0.103545      0.012012     -0.006965
     16.34180    -20.04400     -6.61281        -0.094995     -0.003014     -0.000004
     16.34180    -22.90743    -11.57241        -0.084596     -0.018474      0.009665
     16.34180     -5.72686     -1.65320        -0.084679     -0.005173     -0.013796
     16.34180     -8.59029     -6.61281        -1.192125      1.736260     -0.081354
     16.34180    -11.45372    -11.57241        -0.067325     -0.004628     -0.038368
     16.34180    -11.45372     -1.65320        -0.089128      0.014651      0.035942
     16.34180    -14.31714     -6.61281        -0.051854      0.053266     -0.004579
     16.34180    -17.18057    -11.57241        -0.107814      0.010909      0.003914
      2.36204    -10.02200     -4.13300         0.088223     -0.000000      0.011632
      2.36204    -12.88543     -9.09261         0.088947      0.005598     -0.009067
      2.36204    -15.74886    -14.05221         0.098835     -0.011735      0.006607
      2.36204    -15.74886     -4.13300         0.089661      0.005159     -0.007956
      2.36204    -18.61229     -9.09261         0.091096     -0.000000      0.016024
      2.36204    -21.47572    -14.05221         0.098835      0.011735      0.006607
      2.36204     -4.29514     -4.13300         0.089661     -0.005159     -0.007956
      2.36204     -7.15857     -9.09261         0.088947     -0.005598     -0.009067
      2.36204    -10.02200    -14.05221         0.092741     -0.000000     -0.001606
      4.71078    -12.88543     -5.78621         0.061584     -0.007752     -0.015052
      4.71078    -15.74886    -10.74581         0.037177     -0.002759      0.008575
      4.71078    -10.02200     -0.82660         0.036258     -0.000000      0.004161
      4.71078    -18.61229     -5.78621         0.045897     -0.000000      0.015417
      4.71078    -21.47572    -10.74581         0.037177      0.002759      0.008575
      4.71078    -15.74886     -0.82660         0.045499     -0.010095     -0.000388
      4.71078     -7.15857     -5.78621         0.061584      0.007752     -0.015052
      4.71078    -10.02200    -10.74581         0.052657     -0.000000      0.006782
      4.71078     -4.29514     -0.82660         0.045499      0.010095     -0.000388
      7.01272    -15.74886     -7.43941         0.029424      0.005287     -0.006837
      7.01272    -18.61229    -12.39901         0.009575     -0.000000     -0.005794
      7.01272    -12.88543     -2.47980         0.010719      0.019639     -0.019178
      7.01272    -21.47571     -7.43941         0.029424     -0.005287     -0.006837
      7.01272    -24.33914    -12.39901         0.022277      0.003994     -0.001403
      7.01272    -18.61228     -2.47980         0.007333     -0.000000      0.001710
      7.01272    -10.02200     -7.43941         0.020252     -0.000000     -0.019559
      7.01272    -12.88543    -12.39901         0.022277     -0.003994     -0.001403
      7.01272     -7.15857     -2.47980         0.010719     -0.019639     -0.019178
      9.35192    -18.61229     -9.09261        -0.016268     -0.000000     -0.005049
      9.35192    -21.47572    -14.05221        -0.003441      0.011142      0.004331
      9.35192    -15.74886     -4.13300        -0.015195     -0.011480      0.007483
      9.35192     -7.15857     -9.09261         0.015435     -0.012974      0.004663
      9.35192    -10.02200    -14.05221         0.000438     -0.000000     -0.013483
      9.35192     -4.29514     -4.13300        -0.015195      0.011480      0.007483
      9.35192    -12.88543     -9.09261         0.015435      0.012974      0.004663
      9.35192    -15.74886    -14.05221        -0.003441     -0.011142      0.004331
      9.35192    -10.02200     -4.13300        -0.000703     -0.000000      0.007861
     11.69112    -21.47572    -10.74581        -0.006902      0.004684      0.012812
     11.69112    -15.74886     -0.82660        -0.024112     -0.007153     -0.008139
     11.69112    -18.61229     -5.78621        -0.024902     -0.000000      0.023923
     11.69112    -10.02200    -10.74581         0.008945     -0.000000      0.006286
     11.69112     -4.29514     -0.82660        -0.024112      0.007153     -0.008139
     11.69112     -7.15857     -5.78621        -0.030044      0.008296      0.018318
     11.69112    -15.74886    -10.74581        -0.006902     -0.004684      0.012812
     11.69112    -10.02200     -0.82660        -0.017633     -0.000000      0.005677
     11.69112    -12.88543     -5.78621        -0.030044     -0.008296      0.018318
     13.99306    -24.33914    -12.39901        -0.041141      0.001333     -0.016689
     13.99306    -18.61228     -2.47980        -0.055013     -0.000000      0.000319
     13.99306    -21.47571     -7.43941        -0.053508      0.029135     -0.011183
     13.99306    -12.88543    -12.39901        -0.041141     -0.001333     -0.016689
     13.99306     -7.15857     -2.47980        -0.038009     -0.013658     -0.014731
     13.99306    -10.02200     -7.43941         0.174817     -0.000000      0.067063
     13.99306    -18.61229    -12.39901        -0.053146     -0.000000     -0.011582
     13.99306    -12.88543     -2.47980        -0.038009      0.013658     -0.014731
     13.99306    -15.74886     -7.43941        -0.053508     -0.029135     -0.011183
     16.34180    -10.02200    -14.05221        -0.102539     -0.000000      0.006082
     16.34180     -4.29514     -4.13300        -0.089429     -0.005456     -0.007176
     16.34180     -7.15857     -9.09261        -0.125569     -0.010151     -0.001264
     16.34180    -15.74886    -14.05221        -0.100138     -0.006985     -0.006444
     16.34180    -10.02200     -4.13300        -0.490101      0.000000      0.541718
     16.34180    -12.88543     -9.09261        -0.125569      0.010151     -0.001264
     16.34180    -21.47572    -14.05221        -0.100138      0.006985     -0.006444
     16.34180    -15.74886     -4.13300        -0.089429      0.005456     -0.007176
     16.34180    -18.61229     -9.09261        -0.105459     -0.000000     -0.003314
     17.54000    -10.02200     -7.16000         1.652804     -0.000000    -32.402678
     17.54000    -10.02200     -6.06300         1.294584     -0.000000     32.514857
 -----------------------------------------------------------------------------------
    total drift:                                0.170106     -0.000023      0.009798


--------------------------------------------------------------------------------------------------------



  FREE ENERGIE OF THE ION-ELECTRON SYSTEM (eV)
  ---------------------------------------------------
  free  energy   TOTEN  =      -998.90813123 eV

  energy  without entropy=     -998.83839733  energy(sigma->0) =     -998.87326428
 


--------------------------------------------------------------------------------------------------------


    POTLOK:  cpu time    0.4861: real time    0.4882


--------------------------------------------------------------------------------------------------------


 stress matrix after NEB project (eV)
    -62.84790     -0.00000      0.00084
     -0.00000    -75.93292     -0.00000
      0.00084     -0.00000    -75.92255
  FORCES: max atom, RMS    32.540618    2.890573
  FORCE total and by dimension   46.068147   32.514857
  Stress total and by dimension  124.418250   75.932921
     LOOP+:  cpu time  283.8798: real time  289.7893
    4ORBIT:  cpu time    0.0000: real time    0.0000

 total amount of memory used by VASP MPI-rank0  3841270. kBytes
=======================================================================

   base      :      30000. kBytes
   nonlr-proj:      80939. kBytes
   fftplans  :     245548. kBytes
   grid      :     439398. kBytes
   one-center:       5900. kBytes
   wavefun   :    3039485. kBytes
 
  
  
 General timing and accounting informations for this job:
 ========================================================
  
                  Total CPU time used (sec):      304.675
                            User time (sec):      298.906
                          System time (sec):        5.769
                         Elapsed time (sec):      311.486
  
                   Maximum memory used (kb):     5626436.
                   Average memory used (kb):          N/A
  
                          Minor page faults:      5637211
                          Major page faults:            0
                 Voluntary context switches:        10144
