   4   4   0   0
  0.7621563E+03  0.1450000E-08  0.1450000E-08  0.1450000E-08  0.5000000E-15
   1.0000000000000000E-004
  CAR 
 NiAl                                    
      2.18038667    -35.28572324  301     -6.17143367      1.00000000
    -35.286  0.0000E+00  0.0000E+00
    -35.161  0.0000E+00  0.0000E+00
    -35.036  0.0000E+00  0.0000E+00
    -34.911  0.0000E+00  0.0000E+00
    -34.786  0.0000E+00  0.0000E+00
    -34.661  0.0000E+00  0.0000E+00
    -34.536  0.0000E+00  0.0000E+00
    -34.412  0.0000E+00  0.0000E+00
    -34.287  0.0000E+00  0.0000E+00
    -34.162  0.0000E+00  0.0000E+00
    -34.037  0.0000E+00  0.0000E+00
    -33.912  0.0000E+00  0.0000E+00
    -33.787  0.5975E-07  0.7462E-08
    -33.662  0.1969E+00  0.2459E-01
    -33.537  0.1422E+02  0.1801E+01
    -33.412  0.1593E+01  0.2000E+01
    -33.288  0.1168E-04  0.2000E+01
    -33.163  0.0000E+00  0.2000E+01
    -33.038  0.0000E+00  0.2000E+01
    -32.913  0.0000E+00  0.2000E+01
    -32.788  0.0000E+00  0.2000E+01
    -32.663  0.0000E+00  0.2000E+01
    -32.538  0.0000E+00  0.2000E+01
    -32.413  0.0000E+00  0.2000E+01
    -32.288  0.1053E-09  0.2000E+01
    -32.164  0.9755E-02  0.2001E+01
    -32.039  0.9872E+01  0.3234E+01
    -31.914  0.6132E+01  0.4000E+01
    -31.789  0.1026E-02  0.4000E+01
    -31.664  0.1447E-11  0.4000E+01
    -31.539  0.0000E+00  0.4000E+01
    -31.414  0.0000E+00  0.4000E+01
    -31.289  0.0000E+00  0.4000E+01
    -31.164  0.0000E+00  0.4000E+01
    -31.040  0.0000E+00  0.4000E+01
    -30.915  0.0000E+00  0.4000E+01
    -30.790  0.0000E+00  0.4000E+01
    -30.665  0.0000E+00  0.4000E+01
    -30.540  0.0000E+00  0.4000E+01
    -30.415  0.0000E+00  0.4000E+01
    -30.290  0.0000E+00  0.4000E+01
    -30.165  0.0000E+00  0.4000E+01
    -30.040  0.0000E+00  0.4000E+01
    -29.916  0.0000E+00  0.4000E+01
    -29.791  0.0000E+00  0.4000E+01
    -29.666  0.0000E+00  0.4000E+01
    -29.541  0.0000E+00  0.4000E+01
    -29.416  0.0000E+00  0.4000E+01
    -29.291  0.0000E+00  0.4000E+01
    -29.166  0.0000E+00  0.4000E+01
    -29.041  0.0000E+00  0.4000E+01
    -28.916  0.0000E+00  0.4000E+01
    -28.792  0.0000E+00  0.4000E+01
    -28.667  0.0000E+00  0.4000E+01
    -28.542  0.0000E+00  0.4000E+01
    -28.417  0.0000E+00  0.4000E+01
    -28.292  0.0000E+00  0.4000E+01
    -28.167  0.0000E+00  0.4000E+01
    -28.042  0.0000E+00  0.4000E+01
    -27.917  0.0000E+00  0.4000E+01
    -27.793  0.0000E+00  0.4000E+01
    -27.668  0.0000E+00  0.4000E+01
    -27.543  0.0000E+00  0.4000E+01
    -27.418  0.0000E+00  0.4000E+01
    -27.293  0.0000E+00  0.4000E+01
    -27.168  0.0000E+00  0.4000E+01
    -27.043  0.0000E+00  0.4000E+01
    -26.918  0.0000E+00  0.4000E+01
    -26.793  0.0000E+00  0.4000E+01
    -26.669  0.0000E+00  0.4000E+01
    -26.544  0.0000E+00  0.4000E+01
    -26.419  0.0000E+00  0.4000E+01
    -26.294  0.0000E+00  0.4000E+01
    -26.169  0.0000E+00  0.4000E+01
    -26.044  0.0000E+00  0.4000E+01
    -25.919  0.0000E+00  0.4000E+01
    -25.794  0.0000E+00  0.4000E+01
    -25.669  0.0000E+00  0.4000E+01
    -25.545  0.0000E+00  0.4000E+01
    -25.420  0.0000E+00  0.4000E+01
    -25.295  0.0000E+00  0.4000E+01
    -25.170  0.0000E+00  0.4000E+01
    -25.045  0.0000E+00  0.4000E+01
    -24.920  0.0000E+00  0.4000E+01
    -24.795  0.0000E+00  0.4000E+01
    -24.670  0.0000E+00  0.4000E+01
    -24.545  0.0000E+00  0.4000E+01
    -24.421  0.0000E+00  0.4000E+01
    -24.296  0.0000E+00  0.4000E+01
    -24.171  0.0000E+00  0.4000E+01
    -24.046  0.0000E+00  0.4000E+01
    -23.921  0.0000E+00  0.4000E+01
    -23.796  0.0000E+00  0.4000E+01
    -23.671  0.0000E+00  0.4000E+01
    -23.546  0.0000E+00  0.4000E+01
    -23.421  0.0000E+00  0.4000E+01
    -23.297  0.0000E+00  0.4000E+01
    -23.172  0.0000E+00  0.4000E+01
    -23.047  0.0000E+00  0.4000E+01
    -22.922  0.0000E+00  0.4000E+01
    -22.797  0.0000E+00  0.4000E+01
    -22.672  0.0000E+00  0.4000E+01
    -22.547  0.0000E+00  0.4000E+01
    -22.422  0.0000E+00  0.4000E+01
    -22.297  0.0000E+00  0.4000E+01
    -22.173  0.0000E+00  0.4000E+01
    -22.048  0.0000E+00  0.4000E+01
    -21.923  0.0000E+00  0.4000E+01
    -21.798  0.0000E+00  0.4000E+01
    -21.673  0.0000E+00  0.4000E+01
    -21.548  0.0000E+00  0.4000E+01
    -21.423  0.0000E+00  0.4000E+01
    -21.298  0.0000E+00  0.4000E+01
    -21.173  0.1691E-08  0.4000E+01
    -21.049  0.3838E-01  0.4005E+01
    -20.924  0.1216E+02  0.5523E+01
    -20.799  0.3816E+01  0.6000E+01
    -20.674  0.1758E-03  0.6000E+01
    -20.549  0.6045E-13  0.6000E+01
    -20.424  0.0000E+00  0.6000E+01
    -20.299  0.0000E+00  0.6000E+01
    -20.174  0.0000E+00  0.6000E+01
    -20.050  0.0000E+00  0.6000E+01
    -19.925  0.0000E+00  0.6000E+01
    -19.800  0.0000E+00  0.6000E+01
    -19.675  0.0000E+00  0.6000E+01
    -19.550  0.0000E+00  0.6000E+01
    -19.425  0.0000E+00  0.6000E+01
    -19.300  0.8890E-15  0.6000E+01
    -19.175  0.1515E-04  0.6000E+01
    -19.050  0.1744E+01  0.6218E+01
    -18.926  0.1410E+02  0.7979E+01
    -18.801  0.1717E+00  0.8000E+01
    -18.676  0.4376E-07  0.8000E+01
    -18.551  0.0000E+00  0.8000E+01
    -18.426  0.0000E+00  0.8000E+01
    -18.301  0.0000E+00  0.8000E+01
    -18.176  0.0000E+00  0.8000E+01
    -18.051  0.0000E+00  0.8000E+01
    -17.926  0.0000E+00  0.8000E+01
    -17.802  0.0000E+00  0.8000E+01
    -17.677  0.0000E+00  0.8000E+01
    -17.552  0.0000E+00  0.8000E+01
    -17.427  0.0000E+00  0.8000E+01
    -17.302  0.0000E+00  0.8000E+01
    -17.177  0.0000E+00  0.8000E+01
    -17.052  0.0000E+00  0.8000E+01
    -16.927  0.0000E+00  0.8000E+01
    -16.802  0.0000E+00  0.8000E+01
    -16.678  0.0000E+00  0.8000E+01
    -16.553  0.0000E+00  0.8000E+01
    -16.428  0.0000E+00  0.8000E+01
    -16.303  0.0000E+00  0.8000E+01
    -16.178  0.0000E+00  0.8000E+01
    -16.053  0.0000E+00  0.8000E+01
    -15.928  0.0000E+00  0.8000E+01
    -15.803  0.0000E+00  0.8000E+01
    -15.678  0.0000E+00  0.8000E+01
    -15.554  0.0000E+00  0.8000E+01
    -15.429  0.8196E-12  0.8000E+01
    -15.304  0.7532E-03  0.8000E+01
    -15.179  0.5677E+01  0.8709E+01
    -15.054  0.1032E+02  0.9998E+01
    -14.929  0.1267E-01  0.1000E+02
    -14.804  0.1768E-09  0.1000E+02
    -14.679  0.0000E+00  0.1000E+02
    -14.554  0.0000E+00  0.1000E+02
    -14.430  0.0000E+00  0.1000E+02
    -14.305  0.0000E+00  0.1000E+02
    -14.180  0.0000E+00  0.1000E+02
    -14.055  0.0000E+00  0.1000E+02
    -13.930  0.0000E+00  0.1000E+02
    -13.805  0.6845E-13  0.1000E+02
    -13.680  0.1926E-03  0.1000E+02
    -13.555  0.4834E+01  0.1060E+02
    -13.430  0.2676E+02  0.1395E+02
    -13.306  0.4350E+00  0.1400E+02
    -13.181  0.3159E-06  0.1400E+02
    -13.056  0.0000E+00  0.1400E+02
    -12.931  0.3301E-08  0.1400E+02
    -12.806  0.5275E-01  0.1401E+02
    -12.681  0.1264E+02  0.1559E+02
    -12.556  0.3322E+01  0.1600E+02
    -12.431  0.1102E-03  0.1600E+02
    -12.307  0.3814E-01  0.1600E+02
    -12.182  0.1215E+02  0.1752E+02
    -12.057  0.3826E+01  0.1800E+02
    -11.932  0.1774E-03  0.1800E+02
    -11.807  0.6045E-13  0.1800E+02
    -11.682  0.0000E+00  0.1800E+02
    -11.557  0.0000E+00  0.1800E+02
    -11.432  0.0000E+00  0.1800E+02
    -11.307  0.0000E+00  0.1800E+02
    -11.183  0.0000E+00  0.1800E+02
    -11.058  0.0000E+00  0.1800E+02
    -10.933  0.0000E+00  0.1800E+02
    -10.808  0.0000E+00  0.1800E+02
    -10.683  0.0000E+00  0.1800E+02
    -10.558  0.0000E+00  0.1800E+02
    -10.433  0.0000E+00  0.1800E+02
    -10.308  0.0000E+00  0.1800E+02
    -10.183  0.1745E-11  0.1800E+02
    -10.059  0.1136E-02  0.1800E+02
     -9.934  0.6286E+01  0.1879E+02
     -9.809  0.9719E+01  0.2000E+02
     -9.684  0.8931E-02  0.2000E+02
     -9.559  0.8853E-10  0.2000E+02
     -9.434  0.0000E+00  0.2000E+02
     -9.309  0.0000E+00  0.2000E+02
     -9.184  0.0000E+00  0.2000E+02
     -9.059  0.0000E+00  0.2000E+02
     -8.935  0.0000E+00  0.2000E+02
     -8.810  0.0000E+00  0.2000E+02
     -8.685  0.0000E+00  0.2000E+02
     -8.560  0.0000E+00  0.2000E+02
     -8.435  0.0000E+00  0.2000E+02
     -8.310  0.0000E+00  0.2000E+02
     -8.185  0.0000E+00  0.2000E+02
     -8.060  0.0000E+00  0.2000E+02
     -7.935  0.0000E+00  0.2000E+02
     -7.811  0.8890E-15  0.2000E+02
     -7.686  0.1552E-04  0.2000E+02
     -7.561  0.1759E+01  0.2022E+02
     -7.436  0.1409E+02  0.2198E+02
     -7.311  0.1695E+00  0.2200E+02
     -7.186  0.4248E-07  0.2200E+02
     -7.061  0.0000E+00  0.2200E+02
     -6.936  0.0000E+00  0.2200E+02
     -6.811  0.0000E+00  0.2200E+02
     -6.687  0.6161E-12  0.2200E+02
     -6.562  0.6442E-03  0.2200E+02
     -6.437  0.5455E+01  0.2268E+02
     -6.312  0.1054E+02  0.2400E+02
     -6.187  0.1440E-01  0.2400E+02
     -6.062  0.2285E-09  0.2400E+02
     -5.937  0.0000E+00  0.2400E+02
     -5.812  0.0000E+00  0.2400E+02
     -5.687  0.0000E+00  0.2400E+02
     -5.563  0.4065E-11  0.2400E+02
     -5.438  0.1789E-02  0.2400E+02
     -5.313  0.6997E+01  0.2487E+02
     -5.188  0.9010E+01  0.2600E+02
     -5.063  0.5936E-02  0.2600E+02
     -4.938  0.3988E-10  0.2600E+02
     -4.813  0.0000E+00  0.2600E+02
     -4.688  0.0000E+00  0.2600E+02
     -4.564  0.0000E+00  0.2600E+02
     -4.439  0.0000E+00  0.2600E+02
     -4.314  0.0000E+00  0.2600E+02
     -4.189  0.0000E+00  0.2600E+02
     -4.064  0.0000E+00  0.2600E+02
     -3.939  0.0000E+00  0.2600E+02
     -3.814  0.8890E-15  0.2600E+02
     -3.689  0.1448E-04  0.2600E+02
     -3.564  0.1717E+01  0.2621E+02
     -3.440  0.1412E+02  0.2798E+02
     -3.315  0.1759E+00  0.2800E+02
     -3.190  0.4620E-07  0.2800E+02
     -3.065  0.0000E+00  0.2800E+02
     -2.940  0.0000E+00  0.2800E+02
     -2.815  0.0000E+00  0.2800E+02
     -2.690  0.0000E+00  0.2800E+02
     -2.565  0.0000E+00  0.2800E+02
     -2.440  0.0000E+00  0.2800E+02
     -2.316  0.0000E+00  0.2800E+02
     -2.191  0.0000E+00  0.2800E+02
     -2.066  0.0000E+00  0.2800E+02
     -1.941  0.0000E+00  0.2800E+02
     -1.816  0.0000E+00  0.2800E+02
     -1.691  0.0000E+00  0.2800E+02
     -1.566  0.0000E+00  0.2800E+02
     -1.441  0.0000E+00  0.2800E+02
     -1.316  0.0000E+00  0.2800E+02
     -1.192  0.0000E+00  0.2800E+02
     -1.067  0.0000E+00  0.2800E+02
     -0.942  0.0000E+00  0.2800E+02
     -0.817  0.0000E+00  0.2800E+02
     -0.692  0.0000E+00  0.2800E+02
     -0.567  0.0000E+00  0.2800E+02
     -0.442  0.6166E-07  0.2800E+02
     -0.317  0.1996E+00  0.2802E+02
     -0.192  0.1424E+02  0.2980E+02
     -0.068  0.1578E+01  0.3000E+02
      0.057  0.1137E-04  0.3000E+02
      0.182  0.6007E-04  0.3000E+02
      0.307  0.2787E+01  0.3035E+02
      0.432  0.2672E+02  0.3369E+02
      0.557  0.1834E+02  0.3598E+02
      0.682  0.1971E+00  0.3600E+02
      0.807  0.5975E-07  0.3600E+02
      0.932  0.0000E+00  0.3600E+02
      1.056  0.0000E+00  0.3600E+02
      1.181  0.0000E+00  0.3600E+02
      1.306  0.0000E+00  0.3600E+02
      1.431  0.0000E+00  0.3600E+02
      1.556  0.0000E+00  0.3600E+02
      1.681  0.0000E+00  0.3600E+02
      1.806  0.0000E+00  0.3600E+02
      1.931  0.0000E+00  0.3600E+02
      2.055  0.0000E+00  0.3600E+02
      2.180  0.0000E+00  0.3600E+02
