    4    4    1    1
  0.7621563E+03  0.1450000E-08  0.1450000E-08  0.1450000E-08  0.5000000E-15
   1.0000000000000000E-004
  CAR 
 NiAl                                    
     24      1     18
 
  0.1262379E-14  0.1262379E-14  0.1262379E-14  0.1000000E+01
      1        -33.582718   1.000000
      2        -32.049188   1.000000
      3        -20.948878   1.000000
      4        -19.006840   1.000000
      5        -15.165720   1.000000
      6        -13.530830   1.000000
      7        -13.499852   1.000000
      8        -12.709998   1.000000
      9        -12.206713   1.000000
     10         -9.924016   1.000000
     11         -7.517408   1.000000
     12         -6.422298   1.000000
     13         -5.307230   0.000000
     14         -3.520528   0.000000
     15         -0.238068   0.000000
     16          0.340549   0.000000
     17          0.408338   0.000000
     18          0.477382   0.000000
