       N       E                     dE             d eps       ncg     rms          rms(c)
DAV:   1     0.170463451399E+03    0.17046E+03   -0.48676E+03    60   0.514E+02
DAV:   2     0.310592028734E+02   -0.13940E+03   -0.13783E+03    66   0.168E+02
DAV:   3    -0.120725242310E+02   -0.43132E+02   -0.40445E+02    72   0.738E+01
DAV:   4    -0.189576688917E+02   -0.68851E+01   -0.68228E+01    54   0.254E+01
DAV:   5    -0.191871316077E+02   -0.22946E+00   -0.22146E+00    72   0.417E+00    0.618E+01
DAV:   6    -0.186848839452E+02    0.50225E+00   -0.64098E-01    48   0.705E+00    0.382E+01
DAV:   7    -0.186928418571E+02   -0.79579E-02   -0.82752E-01    48   0.796E+00    0.134E+00
DAV:   8    -0.186788756072E+02    0.13966E-01   -0.12308E-01    48   0.332E+00    0.582E-01
DAV:   9    -0.186792954848E+02   -0.41988E-03   -0.28553E-03    54   0.450E-01    0.225E-01
DAV:  10    -0.186795346287E+02   -0.23914E-03   -0.25628E-04    54   0.140E-01    0.145E-01
DAV:  11    -0.186796432100E+02   -0.10858E-03   -0.10222E-05    54   0.266E-02    0.607E-02
DAV:  12    -0.186798171155E+02   -0.17391E-03   -0.36404E-05    60   0.490E-02    0.810E-03
DAV:  13    -0.186799959577E+02   -0.17884E-03   -0.10314E-05    48   0.164E-02    0.520E-03
DAV:  14    -0.186800881663E+02   -0.92209E-04   -0.54804E-06    48   0.112E-02    0.891E-03
DAV:  15    -0.186801525226E+02   -0.64356E-04   -0.19030E-06    42   0.842E-03    0.209E-03
DAV:  16    -0.186801883784E+02   -0.35856E-04   -0.94118E-07    48   0.517E-03    0.295E-03
DAV:  17    -0.186802109658E+02   -0.22587E-04   -0.45032E-07    48   0.365E-03    0.224E-04
DAV:  18    -0.186802146633E+02   -0.36975E-05   -0.21708E-08    30   0.122E-03    0.551E-04
DAV:  19    -0.186802161635E+02   -0.15003E-05   -0.10994E-08    36   0.822E-04    0.240E-04
DAV:  20    -0.186802167039E+02   -0.54037E-06   -0.10179E-08    36   0.949E-04    0.125E-04
DAV:  21    -0.186802167520E+02   -0.48115E-07   -0.51503E-09    36   0.596E-04
   1 F= -.18722081E+02 E0= -.18722081E+02  d E =-.329511E-12
