<?xml version="1.0" encoding="ISO-8859-1"?>
<modeling>
 <generator>
  <i name="program" type="string">vasp </i>
  <i name="version" type="string">6.3.1  </i>
  <i name="subversion" type="string">04May22 (build Jun 29 2022 13:52:15) complex                          parallel </i>
  <i name="platform" type="string">LinuxNV </i>
  <i name="date" type="string">2022 10 05 </i>
  <i name="time" type="string">18:47:24 </i>
 </generator>
 <incar>
  <i type="string" name="SYSTEM">NiAl</i>
  <i type="int" name="ISTART">     0</i>
  <i type="int" name="NELMIN">     6</i>
  <i name="EDIFF">      0.00000010</i>
  <i name="ENCUT">    360.00000000</i>
  <i type="string" name="LREAL">Auto</i>
  <i type="logical" name="LPLANE"> T  </i>
  <i type="int" name="ISMEAR">     0</i>
  <i name="SIGMA">      0.05000000</i>
  <i type="logical" name="LWAVE"> F  </i>
  <i type="logical" name="LCHARG"> F  </i>
  <i type="int" name="IVDW">    12</i>
 </incar>
 <primitive_cell>
  <structure name="primitive_cell" >
   <crystal>
    <varray name="basis" >
     <v>      14.50000000       0.00000000       0.00000000 </v>
     <v>       0.00000000      14.50000000       0.00000000 </v>
     <v>       0.00000000       0.00000000      14.50000000 </v>
    </varray>
    <i name="volume">   3048.62500000 </i>
    <varray name="rec_basis" >
     <v>       0.06896552       0.00000000       0.00000000 </v>
     <v>       0.00000000       0.06896552       0.00000000 </v>
     <v>       0.00000000       0.00000000       0.06896552 </v>
    </varray>
   </crystal>
   <varray name="positions" >
    <v>       0.00000000       0.00000000       0.00000000 </v>
    <v>       0.08324138       0.00000000       0.00000000 </v>
    <v>       0.00000000       0.00000000       0.13103448 </v>
    <v>       0.08324138       0.00000000       0.13103448 </v>
   </varray>
  </structure>
  <varray name="primitive_index" >
   <v type="int" >        1 </v>
   <v type="int" >        2 </v>
   <v type="int" >        3 </v>
   <v type="int" >        4 </v>
  </varray>
 </primitive_cell>
 <kpoints>
  <generation param="Gamma">
   <v type="int" name="divisions">       1        1        1 </v>
   <v name="usershift">      0.00000000       0.00000000       0.00000000 </v>
   <v name="genvec1">      1.00000000       0.00000000       0.00000000 </v>
   <v name="genvec2">      0.00000000       1.00000000       0.00000000 </v>
   <v name="genvec3">      0.00000000       0.00000000       1.00000000 </v>
   <v name="shift">      0.00000000       0.00000000       0.00000000 </v>
  </generation>
  <varray name="kpointlist" >
   <v>       0.00000000       0.00000000       0.00000000 </v>
  </varray>
  <varray name="weights" >
   <v>       1.00000000 </v>
  </varray>
 </kpoints>
 <parameters>
  <separator name="general" >
   <i type="string" name="SYSTEM">NiAl</i>
   <i type="logical" name="LCOMPAT"> F  </i>
  </separator>
  <separator name="electronic" >
   <i type="string" name="PREC">normal</i>
   <i name="ENMAX">    360.00000000</i>
   <i name="ENAUG">   1139.60900000</i>
   <i name="EDIFF">      0.00000010</i>
   <i type="int" name="IALGO">    38</i>
   <i type="int" name="IWAVPR">    10</i>
   <i type="int" name="NBANDS">    18</i>
   <i type="int" name="NBANDSLOW">    -1</i>
   <i type="int" name="NBANDSHIGH">    -1</i>
   <i name="NELECT">     24.00000000</i>
   <i type="int" name="TURBO">     0</i>
   <i type="int" name="IRESTART">     0</i>
   <i type="int" name="NREBOOT">     0</i>
   <i type="int" name="NMIN">     0</i>
   <i name="EREF">      0.00000000</i>
   <separator name="electronic smearing" >
    <i type="int" name="ISMEAR">     0</i>
    <i name="SIGMA">      0.05000000</i>
    <i name="KSPACING">      0.50000000</i>
    <i type="logical" name="KGAMMA"> T  </i>
    <i type="logical" name="KBLOWUP"> T  </i>
   </separator>
   <separator name="electronic projectors" >
    <i type="logical" name="LREAL"> T  </i>
    <v name="ROPT">     -0.00050000</v>
    <i type="int" name="LMAXPAW">  -100</i>
    <i type="int" name="LMAXMIX">     2</i>
    <i type="logical" name="NLSPLINE"> F  </i>
   </separator>
   <separator name="electronic startup" >
    <i type="int" name="ISTART">     0</i>
    <i type="int" name="ICHARG">     2</i>
    <i type="int" name="INIWAV">     1</i>
   </separator>
   <separator name="electronic spin" >
    <i type="int" name="ISPIN">     1</i>
    <i type="logical" name="LNONCOLLINEAR"> F  </i>
    <v name="MAGMOM">      1.00000000      1.00000000      1.00000000      1.00000000</v>
    <i name="NUPDOWN">     -1.00000000</i>
    <i type="logical" name="LSORBIT"> F  </i>
    <v name="SAXIS">      0.00000000      0.00000000      1.00000000</v>
    <i type="logical" name="LSPIRAL"> F  </i>
    <v name="QSPIRAL">      0.00000000      0.00000000      0.00000000</v>
    <i type="logical" name="LZEROZ"> F  </i>
   </separator>
   <separator name="electronic exchange-correlation" >
    <i type="logical" name="LASPH"> F  </i>
    <i type="logical" name="LMETAGGA"> F  </i>
   </separator>
   <separator name="electronic convergence" >
    <i type="int" name="NELM">    60</i>
    <i type="int" name="NELMDL">    -5</i>
    <i type="int" name="NELMIN">     6</i>
    <i name="ENINI">    360.00000000</i>
    <separator name="electronic convergence detail" >
     <i type="logical" name="LDIAG"> T  </i>
     <i type="logical" name="LSUBROT"> F  </i>
     <i name="WEIMIN">      0.00000000</i>
     <i name="EBREAK">      0.00000000</i>
     <i name="DEPER">      0.30000000</i>
     <i type="int" name="NRMM">     4</i>
     <i name="TIME">      0.40000000</i>
    </separator>
   </separator>
   <separator name="electronic mixer" >
    <i name="AMIX">      0.40000000</i>
    <i name="BMIX">      1.00000000</i>
    <i name="AMIN">      0.10000000</i>
    <i name="AMIX_MAG">      1.60000000</i>
    <i name="BMIX_MAG">      1.00000000</i>
    <separator name="electronic mixer details" >
     <i type="int" name="IMIX">     4</i>
     <i type="logical" name="MIXFIRST"> F  </i>
     <i type="int" name="MAXMIX">   -45</i>
     <i name="WC">    100.00000000</i>
     <i type="int" name="INIMIX">     1</i>
     <i type="int" name="MIXPRE">     1</i>
     <i type="int" name="MREMOVE">     5</i>
    </separator>
   </separator>
   <separator name="electronic dipolcorrection" >
    <i type="logical" name="LDIPOL"> F  </i>
    <i type="logical" name="LMONO"> F  </i>
    <i type="int" name="IDIPOL">     0</i>
    <i name="EPSILON">      1.00000000</i>
    <v name="DIPOL">   -100.00000000   -100.00000000   -100.00000000</v>
    <i name="EFIELD">      0.00000000</i>
   </separator>
  </separator>
  <separator name="grids" >
   <i type="int" name="NGX">    70</i>
   <i type="int" name="NGY">    70</i>
   <i type="int" name="NGZ">    70</i>
   <i type="int" name="NGXF">   140</i>
   <i type="int" name="NGYF">   140</i>
   <i type="int" name="NGZF">   140</i>
   <i type="logical" name="ADDGRID"> F  </i>
  </separator>
  <separator name="ionic" >
   <i type="int" name="NSW">     0</i>
   <i type="int" name="IBRION">    -1</i>
   <i type="int" name="MDALGO">     0</i>
   <i type="int" name="ISIF">     2</i>
   <i name="PSTRESS">      0.00000000</i>
   <i name="EDIFFG">      0.00000100</i>
   <i type="int" name="NFREE">     0</i>
   <i name="POTIM">      0.50000000</i>
   <i name="SMASS">     -3.00000000</i>
   <i name="SCALEE">      1.00000000</i>
  </separator>
  <separator name="ionic md" >
   <i name="TEBEG">      0.00010000</i>
   <i name="TEEND">      0.00010000</i>
   <i type="int" name="NBLOCK">     1</i>
   <i type="int" name="KBLOCK">     1</i>
   <i type="int" name="NPACO">   256</i>
   <i name="APACO">     10.00000000</i>
  </separator>
  <separator name="symmetry" >
   <i type="int" name="ISYM">     2</i>
   <i name="SYMPREC">      0.00001000</i>
  </separator>
  <separator name="dos" >
   <i type="int" name="LORBIT">     0</i>
   <v name="RWIGS">     -1.00000000</v>
   <i type="int" name="NEDOS">   301</i>
   <i name="EMIN">     10.00000000</i>
   <i name="EMAX">    -10.00000000</i>
   <i name="EFERMI">      0.00000000</i>
  </separator>
  <separator name="writing" >
   <i type="int" name="NWRITE">     2</i>
   <i type="logical" name="LWAVE"> F  </i>
   <i type="logical" name="LDOWNSAMPLE"> F  </i>
   <i type="logical" name="LCHARG"> F  </i>
   <i type="logical" name="LPARD"> F  </i>
   <i type="logical" name="LVTOT"> F  </i>
   <i type="logical" name="LVHAR"> F  </i>
   <i type="logical" name="LELF"> F  </i>
   <i type="logical" name="LOPTICS"> F  </i>
   <v name="STM">      0.00000000      0.00000000      0.00000000      0.00000000      0.00000000      0.00000000      0.00000000</v>
  </separator>
  <separator name="performance" >
   <i type="int" name="NPAR">     6</i>
   <i type="int" name="NSIM">     4</i>
   <i type="int" name="NBLK">    -1</i>
   <i type="logical" name="LPLANE"> T  </i>
   <i type="logical" name="LSCALAPACK"> T  </i>
   <i type="logical" name="LSCAAWARE"> F  </i>
   <i type="logical" name="LSCALU"> F  </i>
   <i type="logical" name="LASYNC"> F  </i>
   <i type="logical" name="LORBITALREAL"> F  </i>
  </separator>
  <separator name="miscellaneous" >
   <i type="int" name="IDIOT">     3</i>
   <i type="int" name="PHON_NSTRUCT">    -1</i>
   <i type="logical" name="LMUSIC"> F  </i>
   <v name="POMASS">     16.00000000</v>
   <v name="DARWINR">      0.00000000</v>
   <v name="DARWINV">      1.00000000</v>
   <i type="logical" name="LCORR"> T  </i>
  </separator>
  <i type="logical" name="GGA_COMPAT"> T  </i>
  <i type="logical" name="LBERRY"> F  </i>
  <i type="int" name="ICORELEVEL">     0</i>
  <i type="logical" name="LDAU"> F  </i>
  <i type="int" name="I_CONSTRAINED_M">     0</i>
  <separator name="electronic exchange-correlation" >
   <i type="string" name="GGA">--</i>
   <i type="int" name="VOSKOWN">     0</i>
   <i type="logical" name="LHFCALC"> F  </i>
   <i type="string" name="PRECFOCK"></i>
   <i type="logical" name="LSYMGRAD"> F  </i>
   <i type="logical" name="LHFONE"> F  </i>
   <i type="logical" name="LRHFCALC"> F  </i>
   <i type="logical" name="LTHOMAS"> F  </i>
   <i type="logical" name="LMODELHF"> F  </i>
   <i type="logical" name="LFOCKACE"> F  </i>
   <i name="ENCUT4O">     -1.00000000</i>
   <i type="int" name="EXXOEP">     0</i>
   <i type="int" name="FOURORBIT">     0</i>
   <i name="AEXX">      0.00000000</i>
   <i name="HFALPHA">      0.00000000</i>
   <i name="MCALPHA">      0.00000000</i>
   <i name="ALDAX">      1.00000000</i>
   <i name="AGGAX">      1.00000000</i>
   <i name="ALDAC">      1.00000000</i>
   <i name="AGGAC">      1.00000000</i>
   <i type="int" name="NKREDX">     1</i>
   <i type="int" name="NKREDY">     1</i>
   <i type="int" name="NKREDZ">     1</i>
   <i type="logical" name="SHIFTRED"> F  </i>
   <i type="logical" name="ODDONLY"> F  </i>
   <i type="logical" name="EVENONLY"> F  </i>
   <i type="int" name="LMAXFOCK">     0</i>
   <i type="int" name="NMAXFOCKAE">     0</i>
   <i type="logical" name="LFOCKAEDFT"> F  </i>
   <i name="HFSCREEN">      0.00000000</i>
   <i name="HFSCREENC">      0.00000000</i>
   <i type="int" name="NBANDSGWLOW">     0</i>
  </separator>
  <separator name="vdW DFT" >
   <i type="logical" name="LUSE_VDW"> F  </i>
   <i name="Zab_VDW">     -0.84910000</i>
   <i name="PARAM1">      0.12340000</i>
   <i name="PARAM2">      1.00000000</i>
   <i name="PARAM3">      0.00000000</i>
  </separator>
  <separator name="model GW" >
   <i type="int" name="MODEL_GW">     0</i>
   <i name="MODEL_EPS0">    457.29375000</i>
   <i name="MODEL_ALPHA">      1.00000000</i>
  </separator>
  <separator name="linear response parameters" >
   <i type="logical" name="LEPSILON"> F  </i>
   <i type="logical" name="LRPA"> F  </i>
   <i type="logical" name="LNABLA"> F  </i>
   <i type="logical" name="LVEL"> F  </i>
   <i name="CSHIFT">      0.10000000</i>
   <i name="OMEGAMAX">     -1.00000000</i>
   <i name="DEG_THRESHOLD">      0.00200000</i>
   <i name="RTIME">     -0.10000000</i>
   <i name="WPLASMAI">      0.00000000</i>
   <v name="DFIELD">      0.00000000      0.00000000      0.00000000</v>
   <v name="WPLASMA">      0.00000000      0.00000000      0.00000000      0.00000000      0.00000000      0.00000000      0.00000000      0.00000000      0.00000000</v>
  </separator>
  <separator name="orbital magnetization" >
   <i type="logical" name="NUCIND"> F  </i>
   <v name="MAGPOS">      0.00000000      0.00000000      0.00000000</v>
   <i type="logical" name="LNICSALL"> T  </i>
   <i type="logical" name="ORBITALMAG"> F  </i>
   <i type="logical" name="LMAGBLOCH"> F  </i>
   <i type="logical" name="LCHIMAG"> F  </i>
   <i type="logical" name="LGAUGE"> T  </i>
   <i type="int" name="MAGATOM">     0</i>
   <v name="MAGDIPOL">      0.00000000      0.00000000      0.00000000</v>
   <v name="AVECCONST">      0.00000000      0.00000000      0.00000000</v>
  </separator>
  <separator name="response functions" >
   <i type="logical" name="LFINITE_TEMPERATURE"> F  </i>
   <i type="logical" name="LADDER"> F  </i>
   <i type="logical" name="LRPAFORCE"> F  </i>
   <i type="logical" name="LFXC"> F  </i>
   <i type="logical" name="LHARTREE"> T  </i>
   <i type="int" name="IBSE">     0</i>
   <v type="int" name="KPOINT">    -1     0     0     0</v>
   <i type="logical" name="LTCTC"> F  </i>
   <i type="logical" name="LTCTE"> F  </i>
   <i type="logical" name="LTETE"> F  </i>
   <i type="logical" name="LTRIPLET"> F  </i>
   <i type="logical" name="LFXCEPS"> F  </i>
   <i type="logical" name="LFXHEG"> F  </i>
   <i type="int" name="NATURALO">     2</i>
   <i type="logical" name="LHOLEGF"> F  </i>
   <i type="logical" name="L2ORDER"> F  </i>
   <i type="logical" name="LDMP1"> F  </i>
   <i type="logical" name="LMP2LT"> F  </i>
   <i type="logical" name="LSMP2LT"> F  </i>
   <i type="logical" name="LGWLF"> F  </i>
   <i name="ENCUTGW">     -2.00000000</i>
   <i name="ENCUTGWSOFT">     -2.00000000</i>
   <i name="ENCUTLF">     -1.00000000</i>
   <i type="logical" name="LESF_SPLINES"> F  </i>
   <i type="int" name="LMAXMP2">    -1</i>
   <i name="SCISSOR">      0.00000000</i>
   <i type="int" name="NOMEGA">     0</i>
   <i type="int" name="NOMEGAR">     0</i>
   <i type="int" name="NBANDSGW">    -1</i>
   <i type="int" name="NBANDSO">    -1</i>
   <i type="int" name="NBANDSV">    -1</i>
   <i type="int" name="NELMGW">     1</i>
   <i type="int" name="NELMHF">     1</i>
   <i type="int" name="DIM">     3</i>
   <i type="int" name="IESPILON">     4</i>
   <i type="int" name="ANTIRES">     0</i>
   <i name="OMEGAMAX">    -30.00000000</i>
   <i name="OMEGAMIN">    -30.00000000</i>
   <i name="OMEGATL">   -200.00000000</i>
   <i type="int" name="OMEGAGRID">     0</i>
   <i name="CSHIFT">     -0.10000000</i>
   <i type="logical" name="LSELFENERGY"> F  </i>
   <i type="logical" name="LSPECTRAL"> F  </i>
   <i type="logical" name="LSPECTRALGW"> F  </i>
   <i type="logical" name="LSINGLES"> F  </i>
   <i type="logical" name="LFERMIGW"> F  </i>
   <i type="logical" name="ODDONLYGW"> F  </i>
   <i type="logical" name="EVENONLYGW"> F  </i>
   <i type="int" name="NKREDLFX">     1</i>
   <i type="int" name="NKREDLFY">     1</i>
   <i type="int" name="NKREDLFZ">     1</i>
   <i type="int" name="MAXMEM">  2800</i>
   <i type="int" name="TELESCOPE">     0</i>
   <i type="int" name="NTAUPAR">    -1</i>
   <i type="int" name="NOMEGAPAR">    -1</i>
   <i name="DAMP_NEWTON">      0.80000001</i>
   <i name="LAMBDA">      1.00000000</i>
  </separator>
  <separator name="External order field" >
   <i name="OFIELD_KAPPA">      0.00000000</i>
   <v name="OFIELD_K">      0.00000000      0.00000000      0.00000000</v>
   <i name="OFIELD_Q6_NEAR">      0.00000000</i>
   <i name="OFIELD_Q6_FAR">      0.00000000</i>
   <i name="OFIELD_A">      0.00000000</i>
  </separator>
  <separator name="optional k-points parameters" >
   <i type="int" name="KPOINTS_OPT_MODE">     1</i>
   <i type="logical" name="LKPOINTS_OPT"> F  </i>
  </separator>
 </parameters>
 <atominfo>
  <atoms>       4 </atoms>
  <types>       1 </types>
  <array name="atoms" >
   <dimension dim="1">ion</dimension>
   <field type="string">element</field>
   <field type="int">atomtype</field>
   <set>
    <rc><c>O </c><c>   1</c></rc>
    <rc><c>O </c><c>   1</c></rc>
    <rc><c>O </c><c>   1</c></rc>
    <rc><c>O </c><c>   1</c></rc>
   </set>
  </array>
  <array name="atomtypes" >
   <dimension dim="1">type</dimension>
   <field type="int">atomspertype</field>
   <field type="string">element</field>
   <field>mass</field>
   <field>valence</field>
   <field type="string">pseudopotential</field>
   <set>
    <rc><c>   4</c><c>O </c><c>     16.00000000</c><c>      6.00000000</c><c>  PAW O_GW 19Mar2012                    </c></rc>
   </set>
  </array>
 </atominfo>
 <structure name="initialpos" >
  <crystal>
   <varray name="basis" >
    <v>      14.50000000       0.00000000       0.00000000 </v>
    <v>       0.00000000      14.50000000       0.00000000 </v>
    <v>       0.00000000       0.00000000      14.50000000 </v>
   </varray>
   <i name="volume">   3048.62500000 </i>
   <varray name="rec_basis" >
    <v>       0.06896552       0.00000000       0.00000000 </v>
    <v>       0.00000000       0.06896552       0.00000000 </v>
    <v>       0.00000000       0.00000000       0.06896552 </v>
   </varray>
  </crystal>
  <varray name="positions" >
   <v>       0.00000000       0.00000000       0.00000000 </v>
   <v>       0.08324138       0.00000000       0.00000000 </v>
   <v>       0.00000000       0.00000000       0.13103448 </v>
   <v>       0.08324138       0.00000000       0.13103448 </v>
  </varray>
 </structure>
 <calculation>
  <scstep>
   <time name="dav">   12.26    6.35</time>
   <time name="total">   15.79    8.35</time>
   <energy>
    <i name="alphaZ">      0.35861207 </i>
    <i name="ewald">   1061.04438413 </i>
    <i name="hartreedc">  -2512.03377336 </i>
    <i name="XCdc">    103.34189538 </i>
    <i name="pawpsdc">   1396.60603497 </i>
    <i name="pawaedc">  -1393.39258355 </i>
    <i name="eentropy">     -0.00000000 </i>
    <i name="bandstr">   -213.41116052 </i>
    <i name="atom">   1727.95004229 </i>
    <i name="e_fr_energy">    170.46345140 </i>
    <i name="e_wo_entrp">    170.46345140 </i>
    <i name="e_0_energy">    170.46345140 </i>
   </energy>
  </scstep>
  <scstep>
   <time name="dav">   13.79    7.09</time>
   <time name="total">   13.79    7.09</time>
   <energy>
    <i name="e_fr_energy">     31.05920287 </i>
    <i name="e_wo_entrp">     31.05920287 </i>
    <i name="e_0_energy">     31.05920287 </i>
   </energy>
  </scstep>
  <scstep>
   <time name="dav">   14.63    7.52</time>
   <time name="total">   14.63    7.53</time>
   <energy>
    <i name="e_fr_energy">    -12.07252423 </i>
    <i name="e_wo_entrp">    -12.07252423 </i>
    <i name="e_0_energy">    -12.07252423 </i>
   </energy>
  </scstep>
  <scstep>
   <time name="dav">   12.36    6.23</time>
   <time name="total">   12.36    6.23</time>
   <energy>
    <i name="e_fr_energy">    -18.95766889 </i>
    <i name="e_wo_entrp">    -18.95766889 </i>
    <i name="e_0_energy">    -18.95766889 </i>
   </energy>
  </scstep>
  <scstep>
   <time name="dav">   14.80    7.65</time>
   <time name="total">   16.38    8.47</time>
   <energy>
    <i name="e_fr_energy">    -19.18713161 </i>
    <i name="e_wo_entrp">    -19.18713161 </i>
    <i name="e_0_energy">    -19.18713161 </i>
   </energy>
  </scstep>
  <scstep>
   <time name="dav">   11.23    5.54</time>
   <time name="total">   16.34    8.30</time>
   <energy>
    <i name="e_fr_energy">    -18.68488395 </i>
    <i name="e_wo_entrp">    -18.68488395 </i>
    <i name="e_0_energy">    -18.68488395 </i>
   </energy>
  </scstep>
  <scstep>
   <time name="dav">   10.59    5.42</time>
   <time name="total">   15.75    8.26</time>
   <energy>
    <i name="e_fr_energy">    -18.69284186 </i>
    <i name="e_wo_entrp">    -18.69284186 </i>
    <i name="e_0_energy">    -18.69284186 </i>
   </energy>
  </scstep>
  <scstep>
   <time name="dav">   11.32    5.59</time>
   <time name="total">   17.18    8.50</time>
   <energy>
    <i name="e_fr_energy">    -18.67887561 </i>
    <i name="e_wo_entrp">    -18.67887561 </i>
    <i name="e_0_energy">    -18.67887561 </i>
   </energy>
  </scstep>
  <scstep>
   <time name="dav">   12.30    6.26</time>
   <time name="total">   18.25    9.30</time>
   <energy>
    <i name="e_fr_energy">    -18.67929548 </i>
    <i name="e_wo_entrp">    -18.67929548 </i>
    <i name="e_0_energy">    -18.67929548 </i>
   </energy>
  </scstep>
  <scstep>
   <time name="dav">   12.49    6.21</time>
   <time name="total">   17.49    8.96</time>
   <energy>
    <i name="e_fr_energy">    -18.67953463 </i>
    <i name="e_wo_entrp">    -18.67953463 </i>
    <i name="e_0_energy">    -18.67953463 </i>
   </energy>
  </scstep>
  <scstep>
   <time name="dav">   12.55    6.17</time>
   <time name="total">   17.60    8.93</time>
   <energy>
    <i name="e_fr_energy">    -18.67964321 </i>
    <i name="e_wo_entrp">    -18.67964321 </i>
    <i name="e_0_energy">    -18.67964321 </i>
   </energy>
  </scstep>
  <scstep>
   <time name="dav">   12.77    6.28</time>
   <time name="total">   18.26    9.14</time>
   <energy>
    <i name="e_fr_energy">    -18.67981712 </i>
    <i name="e_wo_entrp">    -18.67981712 </i>
    <i name="e_0_energy">    -18.67981712 </i>
   </energy>
  </scstep>
  <scstep>
   <time name="dav">   10.83    5.94</time>
   <time name="total">   16.64    8.86</time>
   <energy>
    <i name="e_fr_energy">    -18.67999596 </i>
    <i name="e_wo_entrp">    -18.67999596 </i>
    <i name="e_0_energy">    -18.67999596 </i>
   </energy>
  </scstep>
  <scstep>
   <time name="dav">   11.69    5.67</time>
   <time name="total">   17.56    8.69</time>
   <energy>
    <i name="e_fr_energy">    -18.68008817 </i>
    <i name="e_wo_entrp">    -18.68008817 </i>
    <i name="e_0_energy">    -18.68008817 </i>
   </energy>
  </scstep>
  <scstep>
   <time name="dav">   10.73    5.27</time>
   <time name="total">   15.94    8.14</time>
   <energy>
    <i name="e_fr_energy">    -18.68015252 </i>
    <i name="e_wo_entrp">    -18.68015252 </i>
    <i name="e_0_energy">    -18.68015252 </i>
   </energy>
  </scstep>
  <scstep>
   <time name="dav">   10.98    5.65</time>
   <time name="total">   16.72    8.51</time>
   <energy>
    <i name="e_fr_energy">    -18.68018838 </i>
    <i name="e_wo_entrp">    -18.68018838 </i>
    <i name="e_0_energy">    -18.68018838 </i>
   </energy>
  </scstep>
  <scstep>
   <time name="dav">   11.09    5.50</time>
   <time name="total">   16.47    8.21</time>
   <energy>
    <i name="e_fr_energy">    -18.68021097 </i>
    <i name="e_wo_entrp">    -18.68021097 </i>
    <i name="e_0_energy">    -18.68021097 </i>
   </energy>
  </scstep>
  <scstep>
   <time name="dav">    8.59    4.00</time>
   <time name="total">   13.70    6.64</time>
   <energy>
    <i name="e_fr_energy">    -18.68021466 </i>
    <i name="e_wo_entrp">    -18.68021466 </i>
    <i name="e_0_energy">    -18.68021466 </i>
   </energy>
  </scstep>
  <scstep>
   <time name="dav">    9.48    4.61</time>
   <time name="total">   15.62    7.53</time>
   <energy>
    <i name="e_fr_energy">    -18.68021616 </i>
    <i name="e_wo_entrp">    -18.68021616 </i>
    <i name="e_0_energy">    -18.68021616 </i>
   </energy>
  </scstep>
  <scstep>
   <time name="dav">    9.51    4.49</time>
   <time name="total">   15.53    7.52</time>
   <energy>
    <i name="e_fr_energy">    -18.68021670 </i>
    <i name="e_wo_entrp">    -18.68021670 </i>
    <i name="e_0_energy">    -18.68021670 </i>
   </energy>
  </scstep>
  <scstep>
   <time name="dav">   10.35    4.94</time>
   <time name="total">   14.03    6.87</time>
   <energy>
    <i name="alphaZ">      0.35861207 </i>
    <i name="ewald">   1061.04438413 </i>
    <i name="hartreedc">  -2522.12918857 </i>
    <i name="XCdc">    104.40766531 </i>
    <i name="pawpsdc">   4790.85039793 </i>
    <i name="pawaedc">  -4788.03321072 </i>
    <i name="eentropy">     -0.00000000 </i>
    <i name="bandstr">   -393.12891920 </i>
    <i name="atom">   1727.95004229 </i>
    <i name="e_fr_energy">    -18.68021675 </i>
    <i name="e_wo_entrp">    -18.68021675 </i>
    <i name="e_0_energy">    -18.68021675 </i>
   </energy>
  </scstep>
  <structure>
   <crystal>
    <varray name="basis" >
     <v>      14.50000000       0.00000000       0.00000000 </v>
     <v>       0.00000000      14.50000000       0.00000000 </v>
     <v>       0.00000000       0.00000000      14.50000000 </v>
    </varray>
    <i name="volume">   3048.62500000 </i>
    <varray name="rec_basis" >
     <v>       0.06896552       0.00000000       0.00000000 </v>
     <v>       0.00000000       0.06896552       0.00000000 </v>
     <v>       0.00000000       0.00000000       0.06896552 </v>
    </varray>
   </crystal>
   <varray name="positions" >
    <v>       0.00000000       0.00000000       0.00000000 </v>
    <v>       0.08324138       0.00000000       0.00000000 </v>
    <v>       0.00000000       0.00000000       0.13103448 </v>
    <v>       0.08324138       0.00000000       0.13103448 </v>
   </varray>
  </structure>
  <varray name="forces" >
   <v>      -3.58836407      -0.00000000      -0.74957606 </v>
   <v>       3.58836407       0.00000000      -0.74957606 </v>
   <v>      -3.58836407       0.00000000       0.74957606 </v>
   <v>       3.58836407       0.00000000       0.74957606 </v>
  </varray>
  <varray name="stress" >
   <v>      -3.53654641       0.00000000       0.00000000 </v>
   <v>      -0.00000000      -7.43216882       0.00000000 </v>
   <v>       0.00000000       0.00000000      -6.13907906 </v>
  </varray>
  <energy>
   <i name="e_fr_energy">    -18.72208147 </i>
   <i name="e_wo_entrp">    -18.72208147 </i>
   <i name="e_0_energy">    -18.72208147 </i>
  </energy>
  <time name="totalsc">  350.27  177.86</time>
  <eigenvalues>
   <array>
    <dimension dim="1">band</dimension>
    <dimension dim="2">kpoint</dimension>
    <dimension dim="3">spin</dimension>
    <field>eigene</field>
    <field>occ</field>
    <set>
     <set comment="spin 1">
      <set comment="kpoint 1">
       <r>  -33.5827    1.0000 </r>
       <r>  -32.0492    1.0000 </r>
       <r>  -20.9489    1.0000 </r>
       <r>  -19.0068    1.0000 </r>
       <r>  -15.1657    1.0000 </r>
       <r>  -13.5308    1.0000 </r>
       <r>  -13.4999    1.0000 </r>
       <r>  -12.7100    1.0000 </r>
       <r>  -12.2067    1.0000 </r>
       <r>   -9.9240    1.0000 </r>
       <r>   -7.5174    1.0000 </r>
       <r>   -6.4223    1.0000 </r>
       <r>   -5.3072    0.0000 </r>
       <r>   -3.5205    0.0000 </r>
       <r>   -0.2381    0.0000 </r>
       <r>    0.3405    0.0000 </r>
       <r>    0.4083    0.0000 </r>
       <r>    0.4774    0.0000 </r>
      </set>
     </set>
    </set>
   </array>
  </eigenvalues>
  <separator name="orbital magnetization" >
   <v name="MAGDIPOLOUT">      0.00000000      0.00000000      0.00000000</v>
  </separator>
  <dos>
   <i name="efermi">     -6.17143367 </i>
   <total>
    <array>
     <dimension dim="1">gridpoints</dimension>
     <dimension dim="2">spin</dimension>
     <field>energy</field>
     <field>total</field>
     <field>integrated</field>
     <set>
      <set comment="spin 1">
       <r>   -35.2857     0.0000     0.0000 </r>
       <r>   -35.1608     0.0000     0.0000 </r>
       <r>   -35.0359     0.0000     0.0000 </r>
       <r>   -34.9111     0.0000     0.0000 </r>
       <r>   -34.7862     0.0000     0.0000 </r>
       <r>   -34.6613     0.0000     0.0000 </r>
       <r>   -34.5364     0.0000     0.0000 </r>
       <r>   -34.4115     0.0000     0.0000 </r>
       <r>   -34.2866     0.0000     0.0000 </r>
       <r>   -34.1617     0.0000     0.0000 </r>
       <r>   -34.0369     0.0000     0.0000 </r>
       <r>   -33.9120     0.0000     0.0000 </r>
       <r>   -33.7871     0.0000     0.0000 </r>
       <r>   -33.6622     0.1969     0.0246 </r>
       <r>   -33.5373    14.2244     1.8010 </r>
       <r>   -33.4124     1.5932     2.0000 </r>
       <r>   -33.2875     0.0000     2.0000 </r>
       <r>   -33.1626     0.0000     2.0000 </r>
       <r>   -33.0378     0.0000     2.0000 </r>
       <r>   -32.9129     0.0000     2.0000 </r>
       <r>   -32.7880     0.0000     2.0000 </r>
       <r>   -32.6631     0.0000     2.0000 </r>
       <r>   -32.5382     0.0000     2.0000 </r>
       <r>   -32.4133     0.0000     2.0000 </r>
       <r>   -32.2884     0.0000     2.0000 </r>
       <r>   -32.1635     0.0098     2.0012 </r>
       <r>   -32.0387     9.8721     3.2341 </r>
       <r>   -31.9138     6.1316     3.9999 </r>
       <r>   -31.7889     0.0010     4.0000 </r>
       <r>   -31.6640     0.0000     4.0000 </r>
       <r>   -31.5391     0.0000     4.0000 </r>
       <r>   -31.4142     0.0000     4.0000 </r>
       <r>   -31.2893     0.0000     4.0000 </r>
       <r>   -31.1645     0.0000     4.0000 </r>
       <r>   -31.0396     0.0000     4.0000 </r>
       <r>   -30.9147     0.0000     4.0000 </r>
       <r>   -30.7898     0.0000     4.0000 </r>
       <r>   -30.6649     0.0000     4.0000 </r>
       <r>   -30.5400     0.0000     4.0000 </r>
       <r>   -30.4151     0.0000     4.0000 </r>
       <r>   -30.2902     0.0000     4.0000 </r>
       <r>   -30.1654     0.0000     4.0000 </r>
       <r>   -30.0405     0.0000     4.0000 </r>
       <r>   -29.9156     0.0000     4.0000 </r>
       <r>   -29.7907     0.0000     4.0000 </r>
       <r>   -29.6658     0.0000     4.0000 </r>
       <r>   -29.5409     0.0000     4.0000 </r>
       <r>   -29.4160     0.0000     4.0000 </r>
       <r>   -29.2911     0.0000     4.0000 </r>
       <r>   -29.1663     0.0000     4.0000 </r>
       <r>   -29.0414     0.0000     4.0000 </r>
       <r>   -28.9165     0.0000     4.0000 </r>
       <r>   -28.7916     0.0000     4.0000 </r>
       <r>   -28.6667     0.0000     4.0000 </r>
       <r>   -28.5418     0.0000     4.0000 </r>
       <r>   -28.4169     0.0000     4.0000 </r>
       <r>   -28.2920     0.0000     4.0000 </r>
       <r>   -28.1672     0.0000     4.0000 </r>
       <r>   -28.0423     0.0000     4.0000 </r>
       <r>   -27.9174     0.0000     4.0000 </r>
       <r>   -27.7925     0.0000     4.0000 </r>
       <r>   -27.6676     0.0000     4.0000 </r>
       <r>   -27.5427     0.0000     4.0000 </r>
       <r>   -27.4178     0.0000     4.0000 </r>
       <r>   -27.2930     0.0000     4.0000 </r>
       <r>   -27.1681     0.0000     4.0000 </r>
       <r>   -27.0432     0.0000     4.0000 </r>
       <r>   -26.9183     0.0000     4.0000 </r>
       <r>   -26.7934     0.0000     4.0000 </r>
       <r>   -26.6685     0.0000     4.0000 </r>
       <r>   -26.5436     0.0000     4.0000 </r>
       <r>   -26.4187     0.0000     4.0000 </r>
       <r>   -26.2939     0.0000     4.0000 </r>
       <r>   -26.1690     0.0000     4.0000 </r>
       <r>   -26.0441     0.0000     4.0000 </r>
       <r>   -25.9192     0.0000     4.0000 </r>
       <r>   -25.7943     0.0000     4.0000 </r>
       <r>   -25.6694     0.0000     4.0000 </r>
       <r>   -25.5445     0.0000     4.0000 </r>
       <r>   -25.4196     0.0000     4.0000 </r>
       <r>   -25.2948     0.0000     4.0000 </r>
       <r>   -25.1699     0.0000     4.0000 </r>
       <r>   -25.0450     0.0000     4.0000 </r>
       <r>   -24.9201     0.0000     4.0000 </r>
       <r>   -24.7952     0.0000     4.0000 </r>
       <r>   -24.6703     0.0000     4.0000 </r>
       <r>   -24.5454     0.0000     4.0000 </r>
       <r>   -24.4206     0.0000     4.0000 </r>
       <r>   -24.2957     0.0000     4.0000 </r>
       <r>   -24.1708     0.0000     4.0000 </r>
       <r>   -24.0459     0.0000     4.0000 </r>
       <r>   -23.9210     0.0000     4.0000 </r>
       <r>   -23.7961     0.0000     4.0000 </r>
       <r>   -23.6712     0.0000     4.0000 </r>
       <r>   -23.5463     0.0000     4.0000 </r>
       <r>   -23.4215     0.0000     4.0000 </r>
       <r>   -23.2966     0.0000     4.0000 </r>
       <r>   -23.1717     0.0000     4.0000 </r>
       <r>   -23.0468     0.0000     4.0000 </r>
       <r>   -22.9219     0.0000     4.0000 </r>
       <r>   -22.7970     0.0000     4.0000 </r>
       <r>   -22.6721     0.0000     4.0000 </r>
       <r>   -22.5472     0.0000     4.0000 </r>
       <r>   -22.4224     0.0000     4.0000 </r>
       <r>   -22.2975     0.0000     4.0000 </r>
       <r>   -22.1726     0.0000     4.0000 </r>
       <r>   -22.0477     0.0000     4.0000 </r>
       <r>   -21.9228     0.0000     4.0000 </r>
       <r>   -21.7979     0.0000     4.0000 </r>
       <r>   -21.6730     0.0000     4.0000 </r>
       <r>   -21.5481     0.0000     4.0000 </r>
       <r>   -21.4233     0.0000     4.0000 </r>
       <r>   -21.2984     0.0000     4.0000 </r>
       <r>   -21.1735     0.0000     4.0000 </r>
       <r>   -21.0486     0.0384     4.0048 </r>
       <r>   -20.9237    12.1596     5.5234 </r>
       <r>   -20.7988     3.8164     6.0000 </r>
       <r>   -20.6739     0.0002     6.0000 </r>
       <r>   -20.5491     0.0000     6.0000 </r>
       <r>   -20.4242     0.0000     6.0000 </r>
       <r>   -20.2993     0.0000     6.0000 </r>
       <r>   -20.1744     0.0000     6.0000 </r>
       <r>   -20.0495     0.0000     6.0000 </r>
       <r>   -19.9246     0.0000     6.0000 </r>
       <r>   -19.7997     0.0000     6.0000 </r>
       <r>   -19.6748     0.0000     6.0000 </r>
       <r>   -19.5500     0.0000     6.0000 </r>
       <r>   -19.4251     0.0000     6.0000 </r>
       <r>   -19.3002     0.0000     6.0000 </r>
       <r>   -19.1753     0.0000     6.0000 </r>
       <r>   -19.0504     1.7442     6.2178 </r>
       <r>   -18.9255    14.0985     7.9786 </r>
       <r>   -18.8006     0.1717     8.0000 </r>
       <r>   -18.6757     0.0000     8.0000 </r>
       <r>   -18.5509     0.0000     8.0000 </r>
       <r>   -18.4260     0.0000     8.0000 </r>
       <r>   -18.3011     0.0000     8.0000 </r>
       <r>   -18.1762     0.0000     8.0000 </r>
       <r>   -18.0513     0.0000     8.0000 </r>
       <r>   -17.9264     0.0000     8.0000 </r>
       <r>   -17.8015     0.0000     8.0000 </r>
       <r>   -17.6767     0.0000     8.0000 </r>
       <r>   -17.5518     0.0000     8.0000 </r>
       <r>   -17.4269     0.0000     8.0000 </r>
       <r>   -17.3020     0.0000     8.0000 </r>
       <r>   -17.1771     0.0000     8.0000 </r>
       <r>   -17.0522     0.0000     8.0000 </r>
       <r>   -16.9273     0.0000     8.0000 </r>
       <r>   -16.8024     0.0000     8.0000 </r>
       <r>   -16.6776     0.0000     8.0000 </r>
       <r>   -16.5527     0.0000     8.0000 </r>
       <r>   -16.4278     0.0000     8.0000 </r>
       <r>   -16.3029     0.0000     8.0000 </r>
       <r>   -16.1780     0.0000     8.0000 </r>
       <r>   -16.0531     0.0000     8.0000 </r>
       <r>   -15.9282     0.0000     8.0000 </r>
       <r>   -15.8033     0.0000     8.0000 </r>
       <r>   -15.6785     0.0000     8.0000 </r>
       <r>   -15.5536     0.0000     8.0000 </r>
       <r>   -15.4287     0.0000     8.0000 </r>
       <r>   -15.3038     0.0008     8.0001 </r>
       <r>   -15.1789     5.6771     8.7091 </r>
       <r>   -15.0540    10.3240     9.9984 </r>
       <r>   -14.9291     0.0127    10.0000 </r>
       <r>   -14.8042     0.0000    10.0000 </r>
       <r>   -14.6794     0.0000    10.0000 </r>
       <r>   -14.5545     0.0000    10.0000 </r>
       <r>   -14.4296     0.0000    10.0000 </r>
       <r>   -14.3047     0.0000    10.0000 </r>
       <r>   -14.1798     0.0000    10.0000 </r>
       <r>   -14.0549     0.0000    10.0000 </r>
       <r>   -13.9300     0.0000    10.0000 </r>
       <r>   -13.8052     0.0000    10.0000 </r>
       <r>   -13.6803     0.0002    10.0000 </r>
       <r>   -13.5554     4.8342    10.6037 </r>
       <r>   -13.4305    26.7596    13.9457 </r>
       <r>   -13.3056     0.4350    14.0000 </r>
       <r>   -13.1807     0.0000    14.0000 </r>
       <r>   -13.0558     0.0000    14.0000 </r>
       <r>   -12.9309     0.0000    14.0000 </r>
       <r>   -12.8061     0.0528    14.0066 </r>
       <r>   -12.6812    12.6398    15.5851 </r>
       <r>   -12.5563     3.3218    16.0000 </r>
       <r>   -12.4314     0.0001    16.0000 </r>
       <r>   -12.3065     0.0381    16.0048 </r>
       <r>   -12.1816    12.1497    17.5221 </r>
       <r>   -12.0567     3.8265    18.0000 </r>
       <r>   -11.9318     0.0002    18.0000 </r>
       <r>   -11.8070     0.0000    18.0000 </r>
       <r>   -11.6821     0.0000    18.0000 </r>
       <r>   -11.5572     0.0000    18.0000 </r>
       <r>   -11.4323     0.0000    18.0000 </r>
       <r>   -11.3074     0.0000    18.0000 </r>
       <r>   -11.1825     0.0000    18.0000 </r>
       <r>   -11.0576     0.0000    18.0000 </r>
       <r>   -10.9328     0.0000    18.0000 </r>
       <r>   -10.8079     0.0000    18.0000 </r>
       <r>   -10.6830     0.0000    18.0000 </r>
       <r>   -10.5581     0.0000    18.0000 </r>
       <r>   -10.4332     0.0000    18.0000 </r>
       <r>   -10.3083     0.0000    18.0000 </r>
       <r>   -10.1834     0.0000    18.0000 </r>
       <r>   -10.0585     0.0011    18.0001 </r>
       <r>    -9.9337     6.2855    18.7851 </r>
       <r>    -9.8088     9.7189    19.9989 </r>
       <r>    -9.6839     0.0089    20.0000 </r>
       <r>    -9.5590     0.0000    20.0000 </r>
       <r>    -9.4341     0.0000    20.0000 </r>
       <r>    -9.3092     0.0000    20.0000 </r>
       <r>    -9.1843     0.0000    20.0000 </r>
       <r>    -9.0594     0.0000    20.0000 </r>
       <r>    -8.9346     0.0000    20.0000 </r>
       <r>    -8.8097     0.0000    20.0000 </r>
       <r>    -8.6848     0.0000    20.0000 </r>
       <r>    -8.5599     0.0000    20.0000 </r>
       <r>    -8.4350     0.0000    20.0000 </r>
       <r>    -8.3101     0.0000    20.0000 </r>
       <r>    -8.1852     0.0000    20.0000 </r>
       <r>    -8.0604     0.0000    20.0000 </r>
       <r>    -7.9355     0.0000    20.0000 </r>
       <r>    -7.8106     0.0000    20.0000 </r>
       <r>    -7.6857     0.0000    20.0000 </r>
       <r>    -7.5608     1.7591    20.2197 </r>
       <r>    -7.4359    14.0859    21.9788 </r>
       <r>    -7.3110     0.1695    22.0000 </r>
       <r>    -7.1861     0.0000    22.0000 </r>
       <r>    -7.0613     0.0000    22.0000 </r>
       <r>    -6.9364     0.0000    22.0000 </r>
       <r>    -6.8115     0.0000    22.0000 </r>
       <r>    -6.6866     0.0000    22.0000 </r>
       <r>    -6.5617     0.0006    22.0001 </r>
       <r>    -6.4368     5.4545    22.6813 </r>
       <r>    -6.3119    10.5449    23.9982 </r>
       <r>    -6.1870     0.0144    24.0000 </r>
       <r>    -6.0622     0.0000    24.0000 </r>
       <r>    -5.9373     0.0000    24.0000 </r>
       <r>    -5.8124     0.0000    24.0000 </r>
       <r>    -5.6875     0.0000    24.0000 </r>
       <r>    -5.5626     0.0000    24.0000 </r>
       <r>    -5.4377     0.0018    24.0002 </r>
       <r>    -5.3128     6.9968    24.8740 </r>
       <r>    -5.1879     9.0099    25.9993 </r>
       <r>    -5.0631     0.0059    26.0000 </r>
       <r>    -4.9382     0.0000    26.0000 </r>
       <r>    -4.8133     0.0000    26.0000 </r>
       <r>    -4.6884     0.0000    26.0000 </r>
       <r>    -4.5635     0.0000    26.0000 </r>
       <r>    -4.4386     0.0000    26.0000 </r>
       <r>    -4.3137     0.0000    26.0000 </r>
       <r>    -4.1889     0.0000    26.0000 </r>
       <r>    -4.0640     0.0000    26.0000 </r>
       <r>    -3.9391     0.0000    26.0000 </r>
       <r>    -3.8142     0.0000    26.0000 </r>
       <r>    -3.6893     0.0000    26.0000 </r>
       <r>    -3.5644     1.7173    26.2145 </r>
       <r>    -3.4395    14.1213    27.9780 </r>
       <r>    -3.3146     0.1759    28.0000 </r>
       <r>    -3.1898     0.0000    28.0000 </r>
       <r>    -3.0649     0.0000    28.0000 </r>
       <r>    -2.9400     0.0000    28.0000 </r>
       <r>    -2.8151     0.0000    28.0000 </r>
       <r>    -2.6902     0.0000    28.0000 </r>
       <r>    -2.5653     0.0000    28.0000 </r>
       <r>    -2.4404     0.0000    28.0000 </r>
       <r>    -2.3155     0.0000    28.0000 </r>
       <r>    -2.1907     0.0000    28.0000 </r>
       <r>    -2.0658     0.0000    28.0000 </r>
       <r>    -1.9409     0.0000    28.0000 </r>
       <r>    -1.8160     0.0000    28.0000 </r>
       <r>    -1.6911     0.0000    28.0000 </r>
       <r>    -1.5662     0.0000    28.0000 </r>
       <r>    -1.4413     0.0000    28.0000 </r>
       <r>    -1.3165     0.0000    28.0000 </r>
       <r>    -1.1916     0.0000    28.0000 </r>
       <r>    -1.0667     0.0000    28.0000 </r>
       <r>    -0.9418     0.0000    28.0000 </r>
       <r>    -0.8169     0.0000    28.0000 </r>
       <r>    -0.6920     0.0000    28.0000 </r>
       <r>    -0.5671     0.0000    28.0000 </r>
       <r>    -0.4422     0.0000    28.0000 </r>
       <r>    -0.3174     0.1996    28.0249 </r>
       <r>    -0.1925    14.2365    29.8029 </r>
       <r>    -0.0676     1.5784    30.0000 </r>
       <r>     0.0573     0.0000    30.0000 </r>
       <r>     0.1822     0.0001    30.0000 </r>
       <r>     0.3071     2.7867    30.3480 </r>
       <r>     0.4320    26.7227    33.6853 </r>
       <r>     0.5569    18.3369    35.9754 </r>
       <r>     0.6817     0.1971    36.0000 </r>
       <r>     0.8066     0.0000    36.0000 </r>
       <r>     0.9315     0.0000    36.0000 </r>
       <r>     1.0564     0.0000    36.0000 </r>
       <r>     1.1813     0.0000    36.0000 </r>
       <r>     1.3062     0.0000    36.0000 </r>
       <r>     1.4311     0.0000    36.0000 </r>
       <r>     1.5560     0.0000    36.0000 </r>
       <r>     1.6808     0.0000    36.0000 </r>
       <r>     1.8057     0.0000    36.0000 </r>
       <r>     1.9306     0.0000    36.0000 </r>
       <r>     2.0555     0.0000    36.0000 </r>
       <r>     2.1804     0.0000    36.0000 </r>
      </set>
     </set>
    </array>
   </total>
  </dos>
 </calculation>
 <structure name="finalpos" >
  <crystal>
   <varray name="basis" >
    <v>      14.50000000       0.00000000       0.00000000 </v>
    <v>       0.00000000      14.50000000       0.00000000 </v>
    <v>       0.00000000       0.00000000      14.50000000 </v>
   </varray>
   <i name="volume">   3048.62500000 </i>
   <varray name="rec_basis" >
    <v>       0.06896552       0.00000000       0.00000000 </v>
    <v>       0.00000000       0.06896552       0.00000000 </v>
    <v>       0.00000000       0.00000000       0.06896552 </v>
   </varray>
  </crystal>
  <varray name="positions" >
   <v>       0.00000000       0.00000000       0.00000000 </v>
   <v>       0.08324138       0.00000000       0.00000000 </v>
   <v>       0.00000000       0.00000000       0.13103448 </v>
   <v>       0.08324138       0.00000000       0.13103448 </v>
  </varray>
 </structure>
</modeling>
