 254 254   0   0
  0.2268316E+02  0.1514622E-08  0.1514622E-08  0.2900000E-08  0.5000000E-15
   1.0000000000000000E-004
  CAR 
 NiAl                                    
      6.27150684    -28.79651652  301     -0.52039088      1.00000000
    -28.797  0.0000E+00  0.0000E+00
    -28.680  0.0000E+00  0.0000E+00
    -28.563  0.0000E+00  0.0000E+00
    -28.446  0.0000E+00  0.0000E+00
    -28.329  0.0000E+00  0.0000E+00
    -28.212  0.0000E+00  0.0000E+00
    -28.095  0.0000E+00  0.0000E+00
    -27.978  0.0000E+00  0.0000E+00
    -27.861  0.0000E+00  0.0000E+00
    -27.744  0.0000E+00  0.0000E+00
    -27.628  0.0000E+00  0.0000E+00
    -27.511  0.0000E+00  0.0000E+00
    -27.394  0.5197E-06  0.6075E-07
    -27.277  0.2979E+00  0.3483E-01
    -27.160  0.1483E+02  0.1768E+01
    -27.043  0.1983E+01  0.2000E+01
    -26.926  0.5757E-04  0.2000E+01
    -26.809  0.4986E-13  0.2000E+01
    -26.692  0.0000E+00  0.2000E+01
    -26.576  0.0000E+00  0.2000E+01
    -26.459  0.0000E+00  0.2000E+01
    -26.342  0.0000E+00  0.2000E+01
    -26.225  0.0000E+00  0.2000E+01
    -26.108  0.0000E+00  0.2000E+01
    -25.991  0.0000E+00  0.2000E+01
    -25.874  0.0000E+00  0.2000E+01
    -25.757  0.0000E+00  0.2000E+01
    -25.640  0.0000E+00  0.2000E+01
    -25.524  0.0000E+00  0.2000E+01
    -25.407  0.0000E+00  0.2000E+01
    -25.290  0.0000E+00  0.2000E+01
    -25.173  0.0000E+00  0.2000E+01
    -25.056  0.0000E+00  0.2000E+01
    -24.939  0.0000E+00  0.2000E+01
    -24.822  0.0000E+00  0.2000E+01
    -24.705  0.0000E+00  0.2000E+01
    -24.588  0.0000E+00  0.2000E+01
    -24.471  0.0000E+00  0.2000E+01
    -24.355  0.0000E+00  0.2000E+01
    -24.238  0.0000E+00  0.2000E+01
    -24.121  0.0000E+00  0.2000E+01
    -24.004  0.0000E+00  0.2000E+01
    -23.887  0.0000E+00  0.2000E+01
    -23.770  0.0000E+00  0.2000E+01
    -23.653  0.0000E+00  0.2000E+01
    -23.536  0.0000E+00  0.2000E+01
    -23.419  0.0000E+00  0.2000E+01
    -23.303  0.0000E+00  0.2000E+01
    -23.186  0.0000E+00  0.2000E+01
    -23.069  0.0000E+00  0.2000E+01
    -22.952  0.0000E+00  0.2000E+01
    -22.835  0.0000E+00  0.2000E+01
    -22.718  0.0000E+00  0.2000E+01
    -22.601  0.0000E+00  0.2000E+01
    -22.484  0.0000E+00  0.2000E+01
    -22.367  0.0000E+00  0.2000E+01
    -22.250  0.0000E+00  0.2000E+01
    -22.134  0.0000E+00  0.2000E+01
    -22.017  0.0000E+00  0.2000E+01
    -21.900  0.0000E+00  0.2000E+01
    -21.783  0.0000E+00  0.2000E+01
    -21.666  0.0000E+00  0.2000E+01
    -21.549  0.0000E+00  0.2000E+01
    -21.432  0.0000E+00  0.2000E+01
    -21.315  0.0000E+00  0.2000E+01
    -21.198  0.0000E+00  0.2000E+01
    -21.082  0.0000E+00  0.2000E+01
    -20.965  0.0000E+00  0.2000E+01
    -20.848  0.0000E+00  0.2000E+01
    -20.731  0.0000E+00  0.2000E+01
    -20.614  0.0000E+00  0.2000E+01
    -20.497  0.0000E+00  0.2000E+01
    -20.380  0.0000E+00  0.2000E+01
    -20.263  0.0000E+00  0.2000E+01
    -20.146  0.0000E+00  0.2000E+01
    -20.030  0.0000E+00  0.2000E+01
    -19.913  0.0000E+00  0.2000E+01
    -19.796  0.0000E+00  0.2000E+01
    -19.679  0.0000E+00  0.2000E+01
    -19.562  0.0000E+00  0.2000E+01
    -19.445  0.0000E+00  0.2000E+01
    -19.328  0.0000E+00  0.2000E+01
    -19.211  0.0000E+00  0.2000E+01
    -19.094  0.0000E+00  0.2000E+01
    -18.977  0.0000E+00  0.2000E+01
    -18.861  0.0000E+00  0.2000E+01
    -18.744  0.0000E+00  0.2000E+01
    -18.627  0.0000E+00  0.2000E+01
    -18.510  0.0000E+00  0.2000E+01
    -18.393  0.0000E+00  0.2000E+01
    -18.276  0.0000E+00  0.2000E+01
    -18.159  0.0000E+00  0.2000E+01
    -18.042  0.0000E+00  0.2000E+01
    -17.925  0.0000E+00  0.2000E+01
    -17.809  0.0000E+00  0.2000E+01
    -17.692  0.0000E+00  0.2000E+01
    -17.575  0.0000E+00  0.2000E+01
    -17.458  0.0000E+00  0.2000E+01
    -17.341  0.0000E+00  0.2000E+01
    -17.224  0.0000E+00  0.2000E+01
    -17.107  0.0000E+00  0.2000E+01
    -16.990  0.0000E+00  0.2000E+01
    -16.873  0.9498E-15  0.2000E+01
    -16.756  0.5522E-05  0.2000E+01
    -16.640  0.8106E+00  0.2095E+01
    -16.523  0.1543E+02  0.3898E+01
    -16.406  0.8723E+00  0.4000E+01
    -16.289  0.6627E-05  0.4000E+01
    -16.172  0.0000E+00  0.4000E+01
    -16.055  0.0000E+00  0.4000E+01
    -15.938  0.0000E+00  0.4000E+01
    -15.821  0.0000E+00  0.4000E+01
    -15.704  0.0000E+00  0.4000E+01
    -15.588  0.0000E+00  0.4000E+01
    -15.471  0.0000E+00  0.4000E+01
    -15.354  0.0000E+00  0.4000E+01
    -15.237  0.0000E+00  0.4000E+01
    -15.120  0.0000E+00  0.4000E+01
    -15.003  0.0000E+00  0.4000E+01
    -14.886  0.0000E+00  0.4000E+01
    -14.769  0.0000E+00  0.4000E+01
    -14.652  0.0000E+00  0.4000E+01
    -14.536  0.0000E+00  0.4000E+01
    -14.419  0.0000E+00  0.4000E+01
    -14.302  0.0000E+00  0.4000E+01
    -14.185  0.0000E+00  0.4000E+01
    -14.068  0.0000E+00  0.4000E+01
    -13.951  0.0000E+00  0.4000E+01
    -13.834  0.0000E+00  0.4000E+01
    -13.717  0.0000E+00  0.4000E+01
    -13.600  0.0000E+00  0.4000E+01
    -13.483  0.0000E+00  0.4000E+01
    -13.367  0.0000E+00  0.4000E+01
    -13.250  0.0000E+00  0.4000E+01
    -13.133  0.0000E+00  0.4000E+01
    -13.016  0.0000E+00  0.4000E+01
    -12.899  0.0000E+00  0.4000E+01
    -12.782  0.0000E+00  0.4000E+01
    -12.665  0.0000E+00  0.4000E+01
    -12.548  0.0000E+00  0.4000E+01
    -12.431  0.0000E+00  0.4000E+01
    -12.315  0.0000E+00  0.4000E+01
    -12.198  0.0000E+00  0.4000E+01
    -12.081  0.0000E+00  0.4000E+01
    -11.964  0.0000E+00  0.4000E+01
    -11.847  0.0000E+00  0.4000E+01
    -11.730  0.0000E+00  0.4000E+01
    -11.613  0.0000E+00  0.4000E+01
    -11.496  0.0000E+00  0.4000E+01
    -11.379  0.0000E+00  0.4000E+01
    -11.263  0.0000E+00  0.4000E+01
    -11.146  0.0000E+00  0.4000E+01
    -11.029  0.0000E+00  0.4000E+01
    -10.912  0.0000E+00  0.4000E+01
    -10.795  0.0000E+00  0.4000E+01
    -10.678  0.0000E+00  0.4000E+01
    -10.561  0.0000E+00  0.4000E+01
    -10.444  0.0000E+00  0.4000E+01
    -10.327  0.0000E+00  0.4000E+01
    -10.210  0.9498E-15  0.4000E+01
    -10.094  0.4286E-05  0.4000E+01
     -9.977  0.7304E+00  0.4085E+01
     -9.860  0.1541E+02  0.5887E+01
     -9.743  0.9658E+00  0.6000E+01
     -9.626  0.8586E-05  0.6000E+01
     -9.509  0.0000E+00  0.6000E+01
     -9.392  0.0000E+00  0.6000E+01
     -9.275  0.3004E-07  0.6000E+01
     -9.158  0.3840E-01  0.6004E+01
     -9.042  0.3496E+01  0.6413E+01
     -8.925  0.1085E+01  0.6540E+01
     -8.808  0.2207E+02  0.9120E+01
     -8.691  0.1883E+02  0.1132E+02
     -8.574  0.1292E+02  0.1283E+02
     -8.457  0.1069E+02  0.1408E+02
     -8.340  0.2844E+02  0.1741E+02
     -8.223  0.2364E+02  0.2017E+02
     -8.106  0.2324E+02  0.2288E+02
     -7.989  0.1004E+01  0.2300E+02
     -7.873  0.1280E+02  0.2450E+02
     -7.756  0.1340E+02  0.2606E+02
     -7.639  0.2156E+02  0.2858E+02
     -7.522  0.4065E+02  0.3334E+02
     -7.405  0.4376E+02  0.3845E+02
     -7.288  0.4106E+00  0.3850E+02
     -7.171  0.2485E+01  0.3879E+02
     -7.054  0.5801E+02  0.4557E+02
     -6.937  0.4296E+02  0.5059E+02
     -6.821  0.2201E+02  0.5317E+02
     -6.704  0.7186E+01  0.5401E+02
     -6.587  0.2674E+02  0.5713E+02
     -6.470  0.3632E+02  0.6138E+02
     -6.353  0.5058E+02  0.6729E+02
     -6.236  0.6343E+02  0.7470E+02
     -6.119  0.1534E+02  0.7650E+02
     -6.002  0.5004E+02  0.8234E+02
     -5.885  0.9760E+02  0.9375E+02
     -5.769  0.1916E+02  0.9599E+02
     -5.652  0.2285E+01  0.9626E+02
     -5.535  0.2469E+02  0.9915E+02
     -5.418  0.7697E+02  0.1081E+03
     -5.301  0.1299E+03  0.1233E+03
     -5.184  0.5176E+02  0.1294E+03
     -5.067  0.1053E+03  0.1417E+03
     -4.950  0.1041E+03  0.1539E+03
     -4.833  0.4088E+02  0.1586E+03
     -4.716  0.1553E+03  0.1768E+03
     -4.600  0.2145E+03  0.2019E+03
     -4.483  0.2099E+03  0.2264E+03
     -4.366  0.2371E+03  0.2541E+03
     -4.249  0.3026E+03  0.2895E+03
     -4.132  0.2489E+03  0.3186E+03
     -4.015  0.2029E+03  0.3423E+03
     -3.898  0.4191E+03  0.3913E+03
     -3.781  0.4865E+03  0.4482E+03
     -3.664  0.4626E+03  0.5022E+03
     -3.548  0.4407E+03  0.5538E+03
     -3.431  0.4192E+03  0.6028E+03
     -3.314  0.3489E+03  0.6435E+03
     -3.197  0.3659E+03  0.6863E+03
     -3.080  0.5033E+03  0.7451E+03
     -2.963  0.4259E+03  0.7949E+03
     -2.846  0.4566E+03  0.8483E+03
     -2.729  0.5770E+03  0.9157E+03
     -2.612  0.5096E+03  0.9753E+03
     -2.495  0.5408E+03  0.1039E+04
     -2.379  0.6826E+03  0.1118E+04
     -2.262  0.7525E+03  0.1206E+04
     -2.145  0.9135E+03  0.1313E+04
     -2.028  0.7896E+03  0.1405E+04
     -1.911  0.9237E+03  0.1513E+04
     -1.794  0.6148E+03  0.1585E+04
     -1.677  0.6012E+03  0.1655E+04
     -1.560  0.5433E+03  0.1719E+04
     -1.443  0.5466E+03  0.1783E+04
     -1.327  0.8129E+03  0.1878E+04
     -1.210  0.6904E+03  0.1959E+04
     -1.093  0.5423E+03  0.2022E+04
     -0.976  0.7642E+03  0.2111E+04
     -0.859  0.8672E+03  0.2213E+04
     -0.742  0.6396E+03  0.2287E+04
     -0.625  0.9524E+03  0.2399E+04
     -0.508  0.1258E+04  0.2546E+04
     -0.391  0.7747E+03  0.2636E+04
     -0.275  0.2441E+03  0.2665E+04
     -0.158  0.1192E+03  0.2679E+04
     -0.041  0.1687E+03  0.2699E+04
      0.076  0.1430E+03  0.2715E+04
      0.193  0.5027E+02  0.2721E+04
      0.310  0.5940E+02  0.2728E+04
      0.427  0.4734E+02  0.2734E+04
      0.544  0.1122E+03  0.2747E+04
      0.661  0.9194E+02  0.2758E+04
      0.778  0.8725E+02  0.2768E+04
      0.894  0.9938E+02  0.2779E+04
      1.011  0.1446E+03  0.2796E+04
      1.128  0.4934E+02  0.2802E+04
      1.245  0.2878E+02  0.2805E+04
      1.362  0.1234E+03  0.2820E+04
      1.479  0.4045E+02  0.2825E+04
      1.596  0.5408E+02  0.2831E+04
      1.713  0.1075E+03  0.2843E+04
      1.830  0.8279E+02  0.2853E+04
      1.946  0.8956E+02  0.2864E+04
      2.063  0.7276E+02  0.2872E+04
      2.180  0.5957E+02  0.2879E+04
      2.297  0.9786E+02  0.2890E+04
      2.414  0.1017E+03  0.2902E+04
      2.531  0.3605E+02  0.2907E+04
      2.648  0.6578E+02  0.2914E+04
      2.765  0.2493E+02  0.2917E+04
      2.882  0.2756E+02  0.2920E+04
      2.998  0.6708E+02  0.2928E+04
      3.115  0.2033E+03  0.2952E+04
      3.232  0.9814E+02  0.2963E+04
      3.349  0.2712E+02  0.2967E+04
      3.466  0.4778E+02  0.2972E+04
      3.583  0.8157E+02  0.2982E+04
      3.700  0.4213E+02  0.2987E+04
      3.817  0.6136E+02  0.2994E+04
      3.934  0.9949E+01  0.2995E+04
      4.051  0.2602E+02  0.2998E+04
      4.167  0.3918E+02  0.3003E+04
      4.284  0.4356E+02  0.3008E+04
      4.401  0.6959E+02  0.3016E+04
      4.518  0.7694E+02  0.3025E+04
      4.635  0.6038E+02  0.3032E+04
      4.752  0.5174E+02  0.3038E+04
      4.869  0.2902E+00  0.3038E+04
      4.986  0.3975E-06  0.3038E+04
      5.103  0.0000E+00  0.3038E+04
      5.219  0.0000E+00  0.3038E+04
      5.336  0.0000E+00  0.3038E+04
      5.453  0.0000E+00  0.3038E+04
      5.570  0.0000E+00  0.3038E+04
      5.687  0.0000E+00  0.3038E+04
      5.804  0.0000E+00  0.3038E+04
      5.921  0.0000E+00  0.3038E+04
      6.038  0.0000E+00  0.3038E+04
      6.155  0.0000E+00  0.3038E+04
      6.272  0.0000E+00  0.3038E+04
