  254  254    1    1
  0.2268316E+02  0.1514622E-08  0.1514622E-08  0.2900000E-08  0.5000000E-15
   1.0000000000000000E-004
  CAR 
 NiAl                                    
   2532      4   1519
 
  0.1262379E-14  0.1262379E-14  0.1262379E-14  0.2500000E+00
    1      -27.202515   1.000000
    2      -16.580586   1.000000
    3       -9.916935   1.000000
    4       -9.074752   1.000000
    5       -8.740923   1.000000
    6       -8.591508   1.000000
    7       -8.531004   1.000000
    8       -8.172141   1.000000
    9       -8.172094   1.000000
   10       -8.171913   1.000000
   11       -8.171713   1.000000
   12       -8.168342   1.000000
   13       -8.160094   1.000000
   14       -7.711458   1.000000
   15       -7.666391   1.000000
   16       -7.666087   1.000000
   17       -7.665992   1.000000
   18       -7.665669   1.000000
   19       -7.658912   1.000000
   20       -7.624856   1.000000
   21       -6.878949   1.000000
   22       -6.877891   1.000000
   23       -6.877761   1.000000
   24       -6.877450   1.000000
   25       -6.870797   1.000000
   26       -6.831021   1.000000
   27       -6.668448   1.000000
   28       -6.532261   1.000000
   29       -6.531760   1.000000
   30       -6.531559   1.000000
   31       -6.531239   1.000000
   32       -6.530262   1.000000
   33       -6.528867   1.000000
   34       -6.111545   1.000000
   35       -6.109593   1.000000
   36       -6.108814   1.000000
   37       -6.108465   1.000000
   38       -6.104950   1.000000
   39       -6.103508   1.000000
   40       -5.908259   1.000000
   41       -5.906336   1.000000
   42       -5.906164   1.000000
   43       -5.905791   1.000000
   44       -5.902601   1.000000
   45       -5.901573   1.000000
   46       -5.901305   1.000000
   47       -5.901075   1.000000
   48       -5.900975   1.000000
   49       -5.900590   1.000000
   50       -5.897881   1.000000
   51       -5.847047   1.000000
   52       -5.649323   1.000000
   53       -5.569496   1.000000
   54       -5.566971   1.000000
   55       -5.566725   1.000000
   56       -5.565613   1.000000
   57       -5.563474   1.000000
   58       -5.563057   1.000000
   59       -5.481085   1.000000
   60       -5.477233   1.000000
   61       -5.475873   1.000000
   62       -5.475493   1.000000
   63       -5.470018   1.000000
   64       -5.462369   1.000000
   65       -5.116005   1.000000
   66       -5.110608   1.000000
   67       -5.110035   1.000000
   68       -5.109100   1.000000
   69       -5.106583   1.000000
   70       -5.104296   1.000000
   71       -5.007037   1.000000
   72       -4.960926   1.000000
   73       -4.955811   1.000000
   74       -4.955322   1.000000
   75       -4.955148   1.000000
   76       -4.953755   1.000000
   77       -4.902940   1.000000
   78       -4.817815   1.000000
   79       -4.766009   1.000000
   80       -4.763331   1.000000
   81       -4.763185   1.000000
   82       -4.755940   1.000000
   83       -4.746777   1.000000
   84       -4.745032   1.000000
   85       -4.744603   1.000000
   86       -4.739878   1.000000
   87       -4.727038   1.000000
   88       -4.660747   1.000000
   89       -4.643177   1.000000
   90       -4.642525   1.000000
   91       -4.640779   1.000000
   92       -4.636947   1.000000
   93       -4.635735   1.000000
   94       -4.607980   1.000000
   95       -4.607570   1.000000
   96       -4.607448   1.000000
   97       -4.536288   1.000000
   98       -4.532827   1.000000
   99       -4.532063   1.000000
  100       -4.531297   1.000000
  101       -4.531189   1.000000
  102       -4.530987   1.000000
  103       -4.530924   1.000000
  104       -4.530824   1.000000
  105       -4.530668   1.000000
  106       -4.530582   1.000000
  107       -4.530407   1.000000
  108       -4.530160   1.000000
  109       -4.492372   1.000000
  110       -4.486475   1.000000
  111       -4.486269   1.000000
  112       -4.432945   1.000000
  113       -4.400718   1.000000
  114       -4.399593   1.000000
  115       -4.389718   1.000000
  116       -4.380237   1.000000
  117       -4.377713   1.000000
  118       -4.377271   1.000000
  119       -4.377124   1.000000
  120       -4.355441   1.000000
  121       -4.346812   1.000000
  122       -4.338687   1.000000
  123       -4.334559   1.000000
  124       -4.333574   1.000000
  125       -4.332755   1.000000
  126       -4.332667   1.000000
  127       -4.332388   1.000000
  128       -4.332337   1.000000
  129       -4.332299   1.000000
  130       -4.332180   1.000000
  131       -4.331953   1.000000
  132       -4.331284   1.000000
  133       -4.311630   1.000000
  134       -4.303274   1.000000
  135       -4.301279   1.000000
  136       -4.301006   1.000000
  137       -4.298612   1.000000
  138       -4.298206   1.000000
  139       -4.298182   1.000000
  140       -4.297997   1.000000
  141       -4.297675   1.000000
  142       -4.297494   1.000000
  143       -4.297265   1.000000
  144       -4.297098   1.000000
  145       -4.294345   1.000000
  146       -4.255479   1.000000
  147       -4.253490   1.000000
  148       -4.253255   1.000000
  149       -4.253100   1.000000
  150       -4.250563   1.000000
  151       -4.245331   1.000000
  152       -4.219061   1.000000
  153       -4.218832   1.000000
  154       -4.217504   1.000000
  155       -4.216651   1.000000
  156       -4.208723   1.000000
  157       -4.201601   1.000000
  158       -4.199333   1.000000
  159       -4.194188   1.000000
  160       -4.183924   1.000000
  161       -4.172455   1.000000
  162       -4.167380   1.000000
  163       -4.166305   1.000000
  164       -4.162612   1.000000
  165       -4.160838   1.000000
  166       -4.160205   1.000000
  167       -4.159902   1.000000
  168       -4.159724   1.000000
  169       -4.159375   1.000000
  170       -4.158992   1.000000
  171       -4.157263   1.000000
  172       -4.136793   1.000000
  173       -4.092933   1.000000
  174       -4.090293   1.000000
  175       -4.090115   1.000000
  176       -4.088274   1.000000
  177       -4.082809   1.000000
  178       -4.073318   1.000000
  179       -4.050919   1.000000
  180       -4.050863   1.000000
  181       -4.050173   1.000000
  182       -3.991854   1.000000
  183       -3.982026   1.000000
  184       -3.973887   1.000000
  185       -3.970963   1.000000
  186       -3.965740   1.000000
  187       -3.964375   1.000000
  188       -3.963842   1.000000
  189       -3.962713   1.000000
  190       -3.960148   1.000000
  191       -3.959930   1.000000
  192       -3.959880   1.000000
  193       -3.959842   1.000000
  194       -3.959246   1.000000
  195       -3.955871   1.000000
  196       -3.923538   1.000000
  197       -3.898331   1.000000
  198       -3.897407   1.000000
  199       -3.884335   1.000000
  200       -3.853972   1.000000
  201       -3.846883   1.000000
  202       -3.842914   1.000000
  203       -3.841653   1.000000
  204       -3.841202   1.000000
  205       -3.840598   1.000000
  206       -3.840508   1.000000
  207       -3.831194   1.000000
  208       -3.794091   1.000000
  209       -3.784610   1.000000
  210       -3.772428   1.000000
  211       -3.772248   1.000000
  212       -3.771127   1.000000
  213       -3.770917   1.000000
  214       -3.770850   1.000000
  215       -3.770806   1.000000
  216       -3.770692   1.000000
  217       -3.770529   1.000000
  218       -3.770355   1.000000
  219       -3.770255   1.000000
  220       -3.768381   1.000000
  221       -3.768075   1.000000
  222       -3.765902   1.000000
  223       -3.765645   1.000000
  224       -3.764621   1.000000
  225       -3.763197   1.000000
  226       -3.754423   1.000000
  227       -3.748142   1.000000
  228       -3.717591   1.000000
  229       -3.715819   1.000000
  230       -3.713219   1.000000
  231       -3.712568   1.000000
  232       -3.711940   1.000000
  233       -3.711639   1.000000
  234       -3.711538   1.000000
  235       -3.711327   1.000000
  236       -3.710983   1.000000
  237       -3.707992   1.000000
  238       -3.696617   1.000000
  239       -3.694016   1.000000
  240       -3.690086   1.000000
  241       -3.688914   1.000000
  242       -3.688452   1.000000
  243       -3.685086   1.000000
  244       -3.676496   1.000000
  245       -3.653300   1.000000
  246       -3.649712   1.000000
  247       -3.649468   1.000000
  248       -3.648649   1.000000
  249       -3.648197   1.000000
  250       -3.647798   1.000000
  251       -3.647524   1.000000
  252       -3.645576   1.000000
  253       -3.644864   1.000000
  254       -3.641789   1.000000
  255       -3.639129   1.000000
  256       -3.636911   1.000000
  257       -3.636711   1.000000
  258       -3.595424   1.000000
  259       -3.591116   1.000000
  260       -3.584015   1.000000
  261       -3.583545   1.000000
  262       -3.583147   1.000000
  263       -3.582796   1.000000
  264       -3.582671   1.000000
  265       -3.582572   1.000000
  266       -3.582320   1.000000
  267       -3.582248   1.000000
  268       -3.581633   1.000000
  269       -3.577887   1.000000
  270       -3.576625   1.000000
  271       -3.568872   1.000000
  272       -3.556505   1.000000
  273       -3.553315   1.000000
  274       -3.549662   1.000000
  275       -3.548826   1.000000
  276       -3.548757   1.000000
  277       -3.532141   1.000000
  278       -3.531214   1.000000
  279       -3.528606   1.000000
  280       -3.526741   1.000000
  281       -3.525955   1.000000
  282       -3.515622   1.000000
  283       -3.515435   1.000000
  284       -3.507203   1.000000
  285       -3.506123   1.000000
  286       -3.505712   1.000000
  287       -3.505593   1.000000
  288       -3.504872   1.000000
  289       -3.503470   1.000000
  290       -3.503263   1.000000
  291       -3.501111   1.000000
  292       -3.500524   1.000000
  293       -3.500255   1.000000
  294       -3.499418   1.000000
  295       -3.496724   1.000000
  296       -3.482294   1.000000
  297       -3.443976   1.000000
  298       -3.439602   1.000000
  299       -3.432084   1.000000
  300       -3.431881   1.000000
  301       -3.427201   1.000000
  302       -3.426455   1.000000
  303       -3.425061   1.000000
  304       -3.424990   1.000000
  305       -3.424634   1.000000
  306       -3.424295   1.000000
  307       -3.424217   1.000000
  308       -3.423410   1.000000
  309       -3.420999   1.000000
  310       -3.420425   1.000000
  311       -3.412415   1.000000
  312       -3.391656   1.000000
  313       -3.353830   1.000000
  314       -3.353693   1.000000
  315       -3.352763   1.000000
  316       -3.352403   1.000000
  317       -3.351574   1.000000
  318       -3.349783   1.000000
  319       -3.339757   1.000000
  320       -3.332657   1.000000
  321       -3.320004   1.000000
  322       -3.318623   1.000000
  323       -3.317148   1.000000
  324       -3.316993   1.000000
  325       -3.316629   1.000000
  326       -3.316364   1.000000
  327       -3.315947   1.000000
  328       -3.315784   1.000000
  329       -3.312820   1.000000
  330       -3.309464   1.000000
  331       -3.307515   1.000000
  332       -3.306670   1.000000
  333       -3.306462   1.000000
  334       -3.305716   1.000000
  335       -3.305210   1.000000
  336       -3.304163   1.000000
  337       -3.301598   1.000000
  338       -3.301330   1.000000
  339       -3.300763   1.000000
  340       -3.299140   1.000000
  341       -3.292453   1.000000
  342       -3.242304   1.000000
  343       -3.214334   1.000000
  344       -3.204342   1.000000
  345       -3.201514   1.000000
  346       -3.179427   1.000000
  347       -3.175055   1.000000
  348       -3.174243   1.000000
  349       -3.171806   1.000000
  350       -3.170400   1.000000
  351       -3.169885   1.000000
  352       -3.160904   1.000000
  353       -3.160495   1.000000
  354       -3.150061   1.000000
  355       -3.149423   1.000000
  356       -3.140351   1.000000
  357       -3.139573   1.000000
  358       -3.138287   1.000000
  359       -3.137249   1.000000
  360       -3.136675   1.000000
  361       -3.135768   1.000000
  362       -3.135369   1.000000
  363       -3.131139   1.000000
  364       -3.127890   1.000000
  365       -3.127564   1.000000
  366       -3.119970   1.000000
  367       -3.085962   1.000000
  368       -3.073405   1.000000
  369       -3.069883   1.000000
  370       -3.068446   1.000000
  371       -3.066523   1.000000
  372       -3.060725   1.000000
  373       -3.053453   1.000000
  374       -3.044480   1.000000
  375       -3.042646   1.000000
  376       -3.040639   1.000000
  377       -3.040506   1.000000
  378       -3.040327   1.000000
  379       -3.039873   1.000000
  380       -3.039511   1.000000
  381       -3.039438   1.000000
  382       -3.039157   1.000000
  383       -3.038803   1.000000
  384       -3.038524   1.000000
  385       -3.027925   1.000000
  386       -2.995057   1.000000
  387       -2.991228   1.000000
  388       -2.989513   1.000000
  389       -2.989478   1.000000
  390       -2.988818   1.000000
  391       -2.988596   1.000000
  392       -2.987837   1.000000
  393       -2.987692   1.000000
  394       -2.987363   1.000000
  395       -2.987017   1.000000
  396       -2.973860   1.000000
  397       -2.960330   1.000000
  398       -2.938238   1.000000
  399       -2.934054   1.000000
  400       -2.933026   1.000000
  401       -2.932916   1.000000
  402       -2.932202   1.000000
  403       -2.932033   1.000000
  404       -2.876393   1.000000
  405       -2.875296   1.000000
  406       -2.874259   1.000000
  407       -2.874010   1.000000
  408       -2.872069   1.000000
  409       -2.865964   1.000000
  410       -2.865107   1.000000
  411       -2.864427   1.000000
  412       -2.863844   1.000000
  413       -2.863438   1.000000
  414       -2.862541   1.000000
  415       -2.861215   1.000000
  416       -2.838566   1.000000
  417       -2.838462   1.000000
  418       -2.837952   1.000000
  419       -2.837622   1.000000
  420       -2.837340   1.000000
  421       -2.836295   1.000000
  422       -2.833693   1.000000
  423       -2.833526   1.000000
  424       -2.832714   1.000000
  425       -2.831817   1.000000
  426       -2.829977   1.000000
  427       -2.823823   1.000000
  428       -2.809801   1.000000
  429       -2.809608   1.000000
  430       -2.808725   1.000000
  431       -2.807441   1.000000
  432       -2.807232   1.000000
  433       -2.806838   1.000000
  434       -2.805294   1.000000
  435       -2.804528   1.000000
  436       -2.803981   1.000000
  437       -2.803255   1.000000
  438       -2.803203   1.000000
  439       -2.803179   1.000000
  440       -2.802839   1.000000
  441       -2.802721   1.000000
  442       -2.802606   1.000000
  443       -2.799408   1.000000
  444       -2.789784   1.000000
  445       -2.777940   1.000000
  446       -2.744139   1.000000
  447       -2.739746   1.000000
  448       -2.734542   1.000000
  449       -2.734266   1.000000
  450       -2.732062   1.000000
  451       -2.731328   1.000000
  452       -2.730883   1.000000
  453       -2.730701   1.000000
  454       -2.730308   1.000000
  455       -2.730238   1.000000
  456       -2.729852   1.000000
  457       -2.729768   1.000000
  458       -2.729332   1.000000
  459       -2.729256   1.000000
  460       -2.728507   1.000000
  461       -2.728460   1.000000
  462       -2.727469   1.000000
  463       -2.727450   1.000000
  464       -2.725522   1.000000
  465       -2.721611   1.000000
  466       -2.719051   1.000000
  467       -2.692529   1.000000
  468       -2.690475   1.000000
  469       -2.688156   1.000000
  470       -2.687683   1.000000
  471       -2.653218   1.000000
  472       -2.647266   1.000000
  473       -2.646950   1.000000
  474       -2.641313   1.000000
  475       -2.640765   1.000000
  476       -2.638553   1.000000
  477       -2.637760   1.000000
  478       -2.637097   1.000000
  479       -2.636546   1.000000
  480       -2.635781   1.000000
  481       -2.635357   1.000000
  482       -2.635257   1.000000
  483       -2.634201   1.000000
  484       -2.633963   1.000000
  485       -2.633666   1.000000
  486       -2.633487   1.000000
  487       -2.633266   1.000000
  488       -2.632890   1.000000
  489       -2.632633   1.000000
  490       -2.631501   1.000000
  491       -2.629017   1.000000
  492       -2.628747   1.000000
  493       -2.628378   1.000000
  494       -2.627870   1.000000
  495       -2.627714   1.000000
  496       -2.627697   1.000000
  497       -2.627309   1.000000
  498       -2.627282   1.000000
  499       -2.626774   1.000000
  500       -2.626564   1.000000
  501       -2.619617   1.000000
  502       -2.604903   1.000000
  503       -2.580417   1.000000
  504       -2.578022   1.000000
  505       -2.577397   1.000000
  506       -2.577322   1.000000
  507       -2.575757   1.000000
  508       -2.570974   1.000000
  509       -2.568074   1.000000
  510       -2.567777   1.000000
  511       -2.567728   1.000000
  512       -2.566960   1.000000
  513       -2.565864   1.000000
  514       -2.565549   1.000000
  515       -2.551951   1.000000
  516       -2.546187   1.000000
  517       -2.541258   1.000000
  518       -2.541248   1.000000
  519       -2.532968   1.000000
  520       -2.531810   1.000000
  521       -2.524418   1.000000
  522       -2.515633   1.000000
  523       -2.513866   1.000000
  524       -2.512405   1.000000
  525       -2.499058   1.000000
  526       -2.492471   1.000000
  527       -2.471850   1.000000
  528       -2.470777   1.000000
  529       -2.470754   1.000000
  530       -2.469849   1.000000
  531       -2.469412   1.000000
  532       -2.469276   1.000000
  533       -2.468395   1.000000
  534       -2.468164   1.000000
  535       -2.467939   1.000000
  536       -2.467562   1.000000
  537       -2.466558   1.000000
  538       -2.465842   1.000000
  539       -2.463042   1.000000
  540       -2.456907   1.000000
  541       -2.452638   1.000000
  542       -2.452013   1.000000
  543       -2.448297   1.000000
  544       -2.429256   1.000000
  545       -2.424665   1.000000
  546       -2.421881   1.000000
  547       -2.417196   1.000000
  548       -2.413142   1.000000
  549       -2.412430   1.000000
  550       -2.411080   1.000000
  551       -2.408869   1.000000
  552       -2.408010   1.000000
  553       -2.403807   1.000000
  554       -2.400657   1.000000
  555       -2.400473   1.000000
  556       -2.398221   1.000000
  557       -2.397837   1.000000
  558       -2.396875   1.000000
  559       -2.396680   1.000000
  560       -2.396533   1.000000
  561       -2.396310   1.000000
  562       -2.395591   1.000000
  563       -2.395173   1.000000
  564       -2.394304   1.000000
  565       -2.393980   1.000000
  566       -2.392269   1.000000
  567       -2.389658   1.000000
  568       -2.388362   1.000000
  569       -2.386689   1.000000
  570       -2.386324   1.000000
  571       -2.386003   1.000000
  572       -2.380937   1.000000
  573       -2.376082   1.000000
  574       -2.351604   1.000000
  575       -2.344147   1.000000
  576       -2.341120   1.000000
  577       -2.339450   1.000000
  578       -2.338811   1.000000
  579       -2.335690   1.000000
  580       -2.333791   1.000000
  581       -2.333676   1.000000
  582       -2.332330   1.000000
  583       -2.332176   1.000000
  584       -2.329864   1.000000
  585       -2.323117   1.000000
  586       -2.322195   1.000000
  587       -2.321521   1.000000
  588       -2.319178   1.000000
  589       -2.319061   1.000000
  590       -2.312518   1.000000
  591       -2.301306   1.000000
  592       -2.295846   1.000000
  593       -2.295435   1.000000
  594       -2.293268   1.000000
  595       -2.292947   1.000000
  596       -2.291128   1.000000
  597       -2.289423   1.000000
  598       -2.280691   1.000000
  599       -2.280274   1.000000
  600       -2.280169   1.000000
  601       -2.279329   1.000000
  602       -2.279218   1.000000
  603       -2.278735   1.000000
  604       -2.274916   1.000000
  605       -2.273942   1.000000
  606       -2.270588   1.000000
  607       -2.260732   1.000000
  608       -2.260612   1.000000
  609       -2.260550   1.000000
  610       -2.260297   1.000000
  611       -2.260246   1.000000
  612       -2.259979   1.000000
  613       -2.246298   1.000000
  614       -2.245031   1.000000
  615       -2.240061   1.000000
  616       -2.235144   1.000000
  617       -2.230013   1.000000
  618       -2.222795   1.000000
  619       -2.222126   1.000000
  620       -2.219763   1.000000
  621       -2.216869   1.000000
  622       -2.216128   1.000000
  623       -2.215518   1.000000
  624       -2.212411   1.000000
  625       -2.200629   1.000000
  626       -2.199907   1.000000
  627       -2.186196   1.000000
  628       -2.186095   1.000000
  629       -2.185481   1.000000
  630       -2.185376   1.000000
  631       -2.185283   1.000000
  632       -2.185239   1.000000
  633       -2.181769   1.000000
  634       -2.180995   1.000000
  635       -2.178453   1.000000
  636       -2.164195   1.000000
  637       -2.163956   1.000000
  638       -2.162726   1.000000
  639       -2.162209   1.000000
  640       -2.161727   1.000000
  641       -2.160786   1.000000
  642       -2.153808   1.000000
  643       -2.153113   1.000000
  644       -2.152303   1.000000
  645       -2.150999   1.000000
  646       -2.146832   1.000000
  647       -2.142114   1.000000
  648       -2.141320   1.000000
  649       -2.139688   1.000000
  650       -2.139483   1.000000
  651       -2.138021   1.000000
  652       -2.137854   1.000000
  653       -2.136419   1.000000
  654       -2.136153   1.000000
  655       -2.135836   1.000000
  656       -2.134907   1.000000
  657       -2.134427   1.000000
  658       -2.133964   1.000000
  659       -2.133868   1.000000
  660       -2.133555   1.000000
  661       -2.131063   1.000000
  662       -2.130650   1.000000
  663       -2.128759   1.000000
  664       -2.126403   1.000000
  665       -2.125728   1.000000
  666       -2.124234   1.000000
  667       -2.123922   1.000000
  668       -2.122735   1.000000
  669       -2.120987   1.000000
  670       -2.119724   1.000000
  671       -2.119614   1.000000
  672       -2.115062   1.000000
  673       -2.112887   1.000000
  674       -2.092585   1.000000
  675       -2.082715   1.000000
  676       -2.077036   1.000000
  677       -2.076250   1.000000
  678       -2.072877   1.000000
  679       -2.071794   1.000000
  680       -2.071712   1.000000
  681       -2.061879   1.000000
  682       -2.053893   1.000000
  683       -2.053130   1.000000
  684       -2.051989   1.000000
  685       -2.050717   1.000000
  686       -2.050546   1.000000
  687       -2.050422   1.000000
  688       -2.034159   1.000000
  689       -2.031261   1.000000
  690       -2.028227   1.000000
  691       -2.027451   1.000000
  692       -2.026133   1.000000
  693       -2.026002   1.000000
  694       -2.024274   1.000000
  695       -2.023675   1.000000
  696       -2.022852   1.000000
  697       -2.022799   1.000000
  698       -2.022217   1.000000
  699       -2.021110   1.000000
  700       -2.020999   1.000000
  701       -2.020877   1.000000
  702       -2.019486   1.000000
  703       -2.017962   1.000000
  704       -2.010726   1.000000
  705       -2.010446   1.000000
  706       -2.010200   1.000000
  707       -2.007933   1.000000
  708       -2.007777   1.000000
  709       -2.006725   1.000000
  710       -2.006645   1.000000
  711       -2.006361   1.000000
  712       -2.006214   1.000000
  713       -2.006160   1.000000
  714       -2.005874   1.000000
  715       -2.005700   1.000000
  716       -2.004280   1.000000
  717       -2.004080   1.000000
  718       -1.988819   1.000000
  719       -1.980989   1.000000
  720       -1.980862   1.000000
  721       -1.980476   1.000000
  722       -1.980353   1.000000
  723       -1.980257   1.000000
  724       -1.979844   1.000000
  725       -1.976594   1.000000
  726       -1.960691   1.000000
  727       -1.958938   1.000000
  728       -1.958599   1.000000
  729       -1.953442   1.000000
  730       -1.951762   1.000000
  731       -1.951077   1.000000
  732       -1.938394   1.000000
  733       -1.936519   1.000000
  734       -1.936391   1.000000
  735       -1.935999   1.000000
  736       -1.935456   1.000000
  737       -1.934888   1.000000
  738       -1.934623   1.000000
  739       -1.934336   1.000000
  740       -1.933956   1.000000
  741       -1.917660   1.000000
  742       -1.908940   1.000000
  743       -1.897860   1.000000
  744       -1.894521   1.000000
  745       -1.891765   1.000000
  746       -1.891418   1.000000
  747       -1.891370   1.000000
  748       -1.890566   1.000000
  749       -1.890165   1.000000
  750       -1.887288   1.000000
  751       -1.887124   1.000000
  752       -1.886342   1.000000
  753       -1.881019   1.000000
  754       -1.879311   1.000000
  755       -1.878831   1.000000
  756       -1.850917   1.000000
  757       -1.843450   1.000000
  758       -1.842550   1.000000
  759       -1.840294   1.000000
  760       -1.838690   1.000000
  761       -1.837001   1.000000
  762       -1.836865   1.000000
  763       -1.836366   1.000000
  764       -1.835299   1.000000
  765       -1.835189   1.000000
  766       -1.834931   1.000000
  767       -1.834005   1.000000
  768       -1.832964   1.000000
  769       -1.832892   1.000000
  770       -1.832275   1.000000
  771       -1.828036   1.000000
  772       -1.827801   1.000000
  773       -1.827358   1.000000
  774       -1.826769   1.000000
  775       -1.826656   1.000000
  776       -1.825997   1.000000
  777       -1.823789   1.000000
  778       -1.812886   1.000000
  779       -1.802083   1.000000
  780       -1.801391   1.000000
  781       -1.798291   1.000000
  782       -1.797031   1.000000
  783       -1.794234   1.000000
  784       -1.791154   1.000000
  785       -1.789686   1.000000
  786       -1.789169   1.000000
  787       -1.789060   1.000000
  788       -1.788878   1.000000
  789       -1.780214   1.000000
  790       -1.777204   1.000000
  791       -1.774423   1.000000
  792       -1.773905   1.000000
  793       -1.771595   1.000000
  794       -1.771402   1.000000
  795       -1.768646   1.000000
  796       -1.765564   1.000000
  797       -1.764704   1.000000
  798       -1.758819   1.000000
  799       -1.757913   1.000000
  800       -1.756687   1.000000
  801       -1.755939   1.000000
  802       -1.748663   1.000000
  803       -1.748461   1.000000
  804       -1.746061   1.000000
  805       -1.744133   1.000000
  806       -1.743586   1.000000
  807       -1.742814   1.000000
  808       -1.740991   1.000000
  809       -1.740195   1.000000
  810       -1.737852   1.000000
  811       -1.736897   1.000000
  812       -1.736640   1.000000
  813       -1.736015   1.000000
  814       -1.735375   1.000000
  815       -1.732921   1.000000
  816       -1.722828   1.000000
  817       -1.713715   1.000000
  818       -1.712540   1.000000
  819       -1.709269   1.000000
  820       -1.705611   1.000000
  821       -1.703144   1.000000
  822       -1.699832   1.000000
  823       -1.699246   1.000000
  824       -1.697447   1.000000
  825       -1.697143   1.000000
  826       -1.696467   1.000000
  827       -1.696019   1.000000
  828       -1.689542   1.000000
  829       -1.680286   1.000000
  830       -1.675847   1.000000
  831       -1.668679   1.000000
  832       -1.668034   1.000000
  833       -1.666378   1.000000
  834       -1.664525   1.000000
  835       -1.662780   1.000000
  836       -1.662705   1.000000
  837       -1.662213   1.000000
  838       -1.661720   1.000000
  839       -1.661071   1.000000
  840       -1.660805   1.000000
  841       -1.659578   1.000000
  842       -1.658705   1.000000
  843       -1.658551   1.000000
  844       -1.653238   1.000000
  845       -1.652318   1.000000
  846       -1.651013   1.000000
  847       -1.649104   1.000000
  848       -1.647705   1.000000
  849       -1.647524   1.000000
  850       -1.645812   1.000000
  851       -1.645690   1.000000
  852       -1.644071   1.000000
  853       -1.643152   1.000000
  854       -1.641309   1.000000
  855       -1.639521   1.000000
  856       -1.638853   1.000000
  857       -1.638503   1.000000
  858       -1.636120   1.000000
  859       -1.635097   1.000000
  860       -1.635041   1.000000
  861       -1.619301   1.000000
  862       -1.616390   1.000000
  863       -1.613115   1.000000
  864       -1.599112   1.000000
  865       -1.583728   1.000000
  866       -1.583458   1.000000
  867       -1.582429   1.000000
  868       -1.580342   1.000000
  869       -1.577887   1.000000
  870       -1.570534   1.000000
  871       -1.567872   1.000000
  872       -1.558251   1.000000
  873       -1.557587   1.000000
  874       -1.553951   1.000000
  875       -1.551627   1.000000
  876       -1.550629   1.000000
  877       -1.549256   1.000000
  878       -1.548786   1.000000
  879       -1.548113   1.000000
  880       -1.546770   1.000000
  881       -1.546357   1.000000
  882       -1.545521   1.000000
  883       -1.539048   1.000000
  884       -1.538236   1.000000
  885       -1.536984   1.000000
  886       -1.528423   1.000000
  887       -1.528063   1.000000
  888       -1.527215   1.000000
  889       -1.489446   1.000000
  890       -1.482566   1.000000
  891       -1.476428   1.000000
  892       -1.476282   1.000000
  893       -1.475164   1.000000
  894       -1.474847   1.000000
  895       -1.448912   1.000000
  896       -1.446881   1.000000
  897       -1.434724   1.000000
  898       -1.430313   1.000000
  899       -1.430274   1.000000
  900       -1.426162   1.000000
  901       -1.425538   1.000000