       N       E                     dE             d eps       ncg     rms          rms(c)
DAV:   1     0.223682555921E+05    0.22368E+05   -0.98577E+05 12200   0.134E+03
DAV:   2     0.102426845505E+03   -0.22266E+05   -0.21273E+05 12152   0.469E+02
DAV:   3    -0.133589290896E+04   -0.14383E+04   -0.12107E+04 13792   0.131E+02
DAV:   4    -0.155827830339E+04   -0.22239E+03   -0.18920E+03 21896   0.489E+01
DAV:   5    -0.156992139507E+04   -0.11643E+02   -0.10751E+02 19880   0.118E+01    0.145E+02
DAV:   6    -0.197121879415E+04   -0.40130E+03   -0.27172E+03 16288   0.174E+02    0.297E+02
DAV:   7    -0.172009430615E+04    0.25112E+03   -0.10274E+03 13112   0.139E+02    0.232E+02
DAV:   8    -0.166372958969E+04    0.56365E+02   -0.71218E+02 16072   0.118E+02    0.236E+02
DAV:   9    -0.238230909737E+04   -0.71858E+03   -0.22050E+02 13760   0.159E+02    0.338E+02
DAV:  10    -0.158683928244E+04    0.79547E+03   -0.31636E+02 16416   0.789E+01    0.168E+02
DAV:  11    -0.154181382911E+04    0.45025E+02   -0.40623E+02 15056   0.950E+01    0.210E+02
DAV:  12    -0.151744939650E+04    0.24364E+02   -0.21619E+02 13656   0.746E+01    0.188E+02
DAV:  13    -0.168193202846E+04   -0.16448E+03   -0.18434E+02 14720   0.867E+01    0.230E+02
DAV:  14    -0.145640066274E+04    0.22553E+03   -0.96229E+01 12794   0.522E+01    0.150E+02
DAV:  15    -0.140013079285E+04    0.56270E+02   -0.63038E+01 13832   0.417E+01    0.123E+02
DAV:  16    -0.140996953421E+04   -0.98387E+01   -0.57163E+01 13184   0.484E+01    0.123E+02
DAV:  17    -0.143402020956E+04   -0.24051E+02   -0.64968E+01 13024   0.531E+01    0.149E+02
DAV:  18    -0.140778040181E+04    0.26240E+02   -0.46635E+01 13072   0.455E+01    0.141E+02
DAV:  19    -0.136857916357E+04    0.39201E+02   -0.33400E+01 12936   0.364E+01    0.105E+02
DAV:  20    -0.135662842787E+04    0.11951E+02   -0.23559E+01 12984   0.308E+01    0.928E+01
DAV:  21    -0.134742192300E+04    0.92065E+01   -0.17369E+01 13000   0.249E+01    0.844E+01
DAV:  22    -0.133678198128E+04    0.10640E+02   -0.13482E+01 13048   0.229E+01    0.584E+01
DAV:  23    -0.133388659678E+04    0.28954E+01   -0.82989E+00 13032   0.158E+01    0.510E+01
DAV:  24    -0.133653069795E+04   -0.26441E+01   -0.62107E+00 13104   0.157E+01    0.573E+01
DAV:  25    -0.133289388060E+04    0.36368E+01   -0.42318E+00 13072   0.118E+01    0.447E+01
DAV:  26    -0.133065041497E+04    0.22435E+01   -0.27346E+00 13024   0.847E+00    0.361E+01
DAV:  27    -0.133153074157E+04   -0.88033E+00   -0.24168E+00 13152   0.906E+00    0.445E+01
DAV:  28    -0.132978231249E+04    0.17484E+01   -0.19522E+00 13128   0.786E+00    0.352E+01
DAV:  29    -0.132943627730E+04    0.34604E+00   -0.18224E+00 13168   0.810E+00    0.343E+01
DAV:  30    -0.132946070001E+04   -0.24423E-01   -0.16215E+00 13280   0.769E+00    0.338E+01
DAV:  31    -0.132945921552E+04    0.14845E-02   -0.13230E+00 13248   0.656E+00    0.366E+01
DAV:  32    -0.132875982498E+04    0.69939E+00   -0.14119E+00 13208   0.661E+00    0.317E+01
DAV:  33    -0.132868179006E+04    0.78035E-01   -0.13908E+00 13208   0.690E+00    0.298E+01
DAV:  34    -0.132874894614E+04   -0.67156E-01   -0.13338E+00 13296   0.707E+00    0.293E+01
DAV:  35    -0.132939104534E+04   -0.64210E+00   -0.14923E+00 13280   0.786E+00    0.342E+01
DAV:  36    -0.132866130019E+04    0.72975E+00   -0.13907E+00 13280   0.761E+00    0.306E+01
DAV:  37    -0.132796386462E+04    0.69744E+00   -0.92952E-01 13248   0.587E+00    0.251E+01
DAV:  38    -0.132750404188E+04    0.45982E+00   -0.77930E-01 13280   0.509E+00    0.213E+01
DAV:  39    -0.132744467683E+04    0.59365E-01   -0.67961E-01 13280   0.469E+00    0.234E+01
DAV:  40    -0.132694102790E+04    0.50365E+00   -0.52889E-01 13272   0.395E+00    0.174E+01
DAV:  41    -0.132682913638E+04    0.11189E+00   -0.40539E-01 13232   0.369E+00    0.156E+01
DAV:  42    -0.132673099743E+04    0.98139E-01   -0.32889E-01 13264   0.321E+00    0.142E+01
DAV:  43    -0.132650648221E+04    0.22452E+00   -0.26385E-01 13232   0.275E+00    0.107E+01
DAV:  44    -0.132643443293E+04    0.72049E-01   -0.19186E-01 13288   0.219E+00    0.926E+00
DAV:  45    -0.132640870155E+04    0.25731E-01   -0.11347E-01 13248   0.177E+00    0.949E+00
DAV:  46    -0.132636198689E+04    0.46715E-01   -0.95658E-02 13280   0.164E+00    0.780E+00
DAV:  47    -0.132631675008E+04    0.45237E-01   -0.49344E-02 13576   0.111E+00    0.654E+00
DAV:  48    -0.132633145436E+04   -0.14704E-01   -0.56653E-02 13312   0.127E+00    0.708E+00
DAV:  49    -0.132629754433E+04    0.33910E-01   -0.59983E-02 13328   0.135E+00    0.626E+00
DAV:  50    -0.132626248215E+04    0.35062E-01   -0.34721E-02 13312   0.105E+00    0.513E+00
DAV:  51    -0.132644636183E+04   -0.18388E+00   -0.21357E-01 22416   0.196E+00    0.106E+01
DAV:  52    -0.132635643337E+04    0.89928E-01   -0.96338E-02 15784   0.149E+00    0.848E+00
DAV:  53    -0.132627362456E+04    0.82809E-01   -0.55261E-02 14544   0.114E+00    0.620E+00
DAV:  54    -0.132627391002E+04   -0.28547E-03   -0.47373E-02 14520   0.117E+00    0.611E+00
DAV:  55    -0.132629108579E+04   -0.17176E-01   -0.70985E-02 14464   0.149E+00    0.611E+00
DAV:  56    -0.132624780022E+04    0.43286E-01   -0.75848E-02 14352   0.163E+00    0.483E+00
DAV:  57    -0.132623663044E+04    0.11170E-01   -0.48200E-02 14536   0.124E+00    0.426E+00
DAV:  58    -0.132621379185E+04    0.22839E-01   -0.30955E-02 14136   0.986E-01    0.291E+00
DAV:  59    -0.132621962756E+04   -0.58357E-02   -0.25145E-02 14080   0.911E-01    0.314E+00
DAV:  60    -0.132620397754E+04    0.15650E-01   -0.20764E-02 14112   0.813E-01    0.208E+00
DAV:  61    -0.132621249590E+04   -0.85184E-02   -0.16370E-02 14224   0.746E-01    0.275E+00
DAV:  62    -0.132620266106E+04    0.98348E-02   -0.13351E-02 13920   0.678E-01    0.190E+00
DAV:  63    -0.132619796315E+04    0.46979E-02   -0.66268E-03 13856   0.467E-01    0.131E+00
DAV:  64    -0.132620037627E+04   -0.24131E-02   -0.49249E-03 13776   0.414E-01    0.151E+00
DAV:  65    -0.132620262825E+04   -0.22520E-02   -0.57747E-03 13792   0.474E-01    0.155E+00
DAV:  66    -0.132620687125E+04   -0.42430E-02   -0.76512E-03 13808   0.557E-01    0.200E+00
DAV:  67    -0.132620046702E+04    0.64042E-02   -0.59307E-03 13872   0.480E-01    0.129E+00
DAV:  68    -0.132620207440E+04   -0.16074E-02   -0.35952E-03 14400   0.355E-01    0.124E+00
DAV:  69    -0.132620070315E+04    0.13712E-02   -0.24040E-03 13984   0.298E-01    0.102E+00
DAV:  70    -0.132620037275E+04    0.33041E-03   -0.10023E-03 13664   0.169E-01    0.828E-01
DAV:  71    -0.132620358013E+04   -0.32074E-02   -0.24342E-03 13761   0.296E-01    0.149E+00
DAV:  72    -0.132620082393E+04    0.27562E-02   -0.26239E-03 13656   0.287E-01    0.782E-01
DAV:  73    -0.132620053016E+04    0.29377E-03   -0.98378E-04 13568   0.187E-01    0.467E-01
DAV:  74    -0.132620089637E+04   -0.36621E-03   -0.49091E-04 13552   0.126E-01    0.480E-01
DAV:  75    -0.132620117838E+04   -0.28201E-03   -0.36228E-04 13520   0.981E-02    0.402E-01
DAV:  76    -0.132620329412E+04   -0.21157E-02   -0.10202E-03 13976   0.194E-01    0.916E-01
DAV:  77    -0.132620174261E+04    0.15515E-02   -0.94096E-04 13840   0.182E-01    0.444E-01
DAV:  78    -0.132620170157E+04    0.41040E-04   -0.19884E-04 14240   0.749E-02    0.310E-01
DAV:  79    -0.132620199077E+04   -0.28920E-03   -0.11714E-04 13784   0.608E-02    0.236E-01
DAV:  80    -0.132620237469E+04   -0.38392E-03   -0.10436E-04 13584   0.580E-02    0.179E-01
DAV:  81    -0.132620282917E+04   -0.45448E-03   -0.34924E-04 14480   0.108E-01    0.574E-01
DAV:  82    -0.132620231309E+04    0.51608E-03   -0.35627E-04 14024   0.103E-01    0.180E-01
DAV:  83    -0.132620263223E+04   -0.31914E-03   -0.85656E-05 13552   0.512E-02    0.212E-01
DAV:  84    -0.132620296618E+04   -0.33396E-03   -0.71209E-05 13208   0.430E-02    0.164E-01
DAV:  85    -0.132620314333E+04   -0.17715E-03   -0.48472E-05 12672   0.349E-02    0.131E-01
DAV:  86    -0.132620302017E+04    0.12316E-03   -0.10694E-04 13632   0.603E-02    0.303E-01
DAV:  87    -0.132620313213E+04   -0.11196E-03   -0.10876E-04 13328   0.578E-02    0.155E-01
DAV:  88    -0.132620347527E+04   -0.34314E-03   -0.45962E-05 12073   0.345E-02    0.833E-02
DAV:  89    -0.132620377161E+04   -0.29635E-03   -0.34026E-05 11808   0.294E-02    0.104E-01
DAV:  90    -0.132620400052E+04   -0.22890E-03   -0.35215E-05 11808   0.282E-02    0.111E-01
DAV:  91    -0.132620414990E+04   -0.14938E-03   -0.95613E-05 13424   0.546E-02    0.317E-01
DAV:  92    -0.132620416575E+04   -0.15852E-04   -0.92726E-05 12978   0.531E-02    0.102E-01
DAV:  93    -0.132620426861E+04   -0.10286E-03   -0.20617E-05 10032   0.217E-02    0.919E-02
DAV:  94    -0.132620438723E+04   -0.11862E-03   -0.20723E-05  9937   0.218E-02    0.115E-01
DAV:  95    -0.132620450006E+04   -0.11283E-03   -0.28551E-05 10834   0.236E-02    0.843E-02
DAV:  96    -0.132620450464E+04   -0.45809E-05   -0.36118E-05 10290   0.341E-02
   1 F= -.14235863E+04 E0= -.14228467E+04  d E =-.147916E+01
