LAMMPS (24 Mar 2022)
OMP_NUM_THREADS environment is not set. Defaulting to 1 thread. (src/comm.cpp:98)
  using 1 OpenMP thread(s) per MPI task
Reading data file ...
  orthogonal box = (0 0 0) to (16.198 16.198 16.198)
  1 by 1 by 1 MPI processor grid
  reading atoms ...
  256 atoms
  read_data CPU = 0.001 seconds
WARNING: Using 'neigh_modify every 1 delay 0 check yes' setting during minimization (src/min.cpp:187)
Neighbor list info ...
  update every 1 steps, delay 0 steps, check yes
  max neighbors/atom: 2000, page size: 100000
  master list distance cutoff = 8.28721
  ghost atom cutoff = 8.28721
  binsize = 4.143605, bins = 4 4 4
  1 neighbor lists, perpetual/occasional/extra = 1 0 0
  (1) pair eam/alloy, perpetual
      attributes: half, newton on
      pair build: half/bin/atomonly/newton
      stencil: half/bin/3d
      bin: standard
Setting up cg style minimization ...
  Unit style    : metal
  Current step  : 0
Per MPI rank memory allocation (min/avg/max) = 4.536 | 4.536 | 4.536 Mbytes
   Step          Temp          E_pair         E_mol          TotEng         Press     
         0   0             -860.15985      0             -860.15985      292.51474    
Loop time of 3.091e-06 on 1 procs for 0 steps with 256 atoms

97.1% CPU use with 1 MPI tasks x 1 OpenMP threads

Minimization stats:
  Stopping criterion = max iterations
  Energy initial, next-to-last, final = 
     -860.159853183956                  0  -860.159853183956
  Force two-norm initial, final = 1.6326022e-13 1.6326022e-13
  Force max component initial, final = 1.4294121e-14 1.4294121e-14
  Final line search alpha, max atom move = 0 0
  Iterations, force evaluations = 0 0

MPI task timing breakdown:
Section |  min time  |  avg time  |  max time  |%varavg| %total
---------------------------------------------------------------
Pair    | 0          | 0          | 0          |   0.0 |  0.00
Neigh   | 0          | 0          | 0          |   0.0 |  0.00
Comm    | 0          | 0          | 0          |   0.0 |  0.00
Output  | 0          | 0          | 0          |   0.0 |  0.00
Modify  | 0          | 0          | 0          |   0.0 |  0.00
Other   |            | 3.091e-06  |            |       |100.00

Nlocal:            256 ave         256 max         256 min
Histogram: 1 0 0 0 0 0 0 0 0 0
Nghost:           2201 ave        2201 max        2201 min
Histogram: 1 0 0 0 0 0 0 0 0 0
Neighs:          17920 ave       17920 max       17920 min
Histogram: 1 0 0 0 0 0 0 0 0 0

Total # of neighbors = 17920
Ave neighs/atom = 70
Neighbor list builds = 0
Dangerous builds = 0
Setting up Verlet run ...
  Unit style    : metal
  Current step  : 0
  Time step     : 0.01
Per MPI rank memory allocation (min/avg/max) = 4.421 | 4.421 | 4.421 Mbytes
   Step          Temp          E_pair         E_mol          TotEng         Press     
         0   300           -860.15985      0             -850.27145      2777.7127    
       100   138.53078     -854.62189      0             -850.05573      4624.6517    
       200   158.78113     -855.31811      0             -850.08447      4361.9437    
       300   160.06794     -855.3699       0             -850.09385      4411.4945    
       400   155.47411     -855.20856      0             -850.08393      4326.8947    
       500   161.10357     -855.39591      0             -850.08572      4255.3838    
       600   153.58307     -855.13588      0             -850.07357      4354.2656    
       700   148.31119     -854.96585      0             -850.07732      4386.6889    
       800   161.66669     -855.42153      0             -850.09278      4195.1837    
       900   150.41201     -855.03787      0             -850.08009      4307.7802    
      1000   149.66376     -855.00372      0             -850.0706       4615.2602    
      1100   147.43145     -854.93247      0             -850.07293      4371.122     
      1200   153.23621     -855.12857      0             -850.0777       4225.7652    
      1300   154.36045     -855.17721      0             -850.08928      4178.3601    
      1400   154.37159     -855.17087      0             -850.08258      4352.9424    
      1500   146.77002     -854.91083      0             -850.07309      4355.7815    
      1600   151.62307     -855.06881      0             -850.07111      4358.6744    
      1700   141.58362     -854.72274      0             -850.05595      4553.4218    
      1800   148.85085     -854.97413      0             -850.06781      4249.1993    
      1900   147.9864      -854.93287      0             -850.05504      4237.9147    
      2000   150.16429     -855.01349      0             -850.06388      4278.2149    
      2100   144.18108     -854.81029      0             -850.05789      4336.5758    
      2200   154.48389     -855.16802      0             -850.07602      4320.7095    
      2300   140.11021     -854.67918      0             -850.06096      4561.1493    
      2400   158.06504     -855.28925      0             -850.07921      4500.1663    
      2500   147.42587     -854.92951      0             -850.07016      4315.8556    
      2600   147.98093     -854.94886      0             -850.07121      4266.1632    
      2700   150.88171     -855.04167      0             -850.06841      4300.2698    
      2800   149.28963     -854.99492      0             -850.07413      4460.7135    
      2900   155.03178     -855.19432      0             -850.08427      4449.0228    
      3000   156.05531     -855.22903      0             -850.08524      4274.4164    
      3100   149.37224     -854.99794      0             -850.07443      4365.471     
      3200   138.81195     -854.63332      0             -850.0579       4578.3116    
      3300   144.2744      -854.82344      0             -850.06796      4628.1163    
      3400   161.50592     -855.42017      0             -850.09672      4315.1627    
      3500   156.77281     -855.25552      0             -850.08808      4304.4494    
      3600   145.28484     -854.85946      0             -850.07067      4784.6349    
      3700   150.43332     -855.02836      0             -850.06988      4431.2495    
      3800   146.30755     -854.88801      0             -850.06551      4741.3133    
      3900   147.10621     -854.92525      0             -850.07643      4475.1181    
      4000   146.46314     -854.89553      0             -850.06791      4600.781     
      4100   156.13244     -855.23276      0             -850.08642      4207.2797    
      4200   149.95719     -855.00774      0             -850.06495      4573.6255    
      4300   148.86047     -854.98694      0             -850.0803       4449.0436    
      4400   155.86922     -855.21903      0             -850.08137      4676.0223    
      4500   157.47662     -855.27907      0             -850.08843      4464.4328    
      4600   153.69863     -855.15099      0             -850.08488      4525.5462    
      4700   151.1084      -855.05812      0             -850.07738      4651.2568    
      4800   152.78219     -855.10295      0             -850.06704      4519.4457    
      4900   149.35497     -854.99531      0             -850.07237      4466.4864    
      5000   153.1566      -855.12302      0             -850.07477      4443.3577    
      5100   153.43361     -855.13336      0             -850.07598      4424.3287    
      5200   143.107       -854.77781      0             -850.06081      4388.238     
      5300   154.20181     -855.16139      0             -850.07869      4450.1691    
      5400   153.91883     -855.13811      0             -850.06474      4457.1627    
      5500   147.26496     -854.93238      0             -850.07833      4400.6443    
      5600   147.82776     -854.94721      0             -850.07461      4458.9336    
      5700   159.51573     -855.33988      0             -850.08203      4402.6029    
      5800   149.68866     -855.00721      0             -850.07327      4404.5058    
      5900   152.64427     -855.1043       0             -850.07294      4354.1658    
      6000   144.66313     -854.83934      0             -850.07105      4547.0104    
      6100   156.32733     -855.23642      0             -850.08367      4430.5631    
      6200   159.7585      -855.35576      0             -850.08991      4193.1172    
      6300   150.2473      -855.03269      0             -850.08034      4312.0725    
      6400   150.40148     -855.03191      0             -850.07447      4556.0771    
      6500   156.52163     -855.24024      0             -850.08108      4357.5562    
      6600   149.42147     -854.99306      0             -850.06793      4485.4019    
      6700   154.19543     -855.15268      0             -850.07019      4374.7431    
      6800   154.88569     -855.18003      0             -850.07479      4394.3343    
      6900   158.67131     -855.31375      0             -850.08373      4274.7771    
      7000   139.71597     -854.659        0             -850.05377      4614.6307    
      7100   142.8392      -854.77381      0             -850.06564      4577.6402    
      7200   152.60802     -855.10505      0             -850.07489      4217.7554    
      7300   151.94302     -855.08915      0             -850.0809       4165.1979    
      7400   148.25399     -854.9568       0             -850.07015      4530.2676    
      7500   154.77973     -855.18761      0             -850.08586      4239.9183    
      7600   143.91813     -854.81329      0             -850.06956      4472.3887    
      7700   152.91377     -855.12396      0             -850.08372      4274.7455    
      7800   150.98334     -855.0614       0             -850.08478      4337.6009    
      7900   147.9878      -854.95036      0             -850.07249      4332.7035    
      8000   155.45047     -855.19846      0             -850.07461      4184.0294    
      8100   144.33425     -854.82094      0             -850.06349      4439.9887    
      8200   147.27911     -854.92676      0             -850.07224      4234.6499    
      8300   162.24318     -855.4312       0             -850.08345      4284.7275    
      8400   147.10849     -854.91179      0             -850.06289      4507.4979    
      8500   153.2169      -855.1167       0             -850.06646      4319.717     
      8600   148.38332     -854.96348      0             -850.07257      4373.4135    
      8700   156.36183     -855.23612      0             -850.08222      4225.9934    
      8800   139.91644     -854.65784      0             -850.04601      4557.6805    
      8900   154.85702     -855.18305      0             -850.07876      4353.7656    
      9000   152.56339     -855.09667      0             -850.06798      4390.2278    
      9100   165.13827     -855.53193      0             -850.08875      4214.0883    
      9200   151.81459     -855.06878      0             -850.06476      4347.4921    
      9300   153.9099      -855.14671      0             -850.07363      4354.6076    
      9400   155.74365     -855.2118       0             -850.07828      4274.9464    
      9500   156.03553     -855.21741      0             -850.07427      4228.6353    
      9600   152.03306     -855.0724       0             -850.06118      4335.7951    
      9700   152.96013     -855.12099      0             -850.07922      4299.0065    
      9800   146.19505     -854.87116      0             -850.05237      4620.6555    
      9900   158.08268     -855.298        0             -850.08739      4145.7133    
     10000   158.50149     -855.29597      0             -850.07155      4092.9791    
Loop time of 5.17324 on 1 procs for 10000 steps with 256 atoms

Performance: 1670.133 ns/day, 0.014 hours/ns, 1933.024 timesteps/s
99.8% CPU use with 1 MPI tasks x 1 OpenMP threads

MPI task timing breakdown:
Section |  min time  |  avg time  |  max time  |%varavg| %total
---------------------------------------------------------------
Pair    | 4.8619     | 4.8619     | 4.8619     |   0.0 | 93.98
Neigh   | 0          | 0          | 0          |   0.0 |  0.00
Comm    | 0.086742   | 0.086742   | 0.086742   |   0.0 |  1.68
Output  | 0.17941    | 0.17941    | 0.17941    |   0.0 |  3.47
Modify  | 0.021844   | 0.021844   | 0.021844   |   0.0 |  0.42
Other   |            | 0.02331    |            |       |  0.45

Nlocal:            256 ave         256 max         256 min
Histogram: 1 0 0 0 0 0 0 0 0 0
Nghost:           2201 ave        2201 max        2201 min
Histogram: 1 0 0 0 0 0 0 0 0 0
Neighs:          17920 ave       17920 max       17920 min
Histogram: 1 0 0 0 0 0 0 0 0 0

Total # of neighbors = 17920
Ave neighs/atom = 70
Neighbor list builds = 0
Dangerous builds = 0
System init for write_restart ...
Total wall time: 0:00:05
