ITEM: TIMESTEP
0
ITEM: NUMBER OF ATOMS
108
ITEM: BOX BOUNDS xy xz yz pp pp pp
-7.2075420000000001e+00 1.4415084000000000e+01 -7.2075420000000001e+00
0.0000000000000000e+00 1.2483828000000001e+01 0.0000000000000000e+00
0.0000000000000000e+00 3.3716253999999999e+01 0.0000000000000000e+00
ITEM: ATOMS id type xs ys zs
1 1 0 0 0.0583463
2 1 0.110899 0.222116 0.0294986
3 1 0.110909 0.222398 0.121472
4 1 0.222181 0.111171 0.0707229
5 1 0.222003 0.110953 0.179196
6 1 0 0 0.133581
7 1 0 0 0.24439
8 1 0.111239 0.223321 0.197629
9 1 0.111566 0.231175 0.306917
10 1 0.223015 0.110876 0.252397
11 1 0.217947 0.114058 0.322684
12 1 0 0 0.321063
13 1 5.436e-05 0.333299 0.0582907
14 1 0.111191 0.555524 0.0294271
15 1 0.111174 0.555867 0.12147
16 1 0.222202 0.444391 0.0705379
17 1 0.222589 0.444448 0.179483
18 1 7.612e-05 0.333904 0.133672
19 1 0.998623 0.33621 0.244586
20 1 0.112951 0.556395 0.197345
21 1 0.112716 0.558256 0.313165
22 1 0.222695 0.448041 0.256429
23 1 0.223393 0.448076 0.346269
24 1 0.00581293 0.341546 0.324709
25 1 0.999981 0.666692 0.0582628
26 1 0.111217 0.889101 0.0294986
27 1 0.111488 0.889091 0.121472
28 1 0.22219 0.777798 0.0705379
29 1 0.221859 0.777411 0.179483
30 1 0.999987 0.666768 0.133723
31 1 0.00428152 0.669669 0.246062
32 1 0.112082 0.888761 0.197629
33 1 0.119609 0.888434 0.306917
34 1 0.225347 0.777305 0.256429
35 1 0.224683 0.776607 0.346269
36 1 0.00155005 0.662072 0.325507
37 1 0.333244 0.999946 0.0582907
38 1 0.444354 0.222246 0.0294404
39 1 0.444293 0.2224 0.121536
40 1 0.555515 0.111099 0.0705614
41 1 0.555301 0.110672 0.179283
42 1 0.333828 0.999924 0.133672
43 1 0.337587 0.00137651 0.244586
44 1 0.445767 0.223498 0.197472
45 1 0.448004 0.221698 0.308244
46 1 0.558048 0.109143 0.255801
47 1 0.555846 0.112089 0.346016
48 1 0.335733 0.994187 0.324709
49 1 0.333308 0.333289 0.0582628
50 1 0.444476 0.555667 0.0294271
51 1 0.444133 0.555306 0.12147
52 1 0.555584 0.444485 0.0705614
53 1 0.555371 0.444699 0.179283
54 1 0.333232 0.333219 0.133723
55 1 0.330331 0.334612 0.246062
56 1 0.443605 0.556556 0.197345
57 1 0.441744 0.554461 0.313165
58 1 0.551096 0.441953 0.255801
59 1 0.556243 0.444154 0.346016
60 1 0.337928 0.339478 0.325507
61 1 0.333333 0.666667 0.0581846
62 1 0.444333 0.888809 0.0294271
63 1 0.444694 0.888826 0.12147
64 1 0.555609 0.77781 0.0705379
65 1 0.555552 0.778141 0.179483
66 1 0.333333 0.666667 0.13369
67 1 0.333333 0.666667 0.248233
68 1 0.443444 0.887049 0.197345
69 1 0.445539 0.887284 0.313165
70 1 0.551959 0.774653 0.256429
71 1 0.551924 0.775317 0.346269
72 1 0.333333 0.666667 0.327206
73 1 0.666711 1.891e-05 0.0582628
74 1 0.777754 0.222108 0.0294404
75 1 0.7776 0.221893 0.121536
76 1 0.888829 0.11101 0.0707229
77 1 0.889047 0.11105 0.179196
78 1 0.666781 1.259e-05 0.133723
79 1 0.665388 0.995718 0.246062
80 1 0.776502 0.22227 0.197472
81 1 0.778302 0.226307 0.308244
82 1 0.889124 0.112139 0.252397
83 1 0.885942 0.103888 0.322684
84 1 0.660522 0.99845 0.325507
85 1 0.666667 0.333333 0.0583284
86 1 0.777892 0.555646 0.0294404
87 1 0.778107 0.555707 0.121536
88 1 0.888901 0.444416 0.0705614
89 1 0.889328 0.444629 0.179283
90 1 0.666667 0.333333 0.133919
91 1 0.666667 0.333333 0.246494
92 1 0.77773 0.554233 0.197472
93 1 0.773693 0.551996 0.308244
94 1 0.890857 0.448904 0.255801
95 1 0.887911 0.443757 0.346016
96 1 0.666667 0.333333 0.327581
97 1 0.666701 0.666756 0.0582907
98 1 0.777884 0.888783 0.0294986
99 1 0.777602 0.888512 0.121472
100 1 0.88899 0.777819 0.0707229
101 1 0.88895 0.777997 0.179196
102 1 0.666096 0.666172 0.133672
103 1 0.66379 0.662413 0.244586
104 1 0.776679 0.887918 0.197629
105 1 0.768825 0.880391 0.306917
106 1 0.887861 0.776985 0.252397
107 1 0.896112 0.782053 0.322684
108 1 0.658454 0.664267 0.324709
ITEM: TIMESTEP
10
ITEM: NUMBER OF ATOMS
108
ITEM: BOX BOUNDS xy xz yz pp pp pp
-7.2075420000000001e+00 1.4415084000000000e+01 -7.2075420000000001e+00
0.0000000000000000e+00 1.2483828000000001e+01 0.0000000000000000e+00
0.0000000000000000e+00 3.3716253999999999e+01 0.0000000000000000e+00
ITEM: ATOMS id type xs ys zs
1 1 0.989774 0.000344176 0.0584378
2 1 0.10726 0.213953 0.0453786
3 1 0.107372 0.224705 0.123005
4 1 0.209427 0.113568 0.0751949
5 1 0.221965 0.102724 0.156841
6 1 0.991249 0.0206652 0.147176
7 1 0.987064 0.958072 0.221138
8 1 0.0920032 0.191432 0.204199
9 1 0.115256 0.233512 0.291098
10 1 0.219561 0.1006 0.239414
11 1 0.241733 0.111833 0.338202
12 1 0.0189084 0.0210682 0.308754
13 1 0.998354 0.32171 0.0637221
14 1 0.103311 0.55588 0.043213
15 1 0.116447 0.555129 0.130686
16 1 0.231163 0.438042 0.0934239
17 1 0.215664 0.430092 0.170738
18 1 0.996181 0.350657 0.153909
19 1 0.00307168 0.322689 0.229205
20 1 0.126979 0.560988 0.217228
21 1 0.119127 0.567144 0.290063
22 1 0.2259 0.450914 0.266545
23 1 0.19073 0.426027 0.346273
24 1 0.990527 0.33454 0.311579
25 1 0.000598999 0.675115 0.0664033
26 1 0.113446 0.904941 0.0429641
27 1 0.108622 0.88927 0.117552
28 1 0.214386 0.776395 0.100372
29 1 0.23143 0.774579 0.175581
30 1 0.025806 0.695551 0.150208
31 1 0.990398 0.635119 0.227417
32 1 0.110431 0.860959 0.209522
33 1 0.112477 0.912583 0.293055
34 1 0.204909 0.780405 0.258499
35 1 0.232601 0.781628 0.341331
36 1 0.00509815 0.68642 0.301679
37 1 0.33212 0.980007 0.0686376
38 1 0.446647 0.209165 0.0372668
39 1 0.429763 0.209243 0.124913
40 1 0.565455 0.127353 0.0756683
41 1 0.546837 0.102886 0.151364
42 1 0.324995 0.984964 0.147499
43 1 0.340028 0.996971 0.229131
44 1 0.444753 0.225368 0.212107
45 1 0.435983 0.216683 0.289644
46 1 0.553525 0.114997 0.260004
47 1 0.568782 0.103219 0.335663
48 1 0.34248 0.000527368 0.304536
49 1 0.324323 0.321496 0.0596584
50 1 0.437018 0.544198 0.03635
51 1 0.44423 0.569021 0.122971
52 1 0.551598 0.443884 0.0910386
53 1 0.546903 0.430305 0.167488
54 1 0.323222 0.326419 0.149239
55 1 0.330325 0.352139 0.228018
56 1 0.427985 0.561271 0.205274
57 1 0.45434 0.558267 0.276526
58 1 0.553291 0.436659 0.254467
59 1 0.553065 0.447192 0.33446
60 1 0.327323 0.344534 0.310257
61 1 0.334446 0.668954 0.0700379
62 1 0.460433 0.886423 0.0369235
63 1 0.45932 0.903836 0.117716
64 1 0.55365 0.790725 0.0876699
65 1 0.563107 0.779333 0.16431
66 1 0.348464 0.674557 0.163299
67 1 0.339876 0.687305 0.238635
68 1 0.467402 0.895574 0.217347
69 1 0.429923 0.866345 0.290087
70 1 0.565447 0.786249 0.263327
71 1 0.574857 0.782144 0.344132
72 1 0.340416 0.643802 0.324533
73 1 0.670232 0.0157894 0.0652028
74 1 0.78256 0.232334 0.0407099
75 1 0.764337 0.215445 0.121283
76 1 0.883129 0.10147 0.0847997
77 1 0.889275 0.122728 0.164288
78 1 0.671931 0.994041 0.15334
79 1 0.680642 0.00816739 0.229397
80 1 0.771016 0.230225 0.210284
81 1 0.7731 0.201993 0.284704
82 1 0.900047 0.0986087 0.257855
83 1 0.882842 0.123738 0.343277
84 1 0.672513 0.997116 0.305653
85 1 0.664549 0.350378 0.0641756
86 1 0.781777 0.570855 0.0420806
87 1 0.785115 0.552405 0.125887
88 1 0.890003 0.445655 0.0820282
89 1 0.890208 0.466976 0.155198
90 1 0.664964 0.329353 0.156006
91 1 0.666421 0.337794 0.229144
92 1 0.765265 0.555155 0.209333
93 1 0.774825 0.54791 0.284084
94 1 0.905719 0.436101 0.257424
95 1 0.894897 0.468905 0.333847
96 1 0.666947 0.338374 0.307717
97 1 0.660236 0.670046 0.0689057
98 1 0.75878 0.888679 0.0377253
99 1 0.772041 0.868659 0.118161
100 1 0.889677 0.778662 0.0808045
101 1 0.897224 0.79752 0.164293
102 1 0.667725 0.669611 0.160524
103 1 0.643231 0.64917 0.236016
104 1 0.768365 0.880911 0.20428
105 1 0.793582 0.887652 0.283652
106 1 0.870177 0.758425 0.256271
107 1 0.895448 0.789855 0.341023
108 1 0.679636 0.668025 0.314864
ITEM: TIMESTEP
20
ITEM: NUMBER OF ATOMS
108
ITEM: BOX BOUNDS xy xz yz pp pp pp
-7.2075420000000001e+00 1.4415084000000000e+01 -7.2075420000000001e+00
0.0000000000000000e+00 1.2483828000000001e+01 0.0000000000000000e+00
0.0000000000000000e+00 3.3716253999999999e+01 0.0000000000000000e+00
ITEM: ATOMS id type xs ys zs
1 1 0.986246 -0.0124062 0.0561215
2 1 0.09606 0.21145 0.0419901
3 1 0.116083 0.253577 0.122496
4 1 0.212621 0.0903496 0.0782408
5 1 0.219686 0.103099 0.16795
6 1 0.971279 0.03651 0.157019
7 1 1.00567 0.943725 0.227313
8 1 0.0806062 0.148167 0.214735
9 1 0.12605 0.254903 0.289134
10 1 0.234684 0.152613 0.248084
11 1 0.227325 0.130176 0.329023
12 1 0.0204164 0.0399548 0.308424
13 1 1.00157 0.33686 0.0763576
14 1 0.125152 0.551905 0.0659278
15 1 0.111851 0.57158 0.140255
16 1 0.232683 0.452003 0.0881087
17 1 0.202046 0.402605 0.171063
18 1 0.982616 0.353499 0.16542
19 1 0.0424893 0.302312 0.226255
20 1 0.091866 0.509355 0.222495
21 1 0.119964 0.573377 0.296862
22 1 0.252513 0.47917 0.265163
23 1 0.18298 0.430925 0.338469
24 1 0.98793 0.350475 0.305303
25 1 0.00876005 0.664565 0.0599509
26 1 0.113518 0.871162 0.0482708
27 1 0.0666646 0.920058 0.117608
28 1 0.208059 0.779851 0.102947
29 1 0.245693 0.773357 0.188569
30 1 -0.0050467 0.665408 0.149535
31 1 0.9928 0.652048 0.231295
32 1 0.123415 0.856098 0.2019
33 1 0.124299 0.929388 0.282427
34 1 0.199926 0.801397 0.262605
35 1 0.228703 0.756093 0.338438
36 1 0.00299672 0.690471 0.309546
37 1 0.329495 0.988898 0.0591543
38 1 0.438599 0.223335 0.0417006
39 1 0.438949 0.217009 0.123265
40 1 0.552195 0.127746 0.0688025
41 1 0.561914 0.114419 0.155723
42 1 0.297063 0.970386 0.139359
43 1 0.321756 0.981382 0.224844
44 1 0.42357 0.198784 0.206567
45 1 0.46231 0.221989 0.282077
46 1 0.555342 0.111745 0.244578
47 1 0.546751 0.0806365 0.313018
48 1 0.338165 -0.010448 0.308468
49 1 0.328039 0.326488 0.0680613
50 1 0.433989 0.56784 0.0530954
51 1 0.472834 0.566186 0.135367
52 1 0.571845 0.460531 0.0902343
53 1 0.534402 0.426931 0.165101
54 1 0.336476 0.359761 0.14405
55 1 0.331424 0.329634 0.220903
56 1 0.424986 0.56053 0.214308
57 1 0.491931 0.583292 0.288121
58 1 0.540266 0.439454 0.249238
59 1 0.571348 0.443833 0.331426
60 1 0.342814 0.343591 0.30314
61 1 0.339395 0.666419 0.0806767
62 1 0.430382 0.877036 0.0513251
63 1 0.425811 0.86566 0.123654
64 1 0.545721 0.788857 0.0935119
65 1 0.55712 0.758226 0.165845
66 1 0.344751 0.64222 0.167122
67 1 0.336686 0.701851 0.24149
68 1 0.485204 0.91352 0.211694
69 1 0.464183 0.869424 0.295771
70 1 0.577915 0.823951 0.248152
71 1 0.55987 0.745442 0.32126
72 1 0.343508 0.636033 0.328936
73 1 0.657839 0.0127698 0.0677398
74 1 0.78679 0.235196 0.0339269
75 1 0.785712 0.21482 0.115819
76 1 0.888831 0.114175 0.0862566
77 1 0.884156 0.143083 0.175111
78 1 0.681921 0.984215 0.151771
79 1 0.688806 0.0389141 0.229565
80 1 0.759385 0.241344 0.19332
81 1 0.752375 0.190544 0.278826
82 1 0.906093 0.101751 0.258061
83 1 0.88844 0.133921 0.333001
84 1 0.68038 0.989968 0.312754
85 1 0.666517 0.347092 0.0687425
86 1 0.75148 0.548822 0.0371956
87 1 0.808166 0.571622 0.120935
88 1 0.897102 0.458574 0.0824472
89 1 0.883002 0.461145 0.16756
90 1 0.660336 0.340389 0.150214
91 1 0.656746 0.344411 0.228001
92 1 0.737525 0.551271 0.208106
93 1 0.767915 0.513321 0.278635
94 1 0.895412 0.398543 0.251041
95 1 0.893857 0.480072 0.316762
96 1 0.665411 0.306171 0.317851
97 1 0.655826 0.685163 0.0798431
98 1 0.745532 0.875255 0.037008
99 1 0.77496 0.880285 0.121657
100 1 0.866647 0.759354 0.0755544
101 1 0.901234 0.773624 0.172121
102 1 0.685392 0.649008 0.153642
103 1 0.643559 0.680587 0.226061
104 1 0.805856 0.908415 0.209872
105 1 0.780667 0.883829 0.285298
106 1 0.85757 0.726344 0.254596
107 1 0.931311 0.839692 0.326536
108 1 0.710062 0.66764 0.313273
ITEM: TIMESTEP
30
ITEM: NUMBER OF ATOMS
108
ITEM: BOX BOUNDS xy xz yz pp pp pp
-7.2075420000000001e+00 1.4415084000000000e+01 -7.2075420000000001e+00
0.0000000000000000e+00 1.2483828000000001e+01 0.0000000000000000e+00
0.0000000000000000e+00 3.3716253999999999e+01 0.0000000000000000e+00
ITEM: ATOMS id type xs ys zs
1 1 0.971153 0.957832 0.0633569
2 1 0.0766143 0.191058 0.0498486
3 1 0.111806 0.23246 0.134724
4 1 0.219283 0.13955 0.0851046
5 1 0.213406 0.114218 0.17516
6 1 0.980987 0.00241249 0.152121
7 1 0.966052 0.952427 0.236492
8 1 0.0833592 0.15532 0.21762
9 1 0.165191 0.274096 0.292379
10 1 0.282668 0.16661 0.259353
11 1 0.268936 0.149259 0.337002
12 1 0.0294375 0.0585179 0.299915
13 1 0.985909 0.28385 0.0849862
14 1 0.0930024 0.541147 0.0581485
15 1 0.132254 0.566917 0.12815
16 1 0.249397 0.471996 0.107814
17 1 0.191286 0.410898 0.186473
18 1 0.959754 0.355867 0.161055
19 1 0.0299812 0.327008 0.233676
20 1 0.129465 0.570524 0.220339
21 1 0.141415 0.567274 0.309088
22 1 0.260965 0.477496 0.268182
23 1 0.224262 0.434748 0.343867
24 1 1.00723 0.347768 0.311631
25 1 0.934277 0.612268 0.0595563
26 1 0.0826755 0.878885 0.0445525
27 1 0.0968914 0.923267 0.116038
28 1 0.189388 0.770461 0.0770332
29 1 0.240436 0.780652 0.173286
30 1 0.011379 0.69796 0.14898
31 1 0.963951 0.615308 0.244568
32 1 0.124868 0.8908 0.197968
33 1 0.123392 0.920752 0.279616
34 1 0.199037 0.781404 0.26144
35 1 0.237189 0.781954 0.34869
36 1 0.0431539 0.711469 0.32085
37 1 0.325985 1.03619 0.0504723
38 1 0.467263 0.260434 0.0353827
39 1 0.434562 0.203692 0.104885
40 1 0.558829 0.124621 0.0552678
41 1 0.510798 0.0717784 0.149416
42 1 0.290475 0.988548 0.13545
43 1 0.299278 0.98747 0.225627
44 1 0.440243 0.240333 0.200189
45 1 0.470392 0.216178 0.302958
46 1 0.522703 0.100132 0.228119
47 1 0.5542 0.0927798 0.321483
48 1 0.311271 0.982881 0.32374
49 1 0.331867 0.341485 0.0380144
50 1 0.437307 0.550577 0.0534879
51 1 0.465444 0.558738 0.1249
52 1 0.556072 0.435039 0.084241
53 1 0.524235 0.42417 0.16461
54 1 0.323322 0.313773 0.131814
55 1 0.285219 0.310308 0.215024
56 1 0.453661 0.570215 0.212207
57 1 0.501078 0.575793 0.310433
58 1 0.552703 0.431722 0.253115
59 1 0.572561 0.410473 0.328289
60 1 0.370807 0.345311 0.305661
61 1 0.319572 0.696197 0.0915275
62 1 0.452685 0.910085 0.0509553
63 1 0.449821 0.856067 0.131893
64 1 0.575077 0.798869 0.0836854
65 1 0.59543 0.756308 0.169862
66 1 0.344324 0.673598 0.16933
67 1 0.335663 0.682237 0.244647
68 1 0.423142 0.887995 0.228901
69 1 0.431448 0.874899 0.30616
70 1 0.552305 0.81814 0.250882
71 1 0.601437 0.774234 0.324857
72 1 0.364516 0.653424 0.327986
73 1 0.683879 0.0383119 0.0640588
74 1 0.785036 0.226388 0.0329626
75 1 0.729618 0.20075 0.105686
76 1 0.871923 0.0616396 0.0900288
77 1 0.863487 0.133717 0.178846
78 1 0.658433 0.993092 0.143776
79 1 0.69367 0.0452974 0.230534
80 1 0.735178 0.227403 0.190667
81 1 0.799163 0.219717 0.283335
82 1 0.909043 0.130186 0.259633
83 1 0.894366 0.125697 0.342539
84 1 0.68358 -0.00966177 0.309577
85 1 0.697862 0.36255 0.0505541
86 1 0.74488 0.556064 0.0266877
87 1 0.779224 0.547268 0.108543
88 1 0.884288 0.411448 0.0987419
89 1 0.864899 0.47493 0.171256
90 1 0.658546 0.324067 0.131296
91 1 0.650689 0.32614 0.240042
92 1 0.745735 0.544352 0.199203
93 1 0.779214 0.525197 0.282165
94 1 0.866329 0.402023 0.251447
95 1 0.927784 0.473625 0.328918
96 1 0.692198 0.304008 0.325681
97 1 0.669735 0.670822 0.0537745
98 1 0.768392 0.89821 0.039835
99 1 0.786938 0.867607 0.113759
100 1 0.878739 0.762158 0.0841829
101 1 0.883403 0.779865 0.173172
102 1 0.664842 0.632109 0.140713
103 1 0.646702 0.665536 0.246827
104 1 0.769788 0.925329 0.193513
105 1 0.80083 0.883541 0.277767
106 1 0.850917 0.707983 0.243751
107 1 0.939954 0.835682 0.311498
108 1 0.714588 0.657816 0.324941
ITEM: TIMESTEP
40
ITEM: NUMBER OF ATOMS
108
ITEM: BOX BOUNDS xy xz yz pp pp pp
-7.2075420000000001e+00 1.4415084000000000e+01 -7.2075420000000001e+00
0.0000000000000000e+00 1.2483828000000001e+01 0.0000000000000000e+00
0.0000000000000000e+00 3.3716253999999999e+01 0.0000000000000000e+00
ITEM: ATOMS id type xs ys zs
1 1 0.963843 0.945092 0.0882494
2 1 0.0450418 0.178817 0.0607089
3 1 0.112934 0.256518 0.137764
4 1 0.213851 0.128015 0.0917125
5 1 0.208453 0.0936994 0.166502
6 1 0.987546 0.0309541 0.160281
7 1 0.947021 0.932946 0.235388
8 1 0.0973555 0.177144 0.215276
9 1 0.150565 0.259868 0.285812
10 1 0.23299 0.139643 0.248348
11 1 0.241816 0.136693 0.336616
12 1 0.033753 0.045935 0.29896
13 1 0.989843 0.297506 0.0948807
14 1 0.0865582 0.473198 0.0527898
15 1 0.107322 0.586886 0.13146
16 1 0.212735 0.442533 0.0961688
17 1 0.200332 0.456882 0.187886
18 1 1.00198 0.393467 0.165789
19 1 0.0213988 0.311589 0.239714
20 1 0.132855 0.566554 0.222836
21 1 0.164095 0.581141 0.298737
22 1 0.255893 0.457717 0.266388
23 1 0.28982 0.437823 0.342146
24 1 0.0469391 0.374428 0.317594
25 1 0.990971 0.625011 0.061466
26 1 0.0469665 0.821096 0.0200342
27 1 0.105665 0.90913 0.118937
28 1 0.206623 0.803084 0.0877076
29 1 0.198106 0.78503 0.166883
30 1 1.00605 0.701731 0.135032
31 1 0.988654 0.619851 0.234005
32 1 0.0489483 0.806514 0.204263
33 1 0.143314 0.936466 0.275694
34 1 0.205734 0.77749 0.253571
35 1 0.242855 0.781283 0.350901
36 1 0.0398504 0.734664 0.304902
37 1 0.303015 0.013867 0.0547717
38 1 0.488434 0.273332 0.0194001
39 1 0.414596 0.201469 0.115622
40 1 0.56883 0.131373 0.0549235
41 1 0.573245 0.10539 0.148112
42 1 0.33848 0.977582 0.134425
43 1 0.305069 1.0049 0.221943
44 1 0.435023 0.22295 0.204328
45 1 0.479691 0.242824 0.288558
46 1 0.518484 0.111872 0.236819
47 1 0.583594 0.0901973 0.315519
48 1 0.352051 0.992779 0.306196
49 1 0.321982 0.341335 0.0472191
50 1 0.418841 0.580196 0.0450097
51 1 0.443292 0.546681 0.129245
52 1 0.539307 0.464236 0.077281
53 1 0.515789 0.421235 0.163058
54 1 0.322092 0.323453 0.125456
55 1 0.328547 0.338262 0.210498
56 1 0.4418 0.57006 0.221515
57 1 0.496291 0.553111 0.306239
58 1 0.523204 0.440318 0.246289
59 1 0.596918 0.450841 0.334653
60 1 0.344521 0.308314 0.296263
61 1 0.304866 0.680064 0.0792893
62 1 0.412168 0.919425 0.0705425
63 1 0.449327 0.868339 0.151575
64 1 0.535236 0.792668 0.0776891
65 1 0.557155 0.756077 0.163656
66 1 0.322828 0.65445 0.157421
67 1 0.334638 0.681095 0.249143
68 1 0.411124 0.882018 0.218495
69 1 0.45862 0.874348 0.299601
70 1 0.54676 0.805034 0.243945
71 1 0.606853 0.76694 0.337403
72 1 0.392768 0.676496 0.338897
73 1 0.651983 -0.00557642 0.0550919
74 1 0.836047 0.248048 0.0365686
75 1 0.748981 0.197092 0.101234
76 1 0.854247 0.0664959 0.102446
77 1 0.889582 0.159171 0.185409
78 1 0.679151 -0.0181458 0.153453
79 1 0.672517 0.0578185 0.222881
80 1 0.780484 0.280824 0.188297
81 1 0.814119 0.202985 0.299686
82 1 0.884321 0.0707757 0.259142
83 1 0.908301 0.123381 0.347464
84 1 0.686405 0.968488 0.302233
85 1 0.70498 0.355946 0.0520833
86 1 0.760893 0.58313 0.030861
87 1 0.770352 0.499099 0.115355
88 1 0.889566 0.418991 0.100235
89 1 0.887226 0.492354 0.176382
90 1 0.612802 0.314847 0.155251
91 1 0.661522 0.351927 0.235054
92 1 0.727542 0.55937 0.204286
93 1 0.796515 0.542001 0.278233
94 1 0.875792 0.39431 0.257696
95 1 0.95726 0.5157 0.335711
96 1 0.717433 0.328121 0.31448
97 1 0.633062 0.665496 0.0572971
98 1 0.787347 0.897301 0.0385816
99 1 0.746007 0.852321 0.114072
100 1 0.869822 0.727782 0.0825888
101 1 0.864012 0.787773 0.161925
102 1 0.678529 0.615912 0.134011
103 1 0.637495 0.675976 0.251161
104 1 0.746601 0.885944 0.201823
105 1 0.775787 0.857397 0.277071
106 1 0.850575 0.719696 0.246441
107 1 0.952541 0.85815 0.332466
108 1 0.736082 0.679167 0.321072
ITEM: TIMESTEP
50
ITEM: NUMBER OF ATOMS
108
ITEM: BOX BOUNDS xy xz yz pp pp pp
-7.2075420000000001e+00 1.4415084000000000e+01 -7.2075420000000001e+00
0.0000000000000000e+00 1.2483828000000001e+01 0.0000000000000000e+00
0.0000000000000000e+00 3.3716253999999999e+01 0.0000000000000000e+00
ITEM: ATOMS id type xs ys zs
1 1 0.968979 0.95351 0.0814978
2 1 0.0511354 0.187486 0.0494379
3 1 0.0932801 0.222341 0.140755
4 1 0.186233 0.11231 0.0967629
5 1 0.243715 0.136888 0.164539
6 1 0.945261 0.0160217 0.157221
7 1 1.01368 0.972658 0.219378
8 1 0.0857948 0.173168 0.22538
9 1 0.153836 0.258048 0.310405
10 1 0.25937 0.14091 0.246671
11 1 0.269981 0.118511 0.322584
12 1 0.0291997 0.0421625 0.294659
13 1 0.994703 0.30275 0.0959323
14 1 0.0540857 0.445856 0.0397396
15 1 0.104759 0.572229 0.122712
16 1 0.211929 0.460701 0.0982643
17 1 0.229843 0.418385 0.172073
18 1 0.00314349 0.363675 0.169228
19 1 0.0426152 0.323023 0.242992
20 1 0.126992 0.548017 0.217303
21 1 0.154292 0.601971 0.297793
22 1 0.244062 0.483665 0.265023
23 1 0.289887 0.435304 0.347597
24 1 0.054427 0.388779 0.324699
25 1 -0.0118367 0.606456 0.0551755
26 1 0.0428886 0.837977 0.0695264
27 1 0.109294 0.925952 0.143973
28 1 0.188369 0.798758 0.102047
29 1 0.215192 0.758159 0.179083
30 1 0.978128 0.671355 0.14376
31 1 1.00703 0.629907 0.234756
32 1 0.0545331 0.815085 0.207687
33 1 0.122221 0.919994 0.284884
34 1 0.193867 0.795695 0.251683
35 1 0.293682 0.830582 0.329095
36 1 0.0293721 0.728404 0.310018
37 1 0.294961 0.0220415 0.0747364
38 1 0.446771 0.236844 0.0437011
39 1 0.445688 0.24978 0.12458
40 1 0.53018 0.140822 0.0938399
41 1 0.580549 0.0765871 0.162736
42 1 0.390931 0.0423705 0.147439
43 1 0.256877 0.977894 0.202568
44 1 0.43921 0.229828 0.198251
45 1 0.463081 0.209138 0.28587
46 1 0.567833 0.169028 0.223071
47 1 0.607751 0.111893 0.298976
48 1 0.369636 1.00749 0.275207
49 1 0.285393 0.304383 0.0490795
50 1 0.408966 0.563307 0.0471272
51 1 0.420563 0.550208 0.127036
52 1 0.533693 0.456542 0.0879765
53 1 0.532083 0.426056 0.164758
54 1 0.327895 0.324543 0.128518
55 1 0.314681 0.323985 0.215902
56 1 0.420725 0.563267 0.212126
57 1 0.467896 0.570874 0.290846
58 1 0.550479 0.482157 0.234897
59 1 0.564897 0.413111 0.315615
60 1 0.368309 0.34421 0.290574
61 1 0.274317 0.652628 0.0599136
62 1 0.387565 0.893921 0.0593732
63 1 0.411254 0.829371 0.15167
64 1 0.503019 0.76395 0.0891665
65 1 0.539675 0.743934 0.167691
66 1 0.279529 0.605235 0.164018
67 1 0.336453 0.709339 0.239876
68 1 0.442842 0.933006 0.214576
69 1 0.484132 0.851239 0.303086
70 1 0.590355 0.849093 0.234608
71 1 0.610058 0.769232 0.31821
72 1 0.33836 0.644592 0.329817
73 1 0.682645 0.0239163 0.0635957
74 1 0.861715 0.263127 0.036592
75 1 0.750876 0.199618 0.117513
76 1 0.86377 0.0606202 0.0982271
77 1 0.881683 0.146207 0.165844
78 1 0.656216 0.94907 0.147046
79 1 0.675133 0.0596365 0.234935
80 1 0.773635 0.254481 0.202475
81 1 0.835689 0.21564 0.280612
82 1 0.874417 0.066292 0.242059
83 1 0.94436 0.154069 0.339594
84 1 0.716929 1.00033 0.309825
85 1 0.706313 0.326626 0.0762593
86 1 0.730214 0.530376 0.0422945
87 1 0.763406 0.520624 0.121557
88 1 0.882637 0.418996 0.111594
89 1 0.855119 0.4742 0.186807
90 1 0.645159 0.312033 0.145291
91 1 0.682122 0.368992 0.231813
92 1 0.728862 0.570674 0.192426
93 1 0.804326 0.539333 0.281639
94 1 0.909889 0.397705 0.248851
95 1 0.955424 0.521616 0.314979
96 1 0.732575 0.339988 0.311125
97 1 0.625091 0.680081 0.0548062
98 1 0.784811 0.904537 0.0298397
99 1 0.745876 0.838734 0.119703
100 1 0.817881 0.719873 0.0907153
101 1 0.892617 0.804272 0.164056
102 1 0.633523 0.630719 0.137508
103 1 0.650356 0.689797 0.22851
104 1 0.784455 0.868491 0.199884
105 1 0.812522 0.887306 0.291232
106 1 0.861326 0.73913 0.254246
107 1 0.955146 0.849082 0.340596
108 1 0.702727 0.635224 0.318631
ITEM: TIMESTEP
60
ITEM: NUMBER OF ATOMS
108
ITEM: BOX BOUNDS xy xz yz pp pp pp
-7.2075420000000001e+00 1.4415084000000000e+01 -7.2075420000000001e+00
0.0000000000000000e+00 1.2483828000000001e+01 0.0000000000000000e+00
0.0000000000000000e+00 3.3716253999999999e+01 0.0000000000000000e+00
ITEM: ATOMS id type xs ys zs
1 1 0.985975 0.987768 0.0714979
2 1 0.0487856 0.209375 0.0405839
3 1 0.074435 0.192916 0.121496
4 1 0.202409 0.128355 0.0764738
5 1 0.256678 0.180974 0.175421
6 1 0.971265 0.0151462 0.162643
7 1 0.0275265 0.972688 0.228418
8 1 0.112548 0.178234 0.21868
9 1 0.174449 0.283156 0.301528
10 1 0.268682 0.164855 0.267365
11 1 0.267118 0.116709 0.341555
12 1 0.0441513 0.0507402 0.30536
13 1 -0.0195009 0.314489 0.107074
14 1 0.0404192 0.472635 0.0440439
15 1 0.118348 0.549729 0.121147
16 1 0.221475 0.446004 0.0995511
17 1 0.168963 0.361196 0.1779
18 1 0.971566 0.370579 0.179902
19 1 0.0358776 0.292697 0.24734
20 1 0.165621 0.523721 0.209829
21 1 0.154245 0.58957 0.280109
22 1 0.257412 0.466191 0.261866
23 1 0.300133 0.483371 0.344089
24 1 0.0807888 0.410859 0.319629
25 1 0.928813 0.596839 0.0672751
26 1 0.0537908 0.812507 0.0993192
27 1 0.128634 0.988709 0.144988
28 1 0.208009 0.769669 0.106867
29 1 0.168639 0.701281 0.186958
30 1 0.968176 0.63627 0.154881
31 1 1.00093 0.602508 0.236002
32 1 0.0443649 0.795216 0.20781
33 1 0.137698 0.912975 0.293916
34 1 0.234745 0.807383 0.256794
35 1 0.272088 0.838233 0.328631
36 1 0.0348118 0.716276 0.309198
37 1 0.287469 -0.00358855 0.0933327
38 1 0.40073 0.203593 0.0432058
39 1 0.41724 0.220618 0.124463
40 1 0.531045 0.122806 0.0846885
41 1 0.565178 0.0328851 0.155356
42 1 0.392081 0.0335608 0.172002
43 1 0.213863 0.948771 0.214226
44 1 0.447227 0.246864 0.204885
45 1 0.4952 0.239766 0.28921
46 1 0.572221 0.151908 0.222046
47 1 0.576159 0.10865 0.302991
48 1 0.357353 0.0306053 0.284957
49 1 0.275314 0.322714 0.0399836
50 1 0.375742 0.537521 0.0480279
51 1 0.460652 0.560736 0.12871
52 1 0.486601 0.418327 0.0734414
53 1 0.548456 0.435326 0.158446
54 1 0.288328 0.32546 0.123291
55 1 0.34088 0.354317 0.22347
56 1 0.407069 0.562274 0.208812
57 1 0.466185 0.559456 0.29431
58 1 0.552268 0.485246 0.240154
59 1 0.648332 0.439351 0.314105
60 1 0.40404 0.356218 0.305958
61 1 0.269529 0.655167 0.0640521
62 1 0.42328 0.89147 0.0575424
63 1 0.416418 0.859206 0.140639
64 1 0.502604 0.7418 0.0860109
65 1 0.522898 0.746976 0.170086
66 1 0.31415 0.64296 0.149167
67 1 0.376335 0.728746 0.221164
68 1 0.454659 0.947476 0.226629
69 1 0.480375 0.897606 0.301049
70 1 0.588299 0.857605 0.232329
71 1 0.570682 0.769963 0.317263
72 1 0.361392 0.69199 0.302941
73 1 0.608325 -0.0142662 0.0757358
74 1 0.81261 0.235712 0.0421426
75 1 0.745011 0.189402 0.1278
76 1 0.849829 0.0935958 0.0882089
77 1 0.87708 0.122946 0.17175
78 1 0.672669 0.935432 0.13625
79 1 0.711084 0.0676691 0.226019
80 1 0.77639 0.27195 0.205824
81 1 0.821574 0.206906 0.268542
82 1 0.924541 0.0936312 0.245103
83 1 0.971271 0.176332 0.314696
84 1 0.723676 -0.00862831 0.310799
85 1 0.682216 0.323834 0.0519512
86 1 0.68704 0.517372 0.0419376
87 1 0.739908 0.498499 0.12233
88 1 0.872463 0.406369 0.0972721
89 1 0.83867 0.466489 0.181471
90 1 0.620244 0.258925 0.158871
91 1 0.658069 0.379565 0.227156
92 1 0.796454 0.630836 0.198357
93 1 0.833469 0.553017 0.275884
94 1 0.936967 0.40998 0.256788
95 1 0.933293 0.488455 0.328549
96 1 0.701512 0.304731 0.29444
97 1 0.626177 0.666113 0.0598482
98 1 0.725052 0.887401 0.0467049
99 1 0.795279 0.858628 0.113249
100 1 0.836945 0.707751 0.0785782
101 1 0.909187 0.803447 0.154272
102 1 0.68125 0.680441 0.153336
103 1 0.639324 0.695754 0.236892
104 1 0.779816 0.899409 0.196458
105 1 0.803994 0.892291 0.278386
106 1 0.896191 0.760804 0.258735
107 1 0.917246 0.828791 0.326277
108 1 0.694854 0.646239 0.30875
ITEM: TIMESTEP
70
ITEM: NUMBER OF ATOMS
108
ITEM: BOX BOUNDS xy xz yz pp pp pp
-7.2075420000000001e+00 1.4415084000000000e+01 -7.2075420000000001e+00
0.0000000000000000e+00 1.2483828000000001e+01 0.0000000000000000e+00
0.0000000000000000e+00 3.3716253999999999e+01 0.0000000000000000e+00
ITEM: ATOMS id type xs ys zs
1 1 1.00553 0.981679 0.0814001
2 1 0.0228799 0.224729 0.0403305
3 1 0.11714 0.203983 0.124103
4 1 0.207676 0.142193 0.070928
5 1 0.265627 0.181851 0.177661
6 1 0.949745 0.0227308 0.164301
7 1 0.0260065 0.941998 0.242152
8 1 0.0789477 0.144996 0.224981
9 1 0.192958 0.274705 0.302744
10 1 0.273328 0.163282 0.27166
11 1 0.25985 0.138093 0.342179
12 1 0.0496531 0.0644269 0.308128
13 1 0.993054 0.308288 0.10381
14 1 0.0273465 0.471423 0.0569022
15 1 0.068738 0.522044 0.134404
16 1 0.206091 0.441501 0.0873257
17 1 0.182994 0.354091 0.175804
18 1 0.952379 0.363787 0.180812
19 1 0.049989 0.303341 0.244959
20 1 0.181348 0.528463 0.201666
21 1 0.134519 0.60122 0.287964
22 1 0.240771 0.489859 0.261656
23 1 0.297812 0.500949 0.339424
24 1 0.0720602 0.388995 0.319599
25 1 0.894801 0.57983 0.0568291
26 1 0.0621234 0.813438 0.0851301
27 1 0.142367 -0.023405 0.140601
28 1 0.188721 0.724289 0.10177
29 1 0.218907 0.746965 0.181437
30 1 0.970754 0.634719 0.133889
31 1 0.0210468 0.617027 0.219833
32 1 0.11184 0.83474 0.203164
33 1 0.152703 0.925976 0.29965
34 1 0.240589 0.815526 0.26928
35 1 0.197395 0.738535 0.346841
36 1 0.0290906 0.715096 0.297549
37 1 0.270913 0.952044 0.0975989
38 1 0.388321 0.163397 0.0221817
39 1 0.385185 0.187862 0.105939
40 1 0.467501 0.0804408 0.0789551
41 1 0.590555 0.0951028 0.157651
42 1 0.411558 0.0753552 0.161831
43 1 0.267492 1.00228 0.221891
44 1 0.434694 0.26935 0.213412
45 1 0.528775 0.280095 0.290901
46 1 0.546938 0.139378 0.243741
47 1 0.601873 0.127788 0.320965
48 1 0.37621 0.0259991 0.295973
49 1 0.27919 0.346613 0.0400352
50 1 0.427366 0.564026 0.0519076
51 1 0.444751 0.54003 0.127748
52 1 0.51922 0.409629 0.0665269
53 1 0.53129 0.409236 0.157496
54 1 0.323706 0.348451 0.121194
55 1 0.327373 0.359251 0.23296
56 1 0.423224 0.544433 0.201901
57 1 0.491729 0.602741 0.281021
58 1 0.544687 0.473685 0.245832
59 1 0.648212 0.458223 0.334035
60 1 0.426324 0.394466 0.318677
61 1 0.239943 0.622915 0.0497612
62 1 0.357547 0.865057 0.0574669
63 1 0.404259 0.879473 0.141588
64 1 0.479206 0.804143 0.0894675
65 1 0.546602 0.745491 0.169732
66 1 0.325335 0.6275 0.139079
67 1 0.36492 0.716425 0.219512
68 1 0.436648 0.941971 0.217818
69 1 0.436211 0.885613 0.311519
70 1 0.536625 0.796795 0.254111
71 1 0.626876 0.798905 0.324788
72 1 0.378323 0.688261 0.293243
73 1 0.641596 1.07162 0.0726914
74 1 0.836234 0.251207 0.0514299
75 1 0.785552 0.182427 0.126535
76 1 0.864183 0.076193 0.0922193
77 1 0.94672 0.196264 0.178343
78 1 0.664189 0.968674 0.132394
79 1 0.707641 0.0234236 0.213807
80 1 0.746836 0.228698 0.201739
81 1 0.820967 0.201343 0.287492
82 1 0.881673 0.0620711 0.247796
83 1 0.973981 0.170674 0.335885
84 1 0.664895 -0.0206381 0.291431
85 1 0.620116 0.304649 0.0568497
86 1 0.699595 0.525129 0.0324436
87 1 0.721659 0.522035 0.11577
88 1 0.842294 0.404492 0.109602
89 1 0.853306 0.46496 0.189392
90 1 0.637801 0.303836 0.137725
91 1 0.6521 0.374591 0.21009
92 1 0.763238 0.581265 0.197874
93 1 0.804072 0.528178 0.271427
94 1 0.974614 0.433139 0.259033
95 1 0.992165 0.529311 0.345527
96 1 0.725154 0.326422 0.283349
97 1 0.627532 0.664322 0.075297
98 1 0.676437 0.886308 0.0483866
99 1 0.784714 0.870141 0.112564
100 1 0.836007 0.717183 0.075861
101 1 0.919886 0.797886 0.158252