 running on    1 total cores
 distrk:  each k-point on    1 cores,    1 groups
 distr:  one band on    1 cores,    1 groups
 OpenACC runtime initialized ...    1 GPUs detected
 vasp.6.2.1 16May21 (build Jun 16 2021 03:23:30) complex                         
 POSCAR found type information on POSCAR NiO 
 POSCAR found :  2 types and     254 ions
 scaLAPACK will be used selectively (only on CPU)
 LDA part: xc-table for Pade appr. of Perdew
 POSCAR found type information on POSCAR NiO 
 POSCAR found :  2 types and     254 ions
 POSCAR, INCAR and KPOINTS ok, starting setup
 FFT: planning ...
 WAVECAR not read
 entering main loop
       N       E                     dE             d eps       ncg     rms          rms(c)
DAV:   1     0.223219190872E+05    0.22322E+05   -0.98500E+05 12200   0.134E+03
DAV:   2     0.964442880277E+02   -0.22225E+05   -0.21241E+05 12152   0.469E+02
DAV:   3    -0.133638533171E+04   -0.14328E+04   -0.12022E+04 13496   0.131E+02
DAV:   4    -0.155843302624E+04   -0.22205E+03   -0.18712E+03 21048   0.489E+01
DAV:   5    -0.157079145301E+04   -0.12358E+02   -0.11585E+02 19488   0.117E+01    0.145E+02
DAV:   6    -0.194280938783E+04   -0.37202E+03   -0.28154E+03 15808   0.166E+02    0.289E+02
DAV:   7    -0.175610132751E+04    0.18671E+03   -0.10595E+03 13344   0.142E+02    0.235E+02
DAV:   8    -0.208850598823E+04   -0.33240E+03   -0.64856E+02 16672   0.127E+02    0.318E+02
DAV:   9    -0.186281333325E+04    0.22569E+03   -0.24421E+02 14512   0.956E+01    0.268E+02
DAV:  10    -0.170657223133E+04    0.15624E+03   -0.23949E+02 17280   0.775E+01    0.223E+02
DAV:  11    -0.154763529429E+04    0.15894E+03   -0.25423E+02 14008   0.687E+01    0.176E+02
DAV:  12    -0.160500227182E+04   -0.57367E+02   -0.48593E+02 16352   0.996E+01    0.224E+02
DAV:  13    -0.150933642712E+04    0.95666E+02   -0.28317E+02 15576   0.635E+01    0.152E+02
DAV:  14    -0.153565776200E+04   -0.26321E+02   -0.18625E+02 14392   0.802E+01    0.189E+02
DAV:  15    -0.148247305024E+04    0.53185E+02   -0.91094E+01 13352   0.562E+01    0.191E+02
DAV:  16    -0.138434402473E+04    0.98129E+02   -0.12019E+02 19464   0.416E+01    0.118E+02
DAV:  17    -0.136948742783E+04    0.14857E+02   -0.36998E+01 13032   0.340E+01    0.106E+02
DAV:  18    -0.134493981458E+04    0.24548E+02   -0.20877E+01 12928   0.250E+01    0.673E+01
DAV:  19    -0.134510989537E+04   -0.17008E+00   -0.10778E+01 13280   0.196E+01    0.756E+01
DAV:  20    -0.133889153503E+04    0.62184E+01   -0.82335E+00 13120   0.156E+01    0.623E+01
DAV:  21    -0.133614268131E+04    0.27489E+01   -0.78443E+00 13280   0.178E+01    0.579E+01
DAV:  22    -0.133270499420E+04    0.34377E+01   -0.52328E+00 13168   0.126E+01    0.514E+01
DAV:  23    -0.133164631192E+04    0.10587E+01   -0.35804E+00 13200   0.101E+01    0.480E+01
DAV:  24    -0.133022602852E+04    0.14203E+01   -0.26139E+00 13136   0.731E+00    0.452E+01
DAV:  25    -0.133019330334E+04    0.32725E-01   -0.22505E+00 13240   0.788E+00    0.444E+01
DAV:  26    -0.132873146983E+04    0.14618E+01   -0.19106E+00 13264   0.746E+00    0.346E+01
DAV:  27    -0.132871874802E+04    0.12722E-01   -0.18691E+00 13416   0.766E+00    0.378E+01
DAV:  28    -0.133194362491E+04   -0.32249E+01   -0.38793E+00 13536   0.107E+01    0.479E+01
DAV:  29    -0.133114532444E+04    0.79830E+00   -0.18954E+00 13440   0.804E+00    0.502E+01
DAV:  30    -0.132916850642E+04    0.19768E+01   -0.14510E+00 13392   0.630E+00    0.423E+01
DAV:  31    -0.132748659414E+04    0.16819E+01   -0.97373E-01 13472   0.520E+00    0.322E+01
DAV:  32    -0.132690492021E+04    0.58167E+00   -0.94574E-01 13512   0.535E+00    0.281E+01
DAV:  33    -0.132647997907E+04    0.42494E+00   -0.82004E-01 13384   0.511E+00    0.253E+01
DAV:  34    -0.132614906884E+04    0.33091E+00   -0.69148E-01 13400   0.498E+00    0.243E+01
DAV:  35    -0.132615395529E+04   -0.48865E-02   -0.81268E-01 13408   0.539E+00    0.224E+01
DAV:  36    -0.132656250453E+04   -0.40855E+00   -0.74780E-01 13392   0.519E+00    0.262E+01
DAV:  37    -0.132650245541E+04    0.60049E-01   -0.67163E-01 13392   0.447E+00    0.267E+01
DAV:  38    -0.132607370303E+04    0.42875E+00   -0.74858E-01 13520   0.449E+00    0.239E+01
DAV:  39    -0.132548834238E+04    0.58536E+00   -0.59493E-01 13440   0.411E+00    0.172E+01
DAV:  40    -0.132527846126E+04    0.20988E+00   -0.37495E-01 13504   0.333E+00    0.169E+01
DAV:  41    -0.132517907288E+04    0.99388E-01   -0.32563E-01 13552   0.248E+00    0.137E+01
DAV:  42    -0.132541134668E+04   -0.23227E+00   -0.44185E-01 13488   0.245E+00    0.168E+01
DAV:  43    -0.132495554672E+04    0.45580E+00   -0.17867E-01 13408   0.213E+00    0.122E+01
DAV:  44    -0.132492332308E+04    0.32224E-01   -0.81849E-02 13472   0.159E+00    0.124E+01
DAV:  45    -0.132491388284E+04    0.94402E-02   -0.86107E-02 13488   0.144E+00    0.123E+01
DAV:  46    -0.132491365374E+04    0.22910E-03   -0.15876E-01 13504   0.168E+00    0.843E+00
DAV:  47    -0.132503852498E+04   -0.12487E+00   -0.10807E-01 13400   0.154E+00    0.945E+00
DAV:  48    -0.132492772255E+04    0.11080E+00   -0.52621E-02 13464   0.994E-01    0.664E+00
DAV:  49    -0.132494095185E+04   -0.13229E-01   -0.37903E-02 13392   0.962E-01    0.572E+00
DAV:  50    -0.132492398570E+04    0.16966E-01   -0.64716E-02 13520   0.866E-01    0.438E+00
DAV:  51    -0.132498320266E+04   -0.59217E-01   -0.94972E-02 15128   0.120E+00    0.708E+00
DAV:  52    -0.132495639388E+04    0.26809E-01   -0.76172E-02 13736   0.107E+00    0.521E+00
DAV:  53    -0.132500131595E+04   -0.44922E-01   -0.81152E-02 13632   0.123E+00    0.791E+00
DAV:  54    -0.132488391602E+04    0.11740E+00   -0.33652E-02 13536   0.974E-01    0.476E+00
DAV:  55    -0.132490742240E+04   -0.23506E-01   -0.14493E-02 13632   0.685E-01    0.539E+00
DAV:  56    -0.132490102570E+04    0.63967E-02   -0.72058E-02 13712   0.797E-01    0.439E+00
DAV:  57    -0.132493879894E+04   -0.37773E-01   -0.13102E-02 13360   0.623E-01    0.448E+00
DAV:  58    -0.132491165868E+04    0.27140E-01   -0.17008E-02 13584   0.517E-01    0.278E+00
DAV:  59    -0.132492948608E+04   -0.17827E-01   -0.15476E-02 13488   0.482E-01    0.175E+00
DAV:  60    -0.132494518075E+04   -0.15695E-01   -0.98215E-03 13568   0.443E-01    0.337E+00
DAV:  61    -0.132492750184E+04    0.17679E-01   -0.73114E-03 13568   0.478E-01    0.407E+00
DAV:  62    -0.132490963947E+04    0.17862E-01   -0.87918E-03 13576   0.552E-01    0.221E+00
DAV:  63    -0.132493157865E+04   -0.21939E-01   -0.16022E-02 13912   0.457E-01    0.223E+00
DAV:  64    -0.132494644501E+04   -0.14866E-01   -0.58194E-03 13512   0.376E-01    0.290E+00
DAV:  65    -0.132492672246E+04    0.19723E-01   -0.20831E-03 13632   0.245E-01    0.215E+00
DAV:  66    -0.132492886804E+04   -0.21456E-02   -0.78918E-03 13928   0.262E-01    0.122E+00
DAV:  67    -0.132494443602E+04   -0.15568E-01   -0.18861E-03 13352   0.232E-01    0.747E-01
DAV:  68    -0.132494361428E+04    0.82174E-03   -0.64820E-04 13712   0.142E-01    0.601E-01
DAV:  69    -0.132494426109E+04   -0.64682E-03   -0.52118E-04 13688   0.125E-01    0.444E-01
DAV:  70    -0.132494511377E+04   -0.85267E-03   -0.42710E-04 13680   0.106E-01    0.285E-01
DAV:  71    -0.132494597833E+04   -0.86456E-03   -0.27486E-04 13608   0.940E-02    0.315E-01
DAV:  72    -0.132494605111E+04   -0.72776E-04   -0.18131E-04 13728   0.753E-02    0.215E-01
DAV:  73    -0.132494652279E+04   -0.47169E-03   -0.11625E-04 14696   0.532E-02    0.224E-01
DAV:  74    -0.132494708485E+04   -0.56205E-03   -0.96569E-05 14088   0.517E-02    0.189E-01
DAV:  75    -0.132494741714E+04   -0.33230E-03   -0.61383E-05 13640   0.418E-02    0.138E-01
DAV:  76    -0.132494731087E+04    0.10627E-03   -0.12096E-04 14656   0.574E-02    0.267E-01
DAV:  77    -0.132494772218E+04   -0.41131E-03   -0.10351E-04 13953   0.568E-02    0.154E-01
DAV:  78    -0.132494847082E+04   -0.74864E-03   -0.66170E-05 13368   0.404E-02    0.140E-01
DAV:  79    -0.132494901364E+04   -0.54282E-03   -0.52152E-05 13490   0.356E-02    0.121E-01
DAV:  80    -0.132494943055E+04   -0.41690E-03   -0.42698E-05 12480   0.311E-02    0.938E-02
DAV:  81    -0.132494915782E+04    0.27273E-03   -0.66671E-05 13049   0.479E-02    0.245E-01
DAV:  82    -0.132494938708E+04   -0.22927E-03   -0.66348E-05 13136   0.482E-02    0.150E-01
DAV:  83    -0.132494997190E+04   -0.58482E-03   -0.55145E-05 12928   0.350E-02    0.134E-01
DAV:  84    -0.132495047431E+04   -0.50241E-03   -0.48917E-05 12656   0.296E-02    0.982E-02
DAV:  85    -0.132495062924E+04   -0.15493E-03   -0.24903E-05 11208   0.218E-02    0.701E-02
DAV:  86    -0.132495076778E+04   -0.13854E-03   -0.34216E-05 11976   0.316E-02    0.152E-01
DAV:  87    -0.132495088247E+04   -0.11469E-03   -0.35071E-05 11496   0.305E-02    0.820E-02
DAV:  88    -0.132495091660E+04   -0.34132E-04   -0.10134E-05  7800   0.151E-02    0.793E-02
DAV:  89    -0.132495100252E+04   -0.85914E-04   -0.12694E-05  8160   0.160E-02    0.847E-02
DAV:  90    -0.132495111956E+04   -0.11705E-03   -0.21540E-05 10345   0.190E-02    0.712E-02
DAV:  91    -0.132495094895E+04    0.17061E-03   -0.31371E-05  9510   0.269E-02    0.119E-01
DAV:  92    -0.132495112366E+04   -0.17471E-03   -0.27529E-05  9088   0.240E-02    0.798E-02
DAV:  93    -0.132495119441E+04   -0.70744E-04   -0.12992E-05  8764   0.152E-02    0.446E-02
DAV:  94    -0.132495121459E+04   -0.20181E-04   -0.57185E-06  7545   0.983E-03    0.390E-02
DAV:  95    -0.132495123497E+04   -0.20384E-04   -0.47156E-06  7258   0.905E-03    0.363E-02
DAV:  96    -0.132495122961E+04    0.53619E-05   -0.53725E-06  6986   0.135E-02    0.573E-02
DAV:  97    -0.132495125850E+04   -0.28889E-04   -0.53673E-06  6906   0.127E-02    0.301E-02
DAV:  98    -0.132495127185E+04   -0.13355E-04   -0.22145E-06  7360   0.663E-03    0.233E-02
DAV:  99    -0.132495128409E+04   -0.12233E-04   -0.15486E-06  6314   0.533E-03    0.206E-02
DAV: 100    -0.132495129992E+04   -0.15838E-04   -0.15412E-06  6954   0.567E-03    0.204E-02
DAV: 101    -0.132495131129E+04   -0.11362E-04   -0.28622E-06  6754   0.101E-02    0.441E-02
DAV: 102    -0.132495131062E+04    0.66683E-06   -0.26044E-06  6786   0.950E-03
   1 F= -.14221309E+04 E0= -.14213576E+04  d E =-.154645E+01
