ITEM: TIMESTEP
0
ITEM: NUMBER OF ATOMS
108
ITEM: BOX BOUNDS xy xz yz pp pp pp
-7.2075420000000001e+00 1.4415084000000000e+01 -7.2075420000000001e+00
0.0000000000000000e+00 1.2483828000000001e+01 0.0000000000000000e+00
0.0000000000000000e+00 3.6116253999999998e+01 0.0000000000000000e+00
ITEM: ATOMS id type xs ys zs
1 1 0 0 0.0452438
2 1 0.112184 0.223442 0.0194103
3 1 0.111379 0.222313 0.107911
4 1 0.223618 0.111645 0.0512368
5 1 0.222247 0.112043 0.166668
6 1 0 0 0.118692
7 1 0 0 0.222248
8 1 0.110655 0.221583 0.179779
9 1 0.117821 0.223802 0.284504
10 1 0.222764 0.108386 0.237587
11 1 0.219061 0.112924 0.328408
12 1 0 0 0.289977
13 1 0.998061 0.331757 0.0447304
14 1 0.111921 0.555079 0.0190732
15 1 0.112328 0.555938 0.107631
16 1 0.221997 0.444281 0.0513625
17 1 0.22147 0.443963 0.165482
18 1 0.00128971 0.333043 0.118624
19 1 0.00034655 0.335606 0.222358
20 1 0.10998 0.554728 0.179255
21 1 0.114768 0.556675 0.282162
22 1 0.223395 0.44536 0.237602
23 1 0.22876 0.447852 0.332954
24 1 0.00112664 0.332791 0.290832
25 1 0.00016285 0.666604 0.0444239
26 1 0.111258 0.887816 0.0194103
27 1 0.110934 0.888621 0.107911
28 1 0.222285 0.778003 0.0513625
29 1 0.222493 0.77853 0.165482
30 1 0.00052442 0.667408 0.118038
31 1 0.997668 0.664822 0.220933
32 1 0.110928 0.889345 0.179779
33 1 0.10598 0.882179 0.284504
34 1 0.221966 0.776605 0.237602
35 1 0.219092 0.77124 0.332954
36 1 0.998129 0.661167 0.289599
37 1 0.333696 0.0019385 0.0447304
38 1 0.444289 0.224326 0.016213
39 1 0.44328 0.221334 0.10661
40 1 0.554343 0.112208 0.0518951
41 1 0.555545 0.110948 0.164773
42 1 0.331753 0.99871 0.118624
43 1 0.33526 0.999653 0.222358
44 1 0.44346 0.219757 0.179488
45 1 0.442605 0.217116 0.282635
46 1 0.556974 0.112332 0.236784
47 1 0.557947 0.114642 0.329665
48 1 0.331665 0.998873 0.290832
49 1 0.333396 0.333558 0.0444239
50 1 0.444921 0.556843 0.0190732
51 1 0.444062 0.556391 0.107631
52 1 0.557866 0.445657 0.0518951
53 1 0.555403 0.444455 0.164773
54 1 0.332592 0.333116 0.118038
55 1 0.335178 0.332846 0.220933
56 1 0.445272 0.555252 0.179255
57 1 0.443325 0.558093 0.282162
58 1 0.555359 0.443026 0.236784
59 1 0.556695 0.442053 0.329665
60 1 0.338833 0.336963 0.289599
61 1 0.333333 0.666667 0.0454509
62 1 0.443157 0.888079 0.0190732
63 1 0.443609 0.887672 0.107631
64 1 0.555719 0.777715 0.0513625
65 1 0.556037 0.777507 0.165482
66 1 0.333333 0.666667 0.118409
67 1 0.333333 0.666667 0.220623
68 1 0.444748 0.89002 0.179255
69 1 0.441907 0.885232 0.282162
70 1 0.55464 0.778034 0.237602
71 1 0.552148 0.780908 0.332954
72 1 0.333333 0.666667 0.294703
73 1 0.666442 0.999837 0.0444239
74 1 0.775674 0.219964 0.016213
75 1 0.778666 0.221946 0.10661
76 1 0.888355 0.111973 0.0512368
77 1 0.887957 0.110204 0.166668
78 1 0.666884 0.999476 0.118038
79 1 0.667154 0.00233235 0.220933
80 1 0.780243 0.223703 0.179488
81 1 0.782884 0.225489 0.282635
82 1 0.891614 0.114378 0.237587
83 1 0.887076 0.106137 0.328408
84 1 0.663037 0.00187067 0.289599
85 1 0.666667 0.333333 0.044934
86 1 0.780036 0.55571 0.016213
87 1 0.778054 0.55672 0.10661
88 1 0.887792 0.442134 0.0518951
89 1 0.889052 0.444597 0.164773
90 1 0.666667 0.333333 0.119799
91 1 0.666667 0.333333 0.221866
92 1 0.776297 0.55654 0.179488
93 1 0.774511 0.557395 0.282635
94 1 0.887668 0.444641 0.236784
95 1 0.885358 0.443305 0.329665
96 1 0.666667 0.333333 0.291822
97 1 0.668243 0.666304 0.0447304
98 1 0.776558 0.888742 0.0194103
99 1 0.777687 0.889066 0.107911
100 1 0.888027 0.776382 0.0512368
101 1 0.889796 0.777753 0.166668
102 1 0.666957 0.668247 0.118624
103 1 0.664394 0.66474 0.222358
104 1 0.778417 0.889072 0.179779
105 1 0.776198 0.894019 0.284504
106 1 0.885622 0.777236 0.237587
107 1 0.893863 0.780939 0.328408
108 1 0.667209 0.668335 0.290832
ITEM: TIMESTEP
10
ITEM: NUMBER OF ATOMS
108
ITEM: BOX BOUNDS xy xz yz pp pp pp
-7.2075420000000001e+00 1.4415084000000000e+01 -7.2075420000000001e+00
0.0000000000000000e+00 1.2483828000000001e+01 0.0000000000000000e+00
0.0000000000000000e+00 3.6116253999999998e+01 0.0000000000000000e+00
ITEM: ATOMS id type xs ys zs
1 1 0.994212 0.00459941 0.0520704
2 1 0.106456 0.215677 0.0322673
3 1 0.103218 0.224808 0.103707
4 1 0.209805 0.11338 0.0742436
5 1 0.217537 0.0997106 0.142697
6 1 0.985426 0.0120653 0.129508
7 1 0.990194 0.970072 0.201006
8 1 0.0861847 0.186709 0.199566
9 1 0.113179 0.236972 0.271463
10 1 0.218151 0.10264 0.226249
11 1 0.241645 0.121586 0.307603
12 1 0.0217486 0.0153259 0.289824
13 1 0.998837 0.325979 0.0572433
14 1 0.107078 0.555098 0.0304525
15 1 0.119692 0.557762 0.110781
16 1 0.235195 0.43742 0.0832285
17 1 0.211751 0.428801 0.151558
18 1 0.982398 0.34066 0.132618
19 1 0.000743141 0.326488 0.20633
20 1 0.122582 0.563548 0.199869
21 1 0.114743 0.558353 0.269643
22 1 0.241096 0.456223 0.241012
23 1 0.192225 0.423802 0.313599
24 1 0.985306 0.326811 0.293487
25 1 0.995196 0.671522 0.0579058
26 1 0.112799 0.900909 0.0306846
27 1 0.110409 0.899113 0.0986226
28 1 0.212118 0.775088 0.0821408
29 1 0.231047 0.780485 0.15934
30 1 0.0353549 0.700917 0.12827
31 1 0.980988 0.641934 0.206225
32 1 0.118239 0.874256 0.204812
33 1 0.108724 0.900694 0.275007
34 1 0.206102 0.779786 0.231194
35 1 0.226738 0.77045 0.310062
36 1 0.9998 0.680915 0.28205
37 1 0.330813 0.98406 0.0611036
38 1 0.447017 0.210019 0.0246899
39 1 0.432162 0.205798 0.104632
40 1 0.561414 0.119644 0.0644118
41 1 0.555047 0.10303 0.134427
42 1 0.329834 0.986446 0.127821
43 1 0.342159 0.00612586 0.207705
44 1 0.451991 0.222863 0.20028
45 1 0.438107 0.21886 0.270187
46 1 0.552057 0.114161 0.233299
47 1 0.562614 0.105066 0.304521
48 1 0.335425 0.991743 0.287945
49 1 0.323084 0.322052 0.0496178
50 1 0.437355 0.546077 0.0243497
51 1 0.448272 0.572198 0.10435
52 1 0.549612 0.442411 0.0822238
53 1 0.548166 0.426005 0.147597
54 1 0.328569 0.326095 0.125347
55 1 0.325368 0.333493 0.202829
56 1 0.41602 0.555713 0.189008
57 1 0.473315 0.564579 0.255672
58 1 0.561006 0.427346 0.228509
59 1 0.552805 0.455332 0.304385
60 1 0.326234 0.344217 0.287832
61 1 0.335835 0.67092 0.0622677
62 1 0.453186 0.884471 0.0260807
63 1 0.466743 0.910993 0.100007
64 1 0.554717 0.787668 0.0693225
65 1 0.562566 0.7825 0.152727
66 1 0.349213 0.68 0.145492
67 1 0.342253 0.685427 0.218325
68 1 0.470373 0.894663 0.20221
69 1 0.427344 0.870658 0.270148
70 1 0.564877 0.785464 0.235704
71 1 0.574625 0.791673 0.311924
72 1 0.342445 0.64307 0.296736
73 1 0.66995 0.00975292 0.0567603
74 1 0.783054 0.229731 0.0289949
75 1 0.764892 0.216923 0.101761
76 1 0.88024 0.103449 0.0831299
77 1 0.895156 0.12182 0.153296
78 1 0.684679 0.988436 0.130503
79 1 0.685098 0.0241655 0.204787
80 1 0.772846 0.244009 0.196268
81 1 0.775884 0.202438 0.263334
82 1 0.899406 0.0973971 0.237644
83 1 0.880287 0.110789 0.313179
84 1 0.674531 0.00272251 0.284063
85 1 0.662982 0.34466 0.0567776
86 1 0.774258 0.565425 0.0305973
87 1 0.78593 0.553055 0.106523
88 1 0.888611 0.452865 0.0673635
89 1 0.889407 0.464259 0.138709
90 1 0.660455 0.324224 0.129166
91 1 0.669504 0.35348 0.201177
92 1 0.764985 0.566952 0.196626
93 1 0.767443 0.539049 0.264644
94 1 0.898873 0.4282 0.231677
95 1 0.895986 0.465925 0.305144
96 1 0.665922 0.337301 0.284211
97 1 0.660211 0.664689 0.0610217
98 1 0.767073 0.893647 0.0241269
99 1 0.765811 0.861357 0.0989666
100 1 0.892408 0.782985 0.0803338
101 1 0.890855 0.785841 0.146702
102 1 0.661629 0.658728 0.139324
103 1 0.647562 0.663425 0.213834
104 1 0.768306 0.885909 0.198625
105 1 0.787961 0.879732 0.26492
106 1 0.87682 0.756751 0.237345
107 1 0.90358 0.798326 0.31012
108 1 0.677868 0.670183 0.29797
ITEM: TIMESTEP
20
ITEM: NUMBER OF ATOMS
108
ITEM: BOX BOUNDS xy xz yz pp pp pp
-7.2075420000000001e+00 1.4415084000000000e+01 -7.2075420000000001e+00
0.0000000000000000e+00 1.2483828000000001e+01 0.0000000000000000e+00
0.0000000000000000e+00 3.6116253999999998e+01 0.0000000000000000e+00
ITEM: ATOMS id type xs ys zs
1 1 0.974212 0.981385 0.0524932
2 1 0.110891 0.214619 0.0472217
3 1 0.0839014 0.238211 0.108424
4 1 0.21693 0.108464 0.0644344
5 1 0.227219 0.132787 0.1404
6 1 0.979074 0.019592 0.144675
7 1 0.992418 0.94868 0.209542
8 1 0.0994106 0.164991 0.193812
9 1 0.10718 0.248381 0.273043
10 1 0.230301 0.105137 0.228716
11 1 0.21709 0.136743 0.290904
12 1 0.0214983 0.0314875 0.281454
13 1 0.0126366 0.338053 0.0616473
14 1 0.11499 0.556502 0.060641
15 1 0.123457 0.576036 0.122197
16 1 0.227045 0.436264 0.0801698
17 1 0.188944 0.398119 0.158776
18 1 0.99018 0.367631 0.150688
19 1 0.0411152 0.296947 0.210691
20 1 0.131927 0.535259 0.199309
21 1 0.112489 0.564974 0.269491
22 1 0.248947 0.473569 0.24634
23 1 0.167916 0.43191 0.306469
24 1 0.973707 0.346585 0.280776
25 1 0.00972348 0.665401 0.0493152
26 1 0.0969507 0.888291 0.0461214
27 1 0.097055 0.911324 0.109079
28 1 0.230578 0.801099 0.080801
29 1 0.234769 0.768382 0.173234
30 1 0.998588 0.684471 0.13059
31 1 0.998601 0.647513 0.207825
32 1 0.113352 0.856821 0.191127
33 1 0.129406 0.911271 0.270893
34 1 0.193945 0.784287 0.24128
35 1 0.215178 0.750677 0.313277
36 1 0.00257916 0.679966 0.277137
37 1 0.315123 0.981474 0.0389033
38 1 0.433614 0.216538 0.0461235
39 1 0.435403 0.199743 0.10904
40 1 0.550628 0.122765 0.067728
41 1 0.571393 0.0863787 0.131856
42 1 0.32496 0.98203 0.137468
43 1 0.312064 0.971061 0.208648
44 1 0.416114 0.192853 0.191411
45 1 0.432666 0.207167 0.265465
46 1 0.574186 0.163819 0.213647
47 1 0.549245 0.0771962 0.277548
48 1 0.344616 0.979919 0.292787
49 1 0.347682 0.347761 0.0390132
50 1 0.431252 0.566052 0.0516823
51 1 0.467957 0.561486 0.116845
52 1 0.558759 0.454272 0.0783137
53 1 0.538492 0.405876 0.151147
54 1 0.336061 0.35188 0.127345
55 1 0.323266 0.326514 0.195546
56 1 0.443339 0.581717 0.192627
57 1 0.457828 0.583735 0.261662
58 1 0.542057 0.482794 0.222873
59 1 0.569287 0.423786 0.2902
60 1 0.338817 0.348871 0.273015
61 1 0.332654 0.66463 0.0701701
62 1 0.43219 0.880926 0.0513111
63 1 0.430238 0.847869 0.113189
64 1 0.550623 0.792995 0.0763178
65 1 0.566094 0.756445 0.151841
66 1 0.335482 0.654357 0.152661
67 1 0.339909 0.693357 0.220168
68 1 0.453359 0.916037 0.191607
69 1 0.453127 0.857844 0.272778
70 1 0.57148 0.833549 0.21899
71 1 0.569401 0.740458 0.288245
72 1 0.346303 0.632465 0.306195
73 1 0.662784 0.0201829 0.0498713
74 1 0.783558 0.242429 0.0363594
75 1 0.787326 0.196653 0.0979936
76 1 0.891459 0.101597 0.0814524
77 1 0.886306 0.159104 0.160022
78 1 0.676546 0.966626 0.135392
79 1 0.700685 0.0535945 0.200551
80 1 0.779973 0.266793 0.17473
81 1 0.751973 0.203147 0.248017
82 1 0.891422 0.0733838 0.229349
83 1 0.872724 0.119491 0.296844
84 1 0.676308 0.981214 0.27414
85 1 0.661072 0.357403 0.0415065
86 1 0.765681 0.573532 0.0437884
87 1 0.786158 0.548815 0.109942
88 1 0.883109 0.436897 0.079003
89 1 0.886104 0.479675 0.153564
90 1 0.662634 0.314804 0.13113
91 1 0.708956 0.382394 0.202613
92 1 0.729943 0.554719 0.188638
93 1 0.777756 0.544123 0.25176
94 1 0.923489 0.400825 0.227045
95 1 0.864013 0.466241 0.287723
96 1 0.658516 0.307473 0.276337
97 1 0.651331 0.678308 0.0659041
98 1 0.756357 0.885885 0.0470108
99 1 0.786959 0.861442 0.107463
100 1 0.88462 0.769315 0.074785
101 1 0.903392 0.800035 0.147404
102 1 0.666294 0.653231 0.143458
103 1 0.662578 0.705298 0.217035
104 1 0.792592 0.894449 0.189098
105 1 0.790807 0.879646 0.265183
106 1 0.883126 0.74574 0.238703
107 1 0.933537 0.821066 0.30118
108 1 0.710038 0.666013 0.297294
ITEM: TIMESTEP
30
ITEM: NUMBER OF ATOMS
108
ITEM: BOX BOUNDS xy xz yz pp pp pp
-7.2075420000000001e+00 1.4415084000000000e+01 -7.2075420000000001e+00
0.0000000000000000e+00 1.2483828000000001e+01 0.0000000000000000e+00
0.0000000000000000e+00 3.6116253999999998e+01 0.0000000000000000e+00
ITEM: ATOMS id type xs ys zs
1 1 0.00748141 0.963815 0.0691231
2 1 0.0896481 0.200767 0.0388636
3 1 0.11613 0.274117 0.135778
4 1 0.230543 0.127625 0.0680854
5 1 0.20535 0.157586 0.13866
6 1 0.995041 0.0255753 0.137789
7 1 0.993901 0.971684 0.211276
8 1 0.0952266 0.188199 0.194904
9 1 0.126957 0.26918 0.275828
10 1 0.209013 0.0751351 0.20977
11 1 0.25607 0.1847 0.325904
12 1 0.0265159 0.0448098 0.283787
13 1 0.938255 0.26824 0.0739799
14 1 0.098413 0.533473 0.0494561
15 1 0.0950322 0.586073 0.119313
16 1 0.210959 0.457737 0.0873481
17 1 0.262158 0.423059 0.166513
18 1 0.00112416 0.376023 0.134853
19 1 0.0523665 0.324624 0.209746
20 1 0.150114 0.534222 0.191719
21 1 0.118707 0.552753 0.280156
22 1 0.241458 0.452851 0.249995
23 1 0.180588 0.456739 0.337562
24 1 0.0150229 0.350592 0.287856
25 1 0.938231 0.596003 0.0419114
26 1 0.0826219 0.851608 0.0192899
27 1 0.116333 0.952617 0.127207
28 1 0.189751 0.786952 0.0807139
29 1 0.251018 0.782244 0.181114
30 1 0.990024 0.695315 0.126337
31 1 0.024777 0.639082 0.215266
32 1 0.109041 0.837389 0.188713
33 1 0.113659 0.91549 0.272079
34 1 0.215281 0.769066 0.254481
35 1 0.174294 0.747373 0.337528
36 1 0.994471 0.673646 0.295339
37 1 0.338311 0.0225678 0.0432144
38 1 0.442435 0.261105 0.0223532
39 1 0.462224 0.197201 0.0989361
40 1 0.55949 0.154441 0.0510205
41 1 0.537005 0.0610138 0.136415
42 1 0.315209 0.967409 0.121361
43 1 0.333729 0.00308911 0.230513
44 1 0.403225 0.197331 0.180835
45 1 0.406225 0.192721 0.264387
46 1 0.565361 0.172491 0.198291
47 1 0.537639 0.0692468 0.265346
48 1 0.308712 0.94549 0.304162
49 1 0.320635 0.35662 0.019133
50 1 0.454526 0.590602 0.0397323
51 1 0.451875 0.543406 0.107278
52 1 0.536504 0.41892 0.0716304
53 1 0.530682 0.40016 0.145332
54 1 0.347065 0.306772 0.0992617
55 1 0.34071 0.320776 0.200572
56 1 0.42912 0.571303 0.204164
57 1 0.497001 0.58504 0.28184
58 1 0.556006 0.447432 0.21851
59 1 0.540623 0.414187 0.295549
60 1 0.336736 0.339986 0.27545
61 1 0.308992 0.699903 0.0785404
62 1 0.43641 0.901783 0.0600848
63 1 0.427029 0.848433 0.14247
64 1 0.564793 0.787484 0.068973
65 1 0.555611 0.760737 0.147173
66 1 0.31163 0.634453 0.145812
67 1 0.334334 0.681867 0.229446
68 1 0.4636 0.938736 0.204935
69 1 0.443988 0.86324 0.284389
70 1 0.552262 0.824822 0.22172
71 1 0.610552 0.798138 0.298745
72 1 0.321437 0.642234 0.30923
73 1 0.656908 0.0413911 0.0445829
74 1 0.787939 0.252443 0.0166922
75 1 0.729986 0.17925 0.100298
76 1 0.877014 0.0750756 0.0806375
77 1 0.875069 0.144432 0.153743
78 1 0.684844 0.96569 0.115091
79 1 0.687766 0.039428 0.185671
80 1 0.767273 0.26174 0.175364
81 1 0.814695 0.219002 0.248548
82 1 0.891316 0.0856636 0.230843
83 1 0.884469 0.0997128 0.304648
84 1 0.695041 0.999424 0.263282
85 1 0.697056 0.385261 0.0435129
86 1 0.749684 0.572897 0.0179019
87 1 0.737996 0.53245 0.0964517
88 1 0.882698 0.430167 0.0888831
89 1 0.870258 0.489447 0.150724
90 1 0.674348 0.308103 0.11633
91 1 0.716517 0.380282 0.210015
92 1 0.78778 0.587368 0.184022
93 1 0.75732 0.519498 0.264548
94 1 0.944096 0.412981 0.216689
95 1 0.889374 0.453515 0.285712
96 1 0.636948 0.2576 0.279717
97 1 0.658001 0.646046 0.0636889
98 1 0.77905 0.926498 0.025669
99 1 0.811846 0.864066 0.103261
100 1 0.880314 0.740336 0.0782641
101 1 0.918284 0.79841 0.160408
102 1 0.664432 0.65851 0.14543
103 1 0.660679 0.684066 0.221143
104 1 0.755368 0.906643 0.178155
105 1 0.837614 0.882839 0.256165
106 1 0.906524 0.742288 0.240149
107 1 0.927713 0.806489 0.317029
108 1 0.706523 0.683484 0.291328
ITEM: TIMESTEP
40
ITEM: NUMBER OF ATOMS
108
ITEM: BOX BOUNDS xy xz yz pp pp pp
-7.2075420000000001e+00 1.4415084000000000e+01 -7.2075420000000001e+00
0.0000000000000000e+00 1.2483828000000001e+01 0.0000000000000000e+00
0.0000000000000000e+00 3.6116253999999998e+01 0.0000000000000000e+00
ITEM: ATOMS id type xs ys zs
1 1 0.98918 0.94912 0.0721003
2 1 0.0572447 0.137911 0.0363011
3 1 0.11341 0.27238 0.119808
4 1 0.233519 0.147419 0.0668867
5 1 0.216107 0.155724 0.141088
6 1 0.985238 0.0323133 0.147993
7 1 0.94929 0.921722 0.215677
8 1 0.109102 0.179598 0.214161
9 1 0.118747 0.250319 0.294512
10 1 0.246323 0.0986145 0.216701
11 1 0.268913 0.160978 0.320063
12 1 0.083494 0.0306347 0.265678
13 1 0.981594 0.295366 0.0653861
14 1 0.0813245 0.493138 0.0393774
15 1 0.106793 0.604006 0.112892
16 1 0.244981 0.478674 0.0950923
17 1 0.252018 0.408669 0.169703
18 1 0.0164914 0.403855 0.137703
19 1 0.0809177 0.354391 0.211148
20 1 0.147771 0.557928 0.181882
21 1 0.134096 0.568712 0.280006
22 1 0.25321 0.479016 0.252247
23 1 0.182496 0.440767 0.323005
24 1 0.0084283 0.344451 0.277153
25 1 0.935198 0.590406 0.0481221
26 1 0.0518989 0.813805 0.0250477
27 1 0.109087 0.916254 0.12942
28 1 0.172607 0.789822 0.0891887
29 1 0.249539 0.795649 0.177144
30 1 0.975749 0.703353 0.141463
31 1 0.0561807 0.666222 0.217983
32 1 0.102124 0.851142 0.201185
33 1 0.120389 0.865152 0.2852
34 1 0.257514 0.796481 0.270737
35 1 0.159113 0.740493 0.339069
36 1 0.962946 0.648046 0.292335
37 1 0.302103 0.00850968 0.0423564
38 1 0.431384 0.242047 0.0242977
39 1 0.438542 0.217765 0.0938441
40 1 0.567498 0.147013 0.0403662
41 1 0.571628 0.131357 0.11663
42 1 0.34834 0.964533 0.12474
43 1 0.332155 0.978846 0.232077
44 1 0.420589 0.146839 0.165158
45 1 0.416048 0.196146 0.256212
46 1 0.57949 0.162884 0.20962
47 1 0.505136 0.0802512 0.281144
48 1 0.321256 0.998929 0.315189
49 1 0.288556 0.342065 0.0418179
50 1 0.413489 0.582722 0.0408378
51 1 0.453043 0.54462 0.120672
52 1 0.533451 0.467801 0.0424541
53 1 0.52643 0.413582 0.142908
54 1 0.326922 0.342872 0.107543
55 1 0.353254 0.303469 0.197412
56 1 0.457902 0.553617 0.206655
57 1 0.506277 0.577556 0.284691
58 1 0.562346 0.44841 0.22891
59 1 0.559176 0.4172 0.307597
60 1 0.366672 0.369296 0.274567
61 1 0.303711 0.680015 0.0659249
62 1 0.467857 0.957096 0.0555619
63 1 0.450939 0.8509 0.139934
64 1 0.538912 0.804935 0.0637154
65 1 0.565625 0.739487 0.145176
66 1 0.340374 0.635588 0.150053
67 1 0.311464 0.67858 0.227107
68 1 0.470723 0.909701 0.215534
69 1 0.445995 0.862865 0.286375
70 1 0.568391 0.782891 0.226635
71 1 0.604429 0.803826 0.30451
72 1 0.369074 0.658346 0.311695
73 1 0.651531 0.992661 0.0258509
74 1 0.788322 0.220142 0.0170347
75 1 0.769557 0.171824 0.097931
76 1 0.84598 0.0595464 0.0833992
77 1 0.917891 0.184775 0.157129
78 1 0.654542 0.972314 0.118176
79 1 0.701093 0.0629436 0.18476
80 1 0.781116 0.264611 0.165273
81 1 0.787642 0.216535 0.242238
82 1 0.881847 0.0893929 0.218608
83 1 0.895946 0.121544 0.292792
84 1 0.65284 0.988784 0.256385
85 1 0.706577 0.396729 0.0311254
86 1 0.735625 0.603605 0.0138318
87 1 0.753131 0.524963 0.0983731
88 1 0.864596 0.407063 0.0844387
89 1 0.886248 0.497841 0.15085
90 1 0.662651 0.309201 0.135023
91 1 0.735458 0.387592 0.204769
92 1 0.789195 0.592004 0.189949
93 1 0.765072 0.553567 0.26623
94 1 0.936607 0.431968 0.215244
95 1 0.858443 0.418217 0.28525
96 1 0.645356 0.305655 0.27072
97 1 0.617858 0.662349 0.0625385
98 1 0.778575 0.87769 0.0290813
99 1 0.744801 0.836851 0.11074
100 1 0.870885 0.746344 0.0687282
101 1 0.873697 0.783303 0.144205
102 1 0.667127 0.620297 0.13678
103 1 0.680247 0.673378 0.226243
104 1 0.740786 0.88397 0.182616
105 1 0.786611 0.893198 0.262415
106 1 0.881611 0.74056 0.234012
107 1 0.957685 0.87704 0.31011
108 1 0.70064 0.686453 0.303418
ITEM: TIMESTEP
50
ITEM: NUMBER OF ATOMS
108
ITEM: BOX BOUNDS xy xz yz pp pp pp
-7.2075420000000001e+00 1.4415084000000000e+01 -7.2075420000000001e+00
0.0000000000000000e+00 1.2483828000000001e+01 0.0000000000000000e+00
0.0000000000000000e+00 3.6116253999999998e+01 0.0000000000000000e+00
ITEM: ATOMS id type xs ys zs
1 1 0.962079 0.940406 0.0799783
2 1 0.0537866 0.111118 0.026777
3 1 0.140395 0.244466 0.123007
4 1 0.22111 0.138992 0.0790227
5 1 0.235984 0.12282 0.148738
6 1 0.971482 0.0476752 0.14618
7 1 0.942267 0.949888 0.224591
8 1 0.153328 0.196887 0.200302
9 1 0.114178 0.23629 0.279496
10 1 0.258007 0.0770893 0.221365
11 1 0.287539 0.169073 0.292451
12 1 0.0965397 0.0295025 0.263267
13 1 0.0388279 0.272824 0.0664288
14 1 0.064286 0.497343 0.0488322
15 1 0.114745 0.599546 0.121949
16 1 0.202823 0.452464 0.100954
17 1 0.23918 0.41193 0.172097
18 1 0.0127204 0.38024 0.131168
19 1 0.0168491 0.286154 0.196564
20 1 0.155262 0.557031 0.188892
21 1 0.124027 0.569087 0.266371
22 1 0.261624 0.493094 0.244174
23 1 0.186491 0.433869 0.308613
24 1 0.996185 0.344096 0.27818
25 1 0.977316 0.633612 0.0718526
26 1 0.0301878 0.842306 0.0528035
27 1 0.115085 0.923656 0.120434
28 1 0.162504 0.79208 0.0878693
29 1 0.251132 0.793041 0.17679
30 1 0.027917 0.722327 0.152082
31 1 0.0378388 0.678244 0.222817
32 1 0.0830901 0.885417 0.200422
33 1 0.117751 0.863922 0.270971
34 1 0.270229 0.791679 0.255502
35 1 0.172795 0.743744 0.32332
36 1 0.948929 0.642862 0.307613
37 1 0.261397 0.972677 0.0432445
38 1 0.412823 0.216346 0.0252083
39 1 0.456661 0.226195 0.101404
40 1 0.588853 0.175607 0.0562577
41 1 0.558952 0.0964295 0.123407
42 1 0.326785 0.0242691 0.113451
43 1 0.377145 0.996274 0.233835
44 1 0.422247 0.134113 0.16908
45 1 0.449234 0.200551 0.243737
46 1 0.588854 0.154604 0.203944
47 1 0.564629 0.114217 0.283585
48 1 0.326954 0.957157 0.303015
49 1 0.225677 0.320798 0.046677
50 1 0.372672 0.558677 0.0560079
51 1 0.446769 0.538188 0.122415
52 1 0.498314 0.455704 0.0564018
53 1 0.568926 0.45259 0.154845
54 1 0.349453 0.332305 0.122482
55 1 0.361014 0.279333 0.193976
56 1 0.470945 0.549873 0.193326
57 1 0.470603 0.559808 0.268014
58 1 0.544794 0.426223 0.227085
59 1 0.592317 0.487941 0.305583
60 1 0.345504 0.366466 0.252017
61 1 0.282619 0.709453 0.0769702
62 1 0.431653 0.933805 0.0659116
63 1 0.411598 0.844264 0.131325
64 1 0.501519 0.773634 0.0843199
65 1 0.538715 0.753741 0.156989
66 1 0.323427 0.633449 0.140819
67 1 0.361712 0.684271 0.223735
68 1 0.490323 0.898213 0.209732
69 1 0.454775 0.87847 0.292858
70 1 0.5716 0.765932 0.236402
71 1 0.587078 0.780118 0.31048
72 1 0.355307 0.65859 0.303065
73 1 0.677731 0.984785 0.0408969
74 1 0.80875 0.230418 0.0292554
75 1 0.749939 0.167885 0.0924362
76 1 0.877449 0.0773521 0.0658929
77 1 0.878786 0.151414 0.128364
78 1 0.659257 0.973302 0.111212
79 1 0.668147 0.0532358 0.172463
80 1 0.819365 0.276267 0.163671
81 1 0.78957 0.24746 0.247188
82 1 0.875631 0.0928029 0.200783
83 1 0.881945 0.127705 0.2813
84 1 0.678317 0.00862565 0.254435
85 1 0.662213 0.382877 0.0422709
86 1 0.729659 0.605666 0.028979
87 1 0.767298 0.533325 0.0953617
88 1 0.870419 0.403904 0.0794186
89 1 0.926427 0.506021 0.156661
90 1 0.68839 0.338438 0.128324
91 1 0.732925 0.37079 0.201816
92 1 0.786476 0.590588 0.17093
93 1 0.758551 0.556528 0.253824
94 1 0.954622 0.438996 0.223015
95 1 0.864721 0.431717 0.283096
96 1 0.646563 0.330343 0.277791
97 1 0.606234 0.668649 0.0683853
98 1 0.763506 0.841392 0.0335292
99 1 0.761317 0.867885 0.117218
100 1 0.844622 0.736046 0.0966635
101 1 0.914507 0.832149 0.161701
102 1 0.659856 0.651654 0.144415
103 1 0.675648 0.665801 0.217562
104 1 0.717994 0.865631 0.188054
105 1 0.752813 0.881607 0.260812
106 1 0.904012 0.741787 0.23701
107 1 0.939871 0.901738 0.298783
108 1 0.770133 0.680157 0.302653
ITEM: TIMESTEP
60
ITEM: NUMBER OF ATOMS
108
ITEM: BOX BOUNDS xy xz yz pp pp pp
-7.2075420000000001e+00 1.4415084000000000e+01 -7.2075420000000001e+00
0.0000000000000000e+00 1.2483828000000001e+01 0.0000000000000000e+00
0.0000000000000000e+00 3.6116253999999998e+01 0.0000000000000000e+00
ITEM: ATOMS id type xs ys zs
1 1 0.990939 0.00384111 0.0832132
2 1 0.0692719 0.135827 0.0289204
3 1 0.112482 0.225788 0.118917
4 1 0.196954 0.0837222 0.0863164
5 1 0.218395 0.0926429 0.158601
6 1 0.00567404 0.0341541 0.155484
7 1 0.958759 0.973283 0.224548
8 1 0.136216 0.191095 0.202069
9 1 0.0961846 0.260673 0.262439
10 1 0.284509 0.0683195 0.238776
11 1 0.343633 0.213443 0.291696
12 1 0.119995 0.0808291 0.27293
13 1 0.0148811 0.260498 0.0696307
14 1 0.0591967 0.50858 0.0630842
15 1 0.104757 0.616955 0.124082
16 1 0.200527 0.451961 0.0957713
17 1 0.240941 0.391 0.170472
18 1 0.00860098 0.387044 0.1352
19 1 0.0228572 0.317616 0.200973
20 1 0.141142 0.555006 0.193355
21 1 0.0925247 0.529801 0.271584
22 1 0.209472 0.455511 0.243667
23 1 0.240448 0.443282 0.311202
24 1 0.976251 0.329023 0.27728
25 1 0.985782 0.638102 0.0832723
26 1 0.0340362 0.820676 0.042524
27 1 0.0647744 0.901343 0.115145
28 1 0.24137 0.836422 0.0967856
29 1 0.223611 0.778645 0.1707
30 1 0.0147995 0.723165 0.158158
31 1 0.047383 0.661156 0.2266
32 1 0.126522 0.899605 0.191852
33 1 0.119847 0.879245 0.267926
34 1 0.272808 0.793891 0.243059
35 1 0.17935 0.730587 0.317284
36 1 0.966203 0.693396 0.2979
37 1 0.235122 0.98186 0.0266037
38 1 0.395846 0.222475 0.053263
39 1 0.494064 0.250268 0.123175
40 1 0.553893 0.16455 0.0420274
41 1 0.542216 0.0932509 0.138293
42 1 0.360593 0.0570061 0.0998107
43 1 0.421561 0.996791 0.221747
44 1 0.40617 0.146989 0.177951
45 1 0.487286 0.226616 0.246303
46 1 0.61455 0.170008 0.208332
47 1 0.580465 0.107061 0.285458
48 1 0.325581 0.978496 0.289693
49 1 0.283729 0.331434 0.0522042
50 1 0.403211 0.553697 0.0415879
51 1 0.43079 0.544452 0.128219
52 1 0.519659 0.470698 0.0778895
53 1 0.583785 0.433322 0.153196
54 1 0.322417 0.271272 0.117971
55 1 0.404425 0.343577 0.18127
56 1 0.466339 0.540682 0.202617
57 1 0.423061 0.56414 0.271182
58 1 0.561025 0.436829 0.224847
59 1 0.601004 0.534991 0.290375
60 1 0.322322 0.34597 0.241341
61 1 0.255765 0.660797 0.0594737
62 1 0.443625 0.939371 0.0618523
63 1 0.413256 0.882426 0.132986
64 1 0.451844 0.755475 0.0751596
65 1 0.523488 0.755017 0.151498
66 1 0.302881 0.63525 0.1359
67 1 0.341123 0.648482 0.21215
68 1 0.504376 0.898178 0.19347
69 1 0.487501 0.869998 0.276875
70 1 0.57313 0.775506 0.233512
71 1 0.583261 0.740687 0.314184
72 1 0.31203 0.653935 0.284003
73 1 0.588928 0.934968 0.0356133
74 1 0.847713 0.265399 0.0318433
75 1 0.722061 0.122556 0.0987149
76 1 0.810969 0.0661112 0.0495553
77 1 0.916672 0.141543 0.132626
78 1 0.621063 0.918197 0.109688
79 1 0.677239 0.0429596 0.165519
80 1 0.822663 0.2576 0.173468
81 1 0.800036 0.228692 0.250555
82 1 0.882287 0.128191 0.207749
83 1 0.873894 0.0713315 0.284737
84 1 0.682185 0.00474937 0.243932
85 1 0.631122 0.371659 0.0528252
86 1 0.718025 0.59382 0.0471913
87 1 0.757555 0.523804 0.106821
88 1 0.82899 0.398481 0.0712989
89 1 0.87572 0.462807 0.144355
90 1 0.690323 0.28404 0.129126
91 1 0.712781 0.368508 0.196551
92 1 0.782893 0.608364 0.181199
93 1 0.835203 0.574127 0.249244
94 1 0.92618 0.448525 0.211456
95 1 0.88697 0.447109 0.283935
96 1 0.672048 0.363457 0.285542
97 1 0.59623 0.682323 0.0892859
98 1 0.795502 0.831725 0.032736
99 1 0.775617 0.88017 0.105986
100 1 0.853221 0.72782 0.094912
101 1 0.854746 0.815556 0.163811
102 1 0.638091 0.660331 0.161393
103 1 0.677417 0.659941 0.233497
104 1 0.721234 0.904011 0.187963
105 1 0.762415 0.865947 0.267719
106 1 0.942093 0.788574 0.235126
107 1 0.980754 0.910632 0.308733
108 1 0.786668 0.698284 0.297103
ITEM: TIMESTEP
70
ITEM: NUMBER OF ATOMS
108
ITEM: BOX BOUNDS xy xz yz pp pp pp
-7.2075420000000001e+00 1.4415084000000000e+01 -7.2075420000000001e+00
0.0000000000000000e+00 1.2483828000000001e+01 0.0000000000000000e+00
0.0000000000000000e+00 3.6116253999999998e+01 0.0000000000000000e+00
ITEM: ATOMS id type xs ys zs
1 1 0.978912 0.0274699 0.0701652
2 1 0.100508 0.19049 0.0166966
3 1 0.0870411 0.201424 0.118399
4 1 0.15905 0.0705429 0.0746023
5 1 0.19241 0.0664539 0.150182
6 1 0.987117 0.0180386 0.152615
7 1 0.0149095 0.998569 0.230012
8 1 0.153189 0.20944 0.203195
9 1 0.105409 0.279682 0.2697
10 1 0.275 0.124422 0.223112
11 1 0.415331 0.257091 0.317579
12 1 0.165442 0.0947733 0.290034
13 1 0.959665 0.221945 0.0645531
14 1 0.0102309 0.438671 0.0487447
15 1 0.0819161 0.601221 0.111074
16 1 0.225159 0.481635 0.0810753
17 1 0.206893 0.413099 0.163808
18 1 0.0551889 0.371477 0.126887
19 1 0.0364589 0.324242 0.211147
20 1 0.1375 0.581605 0.196167
21 1 0.0866216 0.565389 0.27407
22 1 0.243809 0.48069 0.245766
23 1 0.236325 0.416071 0.321618
24 1 0.945909 0.306732 0.294363
25 1 0.93632 0.62735 0.0720366
26 1 0.0379041 0.883695 0.0458606
27 1 0.0569925 0.854614 0.135378
28 1 0.157988 0.808805 0.0800706
29 1 0.198623 0.778653 0.154797
30 1 0.96681 0.665449 0.157481
31 1 0.0628263 0.707488 0.234476
32 1 0.106097 0.881329 0.202955
33 1 0.176557 0.925964 0.273115
34 1 0.267638 0.77953 0.238943
35 1 0.223258 0.791515 0.306976
36 1 0.96103 0.697534 0.302764
37 1 0.288942 0.0198679 0.0362858
38 1 0.403106 0.219957 0.0464475
39 1 0.516518 0.277313 0.120305
40 1 0.538307 0.116788 0.060628
41 1 0.524471 0.0451201 0.124579
42 1 0.332675 0.0584816 0.108192
43 1 0.41248 0.0055423 0.230235
44 1 0.430753 0.126785 0.164266
45 1 0.479254 0.231006 0.242714
46 1 0.620488 0.152522 0.186939
47 1 0.598098 0.129154 0.274535
48 1 0.383827 0.989316 0.310324
49 1 0.285186 0.335336 0.0551585
50 1 0.46979 0.558542 0.0499478
51 1 0.410788 0.510979 0.124842
52 1 0.516683 0.442957 0.0878089
53 1 0.575482 0.45917 0.164538
54 1 0.338534 0.258478 0.115684
55 1 0.402909 0.294505 0.194781
56 1 0.427573 0.509351 0.199928
57 1 0.419246 0.551603 0.277527
58 1 0.579717 0.456808 0.23063
59 1 0.585922 0.491522 0.308988
60 1 0.321679 0.328865 0.261787
61 1 0.168723 0.651603 0.0501569
62 1 0.383571 0.87743 0.0560108
63 1 0.390972 0.842171 0.130891
64 1 0.439835 0.731325 0.0656827
65 1 0.49375 0.743081 0.147906
66 1 0.276193 0.612093 0.133877
67 1 0.341625 0.680395 0.210045
68 1 0.533998 0.903582 0.194211
69 1 0.474894 0.869167 0.268092
70 1 0.561783 0.73149 0.22556
71 1 0.608757 0.723096 0.296524
72 1 0.318076 0.654966 0.301873
73 1 0.588457 0.926343 0.00900205
74 1 0.825976 0.235248 0.0114723
75 1 0.737114 0.17063 0.085995
76 1 0.77467 0.0181741 0.0432559
77 1 0.886913 0.134647 0.12527
78 1 0.61527 0.941032 0.10056
79 1 0.722867 0.0490634 0.164075
80 1 0.869379 0.297781 0.174636
81 1 0.786284 0.276075 0.24713
82 1 0.931689 0.125321 0.213843
83 1 0.941377 0.0747268 0.292842
84 1 0.700533 0.00916068 0.246193
85 1 0.611691 0.357279 0.0515429
86 1 0.674183 0.588736 0.0447002
87 1 0.741464 0.547316 0.107216
88 1 0.81121 0.409159 0.06705
89 1 0.913631 0.463354 0.142279
90 1 0.703949 0.306635 0.129158
91 1 0.728928 0.369423 0.196477
92 1 0.763747 0.581356 0.186996
93 1 0.800802 0.545709 0.264039
94 1 0.942943 0.460201 0.226578
95 1 0.881439 0.456166 0.307587
96 1 0.657289 0.349026 0.281728
97 1 0.658968 0.760496 0.0792816
98 1 0.83199 0.845673 0.0324119
99 1 0.785333 0.919459 0.118466
100 1 0.857726 0.778624 0.103635
101 1 0.862057 0.79774 0.176334