 316 316   0   0
  0.2288514E+02  0.1514622E-08  0.1514622E-08  0.3640000E-08  0.2000000E-15
   1.0000000000000000E-004
  CAR 
 NiAl                                    
      5.75236160    -30.11189239  301     -1.12946820      1.00000000
    -30.112  0.0000E+00  0.0000E+00
    -29.992  0.0000E+00  0.0000E+00
    -29.873  0.0000E+00  0.0000E+00
    -29.753  0.0000E+00  0.0000E+00
    -29.634  0.0000E+00  0.0000E+00
    -29.514  0.0000E+00  0.0000E+00
    -29.395  0.0000E+00  0.0000E+00
    -29.275  0.0000E+00  0.0000E+00
    -29.156  0.0000E+00  0.0000E+00
    -29.036  0.0000E+00  0.0000E+00
    -28.916  0.0000E+00  0.0000E+00
    -28.797  0.0000E+00  0.0000E+00
    -28.677  0.2317E-07  0.2770E-08
    -28.558  0.2483E-01  0.2969E-02
    -28.438  0.1458E+01  0.1773E+00
    -28.319  0.1903E+00  0.2000E+00
    -28.199  0.3741E-05  0.2000E+00
    -28.080  0.0000E+00  0.2000E+00
    -27.960  0.0000E+00  0.2000E+00
    -27.840  0.0000E+00  0.2000E+00
    -27.721  0.0000E+00  0.2000E+00
    -27.601  0.0000E+00  0.2000E+00
    -27.482  0.0000E+00  0.2000E+00
    -27.362  0.0000E+00  0.2000E+00
    -27.243  0.4063E-16  0.2000E+00
    -27.123  0.4955E-06  0.2000E+00
    -27.004  0.8857E-01  0.2106E+00
    -26.884  0.1519E+01  0.3922E+00
    -26.765  0.3368E+00  0.4324E+00
    -26.645  0.2995E+01  0.7905E+00
    -26.525  0.7966E-01  0.8000E+00
    -26.406  0.1394E-06  0.8000E+00
    -26.286  0.0000E+00  0.8000E+00
    -26.167  0.0000E+00  0.8000E+00
    -26.047  0.0000E+00  0.8000E+00
    -25.928  0.0000E+00  0.8000E+00
    -25.808  0.0000E+00  0.8000E+00
    -25.689  0.0000E+00  0.8000E+00
    -25.569  0.0000E+00  0.8000E+00
    -25.450  0.0000E+00  0.8000E+00
    -25.330  0.0000E+00  0.8000E+00
    -25.210  0.0000E+00  0.8000E+00
    -25.091  0.0000E+00  0.8000E+00
    -24.971  0.0000E+00  0.8000E+00
    -24.852  0.0000E+00  0.8000E+00
    -24.732  0.0000E+00  0.8000E+00
    -24.613  0.0000E+00  0.8000E+00
    -24.493  0.0000E+00  0.8000E+00
    -24.374  0.0000E+00  0.8000E+00
    -24.254  0.0000E+00  0.8000E+00
    -24.135  0.0000E+00  0.8000E+00
    -24.015  0.0000E+00  0.8000E+00
    -23.895  0.0000E+00  0.8000E+00
    -23.776  0.0000E+00  0.8000E+00
    -23.656  0.0000E+00  0.8000E+00
    -23.537  0.0000E+00  0.8000E+00
    -23.417  0.1316E-13  0.8000E+00
    -23.298  0.1181E-04  0.8000E+00
    -23.178  0.2454E+00  0.8293E+00
    -23.059  0.1402E+01  0.9969E+00
    -22.939  0.2552E-01  0.1000E+01
    -22.819  0.7484E-07  0.1000E+01
    -22.700  0.0000E+00  0.1000E+01
    -22.580  0.0000E+00  0.1000E+01
    -22.461  0.0000E+00  0.1000E+01
    -22.341  0.0000E+00  0.1000E+01
    -22.222  0.0000E+00  0.1000E+01
    -22.102  0.0000E+00  0.1000E+01
    -21.983  0.0000E+00  0.1000E+01
    -21.863  0.0000E+00  0.1000E+01
    -21.744  0.2152E-10  0.1000E+01
    -21.624  0.5891E-03  0.1000E+01
    -21.504  0.1022E+01  0.1122E+01
    -21.385  0.2303E+01  0.1398E+01
    -21.265  0.2001E-01  0.1400E+01
    -21.146  0.8021E-05  0.1400E+01
    -21.026  0.2438E+00  0.1429E+01
    -20.907  0.1412E+01  0.1598E+01
    -20.787  0.1710E-01  0.1600E+01
    -20.668  0.1049E-07  0.1600E+01
    -20.548  0.0000E+00  0.1600E+01
    -20.429  0.0000E+00  0.1600E+01
    -20.309  0.0000E+00  0.1600E+01
    -20.189  0.0000E+00  0.1600E+01
    -20.070  0.0000E+00  0.1600E+01
    -19.950  0.0000E+00  0.1600E+01
    -19.831  0.0000E+00  0.1600E+01
    -19.711  0.0000E+00  0.1600E+01
    -19.592  0.0000E+00  0.1600E+01
    -19.472  0.0000E+00  0.1600E+01
    -19.353  0.0000E+00  0.1600E+01
    -19.233  0.0000E+00  0.1600E+01
    -19.114  0.0000E+00  0.1600E+01
    -18.994  0.0000E+00  0.1600E+01
    -18.874  0.0000E+00  0.1600E+01
    -18.755  0.2922E-08  0.1600E+01
    -18.635  0.7020E-02  0.1601E+01
    -18.516  0.1565E+01  0.1788E+01
    -18.396  0.1767E+01  0.1999E+01
    -18.277  0.6867E-02  0.2000E+01
    -18.157  0.2176E-08  0.2000E+01
    -18.038  0.0000E+00  0.2000E+01
    -17.918  0.8102E-11  0.2000E+01
    -17.798  0.6212E-03  0.2000E+01
    -17.679  0.1393E+01  0.2167E+01
    -17.559  0.1950E+01  0.2400E+01
    -17.440  0.2808E-02  0.2400E+01
    -17.320  0.2320E-03  0.2400E+01
    -17.201  0.5572E+00  0.2467E+01
    -17.081  0.1108E+01  0.2599E+01
    -16.962  0.7773E-02  0.2600E+01
    -16.842  0.1175E-07  0.2600E+01
    -16.723  0.0000E+00  0.2600E+01
    -16.603  0.0000E+00  0.2600E+01
    -16.483  0.0000E+00  0.2600E+01
    -16.364  0.0000E+00  0.2600E+01
    -16.244  0.0000E+00  0.2600E+01
    -16.125  0.3483E-16  0.2600E+01
    -16.005  0.2288E-06  0.2600E+01
    -15.886  0.3520E-01  0.2604E+01
    -15.766  0.1414E+01  0.2773E+01
    -15.647  0.1822E+01  0.2991E+01
    -15.527  0.7485E-01  0.3000E+01
    -15.408  0.6799E-06  0.3000E+01
    -15.288  0.8436E-09  0.3000E+01
    -15.168  0.1221E-02  0.3000E+01
    -15.049  0.9299E-01  0.3011E+01
    -14.929  0.5196E+00  0.3073E+01
    -14.810  0.8917E+00  0.3180E+01
    -14.690  0.1674E+00  0.3200E+01
    -14.571  0.7966E-05  0.3200E+01
    -14.451  0.7488E-14  0.3200E+01
    -14.332  0.0000E+00  0.3200E+01
    -14.212  0.0000E+00  0.3200E+01
    -14.093  0.0000E+00  0.3200E+01
    -13.973  0.0000E+00  0.3200E+01
    -13.853  0.0000E+00  0.3200E+01
    -13.734  0.0000E+00  0.3200E+01
    -13.614  0.0000E+00  0.3200E+01
    -13.495  0.0000E+00  0.3200E+01
    -13.375  0.0000E+00  0.3200E+01
    -13.256  0.0000E+00  0.3200E+01
    -13.136  0.0000E+00  0.3200E+01
    -13.017  0.0000E+00  0.3200E+01
    -12.897  0.0000E+00  0.3200E+01
    -12.778  0.0000E+00  0.3200E+01
    -12.658  0.0000E+00  0.3200E+01
    -12.538  0.0000E+00  0.3200E+01
    -12.419  0.0000E+00  0.3200E+01
    -12.299  0.0000E+00  0.3200E+01
    -12.180  0.0000E+00  0.3200E+01
    -12.060  0.0000E+00  0.3200E+01
    -11.941  0.0000E+00  0.3200E+01
    -11.821  0.0000E+00  0.3200E+01
    -11.702  0.0000E+00  0.3200E+01
    -11.582  0.0000E+00  0.3200E+01
    -11.462  0.0000E+00  0.3200E+01
    -11.343  0.0000E+00  0.3200E+01
    -11.223  0.0000E+00  0.3200E+01
    -11.104  0.0000E+00  0.3200E+01
    -10.984  0.0000E+00  0.3200E+01
    -10.865  0.0000E+00  0.3200E+01
    -10.745  0.0000E+00  0.3200E+01
    -10.626  0.0000E+00  0.3200E+01
    -10.506  0.0000E+00  0.3200E+01
    -10.387  0.0000E+00  0.3200E+01
    -10.267  0.0000E+00  0.3200E+01
    -10.147  0.0000E+00  0.3200E+01
    -10.028  0.4768E-08  0.3200E+01
     -9.908  0.3066E-02  0.3200E+01
     -9.789  0.8361E+00  0.3300E+01
     -9.669  0.9531E+00  0.3414E+01
     -9.550  0.5645E+00  0.3482E+01
     -9.430  0.1429E+00  0.3499E+01
     -9.311  0.1699E+01  0.3702E+01
     -9.191  0.1135E+01  0.3838E+01
     -9.072  0.1567E+01  0.4025E+01
     -8.952  0.5729E+00  0.4093E+01
     -8.832  0.1350E+01  0.4255E+01
     -8.713  0.1734E+01  0.4462E+01
     -8.593  0.5409E+00  0.4527E+01
     -8.474  0.1126E+01  0.4661E+01
     -8.354  0.2100E+01  0.4912E+01
     -8.235  0.2510E+01  0.5213E+01
     -8.115  0.1765E+01  0.5424E+01
     -7.996  0.2338E+01  0.5703E+01
     -7.876  0.1890E+01  0.5929E+01
     -7.757  0.1471E+01  0.6105E+01
     -7.637  0.2355E+01  0.6386E+01
     -7.517  0.2385E+01  0.6672E+01
     -7.398  0.2038E+01  0.6915E+01
     -7.278  0.3950E+01  0.7387E+01
     -7.159  0.4005E+01  0.7866E+01
     -7.039  0.3145E+01  0.8242E+01
     -6.920  0.9197E+00  0.8352E+01
     -6.800  0.2044E+01  0.8596E+01
     -6.681  0.3116E+01  0.8969E+01
     -6.561  0.2563E+01  0.9275E+01
     -6.441  0.2522E+01  0.9577E+01
     -6.322  0.1516E+01  0.9758E+01
     -6.202  0.1071E+01  0.9886E+01
     -6.083  0.1987E+01  0.1012E+02
     -5.963  0.2748E+01  0.1045E+02
     -5.844  0.2532E+01  0.1075E+02
     -5.724  0.2768E+01  0.1109E+02
     -5.605  0.2261E+01  0.1136E+02
     -5.485  0.1684E+01  0.1156E+02
     -5.366  0.5684E+01  0.1224E+02
     -5.246  0.5443E+01  0.1289E+02
     -5.126  0.5925E+01  0.1360E+02
     -5.007  0.8283E+01  0.1459E+02
     -4.887  0.5878E+01  0.1529E+02
     -4.768  0.6367E+01  0.1605E+02
     -4.648  0.1039E+02  0.1729E+02
     -4.529  0.1094E+02  0.1860E+02
     -4.409  0.1186E+02  0.2002E+02
     -4.290  0.1300E+02  0.2157E+02
     -4.170  0.1182E+02  0.2298E+02
     -4.051  0.9890E+01  0.2417E+02
     -3.931  0.8680E+01  0.2520E+02
     -3.811  0.1118E+02  0.2654E+02
     -3.692  0.1182E+02  0.2796E+02
     -3.572  0.1106E+02  0.2928E+02
     -3.453  0.1419E+02  0.3097E+02
     -3.333  0.1273E+02  0.3249E+02
     -3.214  0.1477E+02  0.3426E+02
     -3.094  0.1649E+02  0.3623E+02
     -2.975  0.1697E+02  0.3826E+02
     -2.855  0.1939E+02  0.4058E+02
     -2.736  0.1853E+02  0.4279E+02
     -2.616  0.1855E+02  0.4501E+02
     -2.496  0.1949E+02  0.4734E+02
     -2.377  0.1463E+02  0.4909E+02
     -2.257  0.1335E+02  0.5069E+02
     -2.138  0.1373E+02  0.5233E+02
     -2.018  0.1677E+02  0.5433E+02
     -1.899  0.2052E+02  0.5679E+02
     -1.779  0.1759E+02  0.5889E+02
     -1.660  0.1632E+02  0.6084E+02
     -1.540  0.1885E+02  0.6309E+02
     -1.420  0.1906E+02  0.6537E+02
     -1.301  0.1990E+02  0.6775E+02
     -1.181  0.2819E+02  0.7112E+02
     -1.062  0.2607E+02  0.7424E+02
     -0.942  0.1367E+02  0.7587E+02
     -0.823  0.4721E+01  0.7643E+02
     -0.703  0.4761E+01  0.7700E+02
     -0.584  0.4221E+01  0.7751E+02
     -0.464  0.2501E+01  0.7781E+02
     -0.345  0.2453E+01  0.7810E+02
     -0.225  0.2216E+01  0.7837E+02
     -0.105  0.2680E+01  0.7869E+02
      0.014  0.2208E+01  0.7895E+02
      0.134  0.2197E+01  0.7921E+02
      0.253  0.3605E+01  0.7964E+02
      0.373  0.3702E+01  0.8009E+02
      0.492  0.4074E+01  0.8057E+02
      0.612  0.1800E+01  0.8079E+02
      0.731  0.1767E+01  0.8100E+02
      0.851  0.2749E+01  0.8133E+02
      0.970  0.1541E+01  0.8151E+02
      1.090  0.1825E+01  0.8173E+02
      1.210  0.1839E+01  0.8195E+02
      1.329  0.1392E+01  0.8212E+02
      1.449  0.1708E+01  0.8232E+02
      1.568  0.3505E+01  0.8274E+02
      1.688  0.2990E+01  0.8310E+02
      1.807  0.1405E+01  0.8327E+02
      1.927  0.1965E+01  0.8350E+02
      2.046  0.2641E+01  0.8382E+02
      2.166  0.9210E+00  0.8393E+02
      2.285  0.8217E+00  0.8402E+02
      2.405  0.1595E+01  0.8421E+02
      2.525  0.1793E+01  0.8443E+02
      2.644  0.1501E+01  0.8461E+02
      2.764  0.2645E+01  0.8492E+02
      2.883  0.1741E+01  0.8513E+02
      3.003  0.3952E+01  0.8561E+02
      3.122  0.1804E+01  0.8582E+02
      3.242  0.1938E+01  0.8605E+02
      3.361  0.6929E+00  0.8614E+02
      3.481  0.9016E+00  0.8624E+02
      3.601  0.8531E+00  0.8635E+02
      3.720  0.1788E+01  0.8656E+02
      3.840  0.1615E+01  0.8675E+02
      3.959  0.1140E+01  0.8689E+02
      4.079  0.1360E+01  0.8705E+02
      4.198  0.4093E+00  0.8710E+02
      4.318  0.1910E-02  0.8710E+02
      4.437  0.1660E-08  0.8710E+02
      4.557  0.0000E+00  0.8710E+02
      4.676  0.0000E+00  0.8710E+02
      4.796  0.0000E+00  0.8710E+02
      4.916  0.0000E+00  0.8710E+02
      5.035  0.0000E+00  0.8710E+02
      5.155  0.0000E+00  0.8710E+02
      5.274  0.0000E+00  0.8710E+02
      5.394  0.0000E+00  0.8710E+02
      5.513  0.0000E+00  0.8710E+02
      5.633  0.0000E+00  0.8710E+02
      5.752  0.0000E+00  0.8710E+02
