  316  316   40    1
  0.2288514E+02  0.1514622E-08  0.1514622E-08  0.3640000E-08  0.2000000E-15
   1.0000000000000000E-004
  CAR 
 NiAl                                    
   2904      2   1742
 
  0.1262379E-14  0.1262379E-14  0.1262379E-14  0.2500000E+00
    1      -28.481699   1.000000
    2      -28.481117   1.000000
    3      -28.481117   1.000000
    4      -28.481112   1.000000
    5      -26.950420   1.000000
    6      -26.945274   1.000000
    7      -26.945273   1.000000
    8      -26.945273   1.000000
    9      -26.717899   1.000000
   10      -26.717899   1.000000
   11      -26.717596   1.000000
   12      -26.714265   1.000000
   13      -26.713974   1.000000
   14      -26.713974   1.000000
   15      -26.713700   1.000000
   16      -26.713310   1.000000
   17      -23.148271   1.000000
   18      -23.148271   1.000000
   19      -23.148259   1.000000
   20      -23.111822   1.000000
   21      -21.517373   1.000000
   22      -21.517309   1.000000
   23      -21.492315   1.000000
   24      -21.492256   1.000000
   25      -21.492256   1.000000
   26      -21.454378   1.000000
   27      -21.454378   1.000000
   28      -21.454352   1.000000
   29      -20.994829   1.000000
   30      -20.986712   1.000000
   31      -20.986712   1.000000
   32      -20.986710   1.000000
   33      -18.553493   1.000000
   34      -18.553493   1.000000
   35      -18.553478   1.000000
   36      -18.497398   1.000000
   37      -18.497398   1.000000
   38      -18.497394   1.000000
   39      -18.477946   1.000000
   40      -18.477941   1.000000
   41      -17.678952   1.000000
   42      -17.678815   1.000000
   43      -17.678815   1.000000
   44      -17.668181   1.000000
   45      -17.668006   1.000000
   46      -17.667017   1.000000
   47      -17.667017   1.000000
   48      -17.666890   1.000000
   49      -17.195620   1.000000
   50      -17.195620   1.000000
   51      -17.195607   1.000000
   52      -17.145378   1.000000
   53      -15.834719   1.000000
   54      -15.834639   1.000000
   55      -15.834639   1.000000
   56      -15.728250   1.000000
   57      -15.728146   1.000000
   58      -15.690853   1.000000
   59      -15.690853   1.000000
   60      -15.690777   1.000000
   61      -15.088278   1.000000
   62      -14.844571   1.000000
   63      -14.844568   1.000000
   64      -14.844568   1.000000
   65       -9.838975   1.000000
   66       -9.797077   1.000000
   67       -9.797077   1.000000
   68       -9.796811   1.000000
   69       -9.774922   1.000000
   70       -9.411756   1.000000
   71       -9.353144   1.000000
   72       -9.353144   1.000000
   73       -9.353022   1.000000
   74       -9.293439   1.000000
   75       -9.244501   1.000000
   76       -9.243512   1.000000
   77       -9.243512   1.000000
   78       -9.019976   1.000000
   79       -9.019922   1.000000
   80       -9.019922   1.000000
   81       -8.948972   1.000000
   82       -8.948130   1.000000
   83       -8.922755   1.000000
   84       -8.922749   1.000000
   85       -8.922749   1.000000
   86       -8.862001   1.000000
   87       -8.810420   1.000000
   88       -8.810361   1.000000
   89       -8.810361   1.000000
   90       -8.656864   1.000000
   91       -8.656643   1.000000
   92       -8.656643   1.000000
   93       -8.461424   1.000000
   94       -8.461353   1.000000
   95       -8.461353   1.000000
   96       -8.442668   1.000000
   97       -8.442668   1.000000
   98       -8.442293   1.000000
   99       -8.429382   1.000000
  100       -8.429382   1.000000
  101       -8.429002   1.000000
  102       -8.339636   1.000000
  103       -8.339284   1.000000
  104       -8.305224   1.000000
  105       -8.293129   1.000000
  106       -8.293129   1.000000
  107       -8.292973   1.000000
  108       -8.096618   1.000000
  109       -8.096541   1.000000
  110       -8.096541   1.000000
  111       -8.082362   1.000000
  112       -8.043768   1.000000
  113       -8.043712   1.000000
  114       -8.043712   1.000000
  115       -8.001029   1.000000
  116       -8.001029   1.000000
  117       -8.000452   1.000000
  118       -7.835205   1.000000
  119       -7.835205   1.000000
  120       -7.835162   1.000000
  121       -7.785527   1.000000
  122       -7.785418   1.000000
  123       -7.728114   1.000000
  124       -7.714660   1.000000
  125       -7.554277   1.000000
  126       -7.554204   1.000000
  127       -7.554204   1.000000
  128       -7.540673   1.000000
  129       -7.540673   1.000000
  130       -7.540255   1.000000
  131       -7.511654   1.000000
  132       -7.510700   1.000000
  133       -7.510320   1.000000
  134       -7.461756   1.000000
  135       -7.461756   1.000000
  136       -7.461751   1.000000
  137       -7.392671   1.000000
  138       -7.392647   1.000000
  139       -7.392647   1.000000
  140       -7.323819   1.000000
  141       -7.323819   1.000000
  142       -7.323799   1.000000
  143       -7.323226   1.000000
  144       -7.323177   1.000000
  145       -7.323177   1.000000
  146       -7.254992   1.000000
  147       -7.254582   1.000000
  148       -7.254582   1.000000
  149       -7.252329   1.000000
  150       -7.252329   1.000000
  151       -7.252276   1.000000
  152       -7.229762   1.000000
  153       -7.229502   1.000000
  154       -7.200931   1.000000
  155       -7.200930   1.000000
  156       -7.200930   1.000000
  157       -7.181775   1.000000
  158       -7.181529   1.000000
  159       -7.181529   1.000000
  160       -7.126883   1.000000
  161       -7.126756   1.000000
  162       -7.126756   1.000000
  163       -7.076116   1.000000
  164       -6.882528   1.000000
  165       -6.882444   1.000000
  166       -6.861123   1.000000
  167       -6.861123   1.000000
  168       -6.860739   1.000000
  169       -6.826160   1.000000
  170       -6.826160   1.000000
  171       -6.826128   1.000000
  172       -6.805784   1.000000
  173       -6.805784   1.000000
  174       -6.805705   1.000000
  175       -6.787093   1.000000
  176       -6.701192   1.000000
  177       -6.700963   1.000000
  178       -6.689383   1.000000
  179       -6.688924   1.000000
  180       -6.688924   1.000000
  181       -6.656991   1.000000
  182       -6.656991   1.000000
  183       -6.656721   1.000000
  184       -6.646834   1.000000
  185       -6.622982   1.000000
  186       -6.622974   1.000000
  187       -6.603205   1.000000
  188       -6.603114   1.000000
  189       -6.552367   1.000000
  190       -6.470705   1.000000
  191       -6.470485   1.000000
  192       -6.470485   1.000000
  193       -6.396154   1.000000
  194       -6.396018   1.000000
  195       -6.396018   1.000000
  196       -6.346134   1.000000
  197       -6.346134   1.000000
  198       -6.345958   1.000000
  199       -6.338547   1.000000
  200       -6.314291   1.000000
  201       -6.314278   1.000000
  202       -6.290529   1.000000
  203       -6.255508   1.000000
  204       -6.255491   1.000000
  205       -6.131420   1.000000
  206       -6.128378   1.000000
  207       -6.128378   1.000000
  208       -6.128366   1.000000
  209       -6.064444   1.000000
  210       -6.064444   1.000000
  211       -6.064400   1.000000
  212       -5.985229   1.000000
  213       -5.905437   1.000000
  214       -5.905437   1.000000
  215       -5.905433   1.000000
  216       -5.817076   1.000000
  217       -5.809654   1.000000
  218       -5.809638   1.000000
  219       -5.742894   1.000000
  220       -5.742891   1.000000
  221       -5.618331   1.000000
  222       -5.603184   1.000000
  223       -5.603184   1.000000
  224       -5.603179   1.000000
  225       -5.555747   1.000000
  226       -5.494530   1.000000
  227       -5.494530   1.000000
  228       -5.494500   1.000000
  229       -5.460966   1.000000
  230       -5.419451   1.000000
  231       -5.419451   1.000000
  232       -5.419426   1.000000
  233       -5.387087   1.000000
  234       -5.387068   1.000000
  235       -5.371873   1.000000
  236       -5.371873   1.000000
  237       -5.371854   1.000000
  238       -5.349411   1.000000
  239       -5.349411   1.000000
  240       -5.349346   1.000000
  241       -5.325431   1.000000
  242       -5.325431   1.000000
  243       -5.325423   1.000000
  244       -5.287362   1.000000
  245       -5.287356   1.000000
  246       -5.284330   1.000000
  247       -5.284295   1.000000
  248       -5.284295   1.000000
  249       -5.282861   1.000000
  250       -5.282811   1.000000
  251       -5.282811   1.000000
  252       -5.278420   1.000000
  253       -5.278372   1.000000
  254       -5.278372   1.000000
  255       -5.265151   1.000000
  256       -5.253967   1.000000
  257       -5.253937   1.000000
  258       -5.253937   1.000000
  259       -5.217041   1.000000
  260       -5.217041   1.000000
  261       -5.217015   1.000000
  262       -5.168136   1.000000
  263       -5.168136   1.000000
  264       -5.168094   1.000000
  265       -5.157174   1.000000
  266       -5.144983   1.000000
  267       -5.144981   1.000000
  268       -5.144981   1.000000
  269       -5.114119   1.000000
  270       -5.114106   1.000000
  271       -5.114106   1.000000
  272       -5.099140   1.000000
  273       -5.099095   1.000000
  274       -5.099095   1.000000
  275       -5.096424   1.000000
  276       -5.096382   1.000000
  277       -5.096382   1.000000
  278       -5.091382   1.000000
  279       -5.091304   1.000000
  280       -5.058649   1.000000
  281       -5.058615   1.000000
  282       -5.058615   1.000000
  283       -5.056586   1.000000
  284       -5.056549   1.000000
  285       -5.056549   1.000000
  286       -5.038163   1.000000
  287       -5.038144   1.000000
  288       -5.038144   1.000000
  289       -5.035587   1.000000
  290       -5.035561   1.000000
  291       -5.035561   1.000000
  292       -5.035130   1.000000
  293       -5.035099   1.000000
  294       -5.035099   1.000000
  295       -4.981976   1.000000
  296       -4.981976   1.000000
  297       -4.981926   1.000000
  298       -4.980623   1.000000
  299       -4.980623   1.000000
  300       -4.980618   1.000000
  301       -4.971669   1.000000
  302       -4.971669   1.000000
  303       -4.971629   1.000000
  304       -4.932078   1.000000
  305       -4.932078   1.000000
  306       -4.932074   1.000000
  307       -4.925733   1.000000
  308       -4.925733   1.000000
  309       -4.925721   1.000000
  310       -4.919706   1.000000
  311       -4.919686   1.000000
  312       -4.919686   1.000000
  313       -4.894364   1.000000
  314       -4.894364   1.000000
  315       -4.894318   1.000000
  316       -4.886668   1.000000
  317       -4.886628   1.000000
  318       -4.875971   1.000000
  319       -4.870625   1.000000
  320       -4.870625   1.000000
  321       -4.870596   1.000000
  322       -4.863129   1.000000
  323       -4.863129   1.000000
  324       -4.863114   1.000000
  325       -4.779595   1.000000
  326       -4.767748   1.000000
  327       -4.767748   1.000000
  328       -4.767591   1.000000
  329       -4.764494   1.000000
  330       -4.764494   1.000000
  331       -4.764444   1.000000
  332       -4.760128   1.000000
  333       -4.760112   1.000000
  334       -4.754838   1.000000
  335       -4.754838   1.000000
  336       -4.754822   1.000000
  337       -4.728643   1.000000
  338       -4.728613   1.000000
  339       -4.728613   1.000000
  340       -4.709138   1.000000
  341       -4.709138   1.000000
  342       -4.709119   1.000000
  343       -4.657463   1.000000
  344       -4.657441   1.000000
  345       -4.657441   1.000000
  346       -4.652902   1.000000
  347       -4.643938   1.000000
  348       -4.643938   1.000000
  349       -4.643938   1.000000
  350       -4.601580   1.000000
  351       -4.601580   1.000000
  352       -4.601398   1.000000
  353       -4.571956   1.000000
  354       -4.571956   1.000000
  355       -4.571925   1.000000
  356       -4.567309   1.000000
  357       -4.567248   1.000000
  358       -4.554017   1.000000
  359       -4.554017   1.000000
  360       -4.553932   1.000000
  361       -4.532609   1.000000
  362       -4.532563   1.000000
  363       -4.519697   1.000000
  364       -4.514418   1.000000
  365       -4.514327   1.000000
  366       -4.514327   1.000000
  367       -4.512848   1.000000
  368       -4.512754   1.000000
  369       -4.512754   1.000000
  370       -4.497642   1.000000
  371       -4.497529   1.000000
  372       -4.497529   1.000000
  373       -4.493764   1.000000
  374       -4.493646   1.000000
  375       -4.493646   1.000000
  376       -4.483821   1.000000
  377       -4.483744   1.000000
  378       -4.477802   1.000000
  379       -4.468231   1.000000
  380       -4.460478   1.000000
  381       -4.460360   1.000000
  382       -4.457926   1.000000
  383       -4.454256   1.000000
  384       -4.454256   1.000000
  385       -4.454239   1.000000
  386       -4.451805   1.000000
  387       -4.451690   1.000000
  388       -4.451690   1.000000
  389       -4.429475   1.000000
  390       -4.429404   1.000000
  391       -4.429404   1.000000
  392       -4.426852   1.000000
  393       -4.421528   1.000000
  394       -4.421509   1.000000
  395       -4.421509   1.000000
  396       -4.413435   1.000000
  397       -4.413419   1.000000
  398       -4.391733   1.000000
  399       -4.391683   1.000000
  400       -4.386037   1.000000
  401       -4.386023   1.000000
  402       -4.386023   1.000000
  403       -4.374877   1.000000
  404       -4.374865   1.000000
  405       -4.374865   1.000000
  406       -4.369352   1.000000
  407       -4.368149   1.000000
  408       -4.368147   1.000000
  409       -4.364745   1.000000
  410       -4.364745   1.000000
  411       -4.364670   1.000000
  412       -4.343813   1.000000
  413       -4.337725   1.000000
  414       -4.337623   1.000000
  415       -4.337623   1.000000
  416       -4.335454   1.000000
  417       -4.335432   1.000000
  418       -4.334586   1.000000
  419       -4.334480   1.000000
  420       -4.334480   1.000000
  421       -4.334233   1.000000
  422       -4.320228   1.000000
  423       -4.320186   1.000000
  424       -4.320186   1.000000
  425       -4.317815   1.000000
  426       -4.317805   1.000000
  427       -4.314304   1.000000
  428       -4.306386   1.000000
  429       -4.306386   1.000000
  430       -4.302048   1.000000
  431       -4.302000   1.000000
  432       -4.302000   1.000000
  433       -4.294713   1.000000
  434       -4.294605   1.000000
  435       -4.294605   1.000000
  436       -4.292575   1.000000
  437       -4.292560   1.000000
  438       -4.290500   1.000000
  439       -4.286645   1.000000
  440       -4.280008   1.000000
  441       -4.266239   1.000000
  442       -4.266179   1.000000
  443       -4.246009   1.000000
  444       -4.245935   1.000000
  445       -4.241544   1.000000
  446       -4.241475   1.000000
  447       -4.241475   1.000000
  448       -4.238194   1.000000
  449       -4.221034   1.000000
  450       -4.221012   1.000000
  451       -4.221012   1.000000
  452       -4.211344   1.000000
  453       -4.211344   1.000000
  454       -4.211219   1.000000
  455       -4.210135   1.000000
  456       -4.210045   1.000000
  457       -4.179862   1.000000
  458       -4.179723   1.000000
  459       -4.179723   1.000000
  460       -4.160176   1.000000
  461       -4.159676   1.000000
  462       -4.147047   1.000000
  463       -4.147029   1.000000
  464       -4.147029   1.000000
  465       -4.146190   1.000000
  466       -4.146190   1.000000
  467       -4.146171   1.000000
  468       -4.113527   1.000000
  469       -4.113527   1.000000
  470       -4.113487   1.000000
  471       -4.096487   1.000000
  472       -4.096485   1.000000
  473       -4.096356   1.000000
  474       -4.095306   1.000000
  475       -4.095228   1.000000
  476       -4.095228   1.000000
  477       -4.092326   1.000000
  478       -4.092253   1.000000
  479       -4.092253   1.000000
  480       -4.091177   1.000000
  481       -4.071504   1.000000
  482       -4.063705   1.000000
  483       -4.063678   1.000000
  484       -4.063678   1.000000
  485       -4.048011   1.000000
  486       -4.047997   1.000000
  487       -4.047997   1.000000
  488       -4.042196   1.000000
  489       -4.042113   1.000000
  490       -4.042113   1.000000
  491       -4.033565   1.000000
  492       -4.033565   1.000000
  493       -4.033548   1.000000
  494       -4.030788   1.000000
  495       -4.030738   1.000000
  496       -4.028089   1.000000
  497       -4.007643   1.000000
  498       -4.007599   1.000000
  499       -4.007599   1.000000
  500       -3.985453   1.000000
  501       -3.985371   1.000000
  502       -3.956490   1.000000
  503       -3.956490   1.000000
  504       -3.956348   1.000000
  505       -3.951465   1.000000
  506       -3.951403   1.000000
  507       -3.951403   1.000000
  508       -3.931934   1.000000
  509       -3.931723   1.000000
  510       -3.931723   1.000000
  511       -3.903889   1.000000
  512       -3.903813   1.000000
  513       -3.903813   1.000000
  514       -3.877572   1.000000
  515       -3.877572   1.000000
  516       -3.877565   1.000000
  517       -3.864036   1.000000
  518       -3.864036   1.000000
  519       -3.863950   1.000000
  520       -3.858494   1.000000
  521       -3.858489   1.000000
  522       -3.858489   1.000000
  523       -3.837516   1.000000
  524       -3.837431   1.000000
  525       -3.837428   1.000000
  526       -3.837428   1.000000
  527       -3.835852   1.000000
  528       -3.835852   1.000000
  529       -3.835838   1.000000
  530       -3.819392   1.000000
  531       -3.819385   1.000000
  532       -3.788058   1.000000
  533       -3.788019   1.000000
  534       -3.767128   1.000000
  535       -3.767110   1.000000
  536       -3.767110   1.000000
  537       -3.760953   1.000000
  538       -3.755822   1.000000
  539       -3.755729   1.000000
  540       -3.755729   1.000000
  541       -3.754829   1.000000
  542       -3.754820   1.000000
  543       -3.743201   1.000000
  544       -3.743201   1.000000
  545       -3.743160   1.000000
  546       -3.735266   1.000000
  547       -3.735266   1.000000
  548       -3.735249   1.000000
  549       -3.723675   1.000000
  550       -3.723675   1.000000
  551       -3.723626   1.000000
  552       -3.716663   1.000000
  553       -3.716663   1.000000
  554       -3.716653   1.000000
  555       -3.699121   1.000000
  556       -3.699121   1.000000
  557       -3.699104   1.000000
  558       -3.689836   1.000000
  559       -3.689836   1.000000
  560       -3.689811   1.000000
  561       -3.683485   1.000000
  562       -3.683364   1.000000
  563       -3.671420   1.000000
  564       -3.671420   1.000000
  565       -3.671418   1.000000
  566       -3.639090   1.000000
  567       -3.629666   1.000000
  568       -3.629556   1.000000
  569       -3.629556   1.000000
  570       -3.625626   1.000000
  571       -3.625529   1.000000
  572       -3.625529   1.000000
  573       -3.591910   1.000000
  574       -3.591910   1.000000
  575       -3.591875   1.000000
  576       -3.559686   1.000000
  577       -3.556810   1.000000
  578       -3.556810   1.000000
  579       -3.556784   1.000000
  580       -3.555879   1.000000
  581       -3.555858   1.000000
  582       -3.550417   1.000000
  583       -3.550417   1.000000
  584       -3.550384   1.000000
  585       -3.542742   1.000000
  586       -3.542742   1.000000
  587       -3.542738   1.000000
  588       -3.537993   1.000000
  589       -3.527593   1.000000
  590       -3.527593   1.000000
  591       -3.527575   1.000000
  592       -3.526599   1.000000
  593       -3.526555   1.000000
  594       -3.523706   1.000000
  595       -3.521548   1.000000
  596       -3.521548   1.000000
  597       -3.521520   1.000000
  598       -3.501036   1.000000
  599       -3.501030   1.000000
  600       -3.501030   1.000000
  601       -3.499970   1.000000
  602       -3.499863   1.000000
  603       -3.499863   1.000000
  604       -3.497810   1.000000
  605       -3.497761   1.000000
  606       -3.497761   1.000000
  607       -3.496400   1.000000
  608       -3.496355   1.000000
  609       -3.496355   1.000000
  610       -3.469649   1.000000
  611       -3.469618   1.000000
  612       -3.469618   1.000000
  613       -3.468477   1.000000
  614       -3.468477   1.000000
  615       -3.468477   1.000000
  616       -3.453753   1.000000
  617       -3.453753   1.000000
  618       -3.453750   1.000000
  619       -3.451464   1.000000
  620       -3.451462   1.000000
  621       -3.439572   1.000000
  622       -3.439572   1.000000
  623       -3.439524   1.000000
  624       -3.435981   1.000000
  625       -3.435981   1.000000
  626       -3.435962   1.000000
  627       -3.431498   1.000000
  628       -3.431498   1.000000
  629       -3.431412   1.000000
  630       -3.418875   1.000000
  631       -3.418875   1.000000
  632       -3.418868   1.000000
  633       -3.412212   1.000000
  634       -3.412212   1.000000
  635       -3.412193   1.000000
  636       -3.392250   1.000000
  637       -3.392246   1.000000
  638       -3.392246   1.000000
  639       -3.383634   1.000000
  640       -3.383624   1.000000
  641       -3.383624   1.000000
  642       -3.364067   1.000000
  643       -3.364017   1.000000
  644       -3.364017   1.000000
  645       -3.354863   1.000000
  646       -3.354863   1.000000
  647       -3.354863   1.000000
  648       -3.349377   1.000000
  649       -3.349377   1.000000
  650       -3.349348   1.000000
  651       -3.347575   1.000000
  652       -3.347566   1.000000
  653       -3.346146   1.000000
  654       -3.336851   1.000000
  655       -3.336795   1.000000
  656       -3.336795   1.000000
  657       -3.327848   1.000000
  658       -3.327848   1.000000
  659       -3.327831   1.000000
  660       -3.312934   1.000000
  661       -3.312934   1.000000
  662       -3.312923   1.000000
  663       -3.308153   1.000000
  664       -3.304975   1.000000
  665       -3.304963   1.000000
  666       -3.289624   1.000000
  667       -3.288645   1.000000
  668       -3.288645   1.000000
  669       -3.288614   1.000000
  670       -3.282306   1.000000
  671       -3.282277   1.000000
  672       -3.280923   1.000000
  673       -3.280276   1.000000
  674       -3.274332   1.000000
  675       -3.274299   1.000000
  676       -3.259500   1.000000
  677       -3.259500   1.000000
  678       -3.259471   1.000000
  679       -3.254677   1.000000
  680       -3.254676   1.000000
  681       -3.254676   1.000000
  682       -3.248009   1.000000
  683       -3.247945   1.000000
  684       -3.247014   1.000000
  685       -3.222469   1.000000
  686       -3.222469   1.000000
  687       -3.222423   1.000000
  688       -3.219156   1.000000
  689       -3.219079   1.000000
  690       -3.219079   1.000000
  691       -3.194380   1.000000
  692       -3.193187   1.000000
  693       -3.193179   1.000000
  694       -3.188943   1.000000
  695       -3.186643   1.000000
  696       -3.186643   1.000000
  697       -3.186606   1.000000
  698       -3.182085   1.000000
  699       -3.182085   1.000000
  700       -3.181982   1.000000
  701       -3.172547   1.000000
  702       -3.171628   1.000000
  703       -3.171628   1.000000
  704       -3.171582   1.000000
  705       -3.160840   1.000000
  706       -3.160840   1.000000
  707       -3.160817   1.000000
  708       -3.156356   1.000000
  709       -3.156327   1.000000
  710       -3.153758   1.000000
  711       -3.153718   1.000000
  712       -3.153718   1.000000
  713       -3.138065   1.000000
  714       -3.138065   1.000000
  715       -3.138039   1.000000
  716       -3.126250   1.000000
  717       -3.126250   1.000000
  718       -3.126213   1.000000
  719       -3.116509   1.000000
  720       -3.116455   1.000000
  721       -3.116455   1.000000
  722       -3.098637   1.000000
  723       -3.098631   1.000000
  724       -3.098631   1.000000
  725       -3.093050   1.000000
  726       -3.093027   1.000000
  727       -3.093027   1.000000
  728       -3.082128   1.000000
  729       -3.082041   1.000000
  730       -3.077154   1.000000
  731       -3.077154   1.000000
  732       -3.077088   1.000000
  733       -3.063874   1.000000
  734       -3.063874   1.000000
  735       -3.063850   1.000000
  736       -3.063827   1.000000
  737       -3.063827   1.000000
  738       -3.063807   1.000000
  739       -3.058056   1.000000
  740       -3.044909   1.000000
  741       -3.044882   1.000000
  742       -3.044882   1.000000
  743       -3.041233   1.000000
  744       -3.041133   1.000000
  745       -3.040212   1.000000
  746       -3.040196   1.000000
  747       -3.040196   1.000000
  748       -3.037132   1.000000
  749       -3.037132   1.000000
  750       -3.037104   1.000000
  751       -3.028399   1.000000
  752       -3.028294   1.000000
  753       -3.019875   1.000000
  754       -3.019875   1.000000
  755       -3.019827   1.000000
  756       -3.019347   1.000000
  757       -3.017188   1.000000
  758       -3.017188   1.000000
  759       -3.017163   1.000000
  760       -3.016954   1.000000
  761       -3.008441   1.000000
  762       -3.008304   1.000000
  763       -2.998323   1.000000
  764       -2.998282   1.000000
  765       -2.989025   1.000000
  766       -2.989025   1.000000
  767       -2.988955   1.000000
  768       -2.979517   1.000000
  769       -2.977629   1.000000
  770       -2.977629   1.000000
  771       -2.977616   1.000000
  772       -2.969850   1.000000
  773       -2.969850   1.000000
  774       -2.969806   1.000000
  775       -2.969543   1.000000
  776       -2.969543   1.000000
  777       -2.969526   1.000000
  778       -2.965669   1.000000
  779       -2.965669   1.000000
  780       -2.965587   1.000000
  781       -2.950227   1.000000
  782       -2.950227   1.000000
  783       -2.950137   1.000000
  784       -2.941287   1.000000
  785       -2.941118   1.000000
  786       -2.936805   1.000000
  787       -2.936805   1.000000
  788       -2.936720   1.000000
  789       -2.919894   1.000000
  790       -2.919839   1.000000
  791       -2.919839   1.000000
  792       -2.916213   1.000000
  793       -2.915444   1.000000
  794       -2.915283   1.000000
  795       -2.905958   1.000000
  796       -2.905878   1.000000
  797       -2.905878   1.000000
  798       -2.905524   1.000000
  799       -2.905524   1.000000
  800       -2.905482   1.000000
  801       -2.892089   1.000000
  802       -2.892083   1.000000
  803       -2.892083   1.000000
  804       -2.878989   1.000000
  805       -2.876851   1.000000
  806       -2.876827   1.000000
  807       -2.875400   1.000000
  808       -2.875309   1.000000
  809       -2.875309   1.000000
  810       -2.860526   1.000000
  811       -2.860475   1.000000
  812       -2.856417   1.000000
  813       -2.844875   1.000000
  814       -2.844875   1.000000
  815       -2.844708   1.000000
  816       -2.832582   1.000000
  817       -2.827813   1.000000
  818       -2.827731   1.000000
  819       -2.824231   1.000000
  820       -2.824179   1.000000
  821       -2.824179   1.000000
  822       -2.817474   1.000000
  823       -2.817474   1.000000
  824       -2.817408   1.000000
  825       -2.811205   1.000000
  826       -2.811118   1.000000
  827       -2.797300   1.000000
  828       -2.797300   1.000000
  829       -2.797273   1.000000
  830       -2.797254   1.000000
  831       -2.794400   1.000000
  832       -2.794400   1.000000
  833       -2.794310   1.000000
  834       -2.787909   1.000000
  835       -2.787819   1.000000
  836       -2.786454   1.000000
  837       -2.769182   1.000000
  838       -2.769182   1.000000
  839       -2.769122   1.000000
  840       -2.765726   1.000000
  841       -2.765553   1.000000
  842       -2.761790   1.000000
  843       -2.758598   1.000000
  844       -2.756331   1.000000
  845       -2.755964   1.000000
  846       -2.755901   1.000000
  847       -2.755901   1.000000
  848       -2.752581   1.000000
  849       -2.752460   1.000000
  850       -2.748130   1.000000
  851       -2.748130   1.000000
  852       -2.748007   1.000000
  853       -2.745000   1.000000
  854       -2.731826   1.000000
  855       -2.731826   1.000000
  856       -2.731819   1.000000
  857       -2.726526   1.000000
  858       -2.726417   1.000000
  859       -2.715396   1.000000
  860       -2.713033   1.000000
  861       -2.713033   1.000000
  862       -2.713005   1.000000
  863       -2.704713   1.000000
  864       -2.704646   1.000000
  865       -2.704646   1.000000
  866       -2.687892   1.000000
  867       -2.687890   1.000000
  868       -2.686840   1.000000
  869       -2.686840   1.000000
  870       -2.686731   1.000000
  871       -2.683704   1.000000
  872       -2.678913   1.000000
  873       -2.678858   1.000000
  874       -2.678858   1.000000
  875       -2.673500   1.000000
  876       -2.673500   1.000000
  877       -2.673462   1.000000
  878       -2.657813   1.000000
  879       -2.657680   1.000000
  880       -2.657680   1.000000
  881       -2.657003   1.000000
  882       -2.656964   1.000000
  883       -2.655291   1.000000
  884       -2.655291   1.000000
  885       -2.655141   1.000000
  886       -2.642123   1.000000
  887       -2.642122   1.000000
  888       -2.640913   1.000000
  889       -2.640770   1.000000
  890       -2.640770   1.000000
  891       -2.624673   1.000000
  892       -2.624448   1.000000
  893       -2.624448   1.000000
  894       -2.624431   1.000000
  895       -2.624369   1.000000
  896       -2.610208   1.000000
  897       -2.610151   1.000000
  898       -2.609619   1.000000
  899       -2.606145   1.000000
  900       -2.606145   1.000000
  901       -2.606075   1.000000