  316  316   40    1
  0.2288514E+02  0.1514622E-08  0.1514622E-08  0.3640000E-08  0.2000000E-15
   1.0000000000000000E-004
  CAR 
 NiAl                                    
   2904      2   1742
 
  0.1262379E-14  0.1262379E-14  0.1262379E-14  0.2500000E+00
    1      -28.496867   1.000000
    2      -28.477556   1.000000
    3      -28.477553   1.000000
    4      -28.477553   1.000000
    5      -27.244228   1.000000
    6      -27.244157   1.000000
    7      -27.244157   1.000000
    8      -27.240237   1.000000
    9      -27.012940   1.000000
   10      -27.012940   1.000000
   11      -27.012731   1.000000
   12      -26.875406   1.000000
   13      -26.875225   1.000000
   14      -26.875225   1.000000
   15      -26.865445   1.000000
   16      -26.865197   1.000000
   17      -26.789271   1.000000
   18      -26.690435   1.000000
   19      -26.690435   1.000000
   20      -26.690363   1.000000
   21      -25.569355   1.000000
   22      -25.569337   1.000000
   23      -25.549036   1.000000
   24      -25.549021   1.000000
   25      -25.549021   1.000000
   26      -25.518618   1.000000
   27      -25.518618   1.000000
   28      -25.518615   1.000000
   29      -21.977498   1.000000
   30      -21.977408   1.000000
   31      -21.977408   1.000000
   32      -21.977407   1.000000
   33      -20.072004   1.000000
   34      -20.072004   1.000000
   35      -20.071910   1.000000
   36      -20.024254   1.000000
   37      -20.024160   1.000000
   38      -20.024160   1.000000
   39      -20.010472   1.000000
   40      -20.010353   1.000000
   41      -17.566042   1.000000
   42      -17.565818   1.000000
   43      -17.565818   1.000000
   44      -17.556987   1.000000
   45      -17.556693   1.000000
   46      -17.552097   1.000000
   47      -17.552097   1.000000
   48      -17.551882   1.000000
   49      -16.058387   1.000000
   50      -16.058387   1.000000
   51      -16.058356   1.000000
   52      -15.994092   1.000000
   53      -15.856870   1.000000
   54      -15.856870   1.000000
   55      -15.856865   1.000000
   56      -15.829846   1.000000
   57      -15.829810   1.000000
   58      -15.803690   1.000000
   59      -15.803643   1.000000
   60      -15.803643   1.000000
   61      -14.768098   1.000000
   62      -14.505401   1.000000
   63      -14.505401   1.000000
   64      -14.505394   1.000000
   65      -12.130978   1.000000
   66      -12.130927   1.000000
   67      -12.130927   1.000000
   68      -11.697652   1.000000
   69      -11.504077   1.000000
   70      -10.827474   1.000000
   71      -10.827474   1.000000
   72      -10.827380   1.000000
   73      -10.517814   1.000000
   74      -10.517544   1.000000
   75      -10.517544   1.000000
   76      -10.509777   1.000000
   77      -10.509517   1.000000
   78      -10.460694   1.000000
   79      -10.460694   1.000000
   80      -10.460483   1.000000
   81      -10.205963   1.000000
   82      -10.122044   1.000000
   83      -10.121875   1.000000
   84      -10.121875   1.000000
   85       -9.592616   1.000000
   86       -9.592616   1.000000
   87       -9.592586   1.000000
   88       -9.538966   1.000000
   89       -9.380229   1.000000
   90       -9.146597   1.000000
   91       -9.146303   1.000000
   92       -9.146303   1.000000
   93       -9.142825   1.000000
   94       -9.142825   1.000000
   95       -9.142427   1.000000
   96       -9.135674   1.000000
   97       -9.135201   1.000000
   98       -8.981593   1.000000
   99       -8.981593   1.000000
  100       -8.981587   1.000000
  101       -8.974345   1.000000
  102       -8.663480   1.000000
  103       -8.663331   1.000000
  104       -8.663331   1.000000
  105       -8.622516   1.000000
  106       -8.622516   1.000000
  107       -8.622095   1.000000
  108       -8.593722   1.000000
  109       -8.593642   1.000000
  110       -8.593642   1.000000
  111       -8.581374   1.000000
  112       -8.581347   1.000000
  113       -8.581347   1.000000
  114       -8.479623   1.000000
  115       -8.479467   1.000000
  116       -8.479467   1.000000
  117       -8.458694   1.000000
  118       -8.458324   1.000000
  119       -8.423777   1.000000
  120       -8.150496   1.000000
  121       -8.109360   1.000000
  122       -8.109336   1.000000
  123       -8.109336   1.000000
  124       -8.069893   1.000000
  125       -8.069850   1.000000
  126       -8.069850   1.000000
  127       -8.028204   1.000000
  128       -8.028043   1.000000
  129       -8.019788   1.000000
  130       -7.843203   1.000000
  131       -7.843127   1.000000
  132       -7.843127   1.000000
  133       -7.794570   1.000000
  134       -7.794570   1.000000
  135       -7.794359   1.000000
  136       -7.687843   1.000000
  137       -7.687260   1.000000
  138       -7.651564   1.000000
  139       -7.651364   1.000000
  140       -7.651364   1.000000
  141       -7.563330   1.000000
  142       -7.563330   1.000000
  143       -7.563275   1.000000
  144       -7.347656   1.000000
  145       -7.347656   1.000000
  146       -7.347629   1.000000
  147       -7.294325   1.000000
  148       -7.294307   1.000000
  149       -7.294307   1.000000
  150       -7.287564   1.000000
  151       -7.221724   1.000000
  152       -7.221724   1.000000
  153       -7.221284   1.000000
  154       -7.204449   1.000000
  155       -7.204282   1.000000
  156       -7.138805   1.000000
  157       -7.137307   1.000000
  158       -7.137307   1.000000
  159       -7.137305   1.000000
  160       -7.127194   1.000000
  161       -7.127194   1.000000
  162       -7.127139   1.000000
  163       -7.004462   1.000000
  164       -7.004454   1.000000
  165       -7.004454   1.000000
  166       -6.965615   1.000000
  167       -6.965615   1.000000
  168       -6.965573   1.000000
  169       -6.896277   1.000000
  170       -6.896025   1.000000
  171       -6.896025   1.000000
  172       -6.777514   1.000000
  173       -6.591744   1.000000
  174       -6.591604   1.000000
  175       -6.591604   1.000000
  176       -6.569745   1.000000
  177       -6.569745   1.000000
  178       -6.569692   1.000000
  179       -6.432091   1.000000
  180       -6.410380   1.000000
  181       -6.410104   1.000000
  182       -6.410104   1.000000
  183       -6.365888   1.000000
  184       -6.358460   1.000000
  185       -6.358448   1.000000
  186       -6.345609   1.000000
  187       -6.345579   1.000000
  188       -6.345171   1.000000
  189       -6.345165   1.000000
  190       -6.345165   1.000000
  191       -6.334243   1.000000
  192       -6.334243   1.000000
  193       -6.333246   1.000000
  194       -6.232266   1.000000
  195       -6.200039   1.000000
  196       -6.199894   1.000000
  197       -6.199894   1.000000
  198       -6.189455   1.000000
  199       -6.188104   1.000000
  200       -6.095954   1.000000
  201       -6.049363   1.000000
  202       -6.049356   1.000000
  203       -6.046669   1.000000
  204       -6.015700   1.000000
  205       -6.015666   1.000000
  206       -6.006342   1.000000
  207       -6.005883   1.000000
  208       -6.005883   1.000000
  209       -5.938064   1.000000
  210       -5.938064   1.000000
  211       -5.938012   1.000000
  212       -5.870200   1.000000
  213       -5.843900   1.000000
  214       -5.843900   1.000000
  215       -5.843878   1.000000
  216       -5.641864   1.000000
  217       -5.631366   1.000000
  218       -5.631339   1.000000
  219       -5.563143   1.000000
  220       -5.563141   1.000000
  221       -5.531708   1.000000
  222       -5.466343   1.000000
  223       -5.466327   1.000000
  224       -5.466327   1.000000
  225       -5.377128   1.000000
  226       -5.377126   1.000000
  227       -5.377126   1.000000
  228       -5.360300   1.000000
  229       -5.331675   1.000000
  230       -5.331278   1.000000
  231       -5.304009   1.000000
  232       -5.304009   1.000000
  233       -5.303689   1.000000
  234       -5.286871   1.000000
  235       -5.240795   1.000000
  236       -5.240782   1.000000
  237       -5.240782   1.000000
  238       -5.187620   1.000000
  239       -5.187620   1.000000
  240       -5.187614   1.000000
  241       -5.177396   1.000000
  242       -5.163713   1.000000
  243       -5.163713   1.000000
  244       -5.163592   1.000000
  245       -5.152151   1.000000
  246       -5.152141   1.000000
  247       -5.131875   1.000000
  248       -5.131582   1.000000
  249       -5.131582   1.000000
  250       -5.086072   1.000000
  251       -5.086072   1.000000
  252       -5.086004   1.000000
  253       -5.076555   1.000000
  254       -5.076545   1.000000
  255       -5.024125   1.000000
  256       -5.024092   1.000000
  257       -5.024092   1.000000
  258       -5.009004   1.000000
  259       -5.008951   1.000000
  260       -5.008951   1.000000
  261       -5.006780   1.000000
  262       -5.006729   1.000000
  263       -5.006729   1.000000
  264       -4.991915   1.000000
  265       -4.991915   1.000000
  266       -4.991903   1.000000
  267       -4.961627   1.000000
  268       -4.957476   1.000000
  269       -4.957476   1.000000
  270       -4.957456   1.000000
  271       -4.949176   1.000000
  272       -4.949152   1.000000
  273       -4.949152   1.000000
  274       -4.890195   1.000000
  275       -4.890195   1.000000
  276       -4.890135   1.000000
  277       -4.860277   1.000000
  278       -4.860277   1.000000
  279       -4.860268   1.000000
  280       -4.858325   1.000000
  281       -4.858310   1.000000
  282       -4.858310   1.000000
  283       -4.819371   1.000000
  284       -4.819328   1.000000
  285       -4.819328   1.000000
  286       -4.817951   1.000000
  287       -4.817719   1.000000
  288       -4.811418   1.000000
  289       -4.811379   1.000000
  290       -4.811379   1.000000
  291       -4.800456   1.000000
  292       -4.780061   1.000000
  293       -4.780056   1.000000
  294       -4.780056   1.000000
  295       -4.776977   1.000000
  296       -4.776977   1.000000
  297       -4.776976   1.000000
  298       -4.767531   1.000000
  299       -4.767498   1.000000
  300       -4.767498   1.000000
  301       -4.761797   1.000000
  302       -4.761771   1.000000
  303       -4.761771   1.000000
  304       -4.747019   1.000000
  305       -4.746997   1.000000
  306       -4.746997   1.000000
  307       -4.739076   1.000000
  308       -4.739076   1.000000
  309       -4.739030   1.000000
  310       -4.724313   1.000000
  311       -4.724313   1.000000
  312       -4.724272   1.000000
  313       -4.700631   1.000000
  314       -4.700631   1.000000
  315       -4.700605   1.000000
  316       -4.688921   1.000000
  317       -4.688921   1.000000
  318       -4.688842   1.000000
  319       -4.678365   1.000000
  320       -4.678342   1.000000
  321       -4.678342   1.000000
  322       -4.671499   1.000000
  323       -4.671258   1.000000
  324       -4.668328   1.000000
  325       -4.668303   1.000000
  326       -4.668303   1.000000
  327       -4.645658   1.000000
  328       -4.645653   1.000000
  329       -4.645653   1.000000
  330       -4.632723   1.000000
  331       -4.631448   1.000000
  332       -4.631355   1.000000
  333       -4.613180   1.000000
  334       -4.613179   1.000000
  335       -4.613179   1.000000
  336       -4.592840   1.000000
  337       -4.592840   1.000000
  338       -4.592788   1.000000
  339       -4.559649   1.000000
  340       -4.559649   1.000000
  341       -4.559648   1.000000
  342       -4.535663   1.000000
  343       -4.523529   1.000000
  344       -4.523529   1.000000
  345       -4.523510   1.000000
  346       -4.517897   1.000000
  347       -4.517897   1.000000
  348       -4.517712   1.000000
  349       -4.515440   1.000000
  350       -4.515440   1.000000
  351       -4.515404   1.000000
  352       -4.468403   1.000000
  353       -4.468397   1.000000
  354       -4.468397   1.000000
  355       -4.426013   1.000000
  356       -4.426013   1.000000
  357       -4.425975   1.000000
  358       -4.402967   1.000000
  359       -4.402894   1.000000
  360       -4.400105   1.000000
  361       -4.400095   1.000000
  362       -4.400095   1.000000
  363       -4.395367   1.000000
  364       -4.395367   1.000000
  365       -4.395277   1.000000
  366       -4.359790   1.000000
  367       -4.359790   1.000000
  368       -4.359672   1.000000
  369       -4.335918   1.000000
  370       -4.335820   1.000000
  371       -4.327528   1.000000
  372       -4.327528   1.000000
  373       -4.327458   1.000000
  374       -4.321243   1.000000
  375       -4.306055   1.000000
  376       -4.306030   1.000000
  377       -4.306030   1.000000
  378       -4.275619   1.000000
  379       -4.275508   1.000000
  380       -4.265315   1.000000
  381       -4.265123   1.000000
  382       -4.265123   1.000000
  383       -4.262510   1.000000
  384       -4.257570   1.000000
  385       -4.257328   1.000000
  386       -4.257328   1.000000
  387       -4.252411   1.000000
  388       -4.252356   1.000000
  389       -4.252356   1.000000
  390       -4.246546   1.000000
  391       -4.246444   1.000000
  392       -4.246444   1.000000
  393       -4.240011   1.000000
  394       -4.239919   1.000000
  395       -4.239919   1.000000
  396       -4.234023   1.000000
  397       -4.230137   1.000000
  398       -4.230026   1.000000
  399       -4.229847   1.000000
  400       -4.228224   1.000000
  401       -4.202104   1.000000
  402       -4.201905   1.000000
  403       -4.201905   1.000000
  404       -4.195830   1.000000
  405       -4.195750   1.000000
  406       -4.195750   1.000000
  407       -4.190412   1.000000
  408       -4.190334   1.000000
  409       -4.175471   1.000000
  410       -4.175471   1.000000
  411       -4.175434   1.000000
  412       -4.168434   1.000000
  413       -4.168434   1.000000
  414       -4.168433   1.000000
  415       -4.137652   1.000000
  416       -4.137639   1.000000
  417       -4.121068   1.000000
  418       -4.120972   1.000000
  419       -4.120030   1.000000
  420       -4.104910   1.000000
  421       -4.104824   1.000000
  422       -4.101327   1.000000
  423       -4.099159   1.000000
  424       -4.099072   1.000000
  425       -4.099072   1.000000
  426       -4.094528   1.000000
  427       -4.089642   1.000000
  428       -4.089642   1.000000
  429       -4.089629   1.000000
  430       -4.083267   1.000000
  431       -4.083168   1.000000
  432       -4.083168   1.000000
  433       -4.082362   1.000000
  434       -4.082348   1.000000
  435       -4.080925   1.000000
  436       -4.080838   1.000000
  437       -4.080838   1.000000
  438       -4.076263   1.000000
  439       -4.076167   1.000000
  440       -4.076167   1.000000
  441       -4.063717   1.000000
  442       -4.063607   1.000000
  443       -4.042325   1.000000
  444       -4.036117   1.000000
  445       -4.036038   1.000000
  446       -4.031496   1.000000
  447       -4.031430   1.000000
  448       -4.031430   1.000000
  449       -4.023105   1.000000
  450       -4.015341   1.000000
  451       -4.015291   1.000000
  452       -4.013948   1.000000
  453       -4.005430   1.000000
  454       -4.005355   1.000000
  455       -4.005355   1.000000
  456       -4.001968   1.000000
  457       -4.001966   1.000000
  458       -3.984232   1.000000
  459       -3.978812   1.000000
  460       -3.978812   1.000000
  461       -3.978786   1.000000
  462       -3.977288   1.000000
  463       -3.952392   1.000000
  464       -3.952362   1.000000
  465       -3.952362   1.000000
  466       -3.949346   1.000000
  467       -3.949346   1.000000
  468       -3.949346   1.000000
  469       -3.941963   1.000000
  470       -3.937250   1.000000
  471       -3.932667   1.000000
  472       -3.932667   1.000000
  473       -3.932649   1.000000
  474       -3.902601   1.000000
  475       -3.902270   1.000000
  476       -3.902248   1.000000
  477       -3.902248   1.000000
  478       -3.881915   1.000000
  479       -3.881914   1.000000
  480       -3.881617   1.000000
  481       -3.881548   1.000000
  482       -3.881548   1.000000
  483       -3.870842   1.000000
  484       -3.870842   1.000000
  485       -3.863757   1.000000
  486       -3.863687   1.000000
  487       -3.863687   1.000000
  488       -3.852924   1.000000
  489       -3.852861   1.000000
  490       -3.852861   1.000000
  491       -3.849773   1.000000
  492       -3.849677   1.000000
  493       -3.837822   1.000000
  494       -3.837758   1.000000
  495       -3.837758   1.000000
  496       -3.819869   1.000000
  497       -3.811779   1.000000
  498       -3.811704   1.000000
  499       -3.811257   1.000000
  500       -3.811177   1.000000
  501       -3.811177   1.000000
  502       -3.806378   1.000000
  503       -3.806300   1.000000
  504       -3.806300   1.000000
  505       -3.785688   1.000000
  506       -3.785621   1.000000
  507       -3.785621   1.000000
  508       -3.755146   1.000000
  509       -3.755104   1.000000
  510       -3.755104   1.000000
  511       -3.710652   1.000000
  512       -3.710598   1.000000
  513       -3.710598   1.000000
  514       -3.702492   1.000000
  515       -3.702468   1.000000
  516       -3.702468   1.000000
  517       -3.693488   1.000000
  518       -3.693463   1.000000
  519       -3.683852   1.000000
  520       -3.683809   1.000000
  521       -3.683809   1.000000
  522       -3.672700   1.000000
  523       -3.672682   1.000000
  524       -3.672682   1.000000
  525       -3.662625   1.000000
  526       -3.662625   1.000000
  527       -3.662621   1.000000
  528       -3.661993   1.000000
  529       -3.657847   1.000000
  530       -3.657815   1.000000
  531       -3.657815   1.000000
  532       -3.653844   1.000000
  533       -3.653840   1.000000
  534       -3.594342   1.000000
  535       -3.594306   1.000000
  536       -3.592028   1.000000
  537       -3.592028   1.000000
  538       -3.592018   1.000000
  539       -3.585728   1.000000
  540       -3.585684   1.000000
  541       -3.562020   1.000000
  542       -3.561967   1.000000
  543       -3.561967   1.000000
  544       -3.561732   1.000000
  545       -3.561626   1.000000
  546       -3.561626   1.000000
  547       -3.560172   1.000000
  548       -3.533346   1.000000
  549       -3.533346   1.000000
  550       -3.533277   1.000000
  551       -3.514813   1.000000
  552       -3.514813   1.000000
  553       -3.514773   1.000000
  554       -3.506957   1.000000
  555       -3.506957   1.000000
  556       -3.506930   1.000000
  557       -3.497448   1.000000
  558       -3.497448   1.000000
  559       -3.497393   1.000000
  560       -3.494361   1.000000
  561       -3.494361   1.000000
  562       -3.494331   1.000000
  563       -3.480055   1.000000
  564       -3.480055   1.000000
  565       -3.479973   1.000000
  566       -3.428657   1.000000
  567       -3.428545   1.000000
  568       -3.428545   1.000000
  569       -3.413821   1.000000
  570       -3.409100   1.000000
  571       -3.408985   1.000000
  572       -3.408985   1.000000
  573       -3.397897   1.000000
  574       -3.397776   1.000000
  575       -3.397776   1.000000
  576       -3.388444   1.000000
  577       -3.388444   1.000000
  578       -3.388419   1.000000
  579       -3.360779   1.000000
  580       -3.360736   1.000000
  581       -3.360736   1.000000
  582       -3.347322   1.000000
  583       -3.347299   1.000000
  584       -3.347299   1.000000
  585       -3.331581   1.000000
  586       -3.331577   1.000000
  587       -3.325404   1.000000
  588       -3.325295   1.000000
  589       -3.325295   1.000000
  590       -3.320413   1.000000
  591       -3.320305   1.000000
  592       -3.320305   1.000000
  593       -3.318407   1.000000
  594       -3.316984   1.000000
  595       -3.316977   1.000000
  596       -3.315767   1.000000
  597       -3.315767   1.000000
  598       -3.315730   1.000000
  599       -3.308594   1.000000
  600       -3.308594   1.000000
  601       -3.308579   1.000000
  602       -3.301668   1.000000
  603       -3.301668   1.000000
  604       -3.301645   1.000000
  605       -3.297045   1.000000
  606       -3.289060   1.000000
  607       -3.289060   1.000000
  608       -3.289032   1.000000
  609       -3.283256   1.000000
  610       -3.282429   1.000000
  611       -3.282429   1.000000
  612       -3.282373   1.000000
  613       -3.268330   1.000000
  614       -3.268330   1.000000
  615       -3.268274   1.000000
  616       -3.259270   1.000000
  617       -3.259270   1.000000
  618       -3.259223   1.000000
  619       -3.244196   1.000000
  620       -3.244195   1.000000
  621       -3.244195   1.000000
  622       -3.240759   1.000000
  623       -3.240759   1.000000
  624       -3.240713   1.000000
  625       -3.221665   1.000000
  626       -3.221661   1.000000
  627       -3.221661   1.000000
  628       -3.204007   1.000000
  629       -3.204007   1.000000
  630       -3.203964   1.000000
  631       -3.198469   1.000000
  632       -3.198469   1.000000
  633       -3.198428   1.000000
  634       -3.189774   1.000000
  635       -3.189766   1.000000
  636       -3.178658   1.000000
  637       -3.178658   1.000000
  638       -3.178644   1.000000
  639       -3.166004   1.000000
  640       -3.166004   1.000000
  641       -3.165963   1.000000
  642       -3.164390   1.000000
  643       -3.164385   1.000000
  644       -3.154727   1.000000
  645       -3.152360   1.000000
  646       -3.149232   1.000000
  647       -3.149214   1.000000
  648       -3.149214   1.000000
  649       -3.146582   1.000000
  650       -3.146488   1.000000
  651       -3.146488   1.000000
  652       -3.135293   1.000000
  653       -3.135279   1.000000
  654       -3.135207   1.000000
  655       -3.135207   1.000000
  656       -3.135184   1.000000
  657       -3.134013   1.000000
  658       -3.133980   1.000000
  659       -3.133980   1.000000
  660       -3.130053   1.000000
  661       -3.127658   1.000000
  662       -3.127653   1.000000
  663       -3.127653   1.000000
  664       -3.116960   1.000000
  665       -3.116960   1.000000
  666       -3.116956   1.000000
  667       -3.105791   1.000000
  668       -3.100345   1.000000
  669       -3.100337   1.000000
  670       -3.094349   1.000000
  671       -3.094349   1.000000
  672       -3.094299   1.000000
  673       -3.089991   1.000000
  674       -3.085870   1.000000
  675       -3.085870   1.000000
  676       -3.085823   1.000000
  677       -3.064502   1.000000
  678       -3.064502   1.000000
  679       -3.064430   1.000000
  680       -3.050682   1.000000
  681       -3.036231   1.000000
  682       -3.036231   1.000000
  683       -3.036157   1.000000
  684       -3.033648   1.000000
  685       -3.033646   1.000000
  686       -3.032940   1.000000
  687       -3.029537   1.000000
  688       -3.029531   1.000000
  689       -3.029531   1.000000
  690       -3.027253   1.000000
  691       -3.027214   1.000000
  692       -3.022657   1.000000
  693       -3.022618   1.000000
  694       -3.019914   1.000000
  695       -3.008105   1.000000
  696       -3.008099   1.000000
  697       -3.008099   1.000000
  698       -2.994721   1.000000
  699       -2.991555   1.000000
  700       -2.991548   1.000000
  701       -2.991548   1.000000
  702       -2.989850   1.000000
  703       -2.989807   1.000000
  704       -2.989807   1.000000
  705       -2.978941   1.000000
  706       -2.978894   1.000000
  707       -2.978894   1.000000
  708       -2.958011   1.000000
  709       -2.958011   1.000000
  710       -2.957924   1.000000
  711       -2.954050   1.000000
  712       -2.954044   1.000000
  713       -2.942888   1.000000
  714       -2.942888   1.000000
  715       -2.942820   1.000000
  716       -2.936239   1.000000
  717       -2.936239   1.000000
  718       -2.936151   1.000000
  719       -2.929353   1.000000
  720       -2.929341   1.000000
  721       -2.929341   1.000000
  722       -2.924891   1.000000
  723       -2.924862   1.000000
  724       -2.924862   1.000000
  725       -2.915511   1.000000
  726       -2.909881   1.000000
  727       -2.909842   1.000000
  728       -2.893429   1.000000
  729       -2.893427   1.000000
  730       -2.893427   1.000000
  731       -2.880737   1.000000
  732       -2.880323   1.000000
  733       -2.880323   1.000000
  734       -2.880252   1.000000
  735       -2.879003   1.000000
  736       -2.879003   1.000000
  737       -2.878939   1.000000
  738       -2.873375   1.000000
  739       -2.873375   1.000000
  740       -2.873302   1.000000
  741       -2.872407   1.000000
  742       -2.872407   1.000000
  743       -2.872366   1.000000
  744       -2.864596   1.000000
  745       -2.864596   1.000000
  746       -2.864483   1.000000
  747       -2.863466   1.000000
  748       -2.863426   1.000000
  749       -2.854153   1.000000
  750       -2.854153   1.000000
  751       -2.854137   1.000000
  752       -2.849760   1.000000
  753       -2.849760   1.000000
  754       -2.849693   1.000000
  755       -2.843964   1.000000
  756       -2.843881   1.000000
  757       -2.830360   1.000000
  758       -2.830360   1.000000
  759       -2.830252   1.000000
  760       -2.826805   1.000000
  761       -2.819713   1.000000
  762       -2.819713   1.000000
  763       -2.819628   1.000000
  764       -2.815930   1.000000
  765       -2.815708   1.000000
  766       -2.805510   1.000000
  767       -2.805510   1.000000
  768       -2.805495   1.000000
  769       -2.803864   1.000000
  770       -2.803864   1.000000
  771       -2.803854   1.000000
  772       -2.796369   1.000000
  773       -2.796369   1.000000
  774       -2.796239   1.000000
  775       -2.792375   1.000000
  776       -2.787807   1.000000
  777       -2.786109   1.000000
  778       -2.786109   1.000000
  779       -2.786032   1.000000
  780       -2.784351   1.000000
  781       -2.784351   1.000000
  782       -2.784347   1.000000
  783       -2.770028   1.000000
  784       -2.769978   1.000000
  785       -2.749901   1.000000
  786       -2.749901   1.000000
  787       -2.749890   1.000000
  788       -2.740407   1.000000
  789       -2.740407   1.000000
  790       -2.740309   1.000000
  791       -2.737014   1.000000
  792       -2.736814   1.000000
  793       -2.734528   1.000000
  794       -2.734528   1.000000
  795       -2.734489   1.000000
  796       -2.724913   1.000000
  797       -2.724761   1.000000
  798       -2.721950   1.000000
  799       -2.712331   1.000000
  800       -2.712275   1.000000
  801       -2.712275   1.000000
  802       -2.707996   1.000000
  803       -2.707936   1.000000
  804       -2.706229   1.000000
  805       -2.688793   1.000000
  806       -2.688793   1.000000
  807       -2.688721   1.000000
  808       -2.686487   1.000000
  809       -2.686487   1.000000
  810       -2.686474   1.000000
  811       -2.685372   1.000000
  812       -2.685372   1.000000
  813       -2.685309   1.000000
  814       -2.677380   1.000000
  815       -2.668540   1.000000
  816       -2.668431   1.000000
  817       -2.663659   1.000000
  818       -2.663659   1.000000
  819       -2.663630   1.000000
  820       -2.660655   1.000000
  821       -2.660122   1.000000
  822       -2.659983   1.000000
  823       -2.659401   1.000000
  824       -2.659374   1.000000
  825       -2.659374   1.000000
  826       -2.654102   1.000000
  827       -2.653280   1.000000
  828       -2.653108   1.000000
  829       -2.651310   1.000000
  830       -2.651200   1.000000
  831       -2.644887   1.000000
  832       -2.644887   1.000000
  833       -2.644766   1.000000
  834       -2.640635   1.000000
  835       -2.638726   1.000000
  836       -2.627900   1.000000
  837       -2.627684   1.000000
  838       -2.622902   1.000000
  839       -2.622844   1.000000
  840       -2.622844   1.000000
  841       -2.618374   1.000000
  842       -2.618374   1.000000
  843       -2.618283   1.000000
  844       -2.610870   1.000000
  845       -2.610772   1.000000
  846       -2.590451   1.000000
  847       -2.590451   1.000000
  848       -2.590367   1.000000
  849       -2.583861   1.000000
  850       -2.583824   1.000000
  851       -2.583824   1.000000
  852       -2.582164   1.000000
  853       -2.579645   1.000000
  854       -2.579645   1.000000
  855       -2.579513   1.000000
  856       -2.576168   1.000000
  857       -2.576126   1.000000
  858       -2.569711   1.000000
  859       -2.569691   1.000000
  860       -2.569691   1.000000
  861       -2.566480   1.000000
  862       -2.566480   1.000000
  863       -2.566335   1.000000
  864       -2.563976   1.000000
  865       -2.556137   1.000000
  866       -2.544152   1.000000
  867       -2.544108   1.000000
  868       -2.544108   1.000000
  869       -2.541386   1.000000
  870       -2.541376   1.000000
  871       -2.541376   1.000000
  872       -2.533020   1.000000
  873       -2.533020   1.000000
  874       -2.522090   1.000000
  875       -2.522090   1.000000
  876       -2.522053   1.000000
  877       -2.519691   1.000000
  878       -2.519624   1.000000
  879       -2.519624   1.000000
  880       -2.513595   1.000000
  881       -2.513354   1.000000
  882       -2.513130   1.000000
  883       -2.508790   1.000000
  884       -2.508790   1.000000
  885       -2.508759   1.000000
  886       -2.502873   1.000000
  887       -2.502830   1.000000
  888       -2.476980   1.000000
  889       -2.470370   1.000000
  890       -2.470370   1.000000
  891       -2.470351   1.000000
  892       -2.469993   1.000000
  893       -2.469969   1.000000
  894       -2.468751   1.000000
  895       -2.468628   1.000000
  896       -2.468628   1.000000
  897       -2.461192   1.000000
  898       -2.461156   1.000000
  899       -2.459123   1.000000
  900       -2.459047   1.000000
  901       -2.459047   1.000000