         324
 Energy:  -1338.2746095000000     
 X   0.00000000       0.00000000       0.00000000    
 X   15.1462221       0.00000000       0.00000000    
 X   7.57311106       13.1170130       0.00000000    
 X   0.00000000       0.00000000       36.4000015    
 X   22.7193336       13.1170130       0.00000000    
 X   15.1462221       0.00000000       36.4000015    
 X   7.57311106       13.1170130       36.4000015    
 X   22.7193336       13.1170130       36.4000015    
 Ni   10.0974798       5.82978010       2.25640011    
 Ni   12.6218500       10.2021198       2.25640011    
 Ni   7.57311010       1.45745003       2.25640011    
 Ni   15.1462202       5.82978010       2.25640011    
 Ni   17.6705894       10.2021198       2.25640011    
 Ni   12.6218500       1.45745003       2.25640011    
 Ni   5.04873991       5.82978010       2.25640011    
 Ni   7.57311010       10.2021198       2.25640011    
 Ni   2.52436996       1.45745003       2.25640011    
 Ni   12.6218500       7.28723001       4.54539013    
 Ni   15.1462202       11.6595697       4.54539013    
 Ni   10.0974798       2.91489005       4.54539013    
 Ni   17.6705894       7.28723001       4.54539013    
 Ni   20.1949596       11.6595697       4.54539013    
 Ni   15.1462202       2.91489005       4.54539013    
 Ni   7.57311010       7.28723001       4.54539013    
 Ni   10.0974798       11.6595697       4.54539013    
 Ni   5.04873991       2.91489005       4.54539013    
 Ni   15.1462202       8.74468040       6.76043987    
 Ni   10.0974798       0.00000000       6.76043987    
 Ni   12.6218500       4.37234020       6.76043987    
 Ni   5.04873991       8.74468040       6.76043987    
 Ni   0.00000000       0.00000000       6.76043987    
 Ni   2.52436996       4.37234020       6.76043987    
 Ni   10.0974798       8.74468040       6.76043987    
 Ni   5.04873991       0.00000000       6.76043987    
 Ni   7.57311010       4.37234020       6.76043987    
 Ni   17.6705894       10.2021198       9.04018974    
 Ni   12.6218500       1.45745003       9.04018974    
 Ni   15.1462202       5.82978010       9.04018974    
 Ni   7.57311010       10.2021198       9.04018974    
 Ni   2.52436996       1.45745003       9.04018974    
 Ni   5.04873991       5.82978010       9.04018974    
 Ni   12.6218500       10.2021198       9.04018974    
 Ni   7.57311010       1.45745003       9.04018974    
 Ni   10.0974798       5.82978010       9.04018974    
 Ni   20.1949596       11.6595697       11.3199396    
 Ni   15.1462202       2.91489005       11.3199396    
 Ni   17.6705894       7.28723001       11.3199396    
 Ni   10.0974798       11.6595697       11.3199396    
 Ni   5.04873991       2.91489005       11.3199396    
 Ni   7.57311010       7.28723001       11.3199396    
 Ni   15.1462202       11.6595697       11.3199396    
 Ni   10.0974798       2.91489005       11.3199396    
 Ni   12.6218500       7.28723001       11.3199396    
 Ni   0.00000000       0.00000000       13.5349903    
 Ni   2.52436996       4.37234020       13.5349903    
 Ni   5.04873991       8.74468040       13.5349903    
 Ni   5.04873991       0.00000000       13.5349903    
 Ni   7.57311010       4.37234020       13.5349903    
 Ni   10.0974798       8.74468040       13.5349903    
 Ni   10.0974798       0.00000000       13.5349903    
 Ni   12.6218500       4.37234020       13.5349903    
 Ni   15.1462202       8.74468040       13.5349903    
 Ni   2.52436996       1.45745003       15.8239803    
 Ni   5.04873991       5.82978010       15.8239803    
 Ni   7.57311010       10.2021198       15.8239803    
 Ni   7.57311010       1.45745003       15.8239803    
 Ni   10.0974798       5.82978010       15.8239803    
 Ni   12.6218500       10.2021198       15.8239803    
 Ni   12.6218500       1.45745003       15.8239803    
 Ni   15.1462202       5.82978010       15.8239803    
 Ni   17.6705894       10.2021198       15.8239803    
 Ni   6.31092978       3.64361000       2.25640011    
 Ni   8.83530045       8.01595020       2.25640011    
 Ni   11.3596697       12.3882904       2.25640011    
 Ni   11.3596697       3.64361000       2.25640011    
 Ni   13.8840399       8.01595020       2.25640011    
 Ni   16.4084091       12.3882904       2.25640011    
 Ni   16.4084091       3.64361000       2.25640011    
 Ni   18.9327793       8.01595020       2.25640011    
 Ni   21.4571495       12.3882904       2.25640011    
 Ni   8.83530045       5.10105991       4.54539013    
 Ni   11.3596697       9.47340012       4.54539013    
 Ni   6.31092978      0.728720009       4.54539013    
 Ni   13.8840399       5.10105991       4.54539013    
 Ni   16.4084091       9.47340012       4.54539013    
 Ni   11.3596697      0.728720009       4.54539013    
 Ni   3.78656006       5.10105991       4.54539013    
 Ni   6.31092978       9.47340012       4.54539013    
 Ni   1.26218998      0.728720009       4.54539013    
 Ni   11.3596697       6.55850983       6.76043987    
 Ni   13.8840399       10.9308395       6.76043987    
 Ni   8.83530045       2.18617010       6.76043987    
 Ni   16.4084091       6.55850983       6.76043987    
 Ni   18.9327793       10.9308395       6.76043987    
 Ni   13.8840399       2.18617010       6.76043987    
 Ni   6.31092978       6.55850983       6.76043987    
 Ni   8.83530045       10.9308395       6.76043987    
 Ni   3.78656006       2.18617010       6.76043987    
 Ni   13.8840399       8.01595020       9.04018974    
 Ni   16.4084091       12.3882904       9.04018974    
 Ni   11.3596697       3.64361000       9.04018974    
 Ni   18.9327793       8.01595020       9.04018974    
 Ni   21.4571495       12.3882904       9.04018974    
 Ni   16.4084091       3.64361000       9.04018974    
 Ni   8.83530045       8.01595020       9.04018974    
 Ni   11.3596697       12.3882904       9.04018974    
 Ni   6.31092978       3.64361000       9.04018974    
 Ni   16.4084091       9.47340012       11.3199396    
 Ni   11.3596697      0.728720009       11.3199396    
 Ni   13.8840399       5.10105991       11.3199396    
 Ni   6.31092978       9.47340012       11.3199396    
 Ni   1.26218998      0.728720009       11.3199396    
 Ni   3.78656006       5.10105991       11.3199396    
 Ni   11.3596697       9.47340012       11.3199396    
 Ni   6.31092978      0.728720009       11.3199396    
 Ni   8.83530045       5.10105991       11.3199396    
 Ni   18.9327793       10.9308395       13.5349903    
 Ni   13.8840399       2.18617010       13.5349903    
 Ni   16.4084091       6.55850983       13.5349903    
 Ni   8.83530045       10.9308395       13.5349903    
 Ni   3.78656006       2.18617010       13.5349903    
 Ni   6.31092978       6.55850983       13.5349903    
 Ni   13.8840399       10.9308395       13.5349903    
 Ni   8.83530045       2.18617010       13.5349903    
 Ni   11.3596697       6.55850983       13.5349903    
 Ni   21.4571495       12.3882904       15.8239803    
 Ni   16.4084091       3.64361000       15.8239803    
 Ni   18.9327793       8.01595020       15.8239803    
 Ni   11.3596697       12.3882904       15.8239803    
 Ni   6.31092978       3.64361000       15.8239803    
 Ni   8.83530045       8.01595020       15.8239803    
 Ni   16.4084091       12.3882904       15.8239803    
 Ni   11.3596697       3.64361000       15.8239803    
 Ni   13.8840399       8.01595020       15.8239803    
 Ni   7.57311010       5.82978010       2.25640011    
 Ni   10.0974798       10.2021198       2.25640011    
 Ni   5.04873991       1.45745003       2.25640011    
 Ni   12.6218500       5.82978010       2.25640011    
 Ni   15.1462202       10.2021198       2.25640011    
 Ni   10.0974798       1.45745003       2.25640011    
 Ni   17.6705894       5.82978010       2.25640011    
 Ni   20.1949596       10.2021198       2.25640011    
 Ni   15.1462202       1.45745003       2.25640011    
 Ni   10.0974798       7.28723001       4.54539013    
 Ni   12.6218500       11.6595697       4.54539013    
 Ni   7.57311010       2.91489005       4.54539013    
 Ni   15.1462202       7.28723001       4.54539013    
 Ni   17.6705894       11.6595697       4.54539013    
 Ni   12.6218500       2.91489005       4.54539013    
 Ni   5.04873991       7.28723001       4.54539013    
 Ni   7.57311010       11.6595697       4.54539013    
 Ni   2.52436996       2.91489005       4.54539013    
 Ni   12.6218500       8.74468040       6.76043987    
 Ni   7.57311010       0.00000000       6.76043987    
 Ni   10.0974798       4.37234020       6.76043987    
 Ni   17.6705894       8.74468040       6.76043987    
 Ni   12.6218500       0.00000000       6.76043987    
 Ni   15.1462202       4.37234020       6.76043987    
 Ni   7.57311010       8.74468040       6.76043987    
 Ni   2.52436996       0.00000000       6.76043987    
 Ni   5.04873991       4.37234020       6.76043987    
 Ni   15.1462202       10.2021198       9.04018974    
 Ni   10.0974798       1.45745003       9.04018974    
 Ni   12.6218500       5.82978010       9.04018974    
 Ni   20.1949596       10.2021198       9.04018974    
 Ni   15.1462202       1.45745003       9.04018974    
 Ni   17.6705894       5.82978010       9.04018974    
 Ni   10.0974798       10.2021198       9.04018974    
 Ni   5.04873991       1.45745003       9.04018974    
 Ni   7.57311010       5.82978010       9.04018974    
 Ni   17.6705894       11.6595697       11.3199396    
 Ni   12.6218500       2.91489005       11.3199396    
 Ni   15.1462202       7.28723001       11.3199396    
 Ni   7.57311010       11.6595697       11.3199396    
 Ni   2.52436996       2.91489005       11.3199396    
 Ni   5.04873991       7.28723001       11.3199396    
 Ni   12.6218500       11.6595697       11.3199396    
 Ni   7.57311010       2.91489005       11.3199396    
 Ni   10.0974798       7.28723001       11.3199396    
 Ni   12.6218500       0.00000000       13.5349903    
 Ni   15.1462202       4.37234020       13.5349903    
 Ni   17.6705894       8.74468040       13.5349903    
 Ni   2.52436996       0.00000000       13.5349903    
 Ni   5.04873991       4.37234020       13.5349903    
 Ni   7.57311010       8.74468040       13.5349903    
 Ni   7.57311010       0.00000000       13.5349903    
 Ni   10.0974798       4.37234020       13.5349903    
 Ni   12.6218500       8.74468040       13.5349903    
 Ni   15.1462202       1.45745003       15.8239803    
 Ni   17.6705894       5.82978010       15.8239803    
 Ni   20.1949596       10.2021198       15.8239803    
 Ni   5.04873991       1.45745003       15.8239803    
 Ni   7.57311010       5.82978010       15.8239803    
 Ni   10.0974798       10.2021198       15.8239803    
 Ni   10.0974798       1.45745003       15.8239803    
 Ni   12.6218500       5.82978010       15.8239803    
 Ni   15.1462202       10.2021198       15.8239803    
 Ni   8.83530045       3.64361000       2.25640011    
 Ni   11.3596697       8.01595020       2.25640011    
 Ni   13.8840399       12.3882904       2.25640011    
 Ni   13.8840399       3.64361000       2.25640011    
 Ni   16.4084091       8.01595020       2.25640011    
 Ni   18.9327793       12.3882904       2.25640011    
 Ni   3.78656006       3.64361000       2.25640011    
 Ni   6.31092978       8.01595020       2.25640011    
 Ni   8.83530045       12.3882904       2.25640011    
 Ni   11.3596697       5.10105991       4.54539013    
 Ni   13.8840399       9.47340012       4.54539013    
 Ni   8.83530045      0.728720009       4.54539013    
 Ni   16.4084091       5.10105991       4.54539013    
 Ni   18.9327793       9.47340012       4.54539013    
 Ni   13.8840399      0.728720009       4.54539013    
 Ni   6.31092978       5.10105991       4.54539013    
 Ni   8.83530045       9.47340012       4.54539013    
 Ni   3.78656006      0.728720009       4.54539013    
 Ni   13.8840399       6.55850983       6.76043987    
 Ni   16.4084091       10.9308395       6.76043987    
 Ni   11.3596697       2.18617010       6.76043987    
 Ni   3.78656006       6.55850983       6.76043987    
 Ni   6.31092978       10.9308395       6.76043987    
 Ni   1.26218998       2.18617010       6.76043987    
 Ni   8.83530045       6.55850983       6.76043987    
 Ni   11.3596697       10.9308395       6.76043987    
 Ni   6.31092978       2.18617010       6.76043987    
 Ni   16.4084091       8.01595020       9.04018974    
 Ni   18.9327793       12.3882904       9.04018974    
 Ni   13.8840399       3.64361000       9.04018974    
 Ni   6.31092978       8.01595020       9.04018974    
 Ni   8.83530045       12.3882904       9.04018974    
 Ni   3.78656006       3.64361000       9.04018974    
 Ni   11.3596697       8.01595020       9.04018974    
 Ni   13.8840399       12.3882904       9.04018974    
 Ni   8.83530045       3.64361000       9.04018974    
 Ni   18.9327793       9.47340012       11.3199396    
 Ni   13.8840399      0.728720009       11.3199396    
 Ni   16.4084091       5.10105991       11.3199396    
 Ni   8.83530045       9.47340012       11.3199396    
 Ni   3.78656006      0.728720009       11.3199396    
 Ni   6.31092978       5.10105991       11.3199396    
 Ni   13.8840399       9.47340012       11.3199396    
 Ni   8.83530045      0.728720009       11.3199396    
 Ni   11.3596697       5.10105991       11.3199396    
 Ni   6.31092978       10.9308395       13.5349903    
 Ni   1.26218998       2.18617010       13.5349903    
 Ni   3.78656006       6.55850983       13.5349903    
 Ni   11.3596697       10.9308395       13.5349903    
 Ni   6.31092978       2.18617010       13.5349903    
 Ni   8.83530045       6.55850983       13.5349903    
 Ni   16.4084091       10.9308395       13.5349903    
 Ni   11.3596697       2.18617010       13.5349903    
 Ni   13.8840399       6.55850983       13.5349903    
 Ni   8.83530045       12.3882904       15.8239803    
 Ni   3.78656006       3.64361000       15.8239803    
 Ni   6.31092978       8.01595020       15.8239803    
 Ni   13.8840399       12.3882904       15.8239803    
 Ni   8.83530045       3.64361000       15.8239803    
 Ni   11.3596697       8.01595020       15.8239803    
 Ni   18.9327793       12.3882904       15.8239803    
 Ni   13.8840399       3.64361000       15.8239803    
 Ni   16.4084091       8.01595020       15.8239803    
 O    0.00000000       0.00000000       17.2239799    
 O   0.946640015       1.63962996       17.2239799    
 O    1.89328003       3.27924991       17.2239799    
 O    2.83992004       4.91887999       17.2239799    
 O    3.78656006       6.55850983       17.2239799    
 O    4.73319006       8.19812965       17.2239799    
 O    5.67983007       9.83775997       17.2239799    
 O    6.62647009       11.4773903       17.2239799    
 O    1.89328003       0.00000000       17.2239799    
 O    2.83992004       1.63962996       17.2239799    
 O    3.78656006       3.27924991       17.2239799    
 O    4.73319006       4.91887999       17.2239799    
 O    5.67983007       6.55850983       17.2239799    
 O    6.62647009       8.19812965       17.2239799    
 O    7.57311010       9.83775997       17.2239799    
 O    8.51974964       11.4773903       17.2239799    
 O    3.78656006       0.00000000       17.2239799    
 O    4.73319006       1.63962996       17.2239799    
 O    5.67983007       3.27924991       17.2239799    
 O    6.62647009       4.91887999       17.2239799    
 O    7.57311010       6.55850983       17.2239799    
 O    8.51974964       8.19812965       17.2239799    
 O    9.46638966       9.83775997       17.2239799    
 O    10.4130297       11.4773903       17.2239799    
 O    5.67983007       0.00000000       17.2239799    
 O    6.62647009       1.63962996       17.2239799    
 O    7.57311010       3.27924991       17.2239799    
 O    8.51974964       4.91887999       17.2239799    
 O    9.46638966       6.55850983       17.2239799    
 O    10.4130297       8.19812965       17.2239799    
 O    11.3596697       9.83775997       17.2239799    
 O    12.3063097       11.4773903       17.2239799    
 O    7.57311010       0.00000000       17.2239799    
 O    8.51974964       1.63962996       17.2239799    
 O    9.46638966       3.27924991       17.2239799    
 O    10.4130297       4.91887999       17.2239799    
 O    11.3596697       6.55850983       17.2239799    
 O    12.3063097       8.19812965       17.2239799    
 O    13.2529402       9.83775997       17.2239799    
 O    14.1995802       11.4773903       17.2239799    
 O    9.46638966       0.00000000       17.2239799    
 O    10.4130297       1.63962996       17.2239799    
 O    11.3596697       3.27924991       17.2239799    
 O    12.3063097       4.91887999       17.2239799    
 O    13.2529402       6.55850983       17.2239799    
 O    14.1995802       8.19812965       17.2239799    
 O    15.1462202       9.83775997       17.2239799    
 O    16.0928593       11.4773903       17.2239799    
 O    11.3596697       0.00000000       17.2239799    
 O    12.3063097       1.63962996       17.2239799    
 O    13.2529402       3.27924991       17.2239799    
 O    14.1995802       4.91887999       17.2239799    
 O    15.1462202       6.55850983       17.2239799    
 O    16.0928593       8.19812965       17.2239799    
 O    17.0394993       9.83775997       17.2239799    
 O    17.9861393       11.4773903       17.2239799    
 O    13.2529402       0.00000000       17.2239799    
 O    14.1995802       1.63962996       17.2239799    
 O    15.1462202       3.27924991       17.2239799    
 O    16.0928593       4.91887999       17.2239799    
 O    17.0394993       6.55850983       17.2239799    
 O    17.9861393       8.19812965       17.2239799    
 O    18.9327793       9.83775997       17.2239799    
 O    19.8794193       11.4773903       17.2239799    
         324
 Energy:  -1385.1603121999999     
 X   0.00000000       0.00000000       0.00000000    
 X   15.1462221       0.00000000       0.00000000    
 X   7.57311106       13.1170130       0.00000000    
 X   0.00000000       0.00000000       36.4000015    
 X   22.7193336       13.1170130       0.00000000    
 X   15.1462221       0.00000000       36.4000015    
 X   7.57311106       13.1170130       36.4000015    
 X   22.7193336       13.1170130       36.4000015    
 Ni   10.0973301       5.82968998       2.27678990    
 Ni   12.6214895       10.2023296       2.27634001    
 Ni   7.57311010       1.45763004       2.27678990    
 Ni   15.1462202       5.82937002       2.27634001    
 Ni   17.6709499       10.2023296       2.27634001    
 Ni   12.6219702       1.45738006       2.27704000    
 Ni   5.04890013       5.82968998       2.27678990    
 Ni   7.57311010       10.2022600       2.27704000    
 Ni   2.52425003       1.45738006       2.27704000    
 Ni   12.6217804       7.28718996       4.54195023    
 Ni   15.1462202       11.6596498       4.54195023    
 Ni   10.0975504       2.91485000       4.54188013    
 Ni   17.6706696       7.28718996       4.54195023    
 Ni   20.1951008       11.6596498       4.54176998    
 Ni   15.1462202       2.91473007       4.54176998    
 Ni   7.57311010       7.28731012       4.54188013    
 Ni   10.0973501       11.6596498       4.54176998    
 Ni   5.04866982       2.91485000       4.54188013    
 Ni   15.1462202       8.74468040       6.76237011    
 Ni   10.0971498      -1.10000001E-04   6.76205015    
 Ni   12.6217804       4.37268019       6.76205015    
 Ni   5.04848003       8.74444962       6.76205015    
 Ni   0.00000000      -0.00000000       6.76192999    
 Ni   2.52444005       4.37268019       6.76205015    
 Ni   10.0977402       8.74444962       6.76205015    
 Ni   5.04906988      -1.10000001E-04   6.76205015    
 Ni   7.57311010       4.37234020       6.76213980    
 Ni   17.6704292       10.2020302       9.03981972    
 Ni   12.6218004       1.45747995       9.03985977    
 Ni   15.1462202       5.82996988       9.03981972    
 Ni   7.57311010       10.2020597       9.03985977    
 Ni   2.52443004       1.45747995       9.03985977    
 Ni   5.04851007       5.82991982       9.03991032    
 Ni   12.6220102       10.2020302       9.03981972    
 Ni   7.57311010       1.45718002       9.03991032    
 Ni   10.0977097       5.82991982       9.03991032    
 Ni   20.1947803       11.6594601       11.3180304    
 Ni   15.1462202       2.91510010       11.3180304    
 Ni   17.6707802       7.28711987       11.3179302    
 Ni   10.0976601       11.6594601       11.3180304    
 Ni   5.04816008       2.91456008       11.3182297    
 Ni   7.57311010       7.28789997       11.3182297    
 Ni   15.1462202       11.6597900       11.3179302    
 Ni   10.0980597       2.91456008       11.3182297    
 Ni   12.6216602       7.28711987       11.3179302    
 Ni   0.00000000      -0.00000000       13.5351696    
 Ni   2.52461004       4.37310982       13.5361500    
 Ni   5.04819012       8.74407959       13.5361500    
 Ni   5.04953003      -1.80000003E-04   13.5361500    
 Ni   7.57311010       4.37234020       13.5372200    
 Ni   10.0980301       8.74407959       13.5361500    
 Ni   10.0966902      -1.80000003E-04   13.5361500    
 Ni   12.6216097       4.37310982       13.5361500    
 Ni   15.1462202       8.74468040       13.5318003    
 Ni   2.48130989       1.43259001       15.5150995    
 Ni   5.04292011       5.83314991       15.7111197    
 Ni   7.57311010       10.2518396       15.5150995    
 Ni   7.57311010       1.45071995       15.7111197    
 Ni   10.1033001       5.83314991       15.7111197    
 Ni   12.5875397       10.2219296       15.6758404    
 Ni   12.6649103       1.43259001       15.5150995    
 Ni   15.1462202       5.79016018       15.6758404    
 Ni   17.7049103       10.2219296       15.6758404    
 Ni   6.31127977       3.64382005       2.27634001    
 Ni   8.83541012       8.01587963       2.27704000    
 Ni   11.3596697       12.3878803       2.27634001    
 Ni   11.3596697       3.64374995       2.27704000    
 Ni   13.8839197       8.01587963       2.27704000    
 Ni   16.4085598       12.3881998       2.27678990    
 Ni   16.4080505       3.64382005       2.27634001    
 Ni   18.9327793       8.01613045       2.27678990    
 Ni   21.4569893       12.3881998       2.27678990    
 Ni   8.83543015       5.10114002       4.54176998    
 Ni   11.3596697       9.47323990       4.54176998    
 Ni   6.31099987      0.728680015       4.54195023    
 Ni   13.8838997       5.10114002       4.54176998    
 Ni   16.4083405       9.47336006       4.54188013    
 Ni   11.3596697      0.728799999       4.54188013    
 Ni   3.78656006       5.10115004       4.54195023    
 Ni   6.31099987       9.47336006       4.54188013    
 Ni   1.26210999      0.728680015       4.54195023    
 Ni   11.3596697       6.55850983       6.76192999    
 Ni   13.8841105       10.9311800       6.76205015    
 Ni   8.83504009       2.18594003       6.76205015    
 Ni   16.4087391       6.55840015       6.76205015    
 Ni   18.9327793       10.9308395       6.76213980    
 Ni   13.8843002       2.18594003       6.76205015    
 Ni   6.31059980       6.55840015       6.76205015    
 Ni   8.83522987       10.9311800       6.76205015    
 Ni   3.78656006       2.18617010       6.76237011    
 Ni   13.8840904       8.01597977       9.03985977    
 Ni   16.4081802       12.3884201       9.03991032    
 Ni   11.3596697       3.64354992       9.03985977    
 Ni   18.9327793       8.01568985       9.03991032    
 Ni   21.4573803       12.3884201       9.03991032    
 Ni   16.4085693       3.64352012       9.03981972    
 Ni   8.83524036       8.01597977       9.03985977    
 Ni   11.3596697       12.3884802       9.03981972    
 Ni   6.31076002       3.64352012       9.03981972    
 Ni   16.4078293       9.47305965       11.3182297    
 Ni   11.3596697      0.729390025       11.3182297    
 Ni   13.8842201       5.10094976       11.3180304    
 Ni   6.31151009       9.47305965       11.3182297    
 Ni   1.26198995      0.728609979       11.3179302    
 Ni   3.78656006       5.10128021       11.3179302    
 Ni   11.3596697       9.47360992       11.3180304    
 Ni   6.31112003      0.728609979       11.3179302    
 Ni   8.83510971       5.10094976       11.3180304    
 Ni   18.9327793       10.9308395       13.5372200    
 Ni   13.8845901       2.18557000       13.5361500    
 Ni   16.4092007       6.55833006       13.5361500    
 Ni   8.83504963       10.9316196       13.5361500    
 Ni   3.78656006       2.18617010       13.5318003    
 Ni   6.31013012       6.55833006       13.5361500    
 Ni   13.8842802       10.9316196       13.5361500    
 Ni   8.83475018       2.18557000       13.5361500    
 Ni   11.3596697       6.55850983       13.5351696    
 Ni   21.4629707       12.3916502       15.7111197    
 Ni   16.3740902       3.66342998       15.6758404    
 Ni   18.9327793       8.00922966       15.7111197    
 Ni   11.3596697       12.3486700       15.6758404    
 Ni   6.34524012       3.66342998       15.6758404    
 Ni   8.87835979       7.99108982       15.5150995    
 Ni   16.4025803       12.3916502       15.7111197    
 Ni   11.3596697       3.69334006       15.5150995    
 Ni   13.8409796       7.99108982       15.5150995    
 Ni   7.57311010       5.82937002       2.27634001    
 Ni   10.0978403       10.2023296       2.27634001    
 Ni   5.04886007       1.45738006       2.27704000    
 Ni   12.6220102       5.82968998       2.27678990    
 Ni   15.1462202       10.2022600       2.27704000    
 Ni   10.0973597       1.45738006       2.27704000    
 Ni   17.6704407       5.82968998       2.27678990    
 Ni   20.1945992       10.2023296       2.27634001    
 Ni   15.1462202       1.45763004       2.27678990    
 Ni   10.0975599       7.28718996       4.54195023    
 Ni   12.6219902       11.6596498       4.54176998    
 Ni   7.57311010       2.91473007       4.54176998    
 Ni   15.1462202       7.28731012       4.54188013    
 Ni   17.6704597       11.6596498       4.54176998    
 Ni   12.6217804       2.91485000       4.54188013    
 Ni   5.04866982       7.28718996       4.54195023    
 Ni   7.57311010       11.6596498       4.54195023    
 Ni   2.52444005       2.91485000       4.54188013    
 Ni   12.6215897       8.74444962       6.76205015    
 Ni   7.57311010      -0.00000000       6.76192999    
 Ni   10.0975504       4.37268019       6.76205015    
 Ni   17.6708508       8.74444962       6.76205015    
 Ni   12.6221800      -1.10000001E-04   6.76205015    
 Ni   15.1462202       4.37234020       6.76213980    
 Ni   7.57311010       8.74468040       6.76237011    
 Ni   2.52403998      -1.10000001E-04   6.76205015    
 Ni   5.04866982       4.37268019       6.76205015    
 Ni   15.1462202       10.2020597       9.03985977    
 Ni   10.0975399       1.45747995       9.03985977    
 Ni   12.6216202       5.82991982       9.03991032    
 Ni   20.1951199       10.2020302       9.03981972    
 Ni   15.1462202       1.45718002       9.03991032    
 Ni   17.6708202       5.82991982       9.03991032    
 Ni   10.0973196       10.2020302       9.03981972    
 Ni   5.04867983       1.45747995       9.03985977    
 Ni   7.57311010       5.82996988       9.03981972    
 Ni   17.6707802       11.6594601       11.3180304    
 Ni   12.6212702       2.91456008       11.3182297    
 Ni   15.1462202       7.28789997       11.3182297    
 Ni   7.57311010       11.6597900       11.3179302    
 Ni   2.52495003       2.91456008       11.3182297    
 Ni   5.04855013       7.28711987       11.3179302    
 Ni   12.6216698       11.6594601       11.3180304    
 Ni   7.57311010       2.91510010       11.3180304    
 Ni   10.0976696       7.28711987       11.3179302    
 Ni   12.6226397      -1.80000003E-04   13.5361500    
 Ni   15.1462202       4.37234020       13.5372200    
 Ni   17.6711407       8.74407959       13.5361500    
 Ni   2.52358007      -1.80000003E-04   13.5361500    
 Ni   5.04850006       4.37310982       13.5361500    
 Ni   7.57311010       8.74468040       13.5318003    
 Ni   7.57311010      -0.00000000       13.5351696    
 Ni   10.0977201       4.37310982       13.5361500    
 Ni   12.6212997       8.74407959       13.5361500    
 Ni   15.1462202       1.45071995       15.7111197    
 Ni   17.6764107       5.83314991       15.7111197    
 Ni   20.1606503       10.2219296       15.6758404    
 Ni   5.09180021       1.43259001       15.5150995    
 Ni   7.57311010       5.79016018       15.6758404    
 Ni   10.1317997       10.2219296       15.6758404    
 Ni   10.0544205       1.43259001       15.5150995    
 Ni   12.6160297       5.83314991       15.7111197    
 Ni   15.1462202       10.2518396       15.5150995    
 Ni   8.83493996       3.64382005       2.27634001    
 Ni   11.3596697       8.01613045       2.27678990    
 Ni   13.8838797       12.3881998       2.27678990    
 Ni   13.8844004       3.64382005       2.27634001    
 Ni   16.4085293       8.01587963       2.27704000    
 Ni   18.9327793       12.3878803       2.27634001    
 Ni   3.78656006       3.64374995       2.27704000    
 Ni   6.31081009       8.01587963       2.27704000    
 Ni   8.83545017       12.3881998       2.27678990    
 Ni   11.3596697       5.10115004       4.54195023    
 Ni   13.8841105       9.47336006       4.54188013    
 Ni   8.83522034      0.728680015       4.54195023    
 Ni   16.4085407       5.10114002       4.54176998    
 Ni   18.9327793       9.47323990       4.54176998    
 Ni   13.8841105      0.728680015       4.54195023    
 Ni   6.31079006       5.10114002       4.54176998    
 Ni   8.83522987       9.47336006       4.54188013    
 Ni   3.78656006      0.728799999       4.54188013    
 Ni   13.8837099       6.55840015       6.76205015    
 Ni   16.4083405       10.9311800       6.76205015    
 Ni   11.3596697       2.18617010       6.76237011    
 Ni   3.78656006       6.55850983       6.76192999    
 Ni   6.31098986       10.9311800       6.76205015    