<?xml version="1.0" encoding="ISO-8859-1"?>
<modeling>
 <generator>
  <i name="program" type="string">vasp </i>
  <i name="version" type="string">6.2.1  </i>
  <i name="subversion" type="string">16May21 (build May 12 2022 08:28:04) complex                          parallel </i>
  <i name="platform" type="string">LinuxPGI </i>
  <i name="date" type="string">2022 07 22 </i>
  <i name="time" type="string">12:42:37 </i>
 </generator>
 <incar>
  <i type="string" name="SYSTEM">NiAl</i>
  <i type="int" name="ISTART">     0</i>
  <i type="int" name="NELM">   120</i>
  <i type="int" name="NELMIN">     6</i>
  <i type="int" name="IBRION">     2</i>
  <i name="EDIFF">      0.00000500</i>
  <i type="int" name="NSW">    40</i>
  <i type="int" name="ISIF">     0</i>
  <i name="ENCUT">    360.00000000</i>
  <i name="POTIM">      0.20000000</i>
  <i type="string" name="LREAL">Auto</i>
  <i type="logical" name="LPLANE"> T  </i>
  <i type="int" name="ISMEAR">     0</i>
  <i name="SIGMA">      0.05000000</i>
  <i type="logical" name="LWAVE"> F  </i>
  <i type="logical" name="LCHARG"> F  </i>
  <i type="int" name="IVDW">    12</i>
 </incar>
 <primitive_cell>
  <structure name="primitive_cell" >
   <crystal>
    <varray name="basis" >
     <v>      -3.78655544      -6.55850641       0.00000000 </v>
     <v>       7.57311088       0.00000000       0.00000000 </v>
     <v>       0.00000000       0.00000000      36.40000000 </v>
    </varray>
    <i name="volume">   1807.92598260 </i>
    <varray name="rec_basis" >
     <v>       0.00000000      -0.15247374       0.00000000 </v>
     <v>       0.13204613      -0.07623687       0.00000000 </v>
     <v>      -0.00000000       0.00000000       0.02747253 </v>
    </varray>
   </crystal>
   <varray name="positions" >
    <v>       0.11111111       0.88888889       0.06198901 </v>
    <v>       0.44444444       0.88888889       0.06198901 </v>
    <v>       0.77777778       0.88888889       0.06198901 </v>
    <v>       0.11111111       0.55555556       0.06198901 </v>
    <v>       0.44444444       0.55555556       0.06198901 </v>
    <v>       0.77777778       0.55555556       0.06198901 </v>
    <v>       0.11111111       0.22222222       0.06198901 </v>
    <v>       0.44444444       0.22222222       0.06198901 </v>
    <v>       0.77777778       0.22222222       0.06198901 </v>
    <v>       0.88888889       0.11111111       0.12487340 </v>
    <v>       0.22222222       0.11111111       0.12487340 </v>
    <v>       0.55555556       0.11111111       0.12487340 </v>
    <v>       0.88888889       0.77777778       0.12487340 </v>
    <v>       0.22222222       0.77777778       0.12487340 </v>
    <v>       0.55555556       0.77777778       0.12487340 </v>
    <v>       0.88888889       0.44444444       0.12487340 </v>
    <v>       0.22222222       0.44444444       0.12487340 </v>
    <v>       0.55555556       0.44444444       0.12487340 </v>
    <v>       0.66666667       0.33333333       0.18572635 </v>
    <v>      -0.00000000       0.33333333       0.18572635 </v>
    <v>       0.33333333       0.33333333       0.18572635 </v>
    <v>       0.66666667       0.00000000       0.18572635 </v>
    <v>      -0.00000000       0.00000000       0.18572635 </v>
    <v>       0.33333333       0.00000000       0.18572635 </v>
    <v>       0.66666667       0.66666667       0.18572635 </v>
    <v>      -0.00000000       0.66666667       0.18572635 </v>
    <v>       0.33333333       0.66666667       0.18572635 </v>
    <v>       0.44444444       0.55555556       0.24835684 </v>
    <v>       0.77777778       0.55555556       0.24835684 </v>
    <v>       0.11111111       0.55555556       0.24835684 </v>
    <v>       0.44444444       0.22222222       0.24835684 </v>
    <v>       0.77777778       0.22222222       0.24835684 </v>
    <v>       0.11111111       0.22222222       0.24835684 </v>
    <v>       0.44444444       0.88888889       0.24835684 </v>
    <v>       0.77777778       0.88888889       0.24835684 </v>
    <v>       0.11111111       0.88888889       0.24835684 </v>
    <v>       0.22222222       0.77777778       0.31098733 </v>
    <v>       0.55555556       0.77777778       0.31098733 </v>
    <v>       0.88888889       0.77777778       0.31098733 </v>
    <v>       0.22222222       0.44444444       0.31098733 </v>
    <v>       0.55555556       0.44444444       0.31098733 </v>
    <v>       0.88888889       0.44444444       0.31098733 </v>
    <v>       0.22222222       0.11111111       0.31098733 </v>
    <v>       0.55555556       0.11111111       0.31098733 </v>
    <v>       0.88888889       0.11111111       0.31098733 </v>
    <v>      -0.00000000       0.00000000       0.37184028 </v>
    <v>       0.33333333       0.00000000       0.37184028 </v>
    <v>       0.66666667       0.00000000       0.37184028 </v>
    <v>      -0.00000000       0.66666667       0.37184028 </v>
    <v>       0.33333333       0.66666667       0.37184028 </v>
    <v>       0.66666667       0.66666667       0.37184028 </v>
    <v>      -0.00000000       0.33333333       0.37184028 </v>
    <v>       0.33333333       0.33333333       0.37184028 </v>
    <v>       0.66666667       0.33333333       0.37184028 </v>
    <v>       0.77777778       0.22222222       0.43472467 </v>
    <v>       0.11111111       0.22222222       0.43472467 </v>
    <v>       0.44444444       0.22222222       0.43472467 </v>
    <v>       0.77777778       0.88888889       0.43472467 </v>
    <v>       0.11111111       0.88888889       0.43472467 </v>
    <v>       0.44444444       0.88888889       0.43472467 </v>
    <v>       0.77777778       0.55555556       0.43472467 </v>
    <v>       0.11111111       0.55555556       0.43472467 </v>
    <v>       0.44444444       0.55555556       0.43472467 </v>
    <v>      -0.00000000       0.00000000       0.47318621 </v>
    <v>       0.75000000       0.00000000       0.47318621 </v>
    <v>       0.50000000       0.00000000       0.47318621 </v>
    <v>       0.25000000       0.00000000       0.47318621 </v>
    <v>      -0.00000000       0.25000000       0.47318621 </v>
    <v>       0.75000000       0.25000000       0.47318621 </v>
    <v>       0.50000000       0.25000000       0.47318621 </v>
    <v>       0.25000000       0.25000000       0.47318621 </v>
    <v>      -0.00000000       0.50000000       0.47318621 </v>
    <v>       0.75000000       0.50000000       0.47318621 </v>
    <v>       0.50000000       0.50000000       0.47318621 </v>
    <v>       0.25000000       0.50000000       0.47318621 </v>
    <v>      -0.00000000       0.75000000       0.47318621 </v>
    <v>       0.75000000       0.75000000       0.47318621 </v>
    <v>       0.50000000       0.75000000       0.47318621 </v>
    <v>       0.25000000       0.75000000       0.47318621 </v>
   </varray>
  </structure>
  <varray name="primitive_index" >
   <v type="int" >        1 </v>
   <v type="int" >      190 </v>
   <v type="int" >      191 </v>
   <v type="int" >      127 </v>
   <v type="int" >       64 </v>
   <v type="int" >       65 </v>
   <v type="int" >      130 </v>
   <v type="int" >       67 </v>
   <v type="int" >       68 </v>
   <v type="int" >       10 </v>
   <v type="int" >      199 </v>
   <v type="int" >       12 </v>
   <v type="int" >      136 </v>
   <v type="int" >       73 </v>
   <v type="int" >      138 </v>
   <v type="int" >       16 </v>
   <v type="int" >      205 </v>
   <v type="int" >       18 </v>
   <v type="int" >       19 </v>
   <v type="int" >      208 </v>
   <v type="int" >       21 </v>
   <v type="int" >      145 </v>
   <v type="int" >       82 </v>
   <v type="int" >      147 </v>
   <v type="int" >       25 </v>
   <v type="int" >      214 </v>
   <v type="int" >       27 </v>
   <v type="int" >       99 </v>
   <v type="int" >       97 </v>
   <v type="int" >      162 </v>
   <v type="int" >       93 </v>
   <v type="int" >       91 </v>
   <v type="int" >      156 </v>
   <v type="int" >      225 </v>
   <v type="int" >      223 </v>
   <v type="int" >       36 </v>
   <v type="int" >      108 </v>
   <v type="int" >      170 </v>
   <v type="int" >      171 </v>
   <v type="int" >      231 </v>
   <v type="int" >       41 </v>
   <v type="int" >       42 </v>
   <v type="int" >      234 </v>
   <v type="int" >       44 </v>
   <v type="int" >       45 </v>
   <v type="int" >      117 </v>
   <v type="int" >      179 </v>
   <v type="int" >      180 </v>
   <v type="int" >      240 </v>
   <v type="int" >       50 </v>
   <v type="int" >       51 </v>
   <v type="int" >      243 </v>
   <v type="int" >       53 </v>
   <v type="int" >       54 </v>
   <v type="int" >      126 </v>
   <v type="int" >      188 </v>
   <v type="int" >      125 </v>
   <v type="int" >      249 </v>
   <v type="int" >       59 </v>
   <v type="int" >      248 </v>
   <v type="int" >      123 </v>
   <v type="int" >      185 </v>
   <v type="int" >      122 </v>
   <v type="int" >      289 </v>
   <v type="int" >      290 </v>
   <v type="int" >      287 </v>
   <v type="int" >      288 </v>
   <v type="int" >      297 </v>
   <v type="int" >      298 </v>
   <v type="int" >      295 </v>
   <v type="int" >      296 </v>
   <v type="int" >      273 </v>
   <v type="int" >      274 </v>
   <v type="int" >      271 </v>
   <v type="int" >      272 </v>
   <v type="int" >      281 </v>
   <v type="int" >      282 </v>
   <v type="int" >      279 </v>
   <v type="int" >      280 </v>
  </varray>
 </primitive_cell>
 <kpoints>
  <generation param="Gamma">
   <v type="int" name="divisions">       2        2        1 </v>
   <v name="usershift">      0.00000000       0.00000000       0.00000000 </v>
   <v name="genvec1">      0.50000000      -0.00000000       0.00000000 </v>
   <v name="genvec2">      0.00000000       0.50000000       0.00000000 </v>
   <v name="genvec3">      0.00000000       0.00000000       1.00000000 </v>
   <v name="shift">      0.00000000       0.00000000       0.00000000 </v>
  </generation>
  <varray name="kpointlist" >
   <v>       0.00000000       0.00000000       0.00000000 </v>
   <v>       0.50000000       0.00000000       0.00000000 </v>
  </varray>
  <varray name="weights" >
   <v>       0.25000000 </v>
   <v>       0.75000000 </v>
  </varray>
 </kpoints>
 <parameters>
  <separator name="general" >
   <i type="string" name="SYSTEM">NiAl</i>
   <i type="logical" name="LCOMPAT"> F  </i>
  </separator>
  <separator name="electronic" >
   <i type="string" name="PREC">normal</i>
   <i name="ENMAX">    360.00000000</i>
   <i name="ENAUG">   1139.60900000</i>
   <i name="EDIFF">      0.00000500</i>
   <i type="int" name="IALGO">    38</i>
   <i type="int" name="IWAVPR">    11</i>
   <i type="int" name="NBANDS">  1742</i>
   <i type="int" name="NBANDSLOW">    -1</i>
   <i type="int" name="NBANDSHIGH">    -1</i>
   <i name="NELECT">   2904.00000000</i>
   <i type="int" name="TURBO">     0</i>
   <i type="int" name="IRESTART">     0</i>
   <i type="int" name="NREBOOT">     0</i>
   <i type="int" name="NMIN">     0</i>
   <i name="EREF">      0.00000000</i>
   <separator name="electronic smearing" >
    <i type="int" name="ISMEAR">     0</i>
    <i name="SIGMA">      0.05000000</i>
    <i name="KSPACING">      0.50000000</i>
    <i type="logical" name="KGAMMA"> T  </i>
    <i type="logical" name="KBLOWUP"> T  </i>
   </separator>
   <separator name="electronic projectors" >
    <i type="logical" name="LREAL"> T  </i>
    <v name="ROPT">     -0.00050000     -0.00050000</v>
    <i type="int" name="LMAXPAW">  -100</i>
    <i type="int" name="LMAXMIX">     2</i>
    <i type="logical" name="NLSPLINE"> F  </i>
   </separator>
   <separator name="electronic startup" >
    <i type="int" name="ISTART">     0</i>
    <i type="int" name="ICHARG">     2</i>
    <i type="int" name="INIWAV">     1</i>
   </separator>
   <separator name="electronic spin" >
    <i type="int" name="ISPIN">     1</i>
    <i type="logical" name="LNONCOLLINEAR"> F  </i>
    <v name="MAGMOM">      1.00000000      1.00000000      1.00000000      1.00000000      1.00000000      1.00000000      1.00000000      1.00000000      1.00000000      1.00000000      1.00000000      1.00000000      1.00000000      1.00000000      1.00000000      1.00000000      1.00000000      1.00000000      1.00000000      1.00000000
      1.00000000      1.00000000      1.00000000      1.00000000      1.00000000      1.00000000      1.00000000      1.00000000      1.00000000      1.00000000      1.00000000      1.00000000      1.00000000      1.00000000      1.00000000      1.00000000      1.00000000      1.00000000      1.00000000      1.00000000
      1.00000000      1.00000000      1.00000000      1.00000000      1.00000000      1.00000000      1.00000000      1.00000000      1.00000000      1.00000000      1.00000000      1.00000000      1.00000000      1.00000000      1.00000000      1.00000000      1.00000000      1.00000000      1.00000000      1.00000000
      1.00000000      1.00000000      1.00000000      1.00000000      1.00000000      1.00000000      1.00000000      1.00000000      1.00000000      1.00000000      1.00000000      1.00000000      1.00000000      1.00000000      1.00000000      1.00000000      1.00000000      1.00000000      1.00000000      1.00000000
      1.00000000      1.00000000      1.00000000      1.00000000      1.00000000      1.00000000      1.00000000      1.00000000      1.00000000      1.00000000      1.00000000      1.00000000      1.00000000      1.00000000      1.00000000      1.00000000      1.00000000      1.00000000      1.00000000      1.00000000
      1.00000000      1.00000000      1.00000000      1.00000000      1.00000000      1.00000000      1.00000000      1.00000000      1.00000000      1.00000000      1.00000000      1.00000000      1.00000000      1.00000000      1.00000000      1.00000000      1.00000000      1.00000000      1.00000000      1.00000000
      1.00000000      1.00000000      1.00000000      1.00000000      1.00000000      1.00000000      1.00000000      1.00000000      1.00000000      1.00000000      1.00000000      1.00000000      1.00000000      1.00000000      1.00000000      1.00000000      1.00000000      1.00000000      1.00000000      1.00000000
      1.00000000      1.00000000      1.00000000      1.00000000      1.00000000      1.00000000      1.00000000      1.00000000      1.00000000      1.00000000      1.00000000      1.00000000      1.00000000      1.00000000      1.00000000      1.00000000      1.00000000      1.00000000      1.00000000      1.00000000
      1.00000000      1.00000000      1.00000000      1.00000000      1.00000000      1.00000000      1.00000000      1.00000000      1.00000000      1.00000000      1.00000000      1.00000000      1.00000000      1.00000000      1.00000000      1.00000000      1.00000000      1.00000000      1.00000000      1.00000000
      1.00000000      1.00000000      1.00000000      1.00000000      1.00000000      1.00000000      1.00000000      1.00000000      1.00000000      1.00000000      1.00000000      1.00000000      1.00000000      1.00000000      1.00000000      1.00000000      1.00000000      1.00000000      1.00000000      1.00000000
      1.00000000      1.00000000      1.00000000      1.00000000      1.00000000      1.00000000      1.00000000      1.00000000      1.00000000      1.00000000      1.00000000      1.00000000      1.00000000      1.00000000      1.00000000      1.00000000      1.00000000      1.00000000      1.00000000      1.00000000
      1.00000000      1.00000000      1.00000000      1.00000000      1.00000000      1.00000000      1.00000000      1.00000000      1.00000000      1.00000000      1.00000000      1.00000000      1.00000000      1.00000000      1.00000000      1.00000000      1.00000000      1.00000000      1.00000000      1.00000000
      1.00000000      1.00000000      1.00000000      1.00000000      1.00000000      1.00000000      1.00000000      1.00000000      1.00000000      1.00000000      1.00000000      1.00000000      1.00000000      1.00000000      1.00000000      1.00000000      1.00000000      1.00000000      1.00000000      1.00000000
      1.00000000      1.00000000      1.00000000      1.00000000      1.00000000      1.00000000      1.00000000      1.00000000      1.00000000      1.00000000      1.00000000      1.00000000      1.00000000      1.00000000      1.00000000      1.00000000      1.00000000      1.00000000      1.00000000      1.00000000
      1.00000000      1.00000000      1.00000000      1.00000000      1.00000000      1.00000000      1.00000000      1.00000000      1.00000000      1.00000000      1.00000000      1.00000000      1.00000000      1.00000000      1.00000000      1.00000000      1.00000000      1.00000000      1.00000000      1.00000000
      1.00000000      1.00000000      1.00000000      1.00000000      1.00000000      1.00000000      1.00000000      1.00000000      1.00000000      1.00000000      1.00000000      1.00000000      1.00000000      1.00000000      1.00000000      1.00000000</v>
    <i name="NUPDOWN">     -1.00000000</i>
    <i type="logical" name="LSORBIT"> F  </i>
    <v name="SAXIS">      0.00000000      0.00000000      1.00000000</v>
    <i type="logical" name="LSPIRAL"> F  </i>
    <v name="QSPIRAL">      0.00000000      0.00000000      0.00000000</v>
    <i type="logical" name="LZEROZ"> F  </i>
   </separator>
   <separator name="electronic exchange-correlation" >
    <i type="logical" name="LASPH"> F  </i>
    <i type="logical" name="LMETAGGA"> F  </i>
   </separator>
   <separator name="electronic convergence" >
    <i type="int" name="NELM">   120</i>
    <i type="int" name="NELMDL">    -5</i>
    <i type="int" name="NELMIN">     6</i>
    <i name="ENINI">    360.00000000</i>
    <separator name="electronic convergence detail" >
     <i type="logical" name="LDIAG"> T  </i>
     <i type="logical" name="LSUBROT"> F  </i>
     <i name="WEIMIN">      0.00100000</i>
     <i name="EBREAK">      0.00000000</i>
     <i name="DEPER">      0.30000000</i>
     <i type="int" name="NRMM">     4</i>
     <i name="TIME">      0.40000000</i>
    </separator>
   </separator>
   <separator name="electronic mixer" >
    <i name="AMIX">      0.40000000</i>
    <i name="BMIX">      1.00000000</i>
    <i name="AMIN">      0.10000000</i>
    <i name="AMIX_MAG">      1.60000000</i>
    <i name="BMIX_MAG">      1.00000000</i>
    <separator name="electronic mixer details" >
     <i type="int" name="IMIX">     4</i>
     <i type="logical" name="MIXFIRST"> F  </i>
     <i type="int" name="MAXMIX">   -45</i>
     <i name="WC">    100.00000000</i>
     <i type="int" name="INIMIX">     1</i>
     <i type="int" name="MIXPRE">     1</i>
     <i type="int" name="MREMOVE">     5</i>
    </separator>
   </separator>
   <separator name="electronic dipolcorrection" >
    <i type="logical" name="LDIPOL"> F  </i>
    <i type="logical" name="LMONO"> F  </i>
    <i type="int" name="IDIPOL">     0</i>
    <i name="EPSILON">      1.00000000</i>
    <v name="DIPOL">   -100.00000000   -100.00000000   -100.00000000</v>
    <i name="EFIELD">      0.00000000</i>
   </separator>
  </separator>
  <separator name="grids" >
   <i type="int" name="NGX">    70</i>
   <i type="int" name="NGY">    70</i>
   <i type="int" name="NGZ">   180</i>
   <i type="int" name="NGXF">   140</i>
   <i type="int" name="NGYF">   140</i>
   <i type="int" name="NGZF">   360</i>
   <i type="logical" name="ADDGRID"> F  </i>
  </separator>
  <separator name="ionic" >
   <i type="int" name="NSW">    40</i>
   <i type="int" name="IBRION">     2</i>
   <i type="int" name="MDALGO">     0</i>
   <i type="int" name="ISIF">     0</i>
   <i name="PSTRESS">      0.00000000</i>
   <i name="EDIFFG">      0.00005000</i>
   <i type="int" name="NFREE">     1</i>
   <i name="POTIM">      0.20000000</i>
   <i name="SMASS">     -3.00000000</i>
   <i name="SCALEE">      1.00000000</i>
  </separator>
  <separator name="ionic md" >
   <i name="TEBEG">      0.00010000</i>
   <i name="TEEND">      0.00010000</i>
   <i type="int" name="NBLOCK">     1</i>
   <i type="int" name="KBLOCK">    40</i>
   <i type="int" name="NPACO">   256</i>
   <i name="APACO">     16.00000000</i>
  </separator>
  <separator name="symmetry" >
   <i type="int" name="ISYM">     2</i>
   <i name="SYMPREC">      0.00001000</i>
  </separator>
  <separator name="dos" >
   <i type="int" name="LORBIT">     0</i>
   <v name="RWIGS">     -1.00000000     -1.00000000</v>
   <i type="int" name="NEDOS">   301</i>
   <i name="EMIN">     10.00000000</i>
   <i name="EMAX">    -10.00000000</i>
   <i name="EFERMI">      0.00000000</i>
  </separator>
  <separator name="writing" >
   <i type="int" name="NWRITE">     2</i>
   <i type="logical" name="LWAVE"> F  </i>
   <i type="logical" name="LDOWNSAMPLE"> F  </i>
   <i type="logical" name="LCHARG"> F  </i>
   <i type="logical" name="LPARD"> F  </i>
   <i type="logical" name="LVTOT"> F  </i>
   <i type="logical" name="LVHAR"> F  </i>
   <i type="logical" name="LELF"> F  </i>
   <i type="logical" name="LOPTICS"> F  </i>
   <v name="STM">      0.00000000      0.00000000      0.00000000      0.00000000      0.00000000      0.00000000      0.00000000</v>
  </separator>
  <separator name="performance" >
   <i type="int" name="NPAR">     1</i>
   <i type="int" name="NSIM">     4</i>
   <i type="int" name="NBLK">    -1</i>
   <i type="logical" name="LPLANE"> T  </i>
   <i type="logical" name="LSCALAPACK"> T  </i>
   <i type="logical" name="LSCAAWARE"> F  </i>
   <i type="logical" name="LSCALU"> F  </i>
   <i type="logical" name="LASYNC"> F  </i>
   <i type="logical" name="LORBITALREAL"> F  </i>
  </separator>
  <separator name="miscellaneous" >
   <i type="int" name="IDIOT">     3</i>
   <i type="int" name="PHON_NSTRUCT">    -1</i>
   <i type="logical" name="LMUSIC"> F  </i>
   <v name="POMASS">     58.69000000     16.00000000</v>
   <v name="DARWINR">      0.00000000      0.00000000</v>
   <v name="DARWINV">      1.00000000      1.00000000</v>
   <i type="logical" name="LCORR"> T  </i>
  </separator>
  <i type="logical" name="GGA_COMPAT"> T  </i>
  <i type="logical" name="LBERRY"> F  </i>
  <i type="int" name="ICORELEVEL">     0</i>
  <i type="logical" name="LDAU"> F  </i>
  <i type="int" name="I_CONSTRAINED_M">     0</i>
  <separator name="electronic exchange-correlation" >
   <i type="string" name="GGA">--</i>
   <i type="int" name="VOSKOWN">     0</i>
   <i type="logical" name="LHFCALC"> F  </i>
   <i type="string" name="PRECFOCK"></i>
   <i type="logical" name="LSYMGRAD"> F  </i>
   <i type="logical" name="LHFONE"> F  </i>
   <i type="logical" name="LRHFCALC"> F  </i>
   <i type="logical" name="LTHOMAS"> F  </i>
   <i type="logical" name="LMODELHF"> F  </i>
   <i type="logical" name="LFOCKACE"> F  </i>
   <i name="ENCUT4O">     -1.00000000</i>
   <i type="int" name="EXXOEP">     0</i>
   <i type="int" name="FOURORBIT">     0</i>
   <i name="AEXX">      0.00000000</i>
   <i name="HFALPHA">      0.00000000</i>
   <i name="MCALPHA">      0.00000000</i>
   <i name="ALDAX">      1.00000000</i>
   <i name="AGGAX">      1.00000000</i>
   <i name="ALDAC">      1.00000000</i>
   <i name="AGGAC">      1.00000000</i>
   <i type="int" name="NKREDX">     1</i>
   <i type="int" name="NKREDY">     1</i>
   <i type="int" name="NKREDZ">     1</i>
   <i type="logical" name="SHIFTRED"> F  </i>
   <i type="logical" name="ODDONLY"> F  </i>
   <i type="logical" name="EVENONLY"> F  </i>
   <i type="int" name="LMAXFOCK">     0</i>
   <i type="int" name="NMAXFOCKAE">     0</i>
   <i type="logical" name="LFOCKAEDFT"> F  </i>
   <i name="HFSCREEN">      0.00000000</i>
   <i name="HFSCREENC">      0.00000000</i>
   <i type="int" name="NBANDSGWLOW">     0</i>
  </separator>
  <separator name="vdW DFT" >
   <i type="logical" name="LUSE_VDW"> F  </i>
   <i name="Zab_VDW">     -0.84910000</i>
   <i name="PARAM1">      0.12340000</i>
   <i name="PARAM2">      1.00000000</i>
   <i name="PARAM3">      0.00000000</i>
  </separator>
  <separator name="model GW" >
   <i type="int" name="MODEL_GW">     0</i>
   <i name="MODEL_EPS0">     13.73108341</i>
   <i name="MODEL_ALPHA">      1.00000000</i>
  </separator>
  <separator name="linear response parameters" >
   <i type="logical" name="LEPSILON"> F  </i>
   <i type="logical" name="LRPA"> F  </i>
   <i type="logical" name="LNABLA"> F  </i>
   <i type="logical" name="LVEL"> F  </i>
   <i type="int" name="KINTER">     0</i>
   <i name="CSHIFT">      0.10000000</i>
   <i name="OMEGAMAX">     -1.00000000</i>
   <i name="DEG_THRESHOLD">      0.00200000</i>
   <i name="RTIME">     -0.10000000</i>
   <i name="WPLASMAI">      0.00000000</i>
   <v name="DFIELD">      0.00000000      0.00000000      0.00000000</v>
   <v name="WPLASMA">      0.00000000      0.00000000      0.00000000      0.00000000      0.00000000      0.00000000      0.00000000      0.00000000      0.00000000</v>
  </separator>
  <separator name="orbital magnetization" >
   <i type="logical" name="NUCIND"> F  </i>
   <v name="MAGPOS">      0.00000000      0.00000000      0.00000000</v>
   <i type="logical" name="LNICSALL"> T  </i>
   <i type="logical" name="ORBITALMAG"> F  </i>
   <i type="logical" name="LMAGBLOCH"> F  </i>
   <i type="logical" name="LCHIMAG"> F  </i>
   <i type="logical" name="LGAUGE"> T  </i>
   <i type="int" name="MAGATOM">     0</i>
   <v name="MAGDIPOL">      0.00000000      0.00000000      0.00000000</v>
   <v name="AVECCONST">      0.00000000      0.00000000      0.00000000</v>
  </separator>
  <separator name="response functions" >
   <i type="logical" name="LFINITE_TEMPERATURE"> F  </i>
   <i type="logical" name="LADDER"> F  </i>
   <i type="logical" name="LRPAFORCE"> F  </i>
   <i type="logical" name="LFXC"> F  </i>
   <i type="logical" name="LHARTREE"> T  </i>
   <i type="int" name="IBSE">     0</i>
   <v type="int" name="KPOINT">    -1     0     0     0</v>
   <i type="logical" name="LTCTC"> F  </i>
   <i type="logical" name="LTCTE"> F  </i>
   <i type="logical" name="LTETE"> F  </i>
   <i type="logical" name="LTRIPLET"> F  </i>
   <i type="logical" name="LFXCEPS"> F  </i>
   <i type="logical" name="LFXHEG"> F  </i>
   <i type="int" name="NATURALO">     2</i>
   <i type="logical" name="LHOLEGF"> F  </i>
   <i type="logical" name="L2ORDER"> F  </i>
   <i type="logical" name="LDMP1"> F  </i>
   <i type="logical" name="LMP2LT"> F  </i>
   <i type="logical" name="LSMP2LT"> F  </i>
   <i type="logical" name="LGWLF"> F  </i>
   <i name="ENCUTGW">     -2.00000000</i>
   <i name="ENCUTGWSOFT">     -2.00000000</i>
   <i name="ENCUTLF">     -1.00000000</i>
   <i type="logical" name="LESF_SPLINES"> F  </i>
   <i type="int" name="LMAXMP2">    -1</i>
   <i name="SCISSOR">      0.00000000</i>
   <i type="int" name="NOMEGA">     0</i>
   <i type="int" name="NOMEGAR">     0</i>
   <i type="int" name="NBANDSGW">    -1</i>
   <i type="int" name="NBANDSO">    -1</i>
   <i type="int" name="NBANDSV">    -1</i>
   <i type="int" name="NELM">   120</i>
   <i type="int" name="NELMHF">     1</i>
   <i type="int" name="DIM">     3</i>
   <i type="int" name="IESPILON">     4</i>
   <i type="int" name="ANTIRES">     0</i>
   <i name="OMEGAMAX">    -30.00000000</i>
   <i name="OMEGAMIN">    -30.00000000</i>
   <i name="OMEGATL">   -200.00000000</i>
   <i type="int" name="OMEGAGRID">     0</i>
   <i name="CSHIFT">     -0.10000000</i>
   <i type="logical" name="LSELFENERGY"> F  </i>
   <i type="logical" name="LSPECTRAL"> F  </i>
   <i type="logical" name="LSPECTRALGW"> F  </i>
   <i type="logical" name="LSINGLES"> F  </i>
   <i type="logical" name="LFERMIGW"> F  </i>
   <i type="logical" name="ODDONLYGW"> F  </i>
   <i type="logical" name="EVENONLYGW"> F  </i>
   <i type="int" name="NKREDLFX">     1</i>
   <i type="int" name="NKREDLFY">     1</i>
   <i type="int" name="NKREDLFZ">     1</i>
   <i type="int" name="MAXMEM">  2800</i>
   <i type="int" name="TELESCOPE">     0</i>
   <i type="int" name="NTAUPAR">    -1</i>
   <i type="int" name="NOMEGAPAR">    -1</i>
   <i name="DAMP_NEWTON">      0.80000001</i>
   <i name="LAMBDA">      1.00000000</i>
  </separator>
  <separator name="External order field" >
   <i name="OFIELD_KAPPA">      0.00000000</i>
   <v name="OFIELD_K">      0.00000000      0.00000000      0.00000000</v>
   <i name="OFIELD_Q6_NEAR">      0.00000000</i>
   <i name="OFIELD_Q6_FAR">      0.00000000</i>
   <i name="OFIELD_A">      0.00000000</i>
  </separator>
 </parameters>
 <atominfo>
  <atoms>     316 </atoms>
  <types>       2 </types>
  <array name="atoms" >
   <dimension dim="1">ion</dimension>
   <field type="string">element</field>
   <field type="int">atomtype</field>
   <set>
    <rc><c>Ni</c><c>   1</c></rc>
    <rc><c>Ni</c><c>   1</c></rc>
    <rc><c>Ni</c><c>   1</c></rc>
    <rc><c>Ni</c><c>   1</c></rc>
    <rc><c>Ni</c><c>   1</c></rc>
    <rc><c>Ni</c><c>   1</c></rc>
    <rc><c>Ni</c><c>   1</c></rc>
    <rc><c>Ni</c><c>   1</c></rc>
    <rc><c>Ni</c><c>   1</c></rc>
    <rc><c>Ni</c><c>   1</c></rc>
    <rc><c>Ni</c><c>   1</c></rc>
    <rc><c>Ni</c><c>   1</c></rc>
    <rc><c>Ni</c><c>   1</c></rc>
    <rc><c>Ni</c><c>   1</c></rc>
    <rc><c>Ni</c><c>   1</c></rc>
    <rc><c>Ni</c><c>   1</c></rc>
    <rc><c>Ni</c><c>   1</c></rc>
    <rc><c>Ni</c><c>   1</c></rc>
    <rc><c>Ni</c><c>   1</c></rc>
    <rc><c>Ni</c><c>   1</c></rc>
    <rc><c>Ni</c><c>   1</c></rc>
    <rc><c>Ni</c><c>   1</c></rc>
    <rc><c>Ni</c><c>   1</c></rc>
    <rc><c>Ni</c><c>   1</c></rc>
    <rc><c>Ni</c><c>   1</c></rc>
    <rc><c>Ni</c><c>   1</c></rc>
    <rc><c>Ni</c><c>   1</c></rc>
    <rc><c>Ni</c><c>   1</c></rc>
    <rc><c>Ni</c><c>   1</c></rc>
    <rc><c>Ni</c><c>   1</c></rc>
    <rc><c>Ni</c><c>   1</c></rc>
    <rc><c>Ni</c><c>   1</c></rc>
    <rc><c>Ni</c><c>   1</c></rc>
    <rc><c>Ni</c><c>   1</c></rc>
    <rc><c>Ni</c><c>   1</c></rc>
    <rc><c>Ni</c><c>   1</c></rc>
    <rc><c>Ni</c><c>   1</c></rc>
    <rc><c>Ni</c><c>   1</c></rc>
    <rc><c>Ni</c><c>   1</c></rc>
    <rc><c>Ni</c><c>   1</c></rc>
    <rc><c>Ni</c><c>   1</c></rc>
    <rc><c>Ni</c><c>   1</c></rc>
    <rc><c>Ni</c><c>   1</c></rc>
    <rc><c>Ni</c><c>   1</c></rc>
    <rc><c>Ni</c><c>   1</c></rc>
    <rc><c>Ni</c><c>   1</c></rc>
    <rc><c>Ni</c><c>   1</c></rc>
    <rc><c>Ni</c><c>   1</c></rc>
    <rc><c>Ni</c><c>   1</c></rc>
    <rc><c>Ni</c><c>   1</c></rc>
    <rc><c>Ni</c><c>   1</c></rc>
    <rc><c>Ni</c><c>   1</c></rc>
    <rc><c>Ni</c><c>   1</c></rc>
    <rc><c>Ni</c><c>   1</c></rc>
    <rc><c>Ni</c><c>   1</c></rc>
    <rc><c>Ni</c><c>   1</c></rc>
    <rc><c>Ni</c><c>   1</c></rc>
    <rc><c>Ni</c><c>   1</c></rc>
    <rc><c>Ni</c><c>   1</c></rc>
    <rc><c>Ni</c><c>   1</c></rc>
    <rc><c>Ni</c><c>   1</c></rc>
    <rc><c>Ni</c><c>   1</c></rc>
    <rc><c>Ni</c><c>   1</c></rc>
    <rc><c>Ni</c><c>   1</c></rc>
    <rc><c>Ni</c><c>   1</c></rc>
    <rc><c>Ni</c><c>   1</c></rc>
    <rc><c>Ni</c><c>   1</c></rc>
    <rc><c>Ni</c><c>   1</c></rc>
    <rc><c>Ni</c><c>   1</c></rc>
    <rc><c>Ni</c><c>   1</c></rc>
    <rc><c>Ni</c><c>   1</c></rc>
    <rc><c>Ni</c><c>   1</c></rc>
    <rc><c>Ni</c><c>   1</c></rc>
    <rc><c>Ni</c><c>   1</c></rc>
    <rc><c>Ni</c><c>   1</c></rc>
    <rc><c>Ni</c><c>   1</c></rc>
    <rc><c>Ni</c><c>   1</c></rc>
    <rc><c>Ni</c><c>   1</c></rc>
    <rc><c>Ni</c><c>   1</c></rc>
    <rc><c>Ni</c><c>   1</c></rc>
    <rc><c>Ni</c><c>   1</c></rc>
    <rc><c>Ni</c><c>   1</c></rc>
    <rc><c>Ni</c><c>   1</c></rc>
    <rc><c>Ni</c><c>   1</c></rc>
    <rc><c>Ni</c><c>   1</c></rc>
    <rc><c>Ni</c><c>   1</c></rc>
    <rc><c>Ni</c><c>   1</c></rc>
    <rc><c>Ni</c><c>   1</c></rc>
    <rc><c>Ni</c><c>   1</c></rc>
    <rc><c>Ni</c><c>   1</c></rc>
    <rc><c>Ni</c><c>   1</c></rc>
    <rc><c>Ni</c><c>   1</c></rc>
    <rc><c>Ni</c><c>   1</c></rc>
    <rc><c>Ni</c><c>   1</c></rc>
    <rc><c>Ni</c><c>   1</c></rc>
    <rc><c>Ni</c><c>   1</c></rc>
    <rc><c>Ni</c><c>   1</c></rc>
    <rc><c>Ni</c><c>   1</c></rc>
    <rc><c>Ni</c><c>   1</c></rc>
    <rc><c>Ni</c><c>   1</c></rc>
    <rc><c>Ni</c><c>   1</c></rc>
    <rc><c>Ni</c><c>   1</c></rc>
    <rc><c>Ni</c><c>   1</c></rc>
    <rc><c>Ni</c><c>   1</c></rc>
    <rc><c>Ni</c><c>   1</c></rc>
    <rc><c>Ni</c><c>   1</c></rc>
    <rc><c>Ni</c><c>   1</c></rc>
    <rc><c>Ni</c><c>   1</c></rc>
    <rc><c>Ni</c><c>   1</c></rc>
    <rc><c>Ni</c><c>   1</c></rc>
    <rc><c>Ni</c><c>   1</c></rc>
    <rc><c>Ni</c><c>   1</c></rc>
    <rc><c>Ni</c><c>   1</c></rc>
    <rc><c>Ni</c><c>   1</c></rc>
    <rc><c>Ni</c><c>   1</c></rc>
    <rc><c>Ni</c><c>   1</c></rc>
    <rc><c>Ni</c><c>   1</c></rc>
    <rc><c>Ni</c><c>   1</c></rc>
    <rc><c>Ni</c><c>   1</c></rc>
    <rc><c>Ni</c><c>   1</c></rc>
    <rc><c>Ni</c><c>   1</c></rc>
    <rc><c>Ni</c><c>   1</c></rc>
    <rc><c>Ni</c><c>   1</c></rc>
    <rc><c>Ni</c><c>   1</c></rc>
    <rc><c>Ni</c><c>   1</c></rc>
    <rc><c>Ni</c><c>   1</c></rc>
    <rc><c>Ni</c><c>   1</c></rc>
    <rc><c>Ni</c><c>   1</c></rc>
    <rc><c>Ni</c><c>   1</c></rc>
    <rc><c>Ni</c><c>   1</c></rc>
    <rc><c>Ni</c><c>   1</c></rc>
    <rc><c>Ni</c><c>   1</c></rc>
    <rc><c>Ni</c><c>   1</c></rc>
    <rc><c>Ni</c><c>   1</c></rc>
    <rc><c>Ni</c><c>   1</c></rc>
    <rc><c>Ni</c><c>   1</c></rc>
    <rc><c>Ni</c><c>   1</c></rc>
    <rc><c>Ni</c><c>   1</c></rc>
    <rc><c>Ni</c><c>   1</c></rc>
    <rc><c>Ni</c><c>   1</c></rc>
    <rc><c>Ni</c><c>   1</c></rc>
    <rc><c>Ni</c><c>   1</c></rc>
    <rc><c>Ni</c><c>   1</c></rc>
    <rc><c>Ni</c><c>   1</c></rc>
    <rc><c>Ni</c><c>   1</c></rc>
    <rc><c>Ni</c><c>   1</c></rc>
    <rc><c>Ni</c><c>   1</c></rc>
    <rc><c>Ni</c><c>   1</c></rc>
    <rc><c>Ni</c><c>   1</c></rc>
    <rc><c>Ni</c><c>   1</c></rc>
    <rc><c>Ni</c><c>   1</c></rc>
    <rc><c>Ni</c><c>   1</c></rc>
    <rc><c>Ni</c><c>   1</c></rc>
    <rc><c>Ni</c><c>   1</c></rc>
    <rc><c>Ni</c><c>   1</c></rc>
    <rc><c>Ni</c><c>   1</c></rc>
    <rc><c>Ni</c><c>   1</c></rc>
    <rc><c>Ni</c><c>   1</c></rc>
    <rc><c>Ni</c><c>   1</c></rc>
    <rc><c>Ni</c><c>   1</c></rc>
    <rc><c>Ni</c><c>   1</c></rc>
    <rc><c>Ni</c><c>   1</c></rc>
    <rc><c>Ni</c><c>   1</c></rc>
    <rc><c>Ni</c><c>   1</c></rc>
    <rc><c>Ni</c><c>   1</c></rc>
    <rc><c>Ni</c><c>   1</c></rc>
    <rc><c>Ni</c><c>   1</c></rc>
    <rc><c>Ni</c><c>   1</c></rc>
    <rc><c>Ni</c><c>   1</c></rc>
    <rc><c>Ni</c><c>   1</c></rc>
    <rc><c>Ni</c><c>   1</c></rc>
    <rc><c>Ni</c><c>   1</c></rc>
    <rc><c>Ni</c><c>   1</c></rc>
    <rc><c>Ni</c><c>   1</c></rc>
    <rc><c>Ni</c><c>   1</c></rc>
    <rc><c>Ni</c><c>   1</c></rc>
    <rc><c>Ni</c><c>   1</c></rc>
    <rc><c>Ni</c><c>   1</c></rc>
    <rc><c>Ni</c><c>   1</c></rc>
    <rc><c>Ni</c><c>   1</c></rc>
    <rc><c>Ni</c><c>   1</c></rc>
    <rc><c>Ni</c><c>   1</c></rc>
    <rc><c>Ni</c><c>   1</c></rc>
    <rc><c>Ni</c><c>   1</c></rc>
    <rc><c>Ni</c><c>   1</c></rc>
    <rc><c>Ni</c><c>   1</c></rc>
    <rc><c>Ni</c><c>   1</c></rc>
    <rc><c>Ni</c><c>   1</c></rc>
    <rc><c>Ni</c><c>   1</c></rc>
    <rc><c>Ni</c><c>   1</c></rc>
    <rc><c>Ni</c><c>   1</c></rc>
    <rc><c>Ni</c><c>   1</c></rc>
    <rc><c>Ni</c><c>   1</c></rc>
    <rc><c>Ni</c><c>   1</c></rc>
    <rc><c>Ni</c><c>   1</c></rc>
    <rc><c>Ni</c><c>   1</c></rc>
    <rc><c>Ni</c><c>   1</c></rc>
    <rc><c>Ni</c><c>   1</c></rc>
    <rc><c>Ni</c><c>   1</c></rc>
    <rc><c>Ni</c><c>   1</c></rc>
    <rc><c>Ni</c><c>   1</c></rc>
    <rc><c>Ni</c><c>   1</c></rc>
    <rc><c>Ni</c><c>   1</c></rc>
    <rc><c>Ni</c><c>   1</c></rc>
    <rc><c>Ni</c><c>   1</c></rc>
    <rc><c>Ni</c><c>   1</c></rc>
    <rc><c>Ni</c><c>   1</c></rc>
    <rc><c>Ni</c><c>   1</c></rc>
    <rc><c>Ni</c><c>   1</c></rc>
    <rc><c>Ni</c><c>   1</c></rc>
    <rc><c>Ni</c><c>   1</c></rc>
    <rc><c>Ni</c><c>   1</c></rc>
    <rc><c>Ni</c><c>   1</c></rc>
    <rc><c>Ni</c><c>   1</c></rc>
    <rc><c>Ni</c><c>   1</c></rc>
    <rc><c>Ni</c><c>   1</c></rc>
    <rc><c>Ni</c><c>   1</c></rc>
    <rc><c>Ni</c><c>   1</c></rc>
    <rc><c>Ni</c><c>   1</c></rc>
    <rc><c>Ni</c><c>   1</c></rc>
    <rc><c>Ni</c><c>   1</c></rc>
    <rc><c>Ni</c><c>   1</c></rc>
    <rc><c>Ni</c><c>   1</c></rc>
    <rc><c>Ni</c><c>   1</c></rc>
    <rc><c>Ni</c><c>   1</c></rc>
    <rc><c>Ni</c><c>   1</c></rc>
    <rc><c>Ni</c><c>   1</c></rc>
    <rc><c>Ni</c><c>   1</c></rc>
    <rc><c>Ni</c><c>   1</c></rc>
    <rc><c>Ni</c><c>   1</c></rc>
    <rc><c>Ni</c><c>   1</c></rc>
    <rc><c>Ni</c><c>   1</c></rc>
    <rc><c>Ni</c><c>   1</c></rc>
    <rc><c>Ni</c><c>   1</c></rc>
    <rc><c>Ni</c><c>   1</c></rc>
    <rc><c>Ni</c><c>   1</c></rc>
    <rc><c>Ni</c><c>   1</c></rc>
    <rc><c>Ni</c><c>   1</c></rc>
    <rc><c>Ni</c><c>   1</c></rc>
    <rc><c>Ni</c><c>   1</c></rc>
    <rc><c>Ni</c><c>   1</c></rc>
    <rc><c>Ni</c><c>   1</c></rc>
    <rc><c>Ni</c><c>   1</c></rc>
    <rc><c>Ni</c><c>   1</c></rc>
    <rc><c>Ni</c><c>   1</c></rc>
    <rc><c>Ni</c><c>   1</c></rc>
    <rc><c>Ni</c><c>   1</c></rc>
    <rc><c>Ni</c><c>   1</c></rc>
    <rc><c>Ni</c><c>   1</c></rc>
    <rc><c>Ni</c><c>   1</c></rc>
    <rc><c>Ni</c><c>   1</c></rc>
    <rc><c>Ni</c><c>   1</c></rc>
    <rc><c>O </c><c>   2</c></rc>
    <rc><c>O </c><c>   2</c></rc>
    <rc><c>O </c><c>   2</c></rc>
    <rc><c>O </c><c>   2</c></rc>
    <rc><c>O </c><c>   2</c></rc>
    <rc><c>O </c><c>   2</c></rc>
    <rc><c>O </c><c>   2</c></rc>
    <rc><c>O </c><c>   2</c></rc>
    <rc><c>O </c><c>   2</c></rc>
    <rc><c>O </c><c>   2</c></rc>
    <rc><c>O </c><c>   2</c></rc>
    <rc><c>O </c><c>   2</c></rc>
    <rc><c>O </c><c>   2</c></rc>
    <rc><c>O </c><c>   2</c></rc>
    <rc><c>O </c><c>   2</c></rc>
    <rc><c>O </c><c>   2</c></rc>
    <rc><c>O </c><c>   2</c></rc>
    <rc><c>O </c><c>   2</c></rc>
    <rc><c>O </c><c>   2</c></rc>
    <rc><c>O </c><c>   2</c></rc>
    <rc><c>O </c><c>   2</c></rc>
    <rc><c>O </c><c>   2</c></rc>
    <rc><c>O </c><c>   2</c></rc>
    <rc><c>O </c><c>   2</c></rc>
    <rc><c>O </c><c>   2</c></rc>
    <rc><c>O </c><c>   2</c></rc>
    <rc><c>O </c><c>   2</c></rc>
    <rc><c>O </c><c>   2</c></rc>
    <rc><c>O </c><c>   2</c></rc>
    <rc><c>O </c><c>   2</c></rc>
    <rc><c>O </c><c>   2</c></rc>
    <rc><c>O </c><c>   2</c></rc>
    <rc><c>O </c><c>   2</c></rc>
    <rc><c>O </c><c>   2</c></rc>
    <rc><c>O </c><c>   2</c></rc>
    <rc><c>O </c><c>   2</c></rc>
    <rc><c>O </c><c>   2</c></rc>
    <rc><c>O </c><c>   2</c></rc>
    <rc><c>O </c><c>   2</c></rc>
    <rc><c>O </c><c>   2</c></rc>
    <rc><c>O </c><c>   2</c></rc>
    <rc><c>O </c><c>   2</c></rc>
    <rc><c>O </c><c>   2</c></rc>
    <rc><c>O </c><c>   2</c></rc>
    <rc><c>O </c><c>   2</c></rc>
    <rc><c>O </c><c>   2</c></rc>
    <rc><c>O </c><c>   2</c></rc>
    <rc><c>O </c><c>   2</c></rc>
    <rc><c>O </c><c>   2</c></rc>
    <rc><c>O </c><c>   2</c></rc>
    <rc><c>O </c><c>   2</c></rc>
    <rc><c>O </c><c>   2</c></rc>
    <rc><c>O </c><c>   2</c></rc>
    <rc><c>O </c><c>   2</c></rc>
    <rc><c>O </c><c>   2</c></rc>
    <rc><c>O </c><c>   2</c></rc>
    <rc><c>O </c><c>   2</c></rc>
    <rc><c>O </c><c>   2</c></rc>
    <rc><c>O </c><c>   2</c></rc>
    <rc><c>O </c><c>   2</c></rc>
    <rc><c>O </c><c>   2</c></rc>
    <rc><c>O </c><c>   2</c></rc>
    <rc><c>O </c><c>   2</c></rc>
    <rc><c>O </c><c>   2</c></rc>
   </set>
  </array>
  <array name="atomtypes" >
   <dimension dim="1">type</dimension>
   <field type="int">atomspertype</field>
   <field type="string">element</field>
   <field>mass</field>
   <field>valence</field>
   <field type="string">pseudopotential</field>
   <set>
    <rc><c> 252</c><c>Ni</c><c>     58.69000000</c><c>     10.00000000</c><c>  PAW Ni_GW 31Mar2010                   </c></rc>
    <rc><c>  64</c><c>O </c><c>     16.00000000</c><c>      6.00000000</c><c>  PAW O_GW 19Mar2012                    </c></rc>
   </set>
  </array>
 </atominfo>
 <structure name="initialpos" >
  <crystal>
   <varray name="basis" >
    <v>      15.14622176       0.00000000       0.00000000 </v>
    <v>       7.57311088      13.11701281       0.00000000 </v>
    <v>       0.00000000       0.00000000      36.40000000 </v>
   </varray>
   <i name="volume">   7231.70393039 </i>
   <varray name="rec_basis" >
    <v>       0.06602307      -0.03811843       0.00000000 </v>
    <v>       0.00000000       0.07623687       0.00000000 </v>
    <v>       0.00000000       0.00000000       0.02747253 </v>
   </varray>
  </crystal>
  <varray name="positions" >
   <v>       0.44444444       0.44444444       0.06198901 </v>
   <v>       0.44444444       0.77777778       0.06198901 </v>
   <v>       0.44444444       0.11111111       0.06198901 </v>
   <v>       0.77777778       0.44444444       0.06198901 </v>
   <v>       0.77777778       0.77777778       0.06198901 </v>
   <v>       0.77777778       0.11111111       0.06198901 </v>
   <v>       0.11111111       0.44444444       0.06198901 </v>
   <v>       0.11111111       0.77777778       0.06198901 </v>
   <v>       0.11111111       0.11111111       0.06198901 </v>
   <v>       0.55555556       0.55555556       0.12487340 </v>
   <v>       0.55555556       0.88888889       0.12487340 </v>
   <v>       0.55555556       0.22222222       0.12487340 </v>
   <v>       0.88888889       0.55555556       0.12487340 </v>
   <v>       0.88888889       0.88888889       0.12487340 </v>
   <v>       0.88888889       0.22222222       0.12487340 </v>
   <v>       0.22222222       0.55555556       0.12487340 </v>
   <v>       0.22222222       0.88888889       0.12487340 </v>
   <v>       0.22222222       0.22222222       0.12487340 </v>
   <v>       0.66666667       0.66666667       0.18572635 </v>
   <v>       0.66666667       0.00000000       0.18572635 </v>
   <v>       0.66666667       0.33333333       0.18572635 </v>
   <v>       0.00000000       0.66666667       0.18572635 </v>
   <v>       0.00000000       0.00000000       0.18572635 </v>
   <v>       0.00000000       0.33333333       0.18572635 </v>
   <v>       0.33333333       0.66666667       0.18572635 </v>
   <v>       0.33333333       0.00000000       0.18572635 </v>
   <v>       0.33333333       0.33333333       0.18572635 </v>
   <v>       0.77777778       0.77777778       0.24835684 </v>
   <v>       0.77777778       0.11111111       0.24835684 </v>
   <v>       0.77777778       0.44444444       0.24835684 </v>
   <v>       0.11111111       0.77777778       0.24835684 </v>
   <v>       0.11111111       0.11111111       0.24835684 </v>
   <v>       0.11111111       0.44444444       0.24835684 </v>
   <v>       0.44444444       0.77777778       0.24835684 </v>
   <v>       0.44444444       0.11111111       0.24835684 </v>
   <v>       0.44444444       0.44444444       0.24835684 </v>
   <v>       0.88888889       0.88888889       0.31098733 </v>
   <v>       0.88888889       0.22222222       0.31098733 </v>
   <v>       0.88888889       0.55555556       0.31098733 </v>
   <v>       0.22222222       0.88888889       0.31098733 </v>
   <v>       0.22222222       0.22222222       0.31098733 </v>
   <v>       0.22222222       0.55555556       0.31098733 </v>
   <v>       0.55555556       0.88888889       0.31098733 </v>
   <v>       0.55555556       0.22222222       0.31098733 </v>
   <v>       0.55555556       0.55555556       0.31098733 </v>
   <v>       0.00000000       0.00000000       0.37184028 </v>
   <v>       0.00000000       0.33333333       0.37184028 </v>
   <v>       0.00000000       0.66666667       0.37184028 </v>
   <v>       0.33333333       0.00000000       0.37184028 </v>
   <v>       0.33333333       0.33333333       0.37184028 </v>
   <v>       0.33333333       0.66666667       0.37184028 </v>
   <v>       0.66666667       0.00000000       0.37184028 </v>
   <v>       0.66666667       0.33333333       0.37184028 </v>
   <v>       0.66666667       0.66666667       0.37184028 </v>
   <v>       0.11111111       0.11111111       0.43472467 </v>
   <v>       0.11111111       0.44444444       0.43472467 </v>
   <v>       0.11111111       0.77777778       0.43472467 </v>
   <v>       0.44444444       0.11111111       0.43472467 </v>
   <v>       0.44444444       0.44444444       0.43472467 </v>
   <v>       0.44444444       0.77777778       0.43472467 </v>
   <v>       0.77777778       0.11111111       0.43472467 </v>
   <v>       0.77777778       0.44444444       0.43472467 </v>
   <v>       0.77777778       0.77777778       0.43472467 </v>
   <v>       0.27777778       0.27777778       0.06198901 </v>
   <v>       0.27777778       0.61111111       0.06198901 </v>
   <v>       0.27777778       0.94444444       0.06198901 </v>
   <v>       0.61111111       0.27777778       0.06198901 </v>
   <v>       0.61111111       0.61111111       0.06198901 </v>
   <v>       0.61111111       0.94444444       0.06198901 </v>
   <v>       0.94444444       0.27777778       0.06198901 </v>
   <v>       0.94444444       0.61111111       0.06198901 </v>
   <v>       0.94444444       0.94444444       0.06198901 </v>
   <v>       0.38888889       0.38888889       0.12487340 </v>
   <v>       0.38888889       0.72222222       0.12487340 </v>
   <v>       0.38888889       0.05555556       0.12487340 </v>
   <v>       0.72222222       0.38888889       0.12487340 </v>
   <v>       0.72222222       0.72222222       0.12487340 </v>
   <v>       0.72222222       0.05555556       0.12487340 </v>
   <v>       0.05555556       0.38888889       0.12487340 </v>
   <v>       0.05555556       0.72222222       0.12487340 </v>
   <v>       0.05555556       0.05555556       0.12487340 </v>
   <v>       0.50000000       0.50000000       0.18572635 </v>
   <v>       0.50000000       0.83333333       0.18572635 </v>
   <v>       0.50000000       0.16666667       0.18572635 </v>
   <v>       0.83333333       0.50000000       0.18572635 </v>
   <v>       0.83333333       0.83333333       0.18572635 </v>
   <v>       0.83333333       0.16666667       0.18572635 </v>
   <v>       0.16666667       0.50000000       0.18572635 </v>
   <v>       0.16666667       0.83333333       0.18572635 </v>
   <v>       0.16666667       0.16666667       0.18572635 </v>
   <v>       0.61111111       0.61111111       0.24835684 </v>
   <v>       0.61111111       0.94444444       0.24835684 </v>
   <v>       0.61111111       0.27777778       0.24835684 </v>
   <v>       0.94444444       0.61111111       0.24835684 </v>
   <v>       0.94444444       0.94444444       0.24835684 </v>
   <v>       0.94444444       0.27777778       0.24835684 </v>
   <v>       0.27777778       0.61111111       0.24835684 </v>
   <v>       0.27777778       0.94444444       0.24835684 </v>
   <v>       0.27777778       0.27777778       0.24835684 </v>
   <v>       0.72222222       0.72222222       0.31098733 </v>
   <v>       0.72222222       0.05555556       0.31098733 </v>
   <v>       0.72222222       0.38888889       0.31098733 </v>
   <v>       0.05555556       0.72222222       0.31098733 </v>
   <v>       0.05555556       0.05555556       0.31098733 </v>
   <v>       0.05555556       0.38888889       0.31098733 </v>
   <v>       0.38888889       0.72222222       0.31098733 </v>
   <v>       0.38888889       0.05555556       0.31098733 </v>
   <v>       0.38888889       0.38888889       0.31098733 </v>
   <v>       0.83333333       0.83333333       0.37184028 </v>
   <v>       0.83333333       0.16666667       0.37184028 </v>
   <v>       0.83333333       0.50000000       0.37184028 </v>
   <v>       0.16666667       0.83333333       0.37184028 </v>
   <v>       0.16666667       0.16666667       0.37184028 </v>
   <v>       0.16666667       0.50000000       0.37184028 </v>
   <v>       0.50000000       0.83333333       0.37184028 </v>
   <v>       0.50000000       0.16666667       0.37184028 </v>
   <v>       0.50000000       0.50000000       0.37184028 </v>
   <v>       0.94444444       0.94444444       0.43472467 </v>
   <v>       0.94444444       0.27777778       0.43472467 </v>
   <v>       0.94444444       0.61111111       0.43472467 </v>
   <v>       0.27777778       0.94444444       0.43472467 </v>
   <v>       0.27777778       0.27777778       0.43472467 </v>
   <v>       0.27777778       0.61111111       0.43472467 </v>
   <v>       0.61111111       0.94444444       0.43472467 </v>
   <v>       0.61111111       0.27777778       0.43472467 </v>
   <v>       0.61111111       0.61111111       0.43472467 </v>
   <v>       0.27777778       0.44444444       0.06198901 </v>
   <v>       0.27777778       0.77777778       0.06198901 </v>
   <v>       0.27777778       0.11111111       0.06198901 </v>
   <v>       0.61111111       0.44444444       0.06198901 </v>
   <v>       0.61111111       0.77777778       0.06198901 </v>
   <v>       0.61111111       0.11111111       0.06198901 </v>
   <v>       0.94444444       0.44444444       0.06198901 </v>
   <v>       0.94444444       0.77777778       0.06198901 </v>
   <v>       0.94444444       0.11111111       0.06198901 </v>
   <v>       0.38888889       0.55555556       0.12487340 </v>
   <v>       0.38888889       0.88888889       0.12487340 </v>
   <v>       0.38888889       0.22222222       0.12487340 </v>
   <v>       0.72222222       0.55555556       0.12487340 </v>
   <v>       0.72222222       0.88888889       0.12487340 </v>
   <v>       0.72222222       0.22222222       0.12487340 </v>
   <v>       0.05555556       0.55555556       0.12487340 </v>
   <v>       0.05555556       0.88888889       0.12487340 </v>
   <v>       0.05555556       0.22222222       0.12487340 </v>
   <v>       0.50000000       0.66666667       0.18572635 </v>
   <v>       0.50000000       0.00000000       0.18572635 </v>
   <v>       0.50000000       0.33333333       0.18572635 </v>
   <v>       0.83333333       0.66666667       0.18572635 </v>
   <v>       0.83333333       0.00000000       0.18572635 </v>
   <v>       0.83333333       0.33333333       0.18572635 </v>
   <v>       0.16666667       0.66666667       0.18572635 </v>
   <v>       0.16666667       0.00000000       0.18572635 </v>
   <v>       0.16666667       0.33333333       0.18572635 </v>
   <v>       0.61111111       0.77777778       0.24835684 </v>
   <v>       0.61111111       0.11111111       0.24835684 </v>
   <v>       0.61111111       0.44444444       0.24835684 </v>
   <v>       0.94444444       0.77777778       0.24835684 </v>
   <v>       0.94444444       0.11111111       0.24835684 </v>
   <v>       0.94444444       0.44444444       0.24835684 </v>
   <v>       0.27777778       0.77777778       0.24835684 </v>
   <v>       0.27777778       0.11111111       0.24835684 </v>
   <v>       0.27777778       0.44444444       0.24835684 </v>
   <v>       0.72222222       0.88888889       0.31098733 </v>
   <v>       0.72222222       0.22222222       0.31098733 </v>
   <v>       0.72222222       0.55555556       0.31098733 </v>
   <v>       0.05555556       0.88888889       0.31098733 </v>
   <v>       0.05555556       0.22222222       0.31098733 </v>
   <v>       0.05555556       0.55555556       0.31098733 </v>
   <v>       0.38888889       0.88888889       0.31098733 </v>
   <v>       0.38888889       0.22222222       0.31098733 </v>
   <v>       0.38888889       0.55555556       0.31098733 </v>
   <v>       0.83333333       0.00000000       0.37184028 </v>
   <v>       0.83333333       0.33333333       0.37184028 </v>
   <v>       0.83333333       0.66666667       0.37184028 </v>
   <v>       0.16666667       0.00000000       0.37184028 </v>
   <v>       0.16666667       0.33333333       0.37184028 </v>
   <v>       0.16666667       0.66666667       0.37184028 </v>
   <v>       0.50000000       0.00000000       0.37184028 </v>
   <v>       0.50000000       0.33333333       0.37184028 </v>
   <v>       0.50000000       0.66666667       0.37184028 </v>
   <v>       0.94444444       0.11111111       0.43472467 </v>
   <v>       0.94444444       0.44444444       0.43472467 </v>
   <v>       0.94444444       0.77777778       0.43472467 </v>
   <v>       0.27777778       0.11111111       0.43472467 </v>
   <v>       0.27777778       0.44444444       0.43472467 </v>
   <v>       0.27777778       0.77777778       0.43472467 </v>
   <v>       0.61111111       0.11111111       0.43472467 </v>
   <v>       0.61111111       0.44444444       0.43472467 </v>
   <v>       0.61111111       0.77777778       0.43472467 </v>
   <v>       0.44444444       0.27777778       0.06198901 </v>
   <v>       0.44444444       0.61111111       0.06198901 </v>
   <v>       0.44444444       0.94444444       0.06198901 </v>
   <v>       0.77777778       0.27777778       0.06198901 </v>
   <v>       0.77777778       0.61111111       0.06198901 </v>
   <v>       0.77777778       0.94444444       0.06198901 </v>
   <v>       0.11111111       0.27777778       0.06198901 </v>
   <v>       0.11111111       0.61111111       0.06198901 </v>
   <v>       0.11111111       0.94444444       0.06198901 </v>
   <v>       0.55555556       0.38888889       0.12487340 </v>
   <v>       0.55555556       0.72222222       0.12487340 </v>
   <v>       0.55555556       0.05555556       0.12487340 </v>
   <v>       0.88888889       0.38888889       0.12487340 </v>
   <v>       0.88888889       0.72222222       0.12487340 </v>
   <v>       0.88888889       0.05555556       0.12487340 </v>
   <v>       0.22222222       0.38888889       0.12487340 </v>
   <v>       0.22222222       0.72222222       0.12487340 </v>
   <v>       0.22222222       0.05555556       0.12487340 </v>
   <v>       0.66666667       0.50000000       0.18572635 </v>
   <v>       0.66666667       0.83333333       0.18572635 </v>
   <v>       0.66666667       0.16666667       0.18572635 </v>
   <v>       0.00000000       0.50000000       0.18572635 </v>
   <v>       0.00000000       0.83333333       0.18572635 </v>
   <v>       0.00000000       0.16666667       0.18572635 </v>
   <v>       0.33333333       0.50000000       0.18572635 </v>
   <v>       0.33333333       0.83333333       0.18572635 </v>
   <v>       0.33333333       0.16666667       0.18572635 </v>
   <v>       0.77777778       0.61111111       0.24835684 </v>
   <v>       0.77777778       0.94444444       0.24835684 </v>
   <v>       0.77777778       0.27777778       0.24835684 </v>
   <v>       0.11111111       0.61111111       0.24835684 </v>
   <v>       0.11111111       0.94444444       0.24835684 </v>
   <v>       0.11111111       0.27777778       0.24835684 </v>
   <v>       0.44444444       0.61111111       0.24835684 </v>
   <v>       0.44444444       0.94444444       0.24835684 </v>
   <v>       0.44444444       0.27777778       0.24835684 </v>
   <v>       0.88888889       0.72222222       0.31098733 </v>
   <v>       0.88888889       0.05555556       0.31098733 </v>
   <v>       0.88888889       0.38888889       0.31098733 </v>
   <v>       0.22222222       0.72222222       0.31098733 </v>
   <v>       0.22222222       0.05555556       0.31098733 </v>
   <v>       0.22222222       0.38888889       0.31098733 </v>
   <v>       0.55555556       0.72222222       0.31098733 </v>
   <v>       0.55555556       0.05555556       0.31098733 </v>
   <v>       0.55555556       0.38888889       0.31098733 </v>
   <v>       0.00000000       0.83333333       0.37184028 </v>
   <v>       0.00000000       0.16666667       0.37184028 </v>
   <v>       0.00000000       0.50000000       0.37184028 </v>
   <v>       0.33333333       0.83333333       0.37184028 </v>
   <v>       0.33333333       0.16666667       0.37184028 </v>
   <v>       0.33333333       0.50000000       0.37184028 </v>
   <v>       0.66666667       0.83333333       0.37184028 </v>
   <v>       0.66666667       0.16666667       0.37184028 </v>
   <v>       0.66666667       0.50000000       0.37184028 </v>
   <v>       0.11111111       0.94444444       0.43472467 </v>
   <v>       0.11111111       0.27777778       0.43472467 </v>
   <v>       0.11111111       0.61111111       0.43472467 </v>
   <v>       0.44444444       0.94444444       0.43472467 </v>
   <v>       0.44444444       0.27777778       0.43472467 </v>
   <v>       0.44444444       0.61111111       0.43472467 </v>
   <v>       0.77777778       0.94444444       0.43472467 </v>
   <v>       0.77777778       0.27777778       0.43472467 </v>
   <v>       0.77777778       0.61111111       0.43472467 </v>
   <v>       0.00000000       0.00000000       0.47318621 </v>
   <v>       0.00000000       0.12500000       0.47318621 </v>
   <v>       0.00000000       0.25000000       0.47318621 </v>
   <v>       0.00000000       0.37500000       0.47318621 </v>
   <v>       0.00000000       0.50000000       0.47318621 </v>
   <v>       0.00000000       0.62500000       0.47318621 </v>
   <v>       0.00000000       0.75000000       0.47318621 </v>
   <v>       0.00000000       0.87500000       0.47318621 </v>
   <v>       0.12500000       0.00000000       0.47318621 </v>
   <v>       0.12500000       0.12500000       0.47318621 </v>
   <v>       0.12500000       0.25000000       0.47318621 </v>
   <v>       0.12500000       0.37500000       0.47318621 </v>
   <v>       0.12500000       0.50000000       0.47318621 </v>
   <v>       0.12500000       0.62500000       0.47318621 </v>
   <v>       0.12500000       0.75000000       0.47318621 </v>
   <v>       0.12500000       0.87500000       0.47318621 </v>
   <v>       0.25000000       0.00000000       0.47318621 </v>
   <v>       0.25000000       0.12500000       0.47318621 </v>
   <v>       0.25000000       0.25000000       0.47318621 </v>
   <v>       0.25000000       0.37500000       0.47318621 </v>
   <v>       0.25000000       0.50000000       0.47318621 </v>
   <v>       0.25000000       0.62500000       0.47318621 </v>
   <v>       0.25000000       0.75000000       0.47318621 </v>
   <v>       0.25000000       0.87500000       0.47318621 </v>
   <v>       0.37500000       0.00000000       0.47318621 </v>
   <v>       0.37500000       0.12500000       0.47318621 </v>
   <v>       0.37500000       0.25000000       0.47318621 </v>
   <v>       0.37500000       0.37500000       0.47318621 </v>
   <v>       0.37500000       0.50000000       0.47318621 </v>
   <v>       0.37500000       0.62500000       0.47318621 </v>
   <v>       0.37500000       0.75000000       0.47318621 </v>
   <v>       0.37500000       0.87500000       0.47318621 </v>
   <v>       0.50000000       0.00000000       0.47318621 </v>
   <v>       0.50000000       0.12500000       0.47318621 </v>
   <v>       0.50000000       0.25000000       0.47318621 </v>
   <v>       0.50000000       0.37500000       0.47318621 </v>
   <v>       0.50000000       0.50000000       0.47318621 </v>
   <v>       0.50000000       0.62500000       0.47318621 </v>
   <v>       0.50000000       0.75000000       0.47318621 </v>
   <v>       0.50000000       0.87500000       0.47318621 </v>
   <v>       0.62500000       0.00000000       0.47318621 </v>
   <v>       0.62500000       0.12500000       0.47318621 </v>
   <v>       0.62500000       0.25000000       0.47318621 </v>
   <v>       0.62500000       0.37500000       0.47318621 </v>
   <v>       0.62500000       0.50000000       0.47318621 </v>
   <v>       0.62500000       0.62500000       0.47318621 </v>
   <v>       0.62500000       0.75000000       0.47318621 </v>
   <v>       0.62500000       0.87500000       0.47318621 </v>
   <v>       0.75000000       0.00000000       0.47318621 </v>
   <v>       0.75000000       0.12500000       0.47318621 </v>
   <v>       0.75000000       0.25000000       0.47318621 </v>
   <v>       0.75000000       0.37500000       0.47318621 </v>
   <v>       0.75000000       0.50000000       0.47318621 </v>
   <v>       0.75000000       0.62500000       0.47318621 </v>
   <v>       0.75000000       0.75000000       0.47318621 </v>
   <v>       0.75000000       0.87500000       0.47318621 </v>
   <v>       0.87500000       0.00000000       0.47318621 </v>
   <v>       0.87500000       0.12500000       0.47318621 </v>
   <v>       0.87500000       0.25000000       0.47318621 </v>
   <v>       0.87500000       0.37500000       0.47318621 </v>
   <v>       0.87500000       0.50000000       0.47318621 </v>
   <v>       0.87500000       0.62500000       0.47318621 </v>
   <v>       0.87500000       0.75000000       0.47318621 </v>
   <v>       0.87500000       0.87500000       0.47318621 </v>
  </varray>
 </structure>
 <calculation>
  <scstep>
   <time name="dav">   23.87   25.21</time>
   <time name="total">   24.58   26.46</time>
   <energy>
    <i name="alphaZ">  11239.05055229 </i>
    <i name="ewald">2916868.85755265 </i>
    <i name="hartreedc">**************** </i>
    <i name="XCdc">   4562.12223030 </i>
    <i name="pawpsdc"> 262292.94557836 </i>
    <i name="pawaedc">-281802.73688913 </i>
    <i name="eentropy">     -0.18337219 </i>
    <i name="bandstr">  19557.81444231 </i>
    <i name="atom"> 299207.04023851 </i>
    <i name="e_fr_energy">  27648.82705849 </i>
    <i name="e_wo_entrp">  27649.01043068 </i>
    <i name="e_0_energy">  27648.91874458 </i>
   </energy>
  </scstep>
  <scstep>
   <time name="dav">   24.10   25.44</time>
   <time name="total">   24.10   25.44</time>
   <energy>
    <i name="e_fr_energy">   1850.64078613 </i>
    <i name="e_wo_entrp">   1850.78677239 </i>
    <i name="e_0_energy">   1850.71377926 </i>
   </energy>
  </scstep>
  <scstep>
   <time name="dav">   30.25   31.89</time>
   <time name="total">   30.25   31.90</time>
   <energy>
    <i name="e_fr_energy">  -1016.41403020 </i>
    <i name="e_wo_entrp">  -1015.89220253 </i>
    <i name="e_0_energy">  -1016.15311636 </i>
   </energy>
  </scstep>
  <scstep>
   <time name="dav">   40.84   43.08</time>
   <time name="total">   40.84   43.08</time>
   <energy>
    <i name="e_fr_energy">  -1633.36756715 </i>
    <i name="e_wo_entrp">  -1632.33448763 </i>
    <i name="e_0_energy">  -1632.85102739 </i>
   </energy>
  </scstep>
  <scstep>
   <time name="dav">   40.37   42.61</time>
   <time name="total">   41.83   44.18</time>
   <energy>
    <i name="e_fr_energy">  -1759.05984997 </i>
    <i name="e_wo_entrp">  -1757.93036631 </i>
    <i name="e_0_energy">  -1758.49510814 </i>
   </energy>
  </scstep>
  <scstep>
   <time name="dav">   29.41   30.99</time>
   <time name="total">   31.52   33.24</time>
   <energy>
    <i name="e_fr_energy">  -2412.55596135 </i>
    <i name="e_wo_entrp">  -2412.41230723 </i>
    <i name="e_0_energy">  -2412.48413429 </i>
   </energy>
  </scstep>
  <scstep>
   <time name="dav">   27.91   29.43</time>
   <time name="total">   30.03   31.68</time>
   <energy>
    <i name="e_fr_energy">  -2716.65120226 </i>
    <i name="e_wo_entrp">  -2715.89237631 </i>
    <i name="e_0_energy">  -2716.27178928 </i>
   </energy>
  </scstep>
  <scstep>
   <time name="dav">   35.95   37.83</time>
   <time name="total">   38.10   40.13</time>
   <energy>
    <i name="e_fr_energy">  -6577.61062908 </i>
    <i name="e_wo_entrp">  -6577.09412277 </i>
    <i name="e_0_energy">  -6577.35237593 </i>
   </energy>
  </scstep>
  <scstep>
   <time name="dav">   30.74   32.38</time>
   <time name="total">   32.85   34.63</time>
   <energy>
    <i name="e_fr_energy"> -10197.12998187 </i>
    <i name="e_wo_entrp"> -10197.06501540 </i>
    <i name="e_0_energy"> -10197.09749864 </i>
   </energy>
  </scstep>
  <scstep>
   <time name="dav">   33.21   35.00</time>
   <time name="total">   35.34   37.26</time>
   <energy>
    <i name="e_fr_energy">  -2748.35554066 </i>
    <i name="e_wo_entrp">  -2748.16759813 </i>
    <i name="e_0_energy">  -2748.26156940 </i>
   </energy>
  </scstep>
  <scstep>
   <time name="dav">   29.15   30.72</time>
   <time name="total">   31.27   32.97</time>
   <energy>
    <i name="e_fr_energy">  -2983.87967113 </i>
    <i name="e_wo_entrp">  -2983.78161200 </i>
    <i name="e_0_energy">  -2983.83064157 </i>
   </energy>
  </scstep>
  <scstep>
   <time name="dav">   38.00   40.03</time>
   <time name="total">   40.17   42.34</time>
   <energy>
    <i name="e_fr_energy">  -1905.31080664 </i>
    <i name="e_wo_entrp">  -1904.93625657 </i>
    <i name="e_0_energy">  -1905.12353161 </i>
   </energy>
  </scstep>
  <scstep>
   <time name="dav">   35.85   37.77</time>
   <time name="total">   38.04   40.12</time>
   <energy>
    <i name="e_fr_energy">  -2167.32312489 </i>
    <i name="e_wo_entrp">  -2167.04154758 </i>
    <i name="e_0_energy">  -2167.18233623 </i>
   </energy>
  </scstep>
  <scstep>
   <time name="dav">   29.06   30.58</time>
   <time name="total">   31.23   32.89</time>
   <energy>
    <i name="e_fr_energy">  -2389.61177629 </i>
    <i name="e_wo_entrp">  -2389.22625548 </i>
    <i name="e_0_energy">  -2389.41901589 </i>
   </energy>
  </scstep>
  <scstep>
   <time name="dav">   35.75   37.70</time>
   <time name="total">   37.96   40.05</time>
   <energy>
    <i name="e_fr_energy">  -2343.50878527 </i>
    <i name="e_wo_entrp">  -2343.14412260 </i>
    <i name="e_0_energy">  -2343.32645393 </i>
   </energy>
  </scstep>
  <scstep>
   <time name="dav">   27.60   29.11</time>
   <time name="total">   29.83   31.46</time>
   <energy>
    <i name="e_fr_energy">  -1809.52508398 </i>
    <i name="e_wo_entrp">  -1809.04256585 </i>
    <i name="e_0_energy">  -1809.28382491 </i>
   </energy>
  </scstep>
  <scstep>
   <time name="dav">   29.76   31.42</time>
   <time name="total">   31.96   33.76</time>
   <energy>
    <i name="e_fr_energy">  -1984.13814790 </i>
    <i name="e_wo_entrp">  -1983.66743898 </i>
    <i name="e_0_energy">  -1983.90279344 </i>
   </energy>
  </scstep>
  <scstep>
   <time name="dav">   27.76   29.29</time>
   <time name="total">   29.97   31.65</time>
   <energy>
    <i name="e_fr_energy">  -1874.84813918 </i>
    <i name="e_wo_entrp">  -1874.48739535 </i>
    <i name="e_0_energy">  -1874.66776726 </i>
   </energy>
  </scstep>
  <scstep>
   <time name="dav">   26.45   27.92</time>
   <time name="total">   28.69   30.31</time>
   <energy>
    <i name="e_fr_energy">  -1836.77876232 </i>
    <i name="e_wo_entrp">  -1836.25834723 </i>
    <i name="e_0_energy">  -1836.51855477 </i>
   </energy>
  </scstep>
  <scstep>
   <time name="dav">   30.01   31.66</time>
   <time name="total">   32.27   34.06</time>
   <energy>
    <i name="e_fr_energy">  -1837.07937413 </i>
    <i name="e_wo_entrp">  -1836.62370130 </i>
    <i name="e_0_energy">  -1836.85153772 </i>
   </energy>
  </scstep>
  <scstep>
   <time name="dav">   26.75   28.22</time>
   <time name="total">   29.02   30.63</time>
   <energy>
    <i name="e_fr_energy">  -1692.40557722 </i>
    <i name="e_wo_entrp">  -1691.79589674 </i>
    <i name="e_0_energy">  -1692.10073698 </i>
   </energy>
  </scstep>
  <scstep>
   <time name="dav">   28.49   30.01</time>
   <time name="total">   30.77   32.44</time>
   <energy>
    <i name="e_fr_energy">  -1723.64861004 </i>
    <i name="e_wo_entrp">  -1723.27802846 </i>
    <i name="e_0_energy">  -1723.46331925 </i>
   </energy>
  </scstep>
  <scstep>
   <time name="dav">   25.44   26.85</time>
   <time name="total">   27.72   29.28</time>
   <energy>
    <i name="e_fr_energy">  -1667.20239029 </i>
    <i name="e_wo_entrp">  -1666.73301242 </i>
    <i name="e_0_energy">  -1666.96770136 </i>
   </energy>
  </scstep>
  <scstep>
   <time name="dav">   31.36   33.06</time>
   <time name="total">   33.68   35.50</time>
   <energy>
    <i name="e_fr_energy">  -1604.46265311 </i>
    <i name="e_wo_entrp">  -1603.77365404 </i>
    <i name="e_0_energy">  -1604.11815358 </i>
   </energy>
  </scstep>
  <scstep>
   <time name="dav">   29.56   31.18</time>
   <time name="total">   31.89   33.67</time>
   <energy>
    <i name="e_fr_energy">  -1562.94637361 </i>
    <i name="e_wo_entrp">  -1562.11711667 </i>
    <i name="e_0_energy">  -1562.53174514 </i>
   </energy>
  </scstep>
  <scstep>
   <time name="dav">   30.99   32.66</time>
   <time name="total">   33.34   35.16</time>
   <energy>
    <i name="e_fr_energy">  -1555.68544330 </i>
    <i name="e_wo_entrp">  -1554.76025001 </i>
    <i name="e_0_energy">  -1555.22284666 </i>
   </energy>
  </scstep>
  <scstep>
   <time name="dav">   29.82   31.39</time>
   <time name="total">   32.20   33.92</time>
   <energy>
    <i name="e_fr_energy">  -1526.03562585 </i>
    <i name="e_wo_entrp">  -1525.33934626 </i>
    <i name="e_0_energy">  -1525.68748606 </i>
   </energy>
  </scstep>
  <scstep>
   <time name="dav">   27.48   29.01</time>
   <time name="total">   29.86   31.53</time>
   <energy>
    <i name="e_fr_energy">  -1516.09242544 </i>
    <i name="e_wo_entrp">  -1515.28475969 </i>
    <i name="e_0_energy">  -1515.68859257 </i>
   </energy>
  </scstep>
  <scstep>
   <time name="dav">   27.00   28.44</time>
   <time name="total">   29.38   30.97</time>
   <energy>
    <i name="e_fr_energy">  -1515.30196453 </i>
    <i name="e_wo_entrp">  -1514.65295900 </i>
    <i name="e_0_energy">  -1514.97746177 </i>
   </energy>
  </scstep>
  <scstep>
   <time name="dav">   25.81   27.21</time>
   <time name="total">   28.23   29.78</time>
   <energy>
    <i name="e_fr_energy">  -1513.36143037 </i>
    <i name="e_wo_entrp">  -1512.63950772 </i>
    <i name="e_0_energy">  -1513.00046904 </i>
   </energy>
  </scstep>
  <scstep>
   <time name="dav">   28.59   30.21</time>
   <time name="total">   31.04   32.82</time>
   <energy>
    <i name="e_fr_energy">  -1512.10971297 </i>
    <i name="e_wo_entrp">  -1511.36000105 </i>
    <i name="e_0_energy">  -1511.73485701 </i>
   </energy>
  </scstep>
  <scstep>
   <time name="dav">   28.96   30.53</time>
   <time name="total">   31.43   33.14</time>
   <energy>
    <i name="e_fr_energy">  -1494.68600467 </i>
    <i name="e_wo_entrp">  -1493.92210914 </i>
    <i name="e_0_energy">  -1494.30405691 </i>
   </energy>
  </scstep>
  <scstep>
   <time name="dav">   29.26   30.81</time>
   <time name="total">   31.74   33.42</time>
   <energy>
    <i name="e_fr_energy">  -1463.74961544 </i>
    <i name="e_wo_entrp">  -1462.82882645 </i>
    <i name="e_0_energy">  -1463.28922095 </i>
   </energy>
  </scstep>
  <scstep>
   <time name="dav">   31.09   32.74</time>
   <time name="total">   33.62   35.43</time>
   <energy>
    <i name="e_fr_energy">  -1458.47287898 </i>
    <i name="e_wo_entrp">  -1457.37001354 </i>
    <i name="e_0_energy">  -1457.92144626 </i>
   </energy>
  </scstep>
  <scstep>
   <time name="dav">   30.44   32.11</time>
   <time name="total">   32.98   34.81</time>
   <energy>
    <i name="e_fr_energy">  -1451.04246832 </i>
    <i name="e_wo_entrp">  -1449.86871788 </i>
    <i name="e_0_energy">  -1450.45559310 </i>
   </energy>
  </scstep>
  <scstep>
   <time name="dav">   28.25   29.79</time>
   <time name="total">   30.79   32.48</time>
   <energy>
    <i name="e_fr_energy">  -1450.30313349 </i>
    <i name="e_wo_entrp">  -1449.21164491 </i>
    <i name="e_0_energy">  -1449.75738920 </i>
   </energy>
  </scstep>
  <scstep>
   <time name="dav">   25.22   26.57</time>
   <time name="total">   27.79   29.31</time>
   <energy>
    <i name="e_fr_energy">  -1447.06646787 </i>
    <i name="e_wo_entrp">  -1445.85804546 </i>
    <i name="e_0_energy">  -1446.46225667 </i>
   </energy>
  </scstep>
  <scstep>
   <time name="dav">   26.56   28.05</time>
   <time name="total">   29.20   30.84</time>
   <energy>
    <i name="e_fr_energy">  -1447.59361150 </i>
    <i name="e_wo_entrp">  -1446.39445429 </i>
    <i name="e_0_energy">  -1446.99403289 </i>
   </energy>
  </scstep>
  <scstep>
   <time name="dav">   26.67   28.15</time>
   <time name="total">   29.28   30.93</time>
   <energy>
    <i name="e_fr_energy">  -1449.53211442 </i>
    <i name="e_wo_entrp">  -1448.35531855 </i>
    <i name="e_0_energy">  -1448.94371649 </i>
   </energy>
  </scstep>
  <scstep>
   <time name="dav">   33.09   34.87</time>
   <time name="total">   35.72   37.65</time>
   <energy>
    <i name="e_fr_energy">  -1454.85399585 </i>
    <i name="e_wo_entrp">  -1453.83671710 </i>
    <i name="e_0_energy">  -1454.34535648 </i>
   </energy>
  </scstep>
  <scstep>
   <time name="dav">   29.09   30.67</time>
   <time name="total">   31.75   33.52</time>
   <energy>
    <i name="e_fr_energy">  -1461.29847916 </i>
    <i name="e_wo_entrp">  -1460.50117117 </i>
    <i name="e_0_energy">  -1460.89982516 </i>
   </energy>
  </scstep>
  <scstep>
   <time name="dav">   27.91   29.45</time>
   <time name="total">   30.62   32.32</time>
   <energy>
    <i name="e_fr_energy">  -1461.79252142 </i>
    <i name="e_wo_entrp">  -1460.83367955 </i>
    <i name="e_0_energy">  -1461.31310048 </i>
   </energy>
  </scstep>
  <scstep>
   <time name="dav">   26.68   28.25</time>
   <time name="total">   29.40   31.15</time>
   <energy>
    <i name="e_fr_energy">  -1460.07386131 </i>
    <i name="e_wo_entrp">  -1459.06404581 </i>
    <i name="e_0_energy">  -1459.56895356 </i>
   </energy>
  </scstep>
  <scstep>
   <time name="dav">   28.02   29.62</time>
   <time name="total">   30.77   32.52</time>
   <energy>
    <i name="e_fr_energy">  -1451.61429275 </i>
    <i name="e_wo_entrp">  -1450.54046499 </i>
    <i name="e_0_energy">  -1451.07737887 </i>
   </energy>
  </scstep>
  <scstep>
   <time name="dav">   28.77   30.29</time>
   <time name="total">   31.53   33.23</time>
   <energy>
    <i name="e_fr_energy">  -1448.42200292 </i>
    <i name="e_wo_entrp">  -1447.34679498 </i>
    <i name="e_0_energy">  -1447.88439895 </i>
   </energy>
  </scstep>
  <scstep>
   <time name="dav">   30.79   32.50</time>
   <time name="total">   33.58   35.47</time>
   <energy>
    <i name="e_fr_energy">  -1447.96715591 </i>
    <i name="e_wo_entrp">  -1446.84073085 </i>
    <i name="e_0_energy">  -1447.40394338 </i>
   </energy>
  </scstep>
  <scstep>
   <time name="dav">   27.16   28.56</time>
   <time name="total">   30.02   31.58</time>
   <energy>
    <i name="e_fr_energy">  -1447.48491414 </i>
    <i name="e_wo_entrp">  -1446.35805521 </i>
    <i name="e_0_energy">  -1446.92148467 </i>
   </energy>
  </scstep>
  <scstep>
   <time name="dav">   29.18   30.74</time>
   <time name="total">   32.09   33.83</time>
   <energy>
    <i name="e_fr_energy">  -1443.71831522 </i>
    <i name="e_wo_entrp">  -1442.47759215 </i>
    <i name="e_0_energy">  -1443.09795368 </i>
   </energy>
  </scstep>
  <scstep>
   <time name="dav">   32.78   34.56</time>
   <time name="total">   35.67   37.62</time>
   <energy>
    <i name="e_fr_energy">  -1441.69175493 </i>
    <i name="e_wo_entrp">  -1440.47616209 </i>
    <i name="e_0_energy">  -1441.08395851 </i>
   </energy>
  </scstep>
  <scstep>
   <time name="dav">   28.80   30.37</time>
   <time name="total">   31.68   33.42</time>
   <energy>
    <i name="e_fr_energy">  -1444.51325637 </i>
    <i name="e_wo_entrp">  -1443.35019068 </i>
    <i name="e_0_energy">  -1443.93172352 </i>
   </energy>
  </scstep>
  <scstep>
   <time name="dav">   28.78   30.36</time>
   <time name="total">   31.60   33.35</time>
   <energy>
    <i name="e_fr_energy">  -1449.28238341 </i>
    <i name="e_wo_entrp">  -1448.41674232 </i>
    <i name="e_0_energy">  -1448.84956287 </i>
   </energy>
  </scstep>
  <scstep>
   <time name="dav">   39.17   41.25</time>
   <time name="total">   42.04   44.30</time>
   <energy>
    <i name="e_fr_energy">  -1443.05971969 </i>
    <i name="e_wo_entrp">  -1441.96391124 </i>
    <i name="e_0_energy">  -1442.51181547 </i>
   </energy>
  </scstep>
  <scstep>
   <time name="dav">   36.63   38.64</time>
   <time name="total">   39.55   41.74</time>
   <energy>
    <i name="e_fr_energy">  -1441.10504183 </i>
    <i name="e_wo_entrp">  -1439.92412717 </i>
    <i name="e_0_energy">  -1440.51458450 </i>
   </energy>
  </scstep>
  <scstep>
   <time name="dav">   31.91   33.63</time>
   <time name="total">   34.80   36.67</time>
   <energy>
    <i name="e_fr_energy">  -1440.56273332 </i>
    <i name="e_wo_entrp">  -1439.36392570 </i>
    <i name="e_0_energy">  -1439.96332951 </i>
   </energy>
  </scstep>
  <scstep>
   <time name="dav">   29.52   31.09</time>
   <time name="total">   32.38   34.14</time>
   <energy>
    <i name="e_fr_energy">  -1439.97555166 </i>
    <i name="e_wo_entrp">  -1438.76079174 </i>
    <i name="e_0_energy">  -1439.36817170 </i>
   </energy>
  </scstep>
  <scstep>
   <time name="dav">   32.71   34.49</time>
   <time name="total">   35.51   37.46</time>
   <energy>
    <i name="e_fr_energy">  -1439.32226790 </i>
    <i name="e_wo_entrp">  -1438.05391916 </i>
    <i name="e_0_energy">  -1438.68809353 </i>
   </energy>
  </scstep>
  <scstep>
   <time name="dav">   33.41   35.25</time>
   <time name="total">   36.26   38.26</time>
   <energy>
    <i name="e_fr_energy">  -1439.21932654 </i>
    <i name="e_wo_entrp">  -1437.93950228 </i>
    <i name="e_0_energy">  -1438.57941441 </i>
   </energy>
  </scstep>
  <scstep>
   <time name="dav">   33.69   35.51</time>
   <time name="total">   36.59   38.59</time>
   <energy>
    <i name="e_fr_energy">  -1439.13536489 </i>
    <i name="e_wo_entrp">  -1437.84937048 </i>
    <i name="e_0_energy">  -1438.49236768 </i>
   </energy>
  </scstep>
  <scstep>
   <time name="dav">   30.89   32.52</time>
   <time name="total">   33.78   35.60</time>
   <energy>
    <i name="e_fr_energy">  -1439.05470356 </i>
    <i name="e_wo_entrp">  -1437.75436347 </i>
    <i name="e_0_energy">  -1438.40453351 </i>
   </energy>
  </scstep>
  <scstep>
   <time name="dav">   33.94   35.88</time>
   <time name="total">   36.79   38.90</time>
   <energy>
    <i name="e_fr_energy">  -1438.98422195 </i>
    <i name="e_wo_entrp">  -1437.66456382 </i>
    <i name="e_0_energy">  -1438.32439288 </i>
   </energy>
  </scstep>
  <scstep>
   <time name="dav">   38.28   40.39</time>
   <time name="total">   41.11   43.37</time>
   <energy>
    <i name="e_fr_energy">  -1438.93072004 </i>
    <i name="e_wo_entrp">  -1437.58113394 </i>
    <i name="e_0_energy">  -1438.25592699 </i>
   </energy>
  </scstep>
  <scstep>
   <time name="dav">   29.45   31.03</time>
   <time name="total">   32.28   34.03</time>
   <energy>
    <i name="e_fr_energy">  -1438.93884604 </i>
    <i name="e_wo_entrp">  -1437.58193707 </i>
    <i name="e_0_energy">  -1438.26039155 </i>
   </energy>
  </scstep>
  <scstep>
   <time name="dav">   26.42   27.82</time>
   <time name="total">   29.31   30.87</time>
   <energy>
    <i name="e_fr_energy">  -1438.92378891 </i>
    <i name="e_wo_entrp">  -1437.57693545 </i>
    <i name="e_0_energy">  -1438.25036218 </i>
   </energy>
  </scstep>
  <scstep>
   <time name="dav">   32.96   34.75</time>
   <time name="total">   35.86   37.82</time>
   <energy>
    <i name="e_fr_energy">  -1438.92798693 </i>
    <i name="e_wo_entrp">  -1437.58433134 </i>
    <i name="e_0_energy">  -1438.25615913 </i>
   </energy>
  </scstep>
  <scstep>
   <time name="dav">   31.70   33.42</time>
   <time name="total">   34.55   36.42</time>
   <energy>
    <i name="e_fr_energy">  -1438.92350837 </i>
    <i name="e_wo_entrp">  -1437.57767189 </i>
    <i name="e_0_energy">  -1438.25059013 </i>
   </energy>
  </scstep>
  <scstep>
   <time name="dav">   35.19   37.09</time>
   <time name="total">   38.00   40.08</time>
   <energy>
    <i name="e_fr_energy">  -1438.92540246 </i>
    <i name="e_wo_entrp">  -1437.58173146 </i>
    <i name="e_0_energy">  -1438.25356696 </i>
   </energy>
  </scstep>
  <scstep>
   <time name="dav">   27.62   29.14</time>
   <time name="total">   30.46   32.13</time>
   <energy>
    <i name="e_fr_energy">  -1438.92565276 </i>
    <i name="e_wo_entrp">  -1437.57955366 </i>
    <i name="e_0_energy">  -1438.25260321 </i>
   </energy>
  </scstep>
  <scstep>
   <time name="dav">   30.68   32.36</time>
   <time name="total">   33.55   35.38</time>
   <energy>
    <i name="e_fr_energy">  -1438.92702189 </i>
    <i name="e_wo_entrp">  -1437.58107163 </i>
    <i name="e_0_energy">  -1438.25404676 </i>
[...]
  </crystal>
  <varray name="positions" >
   <v>       0.44448995       0.44448995       0.08056969 </v>
   <v>       0.44453112       0.77773444       0.08067243 </v>
   <v>       0.44448995       0.11102010       0.08056969 </v>
   <v>       0.77773444       0.44453112       0.08067243 </v>
   <v>       0.77773444       0.77773444       0.08067243 </v>
   <v>       0.77759398       0.11120301       0.08050016 </v>
   <v>       0.11102010       0.44448995       0.08056969 </v>
   <v>       0.11120301       0.77759398       0.08050016 </v>
   <v>       0.11120301       0.11120301       0.08050016 </v>
   <v>       0.55565197       0.55565197       0.13485052 </v>
   <v>       0.55565197       0.88869607       0.13485052 </v>
   <v>       0.55567861       0.22216070       0.13492076 </v>
   <v>       0.88869607       0.55565197       0.13485052 </v>
   <v>       0.88880224       0.88880224       0.13495928 </v>
   <v>       0.88880224       0.22239552       0.13495928 </v>
   <v>       0.22216070       0.55567861       0.13492076 </v>
   <v>       0.22239552       0.88880224       0.13495928 </v>
   <v>       0.22216070       0.22216070       0.13492076 </v>
   <v>       0.66666667       0.66666667       0.19150496 </v>
   <v>       0.66663524      -0.00011620       0.19161677 </v>
   <v>       0.66663524       0.33348096       0.19161677 </v>
   <v>      -0.00011620       0.66663524       0.19161677 </v>
   <v>       0.00000000      -0.00000000       0.19167459 </v>
   <v>      -0.00011620       0.33348096       0.19161677 </v>
   <v>       0.33348096       0.66663524       0.19161677 </v>
   <v>       0.33348096      -0.00011620       0.19161677 </v>
   <v>       0.33333333       0.33333333       0.19169634 </v>
   <v>       0.77790036       0.77790036       0.24840823 </v>
   <v>       0.77789715       0.11105142       0.24814839 </v>
   <v>       0.77790036       0.44419929       0.24840823 </v>
   <v>       0.11105142       0.77789715       0.24814839 </v>
   <v>       0.11105142       0.11105142       0.24814839 </v>
   <v>       0.11122591       0.44438705       0.24848296 </v>
   <v>       0.44419929       0.77790036       0.24840823 </v>
   <v>       0.44438705       0.11122591       0.24848296 </v>
   <v>       0.44438705       0.44438705       0.24848296 </v>
   <v>       0.88882595       0.88882595       0.30329563 </v>
   <v>       0.88882595       0.22234810       0.30329563 </v>
   <v>       0.88890319       0.55554841       0.30348276 </v>
   <v>       0.22234810       0.88882595       0.30329563 </v>
   <v>       0.22164014       0.22164014       0.30361272 </v>
   <v>       0.22164014       0.55671972       0.30361272 </v>
   <v>       0.55554841       0.88890319       0.30348276 </v>
   <v>       0.55671972       0.22164014       0.30361272 </v>
   <v>       0.55554841       0.55554841       0.30348276 </v>
   <v>       0.00000000      -0.00000000       0.35854585 </v>
   <v>       0.00024664       0.33310855       0.35800073 </v>
   <v>       0.00024664       0.66664480       0.35800073 </v>
   <v>       0.33310855       0.00024664       0.35800073 </v>
   <v>       0.33333333       0.33333333       0.35778346 </v>
   <v>       0.33310855       0.66664480       0.35800073 </v>
   <v>       0.66664480       0.00024664       0.35800073 </v>
   <v>       0.66664480       0.33310855       0.35800073 </v>
   <v>       0.66666667       0.66666667       0.35929118 </v>
   <v>       0.11503910       0.11503910       0.41583634 </v>
   <v>       0.12298433       0.43850784       0.41411992 </v>
   <v>       0.11503910       0.76992180       0.41583634 </v>
   <v>       0.43850784       0.12298433       0.41411992 </v>
   <v>       0.43850784       0.43850784       0.41411992 </v>
   <v>       0.45129884       0.77435058       0.40969389 </v>
   <v>       0.76992180       0.11503910       0.41583634 </v>
   <v>       0.77435058       0.45129884       0.40969389 </v>
   <v>       0.77435058       0.77435058       0.40969389 </v>
   <v>       0.27773444       0.27773444       0.08067243 </v>
   <v>       0.27759398       0.61120301       0.08050016 </v>
   <v>       0.27773444       0.94453112       0.08067243 </v>
   <v>       0.61120301       0.27759398       0.08050016 </v>
   <v>       0.61120301       0.61120301       0.08050016 </v>
   <v>       0.61102010       0.94448995       0.08056969 </v>
   <v>       0.94453112       0.27773444       0.08067243 </v>
   <v>       0.94448995       0.61102010       0.08056969 </v>
   <v>       0.94448995       0.94448995       0.08056969 </v>
   <v>       0.38880224       0.38880224       0.13495928 </v>
   <v>       0.38880224       0.72239552       0.13495928 </v>
   <v>       0.38869607       0.05565197       0.13485052 </v>
   <v>       0.72239552       0.38880224       0.13495928 </v>
   <v>       0.72216070       0.72216070       0.13492076 </v>
   <v>       0.72216070       0.05567861       0.13492076 </v>
   <v>       0.05565197       0.38869607       0.13485052 </v>
   <v>       0.05567861       0.72216070       0.13492076 </v>
   <v>       0.05565197       0.05565197       0.13485052 </v>
   <v>       0.50000000       0.50000000       0.19167459 </v>
   <v>       0.49988380       0.83348096       0.19161677 </v>
   <v>       0.49988380       0.16663524       0.19161677 </v>
   <v>       0.83348096       0.49988380       0.19161677 </v>
   <v>       0.83333333       0.83333333       0.19169634 </v>
   <v>       0.83348096       0.16663524       0.19161677 </v>
   <v>       0.16663524       0.49988380       0.19161677 </v>
   <v>       0.16663524       0.83348096       0.19161677 </v>
   <v>       0.16666667       0.16666667       0.19150496 </v>
   <v>       0.61105142       0.61105142       0.24814839 </v>
   <v>       0.61122591       0.94438705       0.24848296 </v>
   <v>       0.61105142       0.27789715       0.24814839 </v>
   <v>       0.94438705       0.61122591       0.24848296 </v>
   <v>       0.94438705       0.94438705       0.24848296 </v>
   <v>       0.94419929       0.27790036       0.24840823 </v>
   <v>       0.27789715       0.61105142       0.24814839 </v>
   <v>       0.27790036       0.94419929       0.24840823 </v>
   <v>       0.27790036       0.27790036       0.24840823 </v>
   <v>       0.72164014       0.72164014       0.30361272 </v>
   <v>       0.72164014       0.05671972       0.30361272 </v>
   <v>       0.72234810       0.38882595       0.30329563 </v>
   <v>       0.05671972       0.72164014       0.30361272 </v>
   <v>       0.05554841       0.05554841       0.30348276 </v>
   <v>       0.05554841       0.38890319       0.30348276 </v>
   <v>       0.38882595       0.72234810       0.30329563 </v>
   <v>       0.38890319       0.05554841       0.30348276 </v>
   <v>       0.38882595       0.38882595       0.30329563 </v>
   <v>       0.83333333       0.83333333       0.35778346 </v>
   <v>       0.83310855       0.16664480       0.35800073 </v>
   <v>       0.83310855       0.50024664       0.35800073 </v>
   <v>       0.16664480       0.83310855       0.35800073 </v>
   <v>       0.16666667       0.16666667       0.35929118 </v>
   <v>       0.16664480       0.50024664       0.35800073 </v>
   <v>       0.50024664       0.83310855       0.35800073 </v>
   <v>       0.50024664       0.16664480       0.35800073 </v>
   <v>       0.50000000       0.50000000       0.35854585 </v>
   <v>       0.93850784       0.93850784       0.41411992 </v>
   <v>       0.95129884       0.27435058       0.40969389 </v>
   <v>       0.93850784       0.62298433       0.41411992 </v>
   <v>       0.27435058       0.95129884       0.40969389 </v>
   <v>       0.27435058       0.27435058       0.40969389 </v>
   <v>       0.26992180       0.61503910       0.41583634 </v>
   <v>       0.62298433       0.93850784       0.41411992 </v>
   <v>       0.61503910       0.26992180       0.41583634 </v>
   <v>       0.61503910       0.61503910       0.41583634 </v>
   <v>       0.27773444       0.44453112       0.08067243 </v>
   <v>       0.27773444       0.77773444       0.08067243 </v>
   <v>       0.27759398       0.11120301       0.08050016 </v>
   <v>       0.61102010       0.44448995       0.08056969 </v>
   <v>       0.61120301       0.77759398       0.08050016 </v>
   <v>       0.61120301       0.11120301       0.08050016 </v>
   <v>       0.94448995       0.44448995       0.08056969 </v>
   <v>       0.94453112       0.77773444       0.08067243 </v>
   <v>       0.94448995       0.11102010       0.08056969 </v>
   <v>       0.38869607       0.55565197       0.13485052 </v>
   <v>       0.38880224       0.88880224       0.13495928 </v>
   <v>       0.38880224       0.22239552       0.13495928 </v>
   <v>       0.72216070       0.55567861       0.13492076 </v>
   <v>       0.72239552       0.88880224       0.13495928 </v>
   <v>       0.72216070       0.22216070       0.13492076 </v>
   <v>       0.05565197       0.55565197       0.13485052 </v>
   <v>       0.05565197       0.88869607       0.13485052 </v>
   <v>       0.05567861       0.22216070       0.13492076 </v>
   <v>       0.49988380       0.66663524       0.19161677 </v>
   <v>       0.50000000      -0.00000000       0.19167459 </v>
   <v>       0.49988380       0.33348096       0.19161677 </v>
   <v>       0.83348096       0.66663524       0.19161677 </v>
   <v>       0.83348096      -0.00011620       0.19161677 </v>
   <v>       0.83333333       0.33333333       0.19169634 </v>
   <v>       0.16666667       0.66666667       0.19150496 </v>
   <v>       0.16663524      -0.00011620       0.19161677 </v>
   <v>       0.16663524       0.33348096       0.19161677 </v>
   <v>       0.61105142       0.77789715       0.24814839 </v>
   <v>       0.61105142       0.11105142       0.24814839 </v>
   <v>       0.61122591       0.44438705       0.24848296 </v>
   <v>       0.94419929       0.77790036       0.24840823 </v>
   <v>       0.94438705       0.11122591       0.24848296 </v>
   <v>       0.94438705       0.44438705       0.24848296 </v>
   <v>       0.27790036       0.77790036       0.24840823 </v>
   <v>       0.27789715       0.11105142       0.24814839 </v>
   <v>       0.27790036       0.44419929       0.24840823 </v>
   <v>       0.72234810       0.88882595       0.30329563 </v>
   <v>       0.72164014       0.22164014       0.30361272 </v>
   <v>       0.72164014       0.55671972       0.30361272 </v>
   <v>       0.05554841       0.88890319       0.30348276 </v>
   <v>       0.05671972       0.22164014       0.30361272 </v>
   <v>       0.05554841       0.55554841       0.30348276 </v>
   <v>       0.38882595       0.88882595       0.30329563 </v>
   <v>       0.38882595       0.22234810       0.30329563 </v>
   <v>       0.38890319       0.55554841       0.30348276 </v>
   <v>       0.83310855       0.00024664       0.35800073 </v>
   <v>       0.83333333       0.33333333       0.35778346 </v>
   <v>       0.83310855       0.66664480       0.35800073 </v>
   <v>       0.16664480       0.00024664       0.35800073 </v>
   <v>       0.16664480       0.33310855       0.35800073 </v>
   <v>       0.16666667       0.66666667       0.35929118 </v>
   <v>       0.50000000      -0.00000000       0.35854585 </v>
   <v>       0.50024664       0.33310855       0.35800073 </v>
   <v>       0.50024664       0.66664480       0.35800073 </v>
   <v>       0.93850784       0.12298433       0.41411992 </v>
   <v>       0.93850784       0.43850784       0.41411992 </v>
   <v>       0.95129884       0.77435058       0.40969389 </v>
   <v>       0.26992180       0.11503910       0.41583634 </v>
   <v>       0.27435058       0.45129884       0.40969389 </v>
   <v>       0.27435058       0.77435058       0.40969389 </v>
   <v>       0.61503910       0.11503910       0.41583634 </v>
   <v>       0.62298433       0.43850784       0.41411992 </v>
   <v>       0.61503910       0.76992180       0.41583634 </v>
   <v>       0.44453112       0.27773444       0.08067243 </v>
   <v>       0.44448995       0.61102010       0.08056969 </v>
   <v>       0.44448995       0.94448995       0.08056969 </v>
   <v>       0.77773444       0.27773444       0.08067243 </v>
   <v>       0.77759398       0.61120301       0.08050016 </v>
   <v>       0.77773444       0.94453112       0.08067243 </v>
   <v>       0.11120301       0.27759398       0.08050016 </v>
   <v>       0.11120301       0.61120301       0.08050016 </v>
   <v>       0.11102010       0.94448995       0.08056969 </v>
   <v>       0.55565197       0.38869607       0.13485052 </v>
   <v>       0.55567861       0.72216070       0.13492076 </v>
   <v>       0.55565197       0.05565197       0.13485052 </v>
   <v>       0.88880224       0.38880224       0.13495928 </v>
   <v>       0.88880224       0.72239552       0.13495928 </v>
   <v>       0.88869607       0.05565197       0.13485052 </v>
   <v>       0.22239552       0.38880224       0.13495928 </v>
   <v>       0.22216070       0.72216070       0.13492076 </v>
   <v>       0.22216070       0.05567861       0.13492076 </v>
   <v>       0.66663524       0.49988380       0.19161677 </v>
   <v>       0.66663524       0.83348096       0.19161677 </v>
   <v>       0.66666667       0.16666667       0.19150496 </v>
   <v>       0.00000000       0.50000000       0.19167459 </v>
   <v>      -0.00011620       0.83348096       0.19161677 </v>
   <v>      -0.00011620       0.16663524       0.19161677 </v>
   <v>       0.33348096       0.49988380       0.19161677 </v>
   <v>       0.33333333       0.83333333       0.19169634 </v>
   <v>       0.33348096       0.16663524       0.19161677 </v>
   <v>       0.77789715       0.61105142       0.24814839 </v>
   <v>       0.77790036       0.94419929       0.24840823 </v>
   <v>       0.77790036       0.27790036       0.24840823 </v>
   <v>       0.11105142       0.61105142       0.24814839 </v>
   <v>       0.11122591       0.94438705       0.24848296 </v>
   <v>       0.11105142       0.27789715       0.24814839 </v>
   <v>       0.44438705       0.61122591       0.24848296 </v>
   <v>       0.44438705       0.94438705       0.24848296 </v>
   <v>       0.44419929       0.27790036       0.24840823 </v>
   <v>       0.88882595       0.72234810       0.30329563 </v>
   <v>       0.88890319       0.05554841       0.30348276 </v>
   <v>       0.88882595       0.38882595       0.30329563 </v>
   <v>       0.22164014       0.72164014       0.30361272 </v>
   <v>       0.22164014       0.05671972       0.30361272 </v>
   <v>       0.22234810       0.38882595       0.30329563 </v>
   <v>       0.55671972       0.72164014       0.30361272 </v>
   <v>       0.55554841       0.05554841       0.30348276 </v>
   <v>       0.55554841       0.38890319       0.30348276 </v>
   <v>       0.00024664       0.83310855       0.35800073 </v>
   <v>       0.00024664       0.16664480       0.35800073 </v>
   <v>       0.00000000       0.50000000       0.35854585 </v>
   <v>       0.33333333       0.83333333       0.35778346 </v>
   <v>       0.33310855       0.16664480       0.35800073 </v>
   <v>       0.33310855       0.50024664       0.35800073 </v>
   <v>       0.66664480       0.83310855       0.35800073 </v>
   <v>       0.66666667       0.16666667       0.35929118 </v>
   <v>       0.66664480       0.50024664       0.35800073 </v>
   <v>       0.12298433       0.93850784       0.41411992 </v>
   <v>       0.11503910       0.26992180       0.41583634 </v>
   <v>       0.11503910       0.61503910       0.41583634 </v>
   <v>       0.43850784       0.93850784       0.41411992 </v>
   <v>       0.45129884       0.27435058       0.40969389 </v>
   <v>       0.43850784       0.62298433       0.41411992 </v>
   <v>       0.77435058       0.95129884       0.40969389 </v>
   <v>       0.77435058       0.27435058       0.40969389 </v>
   <v>       0.76992180       0.61503910       0.41583634 </v>
   <v>       0.00000000      -0.00000000       0.42801956 </v>
   <v>       0.01943343       0.10121288       0.48004412 </v>
   <v>      -0.05901360       0.27950680       0.47601200 </v>
   <v>       0.01943343       0.37935369       0.48004412 </v>
   <v>       0.00000000       0.50000000       0.42801956 </v>
   <v>       0.01943343       0.60121288       0.48004412 </v>
   <v>      -0.05901360       0.77950680       0.47601200 </v>
   <v>       0.01943343       0.87935369       0.48004412 </v>
   <v>       0.10121288       0.01943343       0.48004412 </v>
   <v>       0.13395474       0.13395474       0.50934738 </v>
   <v>       0.13395474       0.23209052       0.50934738 </v>
   <v>       0.10121288       0.37935369       0.48004412 </v>
   <v>       0.10121288       0.51943343       0.48004412 </v>
   <v>       0.13395474       0.63395474       0.50934738 </v>
   <v>       0.13395474       0.73209052       0.50934738 </v>
   <v>       0.10121288       0.87935369       0.48004412 </v>
   <v>       0.27950680      -0.05901360       0.47601200 </v>
   <v>       0.23209052       0.13395474       0.50934738 </v>
   <v>       0.27950680       0.27950680       0.47601200 </v>
   <v>       0.23729890       0.38135055       0.46007846 </v>
   <v>       0.27950680       0.44098640       0.47601200 </v>
   <v>       0.23209052       0.63395474       0.50934738 </v>
   <v>       0.27950680       0.77950680       0.47601200 </v>
   <v>       0.23729890       0.88135055       0.46007846 </v>
   <v>       0.37935369       0.01943343       0.48004412 </v>
   <v>       0.37935369       0.10121288       0.48004412 </v>
   <v>       0.38135055       0.23729890       0.46007846 </v>
   <v>       0.38135055       0.38135055       0.46007846 </v>
   <v>       0.37935369       0.51943343       0.48004412 </v>
   <v>       0.37935369       0.60121288       0.48004412 </v>
   <v>       0.38135055       0.73729890       0.46007846 </v>
   <v>       0.38135055       0.88135055       0.46007846 </v>
   <v>       0.50000000      -0.00000000       0.42801956 </v>
   <v>       0.51943343       0.10121288       0.48004412 </v>
   <v>       0.44098640       0.27950680       0.47601200 </v>
   <v>       0.51943343       0.37935369       0.48004412 </v>
   <v>       0.50000000       0.50000000       0.42801956 </v>
   <v>       0.51943343       0.60121288       0.48004412 </v>
   <v>       0.44098640       0.77950680       0.47601200 </v>
   <v>       0.51943343       0.87935369       0.48004412 </v>
   <v>       0.60121288       0.01943343       0.48004412 </v>
   <v>       0.63395474       0.13395474       0.50934738 </v>
   <v>       0.63395474       0.23209052       0.50934738 </v>
   <v>       0.60121288       0.37935369       0.48004412 </v>
   <v>       0.60121288       0.51943343       0.48004412 </v>
   <v>       0.63395474       0.63395474       0.50934738 </v>
   <v>       0.63395474       0.73209052       0.50934738 </v>
   <v>       0.60121288       0.87935369       0.48004412 </v>
   <v>       0.77950680      -0.05901360       0.47601200 </v>
   <v>       0.73209052       0.13395474       0.50934738 </v>
   <v>       0.77950680       0.27950680       0.47601200 </v>
   <v>       0.73729890       0.38135055       0.46007846 </v>
   <v>       0.77950680       0.44098640       0.47601200 </v>
   <v>       0.73209052       0.63395474       0.50934738 </v>
   <v>       0.77950680       0.77950680       0.47601200 </v>
   <v>       0.73729890       0.88135055       0.46007846 </v>
   <v>       0.87935369       0.01943343       0.48004412 </v>
   <v>       0.87935369       0.10121288       0.48004412 </v>
   <v>       0.88135055       0.23729890       0.46007846 </v>
   <v>       0.88135055       0.38135055       0.46007846 </v>
   <v>       0.87935369       0.51943343       0.48004412 </v>
   <v>       0.87935369       0.60121288       0.48004412 </v>
   <v>       0.88135055       0.73729890       0.46007846 </v>
   <v>       0.88135055       0.88135055       0.46007846 </v>
  </varray>
 </structure>
</modeling>
