 running on    1 total cores
 distrk:  each k-point on    1 cores,    1 groups
 distr:  one band on    1 cores,    1 groups
 OpenACC runtime initialized ...    1 GPUs detected
 vasp.6.2.1 16May21 (build May 12 2022 08:28:04) complex                         
 POSCAR found type information on POSCAR NiO 
 POSCAR found :  2 types and     316 ions
 scaLAPACK will be used selectively (only on CPU)
 LDA part: xc-table for Pade appr. of Perdew
 POSCAR found type information on POSCAR NiO 
 POSCAR found :  2 types and     316 ions
 POSCAR, INCAR and KPOINTS ok, starting setup
 FFT: planning ...
 WAVECAR not read
 entering main loop
       N       E                     dE             d eps       ncg     rms          rms(c)
DAV:   1     0.276488270585E+05    0.27649E+05   -0.11237E+06  6968   0.129E+03
DAV:   2     0.185064078613E+04   -0.25798E+05   -0.24517E+05  7060   0.469E+02
DAV:   3    -0.101641403020E+04   -0.28671E+04   -0.24911E+04  9312   0.149E+02
DAV:   4    -0.163336756715E+04   -0.61695E+03   -0.51975E+03 13216   0.643E+01
DAV:   5    -0.175905984997E+04   -0.12569E+03   -0.99898E+02 13040   0.245E+01    0.262E+02
DAV:   6    -0.241255596134E+04   -0.65350E+03   -0.53530E+03  9000   0.195E+02    0.493E+02
DAV:   7    -0.271665120224E+04   -0.30410E+03   -0.11000E+03  8440   0.120E+02    0.483E+02
DAV:   8    -0.657761062900E+04   -0.38610E+04   -0.26420E+03 11384   0.946E+01    0.755E+02
DAV:   9    -0.101971299809E+05   -0.36195E+04   -0.15087E+04  9496   0.222E+02    0.791E+02
DAV:  10    -0.274835554127E+04    0.74488E+04   -0.82205E+03 10400   0.111E+02    0.448E+02
DAV:  11    -0.298387967089E+04   -0.23552E+03   -0.36595E+03  8912   0.144E+02    0.437E+02
DAV:  12    -0.190530784340E+04    0.10786E+04   -0.38327E+03 12152   0.119E+02    0.339E+02
DAV:  13    -0.216730785987E+04   -0.26200E+03   -0.37379E+03 11360   0.965E+01    0.281E+02
DAV:  14    -0.238956653019E+04   -0.22226E+03   -0.83111E+02  8848   0.109E+02    0.299E+02
DAV:  15    -0.234352948333E+04    0.46037E+02   -0.82442E+02 11352   0.852E+01    0.331E+02
DAV:  16    -0.180984709631E+04    0.53368E+03   -0.56871E+02  8392   0.633E+01    0.174E+02
DAV:  17    -0.198417235231E+04   -0.17433E+03   -0.23054E+02  9112   0.587E+01    0.244E+02
DAV:  18    -0.187495713397E+04    0.10922E+03   -0.17275E+02  8376   0.389E+01    0.214E+02
DAV:  19    -0.183660175130E+04    0.38355E+02   -0.11369E+02  7888   0.365E+01    0.211E+02
DAV:  20    -0.183747155897E+04   -0.86981E+00   -0.10826E+02  9176   0.372E+01    0.216E+02
DAV:  21    -0.169246074744E+04    0.14501E+03   -0.82880E+01  8088   0.371E+01    0.157E+02
DAV:  22    -0.172322725161E+04   -0.30767E+02   -0.89012E+01  8664   0.386E+01    0.225E+02
DAV:  23    -0.166730935700E+04    0.55918E+02   -0.53555E+01  7576   0.291E+01    0.201E+02
DAV:  24    -0.160560477522E+04    0.61705E+02   -0.49832E+01  9840   0.217E+01    0.174E+02
DAV:  25    -0.156270934652E+04    0.42895E+02   -0.38280E+01  9288   0.208E+01    0.141E+02
DAV:  26    -0.155611750102E+04    0.65918E+01   -0.25234E+01  9488   0.124E+01    0.132E+02
DAV:  27    -0.152605579335E+04    0.30062E+02   -0.21136E+01  9112   0.169E+01    0.113E+02
DAV:  28    -0.151595703410E+04    0.10099E+02   -0.12651E+01  8352   0.928E+00    0.101E+02
DAV:  29    -0.151550796441E+04    0.44907E+00   -0.67559E+00  8128   0.923E+00    0.106E+02
DAV:  30    -0.151358553433E+04    0.19224E+01   -0.49891E+00  7688   0.801E+00    0.103E+02
DAV:  31    -0.151122317907E+04    0.23624E+01   -0.55940E+00  8776   0.943E+00    0.105E+02
DAV:  32    -0.149450318967E+04    0.16720E+02   -0.10943E+01  9000   0.138E+01    0.934E+01
DAV:  33    -0.146439544081E+04    0.30108E+02   -0.15610E+01  9120   0.159E+01    0.654E+01
DAV:  34    -0.145892364256E+04    0.54718E+01   -0.10526E+01  9520   0.108E+01    0.564E+01
DAV:  35    -0.145130336282E+04    0.76203E+01   -0.94522E+00  9768   0.154E+01    0.530E+01
DAV:  36    -0.144974422985E+04    0.15591E+01   -0.64441E+00  8720   0.900E+00    0.519E+01
DAV:  37    -0.144728066491E+04    0.24636E+01   -0.44797E+00  7664   0.643E+00    0.412E+01
DAV:  38    -0.144743113951E+04   -0.15047E+00   -0.29292E+00  7696   0.684E+00    0.400E+01
DAV:  39    -0.145042816630E+04   -0.29970E+01   -0.40137E+00  7952   0.102E+01    0.529E+01
DAV:  40    -0.145566678870E+04   -0.52386E+01   -0.86939E+00  9992   0.142E+01    0.713E+01
DAV:  41    -0.146144347435E+04   -0.57767E+01   -0.51501E+00  8256   0.100E+01    0.898E+01
DAV:  42    -0.145943331424E+04    0.20102E+01   -0.29919E+00  7896   0.774E+00    0.840E+01
DAV:  43    -0.146323267768E+04   -0.37994E+01   -0.30746E+00 10016   0.627E+00    0.904E+01
DAV:  44    -0.146224938218E+04    0.98330E+00   -0.22102E+00  8632   0.602E+00    0.815E+01
DAV:  45    -0.145466143683E+04    0.75879E+01   -0.18778E+00  8128   0.519E+00    0.672E+01
DAV:  46    -0.145250732313E+04    0.21541E+01   -0.89164E-01  8856   0.352E+00    0.607E+01
DAV:  47    -0.144901528159E+04    0.34920E+01   -0.13556E+00 11832   0.345E+00    0.507E+01
DAV:  48    -0.144886100790E+04    0.15427E+00   -0.10554E+00  9264   0.397E+00    0.542E+01
DAV:  49    -0.144291818903E+04    0.59428E+01   -0.11966E+00  8264   0.440E+00    0.322E+01
DAV:  50    -0.144329131656E+04   -0.37313E+00   -0.37943E-01  8216   0.186E+00    0.365E+01
DAV:  51    -0.145124773236E+04   -0.79564E+01   -0.51631E+00  9920   0.132E+01    0.588E+01
DAV:  52    -0.144449148513E+04    0.67562E+01   -0.18630E+00 12064   0.395E+00    0.447E+01
DAV:  53    -0.144155558364E+04    0.29359E+01   -0.68231E-01 11072   0.281E+00    0.300E+01
DAV:  54    -0.144124334868E+04    0.31223E+00   -0.49995E-01  9920   0.200E+00    0.284E+01
DAV:  55    -0.143999995507E+04    0.12434E+01   -0.53491E-01  8320   0.238E+00    0.174E+01
DAV:  56    -0.143934292233E+04    0.65703E+00   -0.39801E-01 12592   0.236E+00    0.999E+00
DAV:  57    -0.143921555623E+04    0.12737E+00   -0.20478E-01 11008   0.161E+00    0.960E+00
DAV:  58    -0.143906364414E+04    0.15191E+00   -0.77902E-02 11928   0.858E-01    0.691E+00
DAV:  59    -0.143905992018E+04    0.37240E-02   -0.50429E-02  9280   0.818E-01    0.784E+00
DAV:  60    -0.143905925954E+04    0.66063E-03   -0.21644E-02  8080   0.496E-01
 -----------------------------------------------------------------------------
|                                                                             |
|           W    W    AA    RRRRR   N    N  II  N    N   GGGG   !!!           |
|           W    W   A  A   R    R  NN   N  II  NN   N  G    G  !!!           |
|           W    W  A    A  R    R  N N  N  II  N N  N  G       !!!           |
|           W WW W  AAAAAA  RRRRR   N  N N  II  N  N N  G  GGG   !            |
|           WW  WW  A    A  R   R   N   NN  II  N   NN  G    G                |
|           W    W  A    A  R    R  N    N  II  N    N   GGGG   !!!           |
|                                                                             |
|     The electronic self-consistency was not achieved in the given           |
|     number of steps (NELM). The forces and other quantities evaluated       |
|     might not be reliable so examine the results carefully. If you find     |
|     spurious results, we suggest increasing NELM, if you were close to      |
|     convergence or switching to a different ALGO or adjusting the           |
|     density mixing parameters otherwise.                                    |
|                                                                             |
 -----------------------------------------------------------------------------

   1 F= -.15398439E+04 E0= -.15391952E+04  d E =-.153984E+04
 curvature:   0.00 expect dE= 0.000E+00 dE for cont linesearch  0.000E+00
 trial: gam= 0.00000 g(F)=  0.148E+03 g(S)=  0.000E+00 ort = 0.000E+00 (trialstep = 0.100E+01)
 search vector abs. value=  0.148E+03
 bond charge predicted
       N       E                     dE             d eps       ncg     rms          rms(c)
DAV:   1    -0.125525253356E+04    0.18381E+03   -0.31571E+04  7230   0.186E+02    0.101E+02
DAV:   2    -0.370657931294E+04   -0.24513E+04   -0.16020E+03  8288   0.206E+02    0.421E+02
DAV:   3    -0.221345721617E+04    0.14931E+04   -0.21603E+03  7984   0.127E+02    0.280E+02
DAV:   4    -0.218086799226E+04    0.32589E+02   -0.39787E+02 10672   0.125E+02    0.275E+02
DAV:   5    -0.179606361337E+04    0.38480E+03   -0.43096E+02  9048   0.878E+01    0.225E+02
DAV:   6    -0.172579391811E+04    0.70270E+02   -0.31021E+02  8208   0.722E+01    0.194E+02
DAV:   7    -0.160721189049E+04    0.11858E+03   -0.18025E+02  7920   0.674E+01    0.126E+02
DAV:   8    -0.154667916026E+04    0.60533E+02   -0.12867E+02  8088   0.512E+01    0.138E+02
DAV:   9    -0.153180765849E+04    0.14872E+02   -0.10118E+02  8352   0.339E+01    0.118E+02
DAV:  10    -0.157112511771E+04   -0.39317E+02   -0.41763E+01  7464   0.334E+01    0.153E+02
DAV:  11    -0.154358626678E+04    0.27539E+02   -0.29051E+01  7912   0.254E+01    0.119E+02
DAV:  12    -0.153219307258E+04    0.11393E+02   -0.20888E+01  8568   0.184E+01    0.101E+02
DAV:  13    -0.154228741623E+04   -0.10094E+02   -0.15332E+01  8792   0.161E+01    0.122E+02
DAV:  14    -0.153273220843E+04    0.95552E+01   -0.12511E+01  8008   0.153E+01    0.110E+02
DAV:  15    -0.154966752764E+04   -0.16935E+02   -0.17716E+01  8904   0.216E+01    0.137E+02
DAV:  16    -0.152550891000E+04    0.24159E+02   -0.15310E+01  8136   0.215E+01    0.103E+02
DAV:  17    -0.151344837590E+04    0.12061E+02   -0.11157E+01  7864   0.187E+01    0.879E+01
DAV:  18    -0.151157245287E+04    0.18759E+01   -0.83916E+00  8328   0.135E+01    0.927E+01
DAV:  19    -0.150688031852E+04    0.46921E+01   -0.68126E+00  7880   0.127E+01    0.821E+01
DAV:  20    -0.150325114679E+04    0.36292E+01   -0.33224E+00  7952   0.530E+00    0.776E+01
DAV:  21    -0.150541011455E+04   -0.21590E+01   -0.22392E+00  8184   0.715E+00    0.813E+01
DAV:  22    -0.151296592743E+04   -0.75558E+01   -0.44891E+00  8472   0.110E+01    0.922E+01
DAV:  23    -0.150699527841E+04    0.59706E+01   -0.30159E+00  8048   0.997E+00    0.839E+01
DAV:  24    -0.150244709944E+04    0.45482E+01   -0.28218E+00  8776   0.896E+00    0.742E+01
DAV:  25    -0.149722227980E+04    0.52248E+01   -0.25896E+00  8200   0.767E+00    0.603E+01
DAV:  26    -0.149748411985E+04   -0.26184E+00   -0.13755E+00  7968   0.597E+00    0.614E+01
DAV:  27    -0.150883540644E+04   -0.11351E+02   -0.27346E+00  8264   0.905E+00    0.883E+01
DAV:  28    -0.150631657327E+04    0.25188E+01   -0.15509E+00  8256   0.586E+00    0.843E+01
DAV:  29    -0.150374835117E+04    0.25682E+01   -0.22369E+00  8392   0.823E+00    0.718E+01
DAV:  30    -0.150917525435E+04   -0.54269E+01   -0.18206E+00 12936   0.355E+00    0.790E+01
DAV:  31    -0.150993927195E+04   -0.76402E+00   -0.44701E-01  9000   0.176E+00    0.807E+01
DAV:  32    -0.151212540111E+04   -0.21861E+01   -0.80605E-01  9200   0.411E+00    0.867E+01
DAV:  33    -0.151098146940E+04    0.11439E+01   -0.27300E-01  8720   0.103E+00    0.852E+01
DAV:  34    -0.150864792532E+04    0.23335E+01   -0.88302E-02  7656   0.122E+00    0.815E+01
DAV:  35    -0.150842456512E+04    0.22336E+00   -0.43778E-02  8424   0.399E-01    0.813E+01
DAV:  36    -0.150811689575E+04    0.30767E+00   -0.12205E-01 10200   0.152E+00    0.825E+01
DAV:  37    -0.151189689897E+04   -0.37800E+01   -0.27314E-01 11536   0.234E+00    0.876E+01
DAV:  38    -0.151146921432E+04    0.42768E+00   -0.40096E-01 11272   0.270E+00    0.904E+01
DAV:  39    -0.150658311887E+04    0.48861E+01   -0.21819E-01  9456   0.187E+00    0.826E+01
DAV:  40    -0.150176328075E+04    0.48198E+01   -0.14349E-01 11992   0.198E+00    0.770E+01
DAV:  41    -0.149502981981E+04    0.67335E+01   -0.39118E-01 12728   0.249E+00    0.584E+01
DAV:  42    -0.149550545126E+04   -0.47563E+00   -0.24392E-01 11640   0.133E+00    0.638E+01
DAV:  43    -0.149523854803E+04    0.26690E+00   -0.41867E-02  8792   0.592E-01    0.625E+01
DAV:  44    -0.149547206163E+04   -0.23351E+00   -0.16675E-02  7648   0.466E-01    0.642E+01
DAV:  45    -0.149098315391E+04    0.44889E+01   -0.36007E-01 12928   0.218E+00    0.475E+01
DAV:  46    -0.148952346635E+04    0.14597E+01   -0.27937E-01 11264   0.149E+00    0.388E+01
DAV:  47    -0.149011464183E+04   -0.59118E+00   -0.37088E+00 11936   0.910E+00    0.439E+01
DAV:  48    -0.148907575742E+04    0.10389E+01   -0.91237E-01  9472   0.155E+00    0.380E+01
DAV:  49    -0.148903938997E+04    0.36367E-01   -0.87016E-02  7576   0.638E-01    0.385E+01
DAV:  50    -0.148901922640E+04    0.20164E-01   -0.11379E-02 11568   0.155E-01    0.384E+01
DAV:  51    -0.148901307676E+04    0.61496E-02   -0.83984E-04 10368   0.555E-02    0.385E+01
DAV:  52    -0.148951701767E+04   -0.50394E+00   -0.17813E-01 11128   0.177E+00    0.424E+01
DAV:  53    -0.148979559526E+04   -0.27858E+00   -0.58344E-02  9608   0.107E+00    0.442E+01
DAV:  54    -0.148991383450E+04   -0.11824E+00   -0.20501E-02 10168   0.206E-01    0.448E+01
DAV:  55    -0.148897010216E+04    0.94373E+00   -0.72526E-02 12848   0.864E-01    0.398E+01
DAV:  56    -0.148880586489E+04    0.16424E+00   -0.79127E-02 11048   0.109E+00    0.378E+01
DAV:  57    -0.148607740318E+04    0.27285E+01   -0.15373E+00 12840   0.484E+00    0.124E+01
DAV:  58    -0.148585433172E+04    0.22307E+00   -0.51104E-01 11712   0.241E+00    0.104E+01
DAV:  59    -0.148594330481E+04   -0.88973E-01   -0.21557E-01  8288   0.120E+00    0.131E+01
DAV:  60    -0.148595207225E+04   -0.87674E-02   -0.43600E-02 10000   0.497E-01
 -----------------------------------------------------------------------------
|                                                                             |
|           W    W    AA    RRRRR   N    N  II  N    N   GGGG   !!!           |
|           W    W   A  A   R    R  NN   N  II  NN   N  G    G  !!!           |
|           W    W  A    A  R    R  N N  N  II  N N  N  G       !!!           |
|           W WW W  AAAAAA  RRRRR   N  N N  II  N  N N  G  GGG   !            |
|           WW  WW  A    A  R   R   N   NN  II  N   NN  G    G                |
|           W    W  A    A  R    R  N    N  II  N    N   GGGG   !!!           |
|                                                                             |
|     The electronic self-consistency was not achieved in the given           |
|     number of steps (NELM). The forces and other quantities evaluated       |
|     might not be reliable so examine the results carefully. If you find     |
|     spurious results, we suggest increasing NELM, if you were close to      |
|     convergence or switching to a different ALGO or adjusting the           |
|     density mixing parameters otherwise.                                    |
|                                                                             |
 -----------------------------------------------------------------------------

   2 F= -.15867438E+04 E0= -.15860761E+04  d E =-.468999E+02
 trial-energy change:  -46.899929  1 .order  -76.472958 -147.671719   -5.274197
 step:   1.0370(harm=  1.0370)  dis= 0.26984  next Energy= -1616.414537 (dE=-0.766E+02)
 bond charge predicted
       N       E                     dE             d eps       ncg     rms          rms(c)
DAV:   1    -0.148602539013E+04   -0.82085E-01   -0.36565E+01  6980   0.590E+00    0.134E+01
DAV:   2    -0.183403124393E+04   -0.34801E+03   -0.44311E+01 10360   0.708E+01    0.214E+02
DAV:   3    -0.159943365378E+04    0.23460E+03   -0.16724E+01 10592   0.528E+01    0.190E+02
DAV:   4    -0.152709092789E+04    0.72343E+02   -0.35674E+01 10560   0.230E+01    0.103E+02
DAV:   5    -0.148785056441E+04    0.39240E+02   -0.12736E+01  8440   0.207E+01    0.283E+01
DAV:   6    -0.148966922990E+04   -0.18187E+01   -0.65188E+00  8728   0.105E+01    0.368E+01
DAV:   7    -0.148902246151E+04    0.64677E+00   -0.59814E+00  7952   0.108E+01    0.321E+01
DAV:   8    -0.149038519700E+04   -0.13627E+01   -0.41542E+00  7784   0.100E+01    0.434E+01
DAV:   9    -0.148765121177E+04    0.27340E+01   -0.22438E+00  8064   0.488E+00    0.272E+01
DAV:  10    -0.148830396774E+04   -0.65276E+00   -0.11345E+00  8080   0.451E+00    0.286E+01
DAV:  11    -0.148692576440E+04    0.13782E+01   -0.10616E+00  8024   0.482E+00    0.178E+01
DAV:  12    -0.148797724587E+04   -0.10515E+01   -0.14179E+00  9384   0.551E+00    0.268E+01
DAV:  13    -0.148630640608E+04    0.16708E+01   -0.10708E+00  8296   0.534E+00    0.129E+01
DAV:  14    -0.148612100263E+04    0.18540E+00   -0.58709E-01  8160   0.322E+00    0.925E+00
DAV:  15    -0.148602880272E+04    0.92200E-01   -0.26869E-01  8112   0.251E+00    0.831E+00
DAV:  16    -0.148589572124E+04    0.13308E+00   -0.15470E-01  7840   0.185E+00    0.557E+00
DAV:  17    -0.148587267984E+04    0.23041E-01   -0.70197E-02  8616   0.974E-01    0.497E+00
DAV:  18    -0.148585361116E+04    0.19069E-01   -0.55355E-02  8296   0.109E+00    0.379E+00
DAV:  19    -0.148588325697E+04   -0.29646E-01   -0.72995E-02  9376   0.122E+00    0.484E+00
DAV:  20    -0.148583836155E+04    0.44895E-01   -0.64660E-02  9120   0.123E+00    0.377E+00
DAV:  21    -0.148583612872E+04    0.22328E-02   -0.26865E-02  9504   0.670E-01    0.300E+00
DAV:  22    -0.148583605706E+04    0.71659E-04   -0.18239E-02  8592   0.632E-01    0.295E+00
DAV:  23    -0.148583881875E+04   -0.27617E-02   -0.22104E-02  8992   0.745E-01    0.296E+00
DAV:  24    -0.148585157716E+04   -0.12758E-01   -0.24077E-02  9360   0.701E-01    0.344E+00
DAV:  25    -0.148582865989E+04    0.22917E-01   -0.16118E-02  9216   0.635E-01    0.225E+00
DAV:  26    -0.148582718847E+04    0.14714E-02   -0.84615E-03  9160   0.413E-01    0.219E+00
DAV:  27    -0.148582057675E+04    0.66117E-02   -0.44560E-03  8976   0.303E-01    0.121E+00
DAV:  28    -0.148581965869E+04    0.91806E-03   -0.27176E-03  9088   0.183E-01    0.667E-01
DAV:  29    -0.148582094943E+04   -0.12907E-02   -0.10275E-03  9200   0.156E-01    0.839E-01
DAV:  30    -0.148582107406E+04   -0.12463E-03   -0.91192E-04  9024   0.125E-01    0.798E-01
DAV:  31    -0.148582096848E+04    0.10558E-03   -0.66937E-04  8880   0.108E-01    0.571E-01
DAV:  32    -0.148582101608E+04   -0.47601E-04   -0.54790E-04  8584   0.108E-01    0.386E-01
DAV:  33    -0.148582168228E+04   -0.66620E-03   -0.41332E-04  9000   0.902E-02    0.371E-01
DAV:  34    -0.148582179553E+04   -0.11325E-03   -0.31206E-04  8864   0.897E-02    0.198E-01
DAV:  35    -0.148582245289E+04   -0.65736E-03   -0.16595E-04  9496   0.529E-02    0.313E-01
DAV:  36    -0.148582266545E+04   -0.21256E-03   -0.14896E-04  9352   0.540E-02    0.313E-01
DAV:  37    -0.148582319803E+04   -0.53258E-03   -0.69440E-05  8752   0.346E-02    0.231E-01
DAV:  38    -0.148582336059E+04   -0.16256E-03   -0.66486E-05  8160   0.349E-02    0.225E-01
DAV:  39    -0.148582371483E+04   -0.35424E-03   -0.32290E-05  7360   0.241E-02    0.110E-01
DAV:  40    -0.148582431371E+04   -0.59888E-03   -0.32429E-05  5576   0.237E-02    0.117E-01
DAV:  41    -0.148582442169E+04   -0.10798E-03   -0.30874E-05  6776   0.183E-02    0.109E-01
DAV:  42    -0.148582499603E+04   -0.57434E-03   -0.28145E-05  5408   0.164E-02    0.210E-01
DAV:  43    -0.148582531694E+04   -0.32091E-03   -0.31425E-05  7032   0.972E-03    0.182E-01
DAV:  44    -0.148582536830E+04   -0.51351E-04   -0.49979E-06  3744   0.715E-03    0.131E-01
DAV:  45    -0.148582541592E+04   -0.47621E-04   -0.82706E-06  4224   0.114E-02    0.290E-02
DAV:  46    -0.148582543974E+04   -0.23824E-04   -0.54420E-06  3840   0.464E-03    0.165E-02
DAV:  47    -0.148582544797E+04   -0.82287E-05   -0.31547E-06  3592   0.572E-03    0.213E-02
DAV:  48    -0.148582546567E+04   -0.17700E-04   -0.14418E-06  3592   0.272E-03    0.344E-02
DAV:  49    -0.148582548171E+04   -0.16043E-04   -0.15010E-06  3632   0.480E-03    0.715E-03
DAV:  50    -0.148582548941E+04   -0.76969E-05   -0.88458E-07  3608   0.199E-03    0.553E-03
DAV:  51    -0.148582549066E+04   -0.12456E-05   -0.60633E-07  3592   0.892E-04
   3 F= -.15866250E+04 E0= -.15859185E+04  d E =-.467811E+02
 curvature:  -0.52 expect dE=-0.962E+00 dE for cont linesearch -0.442E-01
 ZBRENT: increasing intervall
 opt :   1.1111  next Energy= -1586.760230 (dE=-0.469E+02)
 bond charge predicted
       N       E                     dE             d eps       ncg     rms          rms(c)
DAV:   1    -0.148573585104E+04    0.89638E-01   -0.14465E+02  6968   0.117E+01    0.458E+00
DAV:   2    -0.153791271788E+04   -0.52177E+02   -0.53101E+00  8112   0.199E+01    0.111E+02
DAV:   3    -0.148647037731E+04    0.51442E+02   -0.31714E+00  7992   0.179E+01    0.123E+01
DAV:   4    -0.148961885851E+04   -0.31485E+01   -0.24697E+00  8880   0.637E+00    0.406E+01
DAV:   5    -0.148977672898E+04   -0.15787E+00   -0.28281E+00  8560   0.790E+00    0.392E+01
DAV:   6    -0.148959824963E+04    0.17848E+00   -0.22694E+00  8256   0.701E+00    0.335E+01
DAV:   7    -0.148786775889E+04    0.17305E+01   -0.97322E-01  8384   0.541E+00    0.257E+01
DAV:   8    -0.148641048728E+04    0.14573E+01   -0.69522E-01  8400   0.345E+00    0.132E+01
DAV:   9    -0.148632138317E+04    0.89104E-01   -0.33097E-01  8608   0.274E+00    0.974E+00
DAV:  10    -0.148619307418E+04    0.12831E+00   -0.28223E-01  8936   0.240E+00    0.832E+00
DAV:  11    -0.148627625292E+04   -0.83179E-01   -0.22200E-01  8800   0.220E+00    0.110E+01
DAV:  12    -0.148626220343E+04    0.14049E-01   -0.14884E-01  8536   0.189E+00    0.110E+01
DAV:  13    -0.148623268336E+04    0.29520E-01   -0.71824E-02  8480   0.131E+00    0.104E+01
DAV:  14    -0.148605020578E+04    0.18248E+00   -0.92772E-02  8256   0.103E+00    0.454E+00
DAV:  15    -0.148602841818E+04    0.21788E-01   -0.35132E-02  8552   0.834E-01    0.271E+00
DAV:  16    -0.148603108744E+04   -0.26693E-02   -0.19409E-02  9144   0.669E-01    0.264E+00
DAV:  17    -0.148602613598E+04    0.49515E-02   -0.13840E-02  9032   0.636E-01    0.277E+00
DAV:  18    -0.148603515875E+04   -0.90228E-02   -0.20006E-02 10008   0.637E-01    0.274E+00
DAV:  19    -0.148601994037E+04    0.15218E-01   -0.21850E-02  9352   0.686E-01    0.143E+00
DAV:  20    -0.148601965204E+04    0.28833E-03   -0.97080E-03  9608   0.478E-01    0.149E+00
DAV:  21    -0.148601744369E+04    0.22083E-02   -0.50813E-03  9480   0.333E-01    0.114E+00
DAV:  22    -0.148601526529E+04    0.21784E-02   -0.35510E-03  9592   0.281E-01    0.759E-01
DAV:  23    -0.148601529396E+04   -0.28670E-04   -0.20802E-03  9656   0.215E-01    0.670E-01
DAV:  24    -0.148601451815E+04    0.77581E-03   -0.14636E-03  9984   0.187E-01    0.524E-01
DAV:  25    -0.148601483609E+04   -0.31794E-03   -0.86254E-04  9968   0.128E-01    0.657E-01
DAV:  26    -0.148601480369E+04    0.32405E-04   -0.41842E-04  9864   0.956E-02    0.701E-01
DAV:  27    -0.148601456136E+04    0.24232E-03   -0.34959E-04  9872   0.842E-02    0.588E-01
DAV:  28    -0.148601426125E+04    0.30012E-03   -0.21045E-04  9488   0.718E-02    0.425E-01
DAV:  29    -0.148601414860E+04    0.11265E-03   -0.13541E-04  9560   0.570E-02    0.367E-01
DAV:  30    -0.148601426188E+04   -0.11328E-03   -0.10289E-04  9312   0.502E-02    0.404E-01
DAV:  31    -0.148601410058E+04    0.16131E-03   -0.61320E-05  8440   0.414E-02    0.327E-01
DAV:  32    -0.148601408773E+04    0.12842E-04   -0.30111E-05  6512   0.235E-02    0.308E-01
DAV:  33    -0.148601404820E+04    0.39530E-04   -0.19584E-05  5656   0.211E-02    0.270E-01
DAV:  34    -0.148601401814E+04    0.30064E-04   -0.10030E-05  3888   0.157E-02    0.226E-01
DAV:  35    -0.148601396733E+04    0.50812E-04   -0.85160E-06  3888   0.144E-02    0.142E-01
DAV:  36    -0.148601395833E+04    0.89956E-05   -0.60067E-06  3728   0.108E-02    0.103E-01
DAV:  37    -0.148601394647E+04    0.11858E-04   -0.58420E-06  3784   0.103E-02    0.407E-02
DAV:  38    -0.148601394965E+04   -0.31767E-05   -0.49185E-06  3640   0.618E-03
   4 F= -.15868316E+04 E0= -.15861148E+04  d E =-.469877E+02
 curvature:  -1.58 expect dE=-0.295E+01 dE for cont linesearch -0.462E-01
 ZBRENT: increasing intervall
 opt :   1.2593  next Energy= -1586.920611 (dE=-0.471E+02)
 bond charge predicted
       N       E                     dE             d eps       ncg     rms          rms(c)
DAV:   1    -0.148476315688E+04    0.12508E+01   -0.58040E+02  6968   0.236E+01    0.900E+00
DAV:   2    -0.161511482703E+04   -0.13035E+03   -0.17086E+01  8240   0.356E+01    0.151E+02
DAV:   3    -0.148722931915E+04    0.12789E+03   -0.14071E+01  8248   0.306E+01    0.220E+01
DAV:   4    -0.149236449941E+04   -0.51352E+01   -0.55809E+00  8672   0.106E+01    0.536E+01
DAV:   5    -0.150662064090E+04   -0.14256E+02   -0.62571E+00  8256   0.152E+01    0.757E+01
DAV:   6    -0.149642374088E+04    0.10197E+02   -0.74636E+00  7896   0.140E+01    0.510E+01
DAV:   7    -0.149103733797E+04    0.53864E+01   -0.28112E+00  8296   0.958E+00    0.416E+01
DAV:   8    -0.148723459040E+04    0.38027E+01   -0.21144E+00  8280   0.610E+00    0.217E+01
DAV:   9    -0.148700513478E+04    0.22946E+00   -0.11970E+00  8424   0.504E+00    0.166E+01
DAV:  10    -0.148663651043E+04    0.36862E+00   -0.89590E-01  8504   0.428E+00    0.150E+01
DAV:  11    -0.148720356247E+04   -0.56705E+00   -0.71390E-01  8400   0.389E+00    0.244E+01
DAV:  12    -0.148701742490E+04    0.18614E+00   -0.68255E-01  8424   0.352E+00    0.206E+01
DAV:  13    -0.148722032948E+04   -0.20290E+00   -0.39206E-01  8392   0.283E+00    0.234E+01
DAV:  14    -0.148636541178E+04    0.85492E+00   -0.41979E-01  8032   0.227E+00    0.113E+01
DAV:  15    -0.148623802572E+04    0.12739E+00   -0.11539E-01  8288   0.176E+00    0.811E+00
DAV:  16    -0.148616881340E+04    0.69212E-01   -0.17533E-01  8408   0.163E+00    0.566E+00
DAV:  17    -0.148612517846E+04    0.43635E-01   -0.71791E-02  8312   0.125E+00    0.459E+00
DAV:  18    -0.148613331065E+04   -0.81322E-02   -0.53812E-02  9128   0.103E+00    0.432E+00
DAV:  19    -0.148618737593E+04   -0.54065E-01   -0.76687E-02  8976   0.119E+00    0.648E+00
DAV:  20    -0.148615295453E+04    0.34421E-01   -0.51111E-02  9048   0.117E+00    0.576E+00
DAV:  21    -0.148614415216E+04    0.88024E-02   -0.43549E-02  9048   0.937E-01    0.482E+00
DAV:  22    -0.148610212675E+04    0.42025E-01   -0.27114E-02  9104   0.749E-01    0.289E+00
DAV:  23    -0.148610053061E+04    0.15961E-02   -0.13717E-02  9408   0.551E-01    0.240E+00
DAV:  24    -0.148609068522E+04    0.98454E-02   -0.80617E-03  9512   0.444E-01    0.146E+00
DAV:  25    -0.148608980494E+04    0.88027E-03   -0.43369E-03  9976   0.266E-01    0.114E+00
DAV:  26    -0.148608786588E+04    0.19391E-02   -0.23466E-03  9824   0.216E-01    0.787E-01
DAV:  27    -0.148608894400E+04   -0.10781E-02   -0.17380E-03 10736   0.167E-01    0.912E-01
DAV:  28    -0.148608813747E+04    0.80653E-03   -0.12467E-03  9496   0.161E-01    0.738E-01
DAV:  29    -0.148608796153E+04    0.17594E-03   -0.63669E-04  9688   0.120E-01    0.666E-01
DAV:  30    -0.148608790588E+04    0.55648E-04   -0.55315E-04  9712   0.117E-01    0.481E-01
DAV:  31    -0.148608732221E+04    0.58367E-03   -0.40213E-04  9472   0.103E-01    0.225E-01
DAV:  32    -0.148608739740E+04   -0.75194E-04   -0.21533E-04 11600   0.522E-02    0.184E-01
DAV:  33    -0.148608737818E+04    0.19220E-04   -0.12712E-04 10216   0.500E-02    0.187E-01
DAV:  34    -0.148608751826E+04   -0.14008E-03   -0.55194E-05  8304   0.273E-02    0.313E-01
DAV:  35    -0.148608754409E+04   -0.25823E-04   -0.49170E-05  7968   0.352E-02    0.342E-01
DAV:  36    -0.148608752442E+04    0.19664E-04   -0.34823E-05  7264   0.289E-02    0.338E-01
DAV:  37    -0.148608749199E+04    0.32428E-04   -0.21191E-05  5944   0.223E-02    0.318E-01
DAV:  38    -0.148608739045E+04    0.10154E-03   -0.11949E-05  3824   0.134E-02    0.202E-01
DAV:  39    -0.148608734827E+04    0.42185E-04   -0.10923E-05  4080   0.124E-02    0.940E-02
DAV:  40    -0.148608735249E+04   -0.42226E-05   -0.11371E-05  4328   0.133E-02
   5 F= -.15869516E+04 E0= -.15862105E+04  d E =-.471077E+02
 curvature:  -3.05 expect dE=-0.644E+01 dE for cont linesearch -0.311E-02
 trial: gam= 0.01692 g(F)=  0.211E+01 g(S)=  0.000E+00 ort =-0.388E+00 (trialstep = 0.105E+01)
 search vector abs. value=  0.214E+01
 bond charge predicted
       N       E                     dE             d eps       ncg     rms          rms(c)
DAV:   1    -0.148764795802E+04   -0.15606E+01   -0.45386E+02  6968   0.213E+01    0.561E+00
DAV:   2    -0.151665593782E+04   -0.29008E+02   -0.94340E+00  7856   0.178E+01    0.731E+01
DAV:   3    -0.149780813669E+04    0.18848E+02   -0.67321E+00  9032   0.181E+01    0.596E+01
DAV:   4    -0.149153300886E+04    0.62751E+01   -0.40936E+00  8016   0.110E+01    0.352E+01
DAV:   5    -0.148881803069E+04    0.27150E+01   -0.21993E+00  8320   0.598E+00    0.153E+01
DAV:   6    -0.149186865336E+04   -0.30506E+01   -0.24851E+00  8664   0.721E+00    0.357E+01
DAV:   7    -0.149019672110E+04    0.16719E+01   -0.19540E+00  8448   0.747E+00    0.225E+01
DAV:   8    -0.148940584840E+04    0.79087E+00   -0.11619E+00  8320   0.542E+00    0.205E+01
DAV:   9    -0.148856425468E+04    0.84159E+00   -0.76936E-01  8400   0.378E+00    0.904E+00
DAV:  10    -0.148836293942E+04    0.20132E+00   -0.27712E-01  8296   0.244E+00    0.527E+00
DAV:  11    -0.148860179341E+04   -0.23885E+00   -0.26516E-01  8336   0.175E+00    0.134E+01
DAV:  12    -0.148850858581E+04    0.93208E-01   -0.18587E-01  8520   0.188E+00    0.110E+01
DAV:  13    -0.148832784393E+04    0.18074E+00   -0.89978E-02  8080   0.136E+00    0.560E+00
DAV:  14    -0.148832118057E+04    0.66634E-02   -0.12666E-01  8424   0.114E+00    0.407E+00
DAV:  15    -0.148836953628E+04   -0.48356E-01   -0.42962E-02  9288   0.916E-01    0.699E+00
DAV:  16    -0.148845211510E+04   -0.82579E-01   -0.40706E-02  9232   0.934E-01    0.938E+00
DAV:  17    -0.148836323599E+04    0.88879E-01   -0.33579E-02  8440   0.819E-01    0.677E+00
DAV:  18    -0.148833843773E+04    0.24798E-01   -0.26559E-02  8600   0.837E-01    0.560E+00
DAV:  19    -0.148828503793E+04    0.53400E-01   -0.27171E-02  8520   0.723E-01    0.259E+00
DAV:  20    -0.148827617498E+04    0.88629E-02   -0.10802E-02  8688   0.520E-01    0.164E+00
DAV:  21    -0.148827988232E+04   -0.37073E-02   -0.73480E-03  8888   0.395E-01    0.179E+00
DAV:  22    -0.148827839132E+04    0.14910E-02   -0.52758E-03  8392   0.355E-01    0.183E+00
DAV:  23    -0.148827678464E+04    0.16067E-02   -0.17952E-03  9184   0.177E-01    0.161E+00
DAV:  24    -0.148827905460E+04   -0.22700E-02   -0.12011E-03  8920   0.160E-01    0.193E+00
DAV:  25    -0.148827715330E+04    0.19013E-02   -0.77537E-04  8840   0.132E-01    0.172E+00
DAV:  26    -0.148827599478E+04    0.11585E-02   -0.53586E-04 10032   0.984E-02    0.149E+00
DAV:  27    -0.148827412853E+04    0.18663E-02   -0.53673E-04  9816   0.100E-01    0.110E+00
DAV:  28    -0.148827286693E+04    0.12616E-02   -0.76120E-04 10952   0.117E-01    0.543E-01
DAV:  29    -0.148827237197E+04    0.49496E-03   -0.43831E-04 10896   0.969E-02    0.176E-01
DAV:  30    -0.148827257434E+04   -0.20237E-03   -0.24103E-04 10416   0.598E-02    0.289E-01
DAV:  31    -0.148827254385E+04    0.30488E-04   -0.15028E-04  8736   0.512E-02    0.293E-01
DAV:  32    -0.148827254218E+04    0.16741E-05   -0.66909E-05  7720   0.312E-02    0.295E-01
DAV:  33    -0.148827251357E+04    0.28610E-04   -0.28220E-05  6632   0.188E-02    0.271E-01
DAV:  34    -0.148827252941E+04   -0.15846E-04   -0.13441E-05  4088   0.165E-02    0.284E-01
DAV:  35    -0.148827258469E+04   -0.55273E-04   -0.11105E-05  3896   0.171E-02    0.334E-01
DAV:  36    -0.148827257175E+04    0.12938E-04   -0.14311E-05  4136   0.198E-02    0.320E-01
DAV:  37    -0.148827243690E+04    0.13485E-03   -0.19715E-05  3896   0.208E-02    0.174E-01
DAV:  38    -0.148827241930E+04    0.17600E-04   -0.73579E-06  3856   0.125E-02    0.138E-01
DAV:  39    -0.148827240837E+04    0.10928E-04   -0.66570E-06  3680   0.109E-02    0.117E-01
DAV:  40    -0.148827239972E+04    0.86450E-05   -0.25211E-06  3648   0.474E-03    0.936E-02
DAV:  41    -0.148827239805E+04    0.16713E-05   -0.25459E-06  3550   0.477E-03
   6 F= -.15891543E+04 E0= -.15884110E+04  d E =-.220269E+01
 ZBRENT: can't locate minimum, use default step
 trial-energy change:   -2.202692  1 .order   -2.200622   -2.213716   -2.187529
 step:   4.2074(harm= 88.9168)  dis= 0.08480  next Energy= -1680.518047 (dE=-0.936E+02)
 bond charge predicted
       N       E                     dE             d eps       ncg     rms          rms(c)
DAV:   1    -0.148443107404E+04    0.38413E+01   -0.41128E+03  6968   0.655E+01    0.211E+01
DAV:   2    -0.172553480959E+04   -0.24110E+03   -0.90108E+01  7800   0.711E+01    0.163E+02
DAV:   3    -0.157925896402E+04    0.14628E+03   -0.81915E+01  9192   0.533E+01    0.133E+02
DAV:   4    -0.155791614463E+04    0.21343E+02   -0.20500E+01  8112   0.360E+01    0.119E+02
DAV:   5    -0.150707104549E+04    0.50845E+02   -0.22829E+01  8080   0.257E+01    0.690E+01
DAV:   6    -0.152199663596E+04   -0.14926E+02   -0.24558E+01  8384   0.264E+01    0.711E+01
DAV:   7    -0.151254374218E+04    0.94529E+01   -0.16648E+01  8008   0.228E+01    0.776E+01
DAV:   8    -0.150396893998E+04    0.85748E+01   -0.11788E+01  7840   0.184E+01    0.570E+01
DAV:   9    -0.149965740881E+04    0.43115E+01   -0.60142E+00  8344   0.995E+00    0.407E+01
DAV:  10    -0.149527906939E+04    0.43783E+01   -0.32337E+00  7944   0.815E+00    0.153E+01
DAV:  11    -0.149871163617E+04   -0.34326E+01   -0.29973E+00  9824   0.711E+00    0.443E+01
DAV:  12    -0.149636770336E+04    0.23439E+01   -0.28514E+00  8504   0.766E+00    0.286E+01
DAV:  13    -0.149495454307E+04    0.14132E+01   -0.15954E+00  7736   0.580E+00    0.125E+01
DAV:  14    -0.149605730132E+04   -0.11028E+01   -0.13448E+00  7968   0.506E+00    0.234E+01
DAV:  15    -0.149786243758E+04   -0.18051E+01   -0.66918E-01  8008   0.446E+00    0.359E+01
DAV:  16    -0.149725761361E+04    0.60482E+00   -0.57474E-01  7936   0.337E+00    0.337E+01
DAV:  17    -0.149619345880E+04    0.10642E+01   -0.69957E-01  7960   0.391E+00    0.253E+01
DAV:  18    -0.149561226696E+04    0.58119E+00   -0.51884E-01  8072   0.395E+00    0.187E+01
DAV:  19    -0.149506117794E+04    0.55109E+00   -0.56582E-01  8056   0.401E+00    0.144E+01
DAV:  20    -0.149503715363E+04    0.24024E-01   -0.22141E-01  8200   0.245E+00    0.163E+01
DAV:  21    -0.149476094201E+04    0.27621E+00   -0.20332E-01  7584   0.168E+00    0.114E+01
DAV:  22    -0.149458011042E+04    0.18083E+00   -0.11441E-01  7656   0.138E+00    0.694E+00
DAV:  23    -0.149454683777E+04    0.33273E-01   -0.76536E-02  9576   0.973E-01    0.526E+00
DAV:  24    -0.149452971375E+04    0.17124E-01   -0.22458E-02  9112   0.636E-01    0.483E+00
DAV:  25    -0.149452211293E+04    0.76008E-02   -0.10529E-02  7696   0.363E-01    0.449E+00
DAV:  26    -0.149452923549E+04   -0.71226E-02   -0.11915E-02  8112   0.498E-01    0.472E+00
DAV:  27    -0.149453370722E+04   -0.44717E-02   -0.18541E-02  8704   0.659E-01    0.459E+00
DAV:  28    -0.149451458134E+04    0.19126E-01   -0.18684E-02  8912   0.643E-01    0.345E+00
DAV:  29    -0.149450556061E+04    0.90207E-02   -0.13321E-02  8888   0.568E-01    0.296E+00
DAV:  30    -0.149449276015E+04    0.12800E-01   -0.52872E-03  8976   0.346E-01    0.189E+00
DAV:  31    -0.149449002687E+04    0.27333E-02   -0.33469E-03  9392   0.216E-01    0.150E+00
DAV:  32    -0.149448758149E+04    0.24454E-02   -0.17058E-03  9536   0.144E-01    0.113E+00
DAV:  33    -0.149448755375E+04    0.27740E-04   -0.14281E-03  9024   0.142E-01    0.105E+00
DAV:  34    -0.149448788829E+04   -0.33454E-03   -0.11914E-03  8104   0.142E-01    0.112E+00
DAV:  35    -0.149448809425E+04   -0.20597E-03   -0.11132E-03  9416   0.143E-01    0.105E+00
DAV:  36    -0.149448598490E+04    0.21093E-02   -0.98431E-04  8832   0.140E-01    0.402E-01
DAV:  37    -0.149448593640E+04    0.48505E-04   -0.53045E-04 11488   0.744E-02    0.316E-01
DAV:  38    -0.149448570055E+04    0.23585E-03   -0.25959E-04  9952   0.649E-02    0.164E-01
DAV:  39    -0.149448574119E+04   -0.40637E-04   -0.15388E-04 10920   0.453E-02    0.162E-01
DAV:  40    -0.149448571663E+04    0.24557E-04   -0.78596E-05  9016   0.360E-02    0.168E-01
DAV:  41    -0.149448570637E+04    0.10260E-04   -0.37503E-05  6704   0.203E-02    0.974E-02
DAV:  42    -0.149448572977E+04   -0.23396E-04   -0.29013E-05  6848   0.235E-02    0.119E-01
DAV:  43    -0.149448569767E+04    0.32094E-04   -0.19361E-05  5624   0.214E-02    0.457E-02
DAV:  44    -0.149448571379E+04   -0.16113E-04   -0.69177E-06  3760   0.107E-02    0.945E-02
DAV:  45    -0.149448570495E+04    0.88341E-05   -0.35040E-06  3800   0.696E-03    0.460E-02
DAV:  46    -0.149448570503E+04   -0.72643E-07   -0.19613E-06  3712   0.349E-03
   7 F= -.15954289E+04 E0= -.15946843E+04  d E =-.847732E+01
 curvature:  -3.19 expect dE=-0.117E+02 dE for cont linesearch -0.506E+01
 ZBRENT: increasing intervall
 opt :  10.5185  next Energy= -1605.560162 (dE=-0.186E+02)
 bond charge predicted
       N       E                     dE             d eps       ncg     rms          rms(c)
DAV:   1    -0.143274016799E+04    0.61746E+02   -0.17158E+04  6968   0.143E+02    0.748E+01
DAV:   2    -0.271526905514E+04   -0.12825E+04   -0.55863E+02  7848   0.207E+02    0.344E+02
DAV:   3    -0.183687795242E+04    0.87839E+03   -0.99473E+02 10280   0.821E+01    0.202E+02
DAV:   4    -0.195379227379E+04   -0.11691E+03   -0.24227E+02  9240   0.893E+01    0.206E+02
DAV:   5    -0.219033123151E+04   -0.23654E+03   -0.17999E+02 10328   0.105E+02    0.295E+02
DAV:   6    -0.174486034946E+04    0.44547E+03   -0.25378E+02 10460   0.527E+01    0.201E+02
DAV:   7    -0.170230494898E+04    0.42555E+02   -0.15092E+02  9024   0.559E+01    0.195E+02
DAV:   8    -0.159467082409E+04    0.10763E+03   -0.86859E+01  8000   0.435E+01    0.125E+02
DAV:   9    -0.154390285236E+04    0.50768E+02   -0.53885E+01  7972   0.317E+01    0.947E+01
DAV:  10    -0.153382323670E+04    0.10080E+02   -0.41008E+01  8784   0.257E+01    0.926E+01
DAV:  11    -0.154092418697E+04   -0.71010E+01   -0.27277E+01  8152   0.257E+01    0.999E+01
DAV:  12    -0.152687009043E+04    0.14054E+02   -0.18787E+01  7832   0.174E+01    0.848E+01
DAV:  13    -0.152390795143E+04    0.29621E+01   -0.12209E+01  7904   0.135E+01    0.752E+01
DAV:  14    -0.151266396125E+04    0.11244E+02   -0.88105E+00  8056   0.125E+01    0.538E+01
DAV:  15    -0.150818143324E+04    0.44825E+01   -0.66464E+00  7680   0.124E+01    0.438E+01
DAV:  16    -0.150698933001E+04    0.11921E+01   -0.38516E+00  7688   0.838E+00    0.375E+01
DAV:  17    -0.150545973489E+04    0.15296E+01   -0.40386E+00  7784   0.961E+00    0.321E+01
DAV:  18    -0.150954667027E+04   -0.40869E+01   -0.53526E+00  9400   0.118E+01    0.487E+01
DAV:  19    -0.151110491835E+04   -0.15582E+01   -0.44341E+00  8160   0.107E+01    0.573E+01
DAV:  20    -0.150947366455E+04    0.16313E+01   -0.51680E+00  8048   0.118E+01    0.547E+01
DAV:  21    -0.150660381646E+04    0.28698E+01   -0.22785E+00  7984   0.775E+00    0.420E+01
DAV:  22    -0.150607493507E+04    0.52888E+00   -0.26157E+00  8376   0.803E+00    0.359E+01
DAV:  23    -0.150470109902E+04    0.13738E+01   -0.23772E+00  7984   0.780E+00    0.296E+01
DAV:  24    -0.150386963232E+04    0.83147E+00   -0.12305E+00  8104   0.540E+00    0.247E+01
DAV:  25    -0.150480781518E+04   -0.93818E+00   -0.11146E+00  7896   0.464E+00    0.336E+01
DAV:  26    -0.150487868457E+04   -0.70869E-01   -0.88812E-01  7768   0.419E+00    0.349E+01
DAV:  27    -0.150366676636E+04    0.12119E+01   -0.64833E-01  7808   0.338E+00    0.231E+01
DAV:  28    -0.150309627721E+04    0.57049E+00   -0.30329E-01  8072   0.226E+00    0.177E+01
DAV:  29    -0.150267381970E+04    0.42246E+00   -0.38442E-01  8608   0.252E+00    0.123E+01
DAV:  30    -0.150258870515E+04    0.85115E-01   -0.22992E-01  8272   0.224E+00    0.102E+01
DAV:  31    -0.150243379314E+04    0.15491E+00   -0.22338E-01  8496   0.212E+00    0.781E+00
DAV:  32    -0.150267132812E+04   -0.23753E+00   -0.21299E-01  8904   0.192E+00    0.137E+01
DAV:  33    -0.150256298336E+04    0.10834E+00   -0.12393E-01  8760   0.172E+00    0.120E+01
DAV:  34    -0.150234062007E+04    0.22236E+00   -0.24571E-01  8304   0.141E+00    0.409E+00
DAV:  35    -0.150235157986E+04   -0.10960E-01   -0.41500E-02  8688   0.102E+00    0.623E+00
DAV:  36    -0.150232081542E+04    0.30764E-01   -0.31940E-02  8432   0.685E-01    0.548E+00
DAV:  37    -0.150231783390E+04    0.29815E-02   -0.22158E-02  8240   0.620E-01    0.505E+00
DAV:  38    -0.150228807724E+04    0.29757E-01   -0.19746E-02  8560   0.646E-01    0.188E+00
DAV:  39    -0.150229249126E+04   -0.44140E-02   -0.12121E-02  8448   0.513E-01    0.163E+00
DAV:  40    -0.150229334733E+04   -0.85608E-03   -0.65507E-03  8584   0.310E-01    0.160E+00
DAV:  41    -0.150229290182E+04    0.44552E-03   -0.54466E-03  8160   0.300E-01    0.132E+00
DAV:  42    -0.150229317400E+04   -0.27219E-03   -0.36848E-03  8512   0.270E-01    0.143E+00
DAV:  43    -0.150229385996E+04   -0.68595E-03   -0.26097E-03  9656   0.164E-01    0.157E+00
DAV:  44    -0.150229388806E+04   -0.28105E-04   -0.13841E-03 10744   0.787E-02    0.160E+00
DAV:  45    -0.150229349099E+04    0.39707E-03   -0.32490E-04  8448   0.595E-02    0.152E+00
DAV:  46    -0.150229054099E+04    0.29500E-02   -0.60158E-04  8608   0.920E-02    0.807E-01
DAV:  47    -0.150228975607E+04    0.78492E-03   -0.53327E-04 12504   0.769E-02    0.170E-01
DAV:  48    -0.150228991941E+04   -0.16334E-03   -0.15200E-04  8040   0.351E-02    0.178E-01
DAV:  49    -0.150228989344E+04    0.25969E-04   -0.49656E-05  6768   0.246E-02    0.123E-01
DAV:  50    -0.150228987867E+04    0.14768E-04   -0.26002E-05  5944   0.139E-02    0.726E-02
DAV:  51    -0.150228987527E+04    0.33947E-05   -0.10918E-05  3840   0.118E-02
   8 F= -.16034650E+04 E0= -.16027030E+04  d E =-.165134E+02
 curvature:  -6.39 expect dE=-0.354E+02 dE for cont linesearch -0.958E+00
 ZBRENT: extrapolating
 opt :  13.3219  next Energy= -1604.259394 (dE=-0.173E+02)
 bond charge predicted
       N       E                     dE             d eps       ncg     rms          rms(c)
DAV:   1    -0.149523951455E+04    0.70504E+01   -0.32403E+03  6968   0.583E+01    0.223E+01
DAV:   2    -0.169129881393E+04   -0.19606E+03   -0.66222E+01  7848   0.613E+01    0.164E+02
DAV:   3    -0.155273140634E+04    0.13857E+03   -0.59260E+01  8704   0.472E+01    0.114E+02
DAV:   4    -0.157182032432E+04   -0.19089E+02   -0.18251E+01  8032   0.326E+01    0.121E+02
DAV:   5    -0.153494689905E+04    0.36873E+02   -0.17093E+01  8432   0.304E+01    0.110E+02
DAV:   6    -0.152519760830E+04    0.97493E+01   -0.22567E+01  8328   0.256E+01    0.729E+01
DAV:   7    -0.153283541053E+04   -0.76378E+01   -0.22171E+01  8248   0.229E+01    0.957E+01
DAV:   8    -0.151946260001E+04    0.13373E+02   -0.13785E+01  8288   0.218E+01    0.776E+01
DAV:   9    -0.151610944041E+04    0.33532E+01   -0.66248E+00  8256   0.117E+01    0.704E+01
DAV:  10    -0.150557631787E+04    0.10533E+02   -0.42786E+00  7928   0.983E+00    0.315E+01
DAV:  11    -0.150474117898E+04    0.83514E+00   -0.31650E+00  9536   0.814E+00    0.267E+01
DAV:  12    -0.150931868240E+04   -0.45775E+01   -0.29121E+00  8728   0.809E+00    0.541E+01
DAV:  13    -0.150779780120E+04    0.15209E+01   -0.29358E+00  7808   0.751E+00    0.498E+01
DAV:  14    -0.150522958742E+04    0.25682E+01   -0.17671E+00  7832   0.560E+00    0.346E+01
DAV:  15    -0.150338166862E+04    0.18479E+01   -0.16408E+00  8056   0.577E+00    0.140E+01
DAV:  16    -0.150538163063E+04   -0.20000E+01   -0.11276E+00  8400   0.544E+00    0.347E+01
DAV:  17    -0.150640129429E+04   -0.10197E+01   -0.51304E-01  7856   0.347E+00    0.405E+01
DAV:  18    -0.150580927927E+04    0.59202E+00   -0.43996E-01  7648   0.225E+00    0.366E+01
DAV:  19    -0.150492458961E+04    0.88469E+00   -0.24082E-01  7728   0.235E+00    0.320E+01
DAV:  20    -0.150398232152E+04    0.94227E+00   -0.47422E-01  9216   0.323E+00    0.219E+01
DAV:  21    -0.150343162619E+04    0.55070E+00   -0.47532E-01  9144   0.345E+00    0.181E+01
DAV:  22    -0.150355488859E+04   -0.12326E+00   -0.40370E-01  8800   0.283E+00    0.193E+01
DAV:  23    -0.150324860272E+04    0.30629E+00   -0.21474E-01  8528   0.232E+00    0.163E+01
DAV:  24    -0.150319819303E+04    0.50410E-01   -0.83277E-02  8304   0.135E+00    0.166E+01
DAV:  25    -0.150306971564E+04    0.12848E+00   -0.44319E-02  8768   0.101E+00    0.149E+01
DAV:  26    -0.150297714602E+04    0.92570E-01   -0.38394E-02  8656   0.926E-01    0.138E+01
DAV:  27    -0.150287290522E+04    0.10424E+00   -0.35038E-02  9456   0.812E-01    0.115E+01
DAV:  28    -0.150279441254E+04    0.78493E-01   -0.34798E-02  9032   0.829E-01    0.964E+00
DAV:  29    -0.150271027619E+04    0.84136E-01   -0.23777E-02 10912   0.610E-01    0.683E+00
DAV:  30    -0.150267906218E+04    0.31214E-01   -0.18063E-02 10648   0.562E-01    0.534E+00
DAV:  31    -0.150263923116E+04    0.39831E-01   -0.15502E-02 10968   0.528E-01    0.287E+00
DAV:  32    -0.150263127864E+04    0.79525E-02   -0.89241E-03 10528   0.315E-01    0.234E+00
DAV:  33    -0.150262616108E+04    0.51176E-02   -0.37796E-03 10208   0.182E-01    0.185E+00
DAV:  34    -0.150262505549E+04    0.11056E-02   -0.24131E-03  9480   0.188E-01    0.166E+00
DAV:  35    -0.150262218406E+04    0.28714E-02   -0.18285E-03  9120   0.195E-01    0.131E+00
DAV:  36    -0.150262223417E+04   -0.50111E-04   -0.26145E-03 11040   0.203E-01    0.101E+00
DAV:  37    -0.150262005224E+04    0.21819E-02   -0.16428E-03  9720   0.194E-01    0.564E-01
DAV:  38    -0.150262029883E+04   -0.24659E-03   -0.78981E-04 10904   0.107E-01    0.515E-01
DAV:  39    -0.150261984984E+04    0.44900E-03   -0.46824E-04  9352   0.104E-01    0.216E-01
DAV:  40    -0.150261987947E+04   -0.29628E-04   -0.16010E-04  9024   0.470E-02    0.161E-01
DAV:  41    -0.150261988313E+04   -0.36689E-05   -0.80402E-05  8280   0.368E-02    0.141E-01
DAV:  42    -0.150261996063E+04   -0.77499E-04   -0.58150E-05  7368   0.350E-02    0.273E-01
DAV:  43    -0.150261996413E+04   -0.34929E-05   -0.28140E-05  6472   0.135E-02
   9 F= -.16039900E+04 E0= -.16032124E+04  d E =-.170384E+02
 curvature:  -5.29 expect dE=-0.367E+02 dE for cont linesearch -0.122E+00
 trial: gam= 3.47421 g(F)=  0.694E+01 g(S)=  0.000E+00 ort =-0.222E+00 (trialstep = 0.240E+00)
 search vector abs. value=  0.312E+02
 bond charge predicted
       N       E                     dE             d eps       ncg     rms          rms(c)
DAV:   1    -0.150358511199E+04   -0.96515E+00   -0.31189E+02  6968   0.180E+01    0.102E+01
DAV:   2    -0.152527250248E+04   -0.21687E+02   -0.66770E+00  7760   0.148E+01    0.652E+01
DAV:   3    -0.151683629313E+04    0.84362E+01   -0.34386E+00  8464   0.182E+01    0.667E+01
DAV:   4    -0.151202154634E+04    0.48147E+01   -0.50455E+00  8064   0.140E+01    0.531E+01
DAV:   5    -0.151168049432E+04    0.34105E+00   -0.48222E+00  8944   0.126E+01    0.493E+01
DAV:   6    -0.151442896188E+04   -0.27485E+01   -0.42906E+00  9416   0.130E+01    0.531E+01
DAV:   7    -0.150775827225E+04    0.66707E+01   -0.34658E+00  8632   0.102E+01    0.335E+01
DAV:   8    -0.151107048415E+04   -0.33122E+01   -0.24632E+00  8872   0.967E+00    0.522E+01
DAV:   9    -0.150594962613E+04    0.51209E+01   -0.25653E+00  8728   0.805E+00    0.247E+01
DAV:  10    -0.150528956397E+04    0.66006E+00   -0.12134E+00  8496   0.541E+00    0.193E+01
DAV:  11    -0.150507093456E+04    0.21863E+00   -0.65384E-01  8368   0.418E+00    0.205E+01
DAV:  12    -0.150468432383E+04    0.38661E+00   -0.45102E-01  8240   0.324E+00    0.177E+01
DAV:  13    -0.150430138877E+04    0.38294E+00   -0.45058E-01  8192   0.297E+00    0.101E+01
DAV:  14    -0.150421311010E+04    0.88279E-01   -0.30022E-01  8056   0.242E+00    0.925E+00
DAV:  15    -0.150428723598E+04   -0.74126E-01   -0.12601E-01  8096   0.163E+00    0.122E+01
DAV:  16    -0.150436170863E+04   -0.74473E-01   -0.10744E-01  8464   0.163E+00    0.143E+01
DAV:  17    -0.150418487452E+04    0.17683E+00   -0.10078E-01  8112   0.149E+00    0.107E+01
DAV:  18    -0.150412002676E+04    0.64848E-01   -0.78463E-02  8280   0.136E+00    0.828E+00
DAV:  19    -0.150403752598E+04    0.82501E-01   -0.56243E-02  8624   0.111E+00    0.469E+00
DAV:  20    -0.150400316628E+04    0.34360E-01   -0.52283E-02  8416   0.102E+00    0.402E+00
DAV:  21    -0.150399835916E+04    0.48071E-02   -0.24924E-02  8448   0.697E-01    0.364E+00
DAV:  22    -0.150401063296E+04   -0.12274E-01   -0.34450E-02  8416   0.840E-01    0.377E+00
DAV:  23    -0.150398950045E+04    0.21133E-01   -0.26774E-02  8344   0.835E-01    0.304E+00
DAV:  24    -0.150398814748E+04    0.13530E-02   -0.90257E-03  8592   0.475E-01    0.298E+00
DAV:  25    -0.150399015183E+04   -0.20043E-02   -0.58811E-03  8864   0.363E-01    0.348E+00
DAV:  26    -0.150398458604E+04    0.55658E-02   -0.43956E-03  8752   0.292E-01    0.301E+00
DAV:  27    -0.150397500805E+04    0.95780E-02   -0.27333E-03  8704   0.249E-01    0.189E+00
DAV:  28    -0.150397362881E+04    0.13792E-02   -0.18141E-03  9200   0.175E-01    0.153E+00
DAV:  29    -0.150397267919E+04    0.94962E-03   -0.19731E-03  9096   0.211E-01    0.118E+00
DAV:  30    -0.150397057270E+04    0.21065E-02   -0.14981E-03  8904   0.188E-01    0.775E-01
DAV:  31    -0.150397043637E+04    0.13633E-03   -0.12084E-03 11376   0.132E-01    0.546E-01
DAV:  32    -0.150396973390E+04    0.70246E-03   -0.68719E-04  9776   0.117E-01    0.309E-01
DAV:  33    -0.150396974115E+04   -0.72462E-05   -0.30840E-04  9304   0.637E-02    0.297E-01
DAV:  34    -0.150396965764E+04    0.83507E-04   -0.14633E-04  8240   0.520E-02    0.239E-01
DAV:  35    -0.150396971471E+04   -0.57063E-04   -0.10264E-04  9032   0.381E-02    0.248E-01
DAV:  36    -0.150396966023E+04    0.54472E-04   -0.73028E-05  7792   0.370E-02    0.197E-01
DAV:  37    -0.150396962215E+04    0.38087E-04   -0.22335E-05  5560   0.225E-02    0.104E-01
DAV:  38    -0.150396960972E+04    0.12429E-04   -0.14447E-05  4968   0.190E-02    0.712E-02
DAV:  39    -0.150396960971E+04    0.41910E-08   -0.96245E-06  3880   0.150E-02
  10 F= -.16053999E+04 E0= -.16046188E+04  d E =-.140992E+01
 ZBRENT: can't locate minimum, use default step
 trial-energy change:   -1.409921  1 .order   -1.403071   -1.481734   -1.324407
 step:   0.9611(harm=  2.2630)  dis= 0.06739  next Energy= -1608.248811 (dE=-0.426E+01)
 bond charge predicted
       N       E                     dE             d eps       ncg     rms          rms(c)
DAV:   1    -0.150080500234E+04    0.31646E+01   -0.28192E+03  6968   0.549E+01    0.355E+01
DAV:   2    -0.170820964221E+04   -0.20740E+03   -0.67725E+01  7808   0.641E+01    0.146E+02
DAV:   3    -0.162026106509E+04    0.87949E+02   -0.54662E+01  8992   0.602E+01    0.146E+02
DAV:   4    -0.155483827558E+04    0.65423E+02   -0.28839E+01  8392   0.399E+01    0.910E+01
DAV:   5    -0.162664861541E+04   -0.71810E+02   -0.39412E+01  8720   0.479E+01    0.149E+02
DAV:   6    -0.157506653437E+04    0.51582E+02   -0.37656E+01  8768   0.396E+01    0.116E+02
DAV:   7    -0.156358302462E+04    0.11484E+02   -0.26775E+01  7992   0.310E+01    0.111E+02
DAV:   8    -0.154569809743E+04    0.17885E+02   -0.23866E+01  8176   0.275E+01    0.859E+01
DAV:   9    -0.153493116590E+04    0.10767E+02   -0.17952E+01  7872   0.255E+01    0.876E+01
DAV:  10    -0.152156039359E+04    0.13371E+02   -0.84924E+00  8880   0.111E+01    0.609E+01
DAV:  11    -0.152033274930E+04    0.12276E+01   -0.98528E+00  9304   0.152E+01    0.641E+01
DAV:  12    -0.151123481751E+04    0.90979E+01   -0.77657E+00  8288   0.139E+01    0.347E+01
DAV:  13    -0.150933175549E+04    0.19031E+01   -0.39215E+00  7728   0.101E+01    0.261E+01
DAV:  14    -0.150968894239E+04   -0.35719E+00   -0.25650E+00  7912   0.761E+00    0.324E+01
DAV:  15    -0.150905315823E+04    0.63578E+00   -0.27321E+00  7872   0.754E+00    0.249E+01
DAV:  16    -0.150915187916E+04   -0.98721E-01   -0.90969E-01  8544   0.395E+00    0.280E+01
DAV:  17    -0.150890764043E+04    0.24424E+00   -0.70376E-01  7832   0.338E+00    0.286E+01
DAV:  18    -0.150872173124E+04    0.18591E+00   -0.56243E-01  8200   0.337E+00    0.274E+01
DAV:  19    -0.150808854205E+04    0.63319E+00   -0.69221E-01  8504   0.389E+00    0.224E+01
DAV:  20    -0.150784310089E+04    0.24544E+00   -0.42001E-01  8504   0.305E+00    0.214E+01
DAV:  21    -0.150780498237E+04    0.38119E-01   -0.62672E-01  8152   0.340E+00    0.213E+01
DAV:  22    -0.150784814371E+04   -0.43161E-01   -0.47951E-01  8112   0.381E+00    0.229E+01
DAV:  23    -0.150756593184E+04    0.28221E+00   -0.28057E-01  8312   0.269E+00    0.203E+01
DAV:  24    -0.150725464926E+04    0.31128E+00   -0.23242E-01  8080   0.229E+00    0.173E+01
DAV:  25    -0.150702219373E+04    0.23246E+00   -0.12049E-01  8280   0.132E+00    0.138E+01
DAV:  26    -0.150688768505E+04    0.13451E+00   -0.81552E-02  7976   0.114E+00    0.109E+01
DAV:  27    -0.150680360571E+04    0.84079E-01   -0.10304E-01  8248   0.129E+00    0.750E+00
DAV:  28    -0.150677901721E+04    0.24588E-01   -0.55227E-02  8416   0.116E+00    0.691E+00
DAV:  29    -0.150671968595E+04    0.59331E-01   -0.53378E-02  8256   0.102E+00    0.561E+00
DAV:  30    -0.150670619045E+04    0.13496E-01   -0.28759E-02  8352   0.754E-01    0.503E+00
DAV:  31    -0.150672325818E+04   -0.17068E-01   -0.41302E-02  8672   0.845E-01    0.602E+00
DAV:  32    -0.150669391834E+04    0.29340E-01   -0.33971E-02  8264   0.806E-01    0.445E+00
DAV:  33    -0.150666561773E+04    0.28301E-01   -0.25757E-02 10352   0.580E-01    0.215E+00
DAV:  34    -0.150666068131E+04    0.49364E-02   -0.14962E-02  9480   0.524E-01    0.171E+00
DAV:  35    -0.150667477159E+04   -0.14090E-01   -0.14029E-02  9632   0.498E-01    0.343E+00
DAV:  36    -0.150667961782E+04   -0.48462E-02   -0.98672E-03  9328   0.461E-01    0.421E+00
DAV:  37    -0.150665332651E+04    0.26291E-01   -0.21983E-02  8024   0.439E-01    0.845E-01
DAV:  38    -0.150665725072E+04   -0.39242E-02   -0.46908E-03  8872   0.313E-01    0.127E+00
DAV:  39    -0.150665424210E+04    0.30086E-02   -0.33769E-03  8352   0.245E-01    0.708E-01
DAV:  40    -0.150665485273E+04   -0.61063E-03   -0.15448E-03  9640   0.144E-01    0.773E-01
DAV:  41    -0.150665461731E+04    0.23542E-03   -0.84073E-04  8696   0.119E-01    0.767E-01
DAV:  42    -0.150665464456E+04   -0.27245E-04   -0.54300E-04 10944   0.620E-02    0.792E-01
DAV:  43    -0.150665494722E+04   -0.30266E-03   -0.19807E-04 10904   0.458E-02    0.923E-01
DAV:  44    -0.150665416218E+04    0.78504E-03   -0.11920E-04  8168   0.449E-02    0.620E-01
DAV:  45    -0.150665389846E+04    0.26372E-03   -0.62295E-05  8352   0.280E-02    0.422E-01
DAV:  46    -0.150665375494E+04    0.14353E-03   -0.34932E-05  6608   0.181E-02    0.246E-01
DAV:  47    -0.150665371282E+04    0.42120E-04   -0.22292E-05  4696   0.184E-02    0.539E-02
DAV:  48    -0.150665373359E+04   -0.20769E-04   -0.29519E-05  6456   0.925E-03    0.466E-02
DAV:  49    -0.150665373390E+04   -0.31898E-06   -0.38514E-06  3784   0.484E-03
  11 F= -.16082937E+04 E0= -.16075022E+04  d E =-.430369E+01
 curvature:  -3.36 expect dE=-0.394E+02 dE for cont linesearch -0.493E+00
 trial: gam= 0.80286 g(F)=  0.117E+02 g(S)=  0.000E+00 ort = 0.214E+01 (trialstep = 0.340E+00)
 search vector abs. value=  0.353E+02
 bond charge predicted
       N       E                     dE             d eps       ncg     rms          rms(c)
DAV:   1    -0.151018689117E+04   -0.35332E+01   -0.63492E+02  6968   0.258E+01    0.205E+01
DAV:   2    -0.155632876504E+04   -0.46142E+02   -0.13839E+01  7880   0.232E+01    0.836E+01
DAV:   3    -0.155755147474E+04   -0.12227E+01   -0.80847E+00  8800   0.333E+01    0.102E+02
DAV:   4    -0.155252663611E+04    0.50248E+01   -0.11392E+01  8752   0.265E+01    0.107E+02
DAV:   5    -0.155546975132E+04   -0.29431E+01   -0.16291E+01  8992   0.295E+01    0.111E+02
DAV:   6    -0.152767882414E+04    0.27791E+02   -0.10487E+01  8752   0.187E+01    0.623E+01
DAV:   7    -0.153772326477E+04   -0.10044E+02   -0.87778E+00  8456   0.212E+01    0.906E+01
DAV:   8    -0.152588716749E+04    0.11836E+02   -0.77718E+00  8472   0.183E+01    0.591E+01
DAV:   9    -0.151732883300E+04    0.85583E+01   -0.54406E+00  8264   0.129E+01    0.388E+01
DAV:  10    -0.151470735950E+04    0.26215E+01   -0.25528E+00  8408   0.702E+00    0.315E+01
DAV:  11    -0.151466651298E+04    0.40847E-01   -0.22705E+00  8208   0.766E+00    0.308E+01
DAV:  12    -0.151306880389E+04    0.15977E+01   -0.18711E+00  7824   0.685E+00    0.218E+01
DAV:  13    -0.151231035141E+04    0.75845E+00   -0.10402E+00  8112   0.492E+00    0.167E+01
DAV:  14    -0.151209760414E+04    0.21275E+00   -0.58308E-01  7960   0.355E+00    0.160E+01
DAV:  15    -0.151183792971E+04    0.25967E+00   -0.36830E-01  7888   0.280E+00    0.155E+01
DAV:  16    -0.151162650922E+04    0.21142E+00   -0.18939E-01  8056   0.196E+00    0.145E+01
DAV:  17    -0.151189116147E+04   -0.26465E+00   -0.19735E-01  8312   0.216E+00    0.177E+01
DAV:  18    -0.151158275531E+04    0.30841E+00   -0.15048E-01  8192   0.180E+00    0.146E+01
DAV:  19    -0.151139383052E+04    0.18892E+00   -0.14614E-01  8824   0.175E+00    0.104E+01
DAV:  20    -0.151123402111E+04    0.15981E+00   -0.19723E-01  9072   0.194E+00    0.883E+00
DAV:  21    -0.151127638151E+04   -0.42360E-01   -0.11174E-01  9296   0.128E+00    0.105E+01
DAV:  22    -0.151115950722E+04    0.11687E+00   -0.10080E-01  8120   0.128E+00    0.719E+00
DAV:  23    -0.151117650951E+04   -0.17002E-01   -0.13274E-01  9448   0.149E+00    0.727E+00
DAV:  24    -0.151121930900E+04   -0.42799E-01   -0.11242E-01  9208   0.129E+00    0.965E+00
DAV:  25    -0.151119970699E+04    0.19602E-01   -0.40620E-02  9168   0.100E+00    0.916E+00
DAV:  26    -0.151108155808E+04    0.11815E+00   -0.58661E-02  8800   0.920E-01    0.289E+00
DAV:  27    -0.151107292133E+04    0.86367E-02   -0.29022E-02  8704   0.710E-01    0.318E+00
DAV:  28    -0.151107201327E+04    0.90806E-03   -0.17933E-02  8976   0.551E-01    0.237E+00
DAV:  29    -0.151106932412E+04    0.26891E-02   -0.16106E-02  8728   0.577E-01    0.213E+00
DAV:  30    -0.151107390762E+04   -0.45835E-02   -0.14310E-02  8784   0.584E-01    0.293E+00
DAV:  31    -0.151106961341E+04    0.42942E-02   -0.10700E-02  8936   0.489E-01    0.205E+00
DAV:  32    -0.151106145998E+04    0.81534E-02   -0.59932E-03  8856   0.386E-01    0.129E+00
DAV:  33    -0.151106357354E+04   -0.21136E-02   -0.36353E-03 11224   0.241E-01    0.140E+00
DAV:  34    -0.151106098103E+04    0.25925E-02   -0.26354E-03 10752   0.231E-01    0.885E-01
DAV:  35    -0.151106111901E+04   -0.13798E-03   -0.14418E-03 10904   0.151E-01    0.736E-01
DAV:  36    -0.151106024148E+04    0.87753E-03   -0.82225E-04  9864   0.132E-01    0.509E-01
DAV:  37    -0.151106013324E+04    0.10824E-03   -0.63203E-04 11624   0.924E-02    0.271E-01
DAV:  38    -0.151105998373E+04    0.14951E-03   -0.28381E-04 10200   0.736E-02    0.267E-01
DAV:  39    -0.151105992609E+04    0.57641E-04   -0.10671E-04  8128   0.353E-02    0.167E-01
DAV:  40    -0.151105990337E+04    0.22724E-04   -0.61560E-05  7360   0.359E-02    0.107E-01
DAV:  41    -0.151105990342E+04   -0.53085E-07   -0.23588E-05  5800   0.233E-02
  12 F= -.16127670E+04 E0= -.16119742E+04  d E =-.447327E+01
 ZBRENT: can't locate minimum, use default step
 trial-energy change:   -4.473267  1 .order   -4.448760   -4.575765   -4.321754
 step:   1.3603(harm=  6.1261)  dis= 0.13769  next Energy= -1649.507832 (dE=-0.412E+02)
 bond charge predicted
       N       E                     dE             d eps       ncg     rms          rms(c)
DAV:   1    -0.150513627254E+04    0.59236E+01   -0.57945E+03  6968   0.799E+01    0.801E+01
DAV:   2    -0.177449407962E+04   -0.26936E+03   -0.17062E+02  7800   0.747E+01    0.188E+02
DAV:   3    -0.174429345206E+04    0.30201E+02   -0.13335E+02  8960   0.898E+01    0.181E+02
DAV:   4    -0.281331585932E+04   -0.10690E+04   -0.12192E+02 10128   0.129E+02    0.339E+02
DAV:   5    -0.192212032287E+04    0.89120E+03   -0.18333E+02 10504   0.950E+01    0.258E+02
DAV:   6    -0.186859940775E+04    0.53521E+02   -0.16588E+02  9336   0.531E+01    0.188E+02
DAV:   7    -0.163843433923E+04    0.23017E+03   -0.12121E+02  8216   0.465E+01    0.118E+02
DAV:   8    -0.166101085198E+04   -0.22577E+02   -0.11746E+02  8712   0.570E+01    0.150E+02
DAV:   9    -0.173315639356E+04   -0.72146E+02   -0.79671E+01  7984   0.386E+01    0.171E+02
DAV:  10    -0.166040479048E+04    0.72752E+02   -0.55993E+01  7552   0.307E+01    0.137E+02
DAV:  11    -0.164055139787E+04    0.19853E+02   -0.28784E+01  7800   0.245E+01    0.130E+02
DAV:  12    -0.162628644327E+04    0.14265E+02   -0.24447E+01  9328   0.166E+01    0.132E+02
DAV:  13    -0.159754703424E+04    0.28739E+02   -0.12983E+01  8312   0.153E+01    0.109E+02
DAV:  14    -0.157430459349E+04    0.23242E+02   -0.92934E+00  7896   0.136E+01    0.795E+01
DAV:  15    -0.156052430764E+04    0.13780E+02   -0.80741E+00  7960   0.137E+01    0.708E+01
DAV:  16    -0.154854941127E+04    0.11975E+02   -0.62989E+00  7904   0.136E+01    0.881E+01
DAV:  17    -0.153841598601E+04    0.10133E+02   -0.78947E+00  8456   0.100E+01    0.564E+01
DAV:  18    -0.153203558646E+04    0.63804E+01   -0.47021E+00  7664   0.996E+00    0.503E+01
DAV:  19    -0.153082486282E+04    0.12107E+01   -0.42306E+00  8048   0.843E+00    0.498E+01
DAV:  20    -0.152694326989E+04    0.38816E+01   -0.29408E+00  7976   0.855E+00    0.392E+01
DAV:  21    -0.152346015887E+04    0.34831E+01   -0.28397E+00  7912   0.858E+00    0.280E+01
DAV:  22    -0.152251301760E+04    0.94714E+00   -0.19658E+00  7824   0.567E+00    0.263E+01
DAV:  23    -0.152165523722E+04    0.85778E+00   -0.13327E+00  7568   0.438E+00    0.220E+01
DAV:  24    -0.152148330063E+04    0.17194E+00   -0.53681E-01  8232   0.302E+00    0.213E+01
DAV:  25    -0.152108724620E+04    0.39605E+00   -0.72450E-01  8264   0.423E+00    0.193E+01
DAV:  26    -0.152209562470E+04   -0.10084E+01   -0.13240E+00 10024   0.543E+00    0.269E+01
DAV:  27    -0.152079503960E+04    0.13006E+01   -0.10829E+00  8960   0.487E+00    0.169E+01
DAV:  28    -0.152087730344E+04   -0.82264E-01   -0.92096E-01  9096   0.388E+00    0.208E+01
DAV:  29    -0.152032932939E+04    0.54797E+00   -0.39157E-01  8320   0.265E+00    0.169E+01
DAV:  30    -0.152010208344E+04    0.22725E+00   -0.18306E-01  8176   0.141E+00    0.134E+01
DAV:  31    -0.151999729119E+04    0.10479E+00   -0.34805E-01  8200   0.202E+00    0.110E+01
DAV:  32    -0.151991909415E+04    0.78197E-01   -0.98250E-02  8344   0.116E+00    0.911E+00
DAV:  33    -0.151984692655E+04    0.72168E-01   -0.93511E-02  7872   0.116E+00    0.665E+00
DAV:  34    -0.151998194191E+04   -0.13502E+00   -0.15243E-01 10024   0.175E+00    0.899E+00
DAV:  35    -0.151986096744E+04    0.12097E+00   -0.11065E-01  9440   0.172E+00    0.702E+00
DAV:  36    -0.151984127795E+04    0.19689E-01   -0.10220E-01 10552   0.143E+00    0.657E+00
DAV:  37    -0.151976999077E+04    0.71287E-01   -0.10719E-01  9936   0.142E+00    0.402E+00
DAV:  38    -0.151979947427E+04   -0.29483E-01   -0.66658E-02  8552   0.110E+00    0.612E+00
DAV:  39    -0.151979383929E+04    0.56350E-02   -0.31941E-02  8288   0.734E-01    0.608E+00
DAV:  40    -0.151974178941E+04    0.52050E-01   -0.27204E-02  8152   0.668E-01    0.277E+00
DAV:  41    -0.151974107995E+04    0.70946E-03   -0.14043E-02  8320   0.494E-01    0.243E+00
DAV:  42    -0.151973747927E+04    0.36007E-02   -0.83574E-03  8496   0.394E-01    0.257E+00
DAV:  43    -0.151972852284E+04    0.89564E-02   -0.58548E-03 11856   0.191E-01    0.129E+00
DAV:  44    -0.151972720172E+04    0.13211E-02   -0.15591E-03  8168   0.126E-01    0.136E+00
DAV:  45    -0.151972595692E+04    0.12448E-02   -0.99093E-04  8976   0.125E-01    0.103E+00
DAV:  46    -0.151972527502E+04    0.68190E-03   -0.72134E-04  8328   0.918E-02    0.781E-01
DAV:  47    -0.151972555606E+04   -0.28104E-03   -0.50835E-04  8704   0.938E-02    0.812E-01
DAV:  48    -0.151972499232E+04    0.56374E-03   -0.73917E-04  8584   0.104E-01    0.344E-01
DAV:  49    -0.151972492388E+04    0.68435E-04   -0.30167E-04  9816   0.481E-02    0.212E-01
DAV:  50    -0.151972500563E+04   -0.81753E-04   -0.12426E-04  7512   0.285E-02    0.260E-01
DAV:  51    -0.151972501334E+04   -0.77020E-05   -0.51353E-05  7216   0.154E-02    0.239E-01
DAV:  52    -0.151972496420E+04    0.49139E-04   -0.30715E-05  4544   0.269E-02    0.932E-02
DAV:  53    -0.151972497911E+04   -0.14910E-04   -0.31461E-05  6664   0.188E-02    0.626E-02
DAV:  54    -0.151972497922E+04   -0.11642E-06   -0.73385E-06  3952   0.801E-03
  13 F= -.16216809E+04 E0= -.16208901E+04  d E =-.133872E+02
 curvature:  -2.58 expect dE=-0.122E+02 dE for cont linesearch -0.234E+00
 ZBRENT: extrapolating
 opt :   1.5274  next Energy= -1621.830441 (dE=-0.135E+02)
 bond charge predicted
       N       E                     dE             d eps       ncg     rms          rms(c)
DAV:   1    -0.151942961009E+04    0.29537E+00   -0.15937E+02  6968   0.126E+01    0.111E+01
DAV:   2    -0.153792053007E+04   -0.18491E+02   -0.47808E+00  8080   0.118E+01    0.693E+01
DAV:   3    -0.152411207693E+04    0.13808E+02   -0.30850E+00  8216   0.124E+01    0.471E+01
DAV:   4    -0.153262071049E+04   -0.85086E+01   -0.42860E+00  8656   0.114E+01    0.722E+01
DAV:   5    -0.152298333258E+04    0.96374E+01   -0.38802E+00  8624   0.942E+00    0.333E+01
DAV:   6    -0.152629801808E+04   -0.33147E+01   -0.38401E+00  9096   0.118E+01    0.464E+01
DAV:   7    -0.152684662835E+04   -0.54861E+00   -0.51486E+00  9016   0.142E+01    0.415E+01
DAV:   8    -0.152127230891E+04    0.55743E+01   -0.36095E+00  8840   0.108E+01    0.202E+01
DAV:   9    -0.152143785257E+04   -0.16554E+00   -0.19933E+00  8800   0.761E+00    0.219E+01
DAV:  10    -0.152000115058E+04    0.14367E+01   -0.10906E+00  8576   0.522E+00    0.101E+01
DAV:  11    -0.152002426958E+04   -0.23119E-01   -0.53092E-01  8416   0.361E+00    0.101E+01
DAV:  12    -0.151994878486E+04    0.75485E-01   -0.33036E-01  8136   0.273E+00    0.105E+01
DAV:  13    -0.151979736315E+04    0.15142E+00   -0.15699E-01  8360   0.199E+00    0.824E+00
DAV:  14    -0.151979096734E+04    0.63958E-02   -0.93091E-02  8472   0.145E+00    0.749E+00
DAV:  15    -0.151971989325E+04    0.71074E-01   -0.11211E-01  8552   0.154E+00    0.443E+00
DAV:  16    -0.151969750472E+04    0.22389E-01   -0.59080E-02  8520   0.131E+00    0.395E+00
DAV:  17    -0.151972008892E+04   -0.22584E-01   -0.44709E-02  8704   0.943E-01    0.523E+00
DAV:  18    -0.151970995639E+04    0.10133E-01   -0.22567E-02  8568   0.744E-01    0.542E+00
DAV:  19    -0.151969825885E+04    0.11698E-01   -0.13397E-02  8800   0.559E-01    0.458E+00
DAV:  20    -0.151967048475E+04    0.27774E-01   -0.12723E-02  8840   0.532E-01    0.198E+00
DAV:  21    -0.151966766392E+04    0.28208E-02   -0.90012E-03  9120   0.441E-01    0.135E+00
DAV:  22    -0.151967108672E+04   -0.34228E-02   -0.73283E-03  9256   0.356E-01    0.205E+00
DAV:  23    -0.151966980838E+04    0.12783E-02   -0.47682E-03  9272   0.302E-01    0.204E+00
DAV:  24    -0.151966813797E+04    0.16704E-02   -0.30184E-03  8792   0.251E-01    0.160E+00
DAV:  25    -0.151966466715E+04    0.34708E-02   -0.20633E-03  8608   0.226E-01    0.918E-01
DAV:  26    -0.151966523657E+04   -0.56942E-03   -0.19678E-03 10288   0.212E-01    0.744E-01
DAV:  27    -0.151966470824E+04    0.52833E-03   -0.16884E-03 10000   0.198E-01    0.832E-01
DAV:  28    -0.151966468036E+04    0.27886E-04   -0.72632E-04  9848   0.111E-01    0.799E-01
DAV:  29    -0.151966396255E+04    0.71781E-03   -0.44556E-04  7968   0.851E-02    0.462E-01
DAV:  30    -0.151966378778E+04    0.17477E-03   -0.22967E-04  8072   0.762E-02    0.315E-01
DAV:  31    -0.151966374544E+04    0.42340E-04   -0.17389E-04  8640   0.613E-02    0.232E-01
DAV:  32    -0.151966372090E+04    0.24544E-04   -0.10055E-04  8384   0.459E-02    0.266E-01
DAV:  33    -0.151966364494E+04    0.75956E-04   -0.67101E-05  7128   0.288E-02    0.158E-01
DAV:  34    -0.151966362347E+04    0.21468E-04   -0.34304E-05  6640   0.241E-02    0.865E-02
DAV:  35    -0.151966362366E+04   -0.19232E-06   -0.15184E-05  4352   0.149E-02
  14 F= -.16216644E+04 E0= -.16208756E+04  d E =-.133707E+02
 curvature:  -1.65 expect dE=-0.124E+02 dE for cont linesearch -0.214E+00
 ZBRENT: bracketing found
 ZBRENT: interpolating
 opt :   1.4364  next Energy= -1621.748996 (dE=-0.135E+02)
 bond charge predicted
       N       E                     dE             d eps       ncg     rms          rms(c)
DAV:   1    -0.151971201223E+04   -0.48389E-01   -0.47394E+01  6968   0.686E+00    0.567E+00
DAV:   2    -0.152646825148E+04   -0.67562E+01   -0.17463E+00  8088   0.647E+00    0.483E+01
DAV:   3    -0.152257819719E+04    0.38901E+01   -0.23114E+00  8472   0.691E+00    0.394E+01
DAV:   4    -0.152149391857E+04    0.10843E+01   -0.12884E+00  8848   0.564E+00    0.286E+01
DAV:   5    -0.152047805645E+04    0.10159E+01   -0.62209E-01  8800   0.442E+00    0.161E+01
DAV:   6    -0.152113645063E+04   -0.65839E+00   -0.79968E-01  8920   0.538E+00    0.209E+01
DAV:   7    -0.152244167674E+04   -0.13052E+01   -0.14339E+00  9072   0.711E+00    0.294E+01
DAV:   8    -0.152040433689E+04    0.20373E+01   -0.97287E-01  9008   0.622E+00    0.126E+01
DAV:   9    -0.152035452344E+04    0.49813E-01   -0.63963E-01  8928   0.450E+00    0.125E+01
DAV:  10    -0.151986566542E+04    0.48886E+00   -0.39802E-01  8938   0.310E+00    0.578E+00
DAV:  11    -0.151994616192E+04   -0.80497E-01   -0.20993E-01  8780   0.247E+00    0.701E+00
DAV:  12    -0.151993138857E+04    0.14773E-01   -0.16595E-01  8608   0.218E+00    0.753E+00
DAV:  13    -0.151982465366E+04    0.10673E+00   -0.82907E-02  8756   0.161E+00    0.531E+00
DAV:  14    -0.151985147930E+04   -0.26826E-01   -0.41557E-02  8984   0.100E+00    0.584E+00
DAV:  15    -0.151980448194E+04    0.46997E-01   -0.31061E-02  8704   0.877E-01    0.391E+00
DAV:  16    -0.151979283431E+04    0.11648E-01   -0.96652E-03  8904   0.445E-01    0.278E+00
DAV:  17    -0.151978297002E+04    0.98643E-02   -0.73194E-03  9072   0.381E-01    0.141E+00
DAV:  18    -0.151978546211E+04   -0.24921E-02   -0.50146E-03  9120   0.311E-01    0.193E+00
DAV:  19    -0.151978827341E+04   -0.28113E-02   -0.29728E-03  8992   0.243E-01    0.250E+00
DAV:  20    -0.151978594280E+04    0.23306E-02   -0.22878E-03  8760   0.192E-01    0.224E+00
DAV:  21    -0.151977948179E+04    0.64610E-02   -0.12873E-03  8144   0.179E-01    0.878E-01
DAV:  22    -0.151977848924E+04    0.99255E-03   -0.77402E-04  8344   0.138E-01    0.463E-01
DAV:  23    -0.151977911861E+04   -0.62937E-03   -0.10422E-03  9448   0.135E-01    0.605E-01
DAV:  24    -0.151977856863E+04    0.54998E-03   -0.11819E-03  8960   0.144E-01    0.439E-01
DAV:  25    -0.151977835745E+04    0.21118E-03   -0.71763E-04  8808   0.120E-01    0.334E-01
DAV:  26    -0.151977864627E+04   -0.28882E-03   -0.40503E-04  8904   0.964E-02    0.453E-01
DAV:  27    -0.151977834379E+04    0.30248E-03   -0.29393E-04  8816   0.895E-02    0.391E-01
DAV:  28    -0.151977833767E+04    0.61239E-05   -0.17815E-04 10320   0.558E-02    0.329E-01
DAV:  29    -0.151977814816E+04    0.18951E-03   -0.91429E-05  9080   0.451E-02    0.160E-01
DAV:  30    -0.151977815128E+04   -0.31190E-05   -0.45212E-05  7704   0.265E-02
  15 F= -.16217544E+04 E0= -.16209644E+04  d E =-.134607E+02
 curvature:  -0.52 expect dE=-0.295E+01 dE for cont linesearch -0.195E-03
 trial: gam= 0.33022 g(F)=  0.564E+01 g(S)=  0.000E+00 ort = 0.115E+00 (trialstep = 0.559E+00)
 search vector abs. value=  0.956E+01
 bond charge predicted
       N       E                     dE             d eps       ncg     rms          rms(c)
DAV:   1    -0.152193444482E+04   -0.21563E+01   -0.53438E+02  6968   0.235E+01    0.709E+00
DAV:   2    -0.154843632822E+04   -0.26502E+02   -0.10063E+01  7648   0.164E+01    0.815E+01
DAV:   3    -0.152665862837E+04    0.21778E+02   -0.81670E+00  8512   0.164E+01    0.407E+01
DAV:   4    -0.154011186093E+04   -0.13453E+02   -0.45244E+00  8208   0.125E+01    0.790E+01
DAV:   5    -0.152413388028E+04    0.15978E+02   -0.50265E+00  8130   0.109E+01    0.227E+01
DAV:   6    -0.152503756054E+04   -0.90368E+00   -0.16926E+00  8336   0.707E+00    0.283E+01
DAV:   7    -0.152494050365E+04    0.97057E-01   -0.19243E+00  8152   0.750E+00    0.299E+01
DAV:   8    -0.152377569489E+04    0.11648E+01   -0.16431E+00  8456   0.624E+00    0.171E+01
DAV:   9    -0.152330416371E+04    0.47153E+00   -0.87076E-01  8064   0.499E+00    0.127E+01
DAV:  10    -0.152277906992E+04    0.52509E+00   -0.41144E-01  8224   0.289E+00    0.591E+00
DAV:  11    -0.152309355149E+04   -0.31448E+00   -0.33128E-01  8784   0.277E+00    0.108E+01
DAV:  12    -0.152312959892E+04   -0.36047E-01   -0.39043E-01  8672   0.279E+00    0.145E+01
DAV:  13    -0.152303167353E+04    0.97925E-01   -0.16511E-01  8440   0.208E+00    0.128E+01
DAV:  14    -0.152291745341E+04    0.11422E+00   -0.12274E-01  8224   0.170E+00    0.925E+00
DAV:  15    -0.152277575984E+04    0.14169E+00   -0.14059E-01  8648   0.165E+00    0.370E+00
DAV:  16    -0.152287112103E+04   -0.95361E-01   -0.70788E-02  9056   0.126E+00    0.790E+00
DAV:  17    -0.152288239485E+04   -0.11274E-01   -0.47711E-02  9080   0.108E+00    0.940E+00
DAV:  18    -0.152281712793E+04    0.65267E-01   -0.30490E-02  8168   0.741E-01    0.693E+00
DAV:  19    -0.152275737187E+04    0.59756E-01   -0.17984E-02  8376   0.617E-01    0.339E+00
DAV:  20    -0.152274874476E+04    0.86271E-02   -0.95354E-03  8992   0.399E-01    0.218E+00
DAV:  21    -0.152274636361E+04    0.23811E-02   -0.82002E-03  9152   0.362E-01    0.160E+00
DAV:  22    -0.152274418929E+04    0.21743E-02   -0.45445E-03  8856   0.318E-01    0.128E+00
DAV:  23    -0.152274442601E+04   -0.23672E-03   -0.32779E-03  8464   0.259E-01    0.125E+00
DAV:  24    -0.152274569287E+04   -0.12669E-02   -0.26991E-03  8632   0.254E-01    0.175E+00
DAV:  25    -0.152274490657E+04    0.78630E-03   -0.21589E-03 10024   0.223E-01    0.137E+00
DAV:  26    -0.152274194206E+04    0.29645E-02   -0.13755E-03  9480   0.201E-01    0.738E-01
DAV:  27    -0.152274162853E+04    0.31353E-03   -0.57290E-04  9920   0.940E-02    0.564E-01
DAV:  28    -0.152274126271E+04    0.36582E-03   -0.37255E-04  9112   0.814E-02    0.232E-01
DAV:  29    -0.152274121876E+04    0.43950E-04   -0.19162E-04  8960   0.628E-02    0.177E-01
DAV:  30    -0.152274129556E+04   -0.76791E-04   -0.14770E-04  8976   0.531E-02    0.203E-01
DAV:  31    -0.152274120159E+04    0.93963E-04   -0.10442E-04  8200   0.476E-02    0.109E-01
DAV:  32    -0.152274124922E+04   -0.47629E-04   -0.45751E-05  7856   0.277E-02    0.181E-01
DAV:  33    -0.152274126731E+04   -0.18092E-04   -0.27021E-05  6312   0.240E-02    0.215E-01
DAV:  34    -0.152274125851E+04    0.88038E-05   -0.13563E-05  4232   0.160E-02    0.203E-01
DAV:  35    -0.152274121978E+04    0.38734E-04   -0.10985E-05  3904   0.131E-02    0.127E-01
DAV:  36    -0.152274121950E+04    0.27893E-06   -0.70900E-06  3824   0.118E-02
  16 F= -.16247537E+04 E0= -.16239621E+04  d E =-.299937E+01
 ZBRENT: can't locate minimum, use default step
 trial-energy change:   -2.999367  1 .order   -3.000718   -3.173112   -2.828324
 step:   2.2373(harm=  5.1476)  dis= 0.10215  next Energy= -1636.355588 (dE=-0.146E+02)
 bond charge predicted
       N       E                     dE             d eps       ncg     rms          rms(c)
DAV:   1    -0.151732808019E+04    0.54131E+01   -0.48382E+03  6968   0.724E+01    0.238E+01
DAV:   2    -0.173249109491E+04   -0.21516E+03   -0.11502E+02  7736   0.578E+01    0.176E+02
DAV:   3    -0.159529756472E+04    0.13719E+03   -0.83419E+01  8088   0.500E+01    0.127E+02
DAV:   4    -0.163146708755E+04   -0.36170E+02   -0.26560E+01  7944   0.439E+01    0.142E+02
DAV:   5    -0.154784637386E+04    0.83621E+02   -0.18817E+01  8288   0.326E+01    0.701E+01
DAV:   6    -0.154488659120E+04    0.29598E+01   -0.20635E+01  7864   0.238E+01    0.569E+01
DAV:   7    -0.154360081805E+04    0.12858E+01   -0.14538E+01  8088   0.200E+01    0.669E+01
DAV:   8    -0.153489906328E+04    0.87018E+01   -0.75831E+00  7888   0.114E+01    0.420E+01
DAV:   9    -0.153515858147E+04   -0.25952E+00   -0.49986E+00  8248   0.123E+01    0.411E+01
DAV:  10    -0.153049497939E+04    0.46636E+01   -0.38540E+00  8304   0.106E+01    0.196E+01
DAV:  11    -0.153221632634E+04   -0.17213E+01   -0.27654E+00  8400   0.867E+00    0.313E+01
DAV:  12    -0.153094669109E+04    0.12696E+01   -0.20003E+00  8136   0.716E+00    0.238E+01
DAV:  13    -0.153053119241E+04    0.41550E+00   -0.19738E+00  7800   0.719E+00    0.171E+01
DAV:  14    -0.153190395048E+04   -0.13728E+01   -0.15639E+00  8192   0.697E+00    0.302E+01
DAV:  15    -0.153196147742E+04   -0.57527E-01   -0.13320E+00  8064   0.696E+00    0.320E+01
DAV:  16    -0.153153493541E+04    0.42654E+00   -0.10189E+00  7992   0.503E+00    0.285E+01
DAV:  17    -0.153042600386E+04    0.11089E+01   -0.63235E-01  7832   0.381E+00    0.210E+01
DAV:  18    -0.152998545173E+04    0.44055E+00   -0.37298E-01  8376   0.277E+00    0.141E+01
DAV:  19    -0.152975546621E+04    0.22999E+00   -0.34682E-01  8312   0.314E+00    0.111E+01
DAV:  20    -0.152971845899E+04    0.37007E-01   -0.14694E-01  7784   0.169E+00    0.113E+01
DAV:  21    -0.152963618680E+04    0.82272E-01   -0.87252E-02  7712   0.101E+00    0.883E+00
DAV:  22    -0.152957952116E+04    0.56666E-01   -0.43480E-02  7640   0.787E-01    0.632E+00
DAV:  23    -0.152954908426E+04    0.30437E-01   -0.33173E-02  8160   0.801E-01    0.439E+00
DAV:  24    -0.152955291367E+04   -0.38294E-02   -0.33080E-02  8528   0.900E-01    0.532E+00
DAV:  25    -0.152957996146E+04   -0.27048E-01   -0.34843E-02  8472   0.856E-01    0.608E+00
DAV:  26    -0.152953048372E+04    0.49478E-01   -0.42313E-02  8608   0.911E-01    0.331E+00
DAV:  27    -0.152952541831E+04    0.50654E-02   -0.19021E-02  9128   0.639E-01    0.275E+00
DAV:  28    -0.152951840398E+04    0.70143E-02   -0.11696E-02  9016   0.496E-01    0.233E+00
DAV:  29    -0.152952154120E+04   -0.31372E-02   -0.60044E-03  9176   0.335E-01    0.287E+00
DAV:  30    -0.152951025827E+04    0.11283E-01   -0.64662E-03  8176   0.330E-01    0.960E-01
DAV:  31    -0.152951066652E+04   -0.40826E-03   -0.22618E-03  8440   0.233E-01    0.967E-01
DAV:  32    -0.152951092813E+04   -0.26160E-03   -0.24493E-03  8680   0.228E-01    0.806E-01
DAV:  33    -0.152950941318E+04    0.15149E-02   -0.15434E-03  8504   0.195E-01    0.403E-01
DAV:  34    -0.152950977840E+04   -0.36522E-03   -0.87665E-04  9784   0.119E-01    0.453E-01
DAV:  35    -0.152950938527E+04    0.39313E-03   -0.66141E-04  8840   0.122E-01    0.317E-01
DAV:  36    -0.152950968549E+04   -0.30022E-03   -0.46760E-04 11440   0.716E-02    0.410E-01
DAV:  37    -0.152950964079E+04    0.44704E-04   -0.22285E-04  9704   0.639E-02    0.421E-01
DAV:  38    -0.152950949203E+04    0.14876E-03   -0.87177E-05  9136   0.380E-02    0.282E-01
DAV:  39    -0.152950944713E+04    0.44898E-04   -0.73577E-05  8704   0.399E-02    0.227E-01
DAV:  40    -0.152950945795E+04   -0.10821E-04   -0.40388E-05  8072   0.282E-02    0.171E-01
DAV:  41    -0.152950945247E+04    0.54799E-05   -0.40564E-05  7352   0.305E-02    0.156E-01
DAV:  42    -0.152950946182E+04   -0.93472E-05   -0.15115E-05  4480   0.162E-02    0.758E-02
DAV:  43    -0.152950948605E+04   -0.24232E-04   -0.10393E-05  3944   0.752E-03    0.107E-01
DAV:  44    -0.152950948989E+04   -0.38343E-05   -0.63036E-06  3816   0.571E-03
  17 F= -.16316900E+04 E0= -.16308993E+04  d E =-.993562E+01
 curvature:  -2.59 expect dE=-0.847E+01 dE for cont linesearch -0.284E+01
 ZBRENT: increasing intervall
 opt :   5.5933  next Energy= -1636.425165 (dE=-0.147E+02)
 bond charge predicted
       N       E                     dE             d eps       ncg     rms          rms(c)
DAV:   1    -0.144630648750E+04    0.83203E+02   -0.20037E+04  6968   0.157E+02    0.732E+01
[...]
DAV:  19    -0.158172246751E+04    0.46922E+00   -0.32478E-01  8032   0.266E+00    0.122E+01
DAV:  20    -0.158188291320E+04   -0.16045E+00   -0.30977E-01  8528   0.288E+00    0.125E+01
DAV:  21    -0.158173642159E+04    0.14649E+00   -0.23743E-01  8520   0.266E+00    0.122E+01
DAV:  22    -0.158172115426E+04    0.15267E-01   -0.11841E-01  8008   0.170E+00    0.115E+01
DAV:  23    -0.158158054204E+04    0.14061E+00   -0.81417E-02  7856   0.127E+00    0.740E+00
DAV:  24    -0.158153215442E+04    0.48388E-01   -0.68857E-02  8152   0.137E+00    0.425E+00
DAV:  25    -0.158176427084E+04   -0.23212E+00   -0.81074E-02  9752   0.153E+00    0.122E+01
DAV:  26    -0.158167858847E+04    0.85682E-01   -0.29629E-02  8968   0.788E-01    0.110E+01
DAV:  27    -0.158153558277E+04    0.14301E+00   -0.74285E-02  8896   0.118E+00    0.587E+00
DAV:  28    -0.158150450691E+04    0.31076E-01   -0.43323E-02  8824   0.111E+00    0.258E+00
DAV:  29    -0.158150148646E+04    0.30204E-02   -0.18540E-02  8624   0.512E-01    0.194E+00
DAV:  30    -0.158150073304E+04    0.75342E-03   -0.93715E-03  7896   0.320E-01    0.176E+00
DAV:  31    -0.158150295083E+04   -0.22178E-02   -0.60378E-03  8288   0.338E-01    0.182E+00
DAV:  32    -0.158150053340E+04    0.24174E-02   -0.66602E-03  8432   0.406E-01    0.162E+00
DAV:  33    -0.158150014213E+04    0.39127E-03   -0.47415E-03  8728   0.317E-01    0.149E+00
DAV:  34    -0.158150220937E+04   -0.20672E-02   -0.36944E-03  8320   0.293E-01    0.202E+00
DAV:  35    -0.158150057946E+04    0.16299E-02   -0.21241E-03  9760   0.192E-01    0.191E+00
DAV:  36    -0.158149292927E+04    0.76502E-02   -0.20014E-03  9064   0.183E-01    0.139E+00
DAV:  37    -0.158149488707E+04   -0.19578E-02   -0.79774E-04 11224   0.106E-01    0.101E+00
DAV:  38    -0.158149487629E+04    0.10785E-04   -0.35517E-04 10528   0.803E-02    0.561E-01
DAV:  39    -0.158149515890E+04   -0.28261E-03   -0.16811E-04 11008   0.432E-02    0.358E-01
DAV:  40    -0.158149529739E+04   -0.13848E-03   -0.87834E-05  8464   0.290E-02    0.341E-01
DAV:  41    -0.158149510469E+04    0.19269E-03   -0.47496E-05  7520   0.318E-02    0.115E-01
DAV:  42    -0.158149516612E+04   -0.61428E-04   -0.36425E-05  7352   0.261E-02    0.133E-01
DAV:  43    -0.158149515059E+04    0.15529E-04   -0.33562E-05  6656   0.235E-02    0.102E-01
DAV:  44    -0.158149514725E+04    0.33453E-05   -0.15770E-05  4456   0.124E-02
  36 F= -.16880390E+04 E0= -.16873568E+04  d E =-.371628E+01
 curvature:  -5.74 expect dE=-0.121E+02 dE for cont linesearch -0.304E+00
 ZBRENT: increasing intervall
 opt :   9.2631  next Energy= -1686.044169 (dE=-0.172E+01)
 bond charge predicted
       N       E                     dE             d eps       ncg     rms          rms(c)
DAV:   1    -0.149413551949E+04    0.87360E+02   -0.18610E+04  6968   0.146E+02    0.785E+01
DAV:   2    -0.224130657226E+04   -0.74717E+03   -0.78569E+02  7612   0.130E+02    0.279E+02
DAV:   3    -0.188983138152E+04    0.35148E+03   -0.43044E+02  7960   0.110E+02    0.183E+02
DAV:   4    -0.252936123443E+04   -0.63953E+03   -0.12876E+02  8728   0.140E+02    0.342E+02
DAV:   5    -0.186792914070E+04    0.66143E+03   -0.20194E+02  9080   0.703E+01    0.198E+02
DAV:   6    -0.184420021663E+04    0.23729E+02   -0.13064E+02  7632   0.681E+01    0.172E+02
DAV:   7    -0.172288520491E+04    0.12132E+03   -0.11015E+02  7800   0.488E+01    0.167E+02
DAV:   8    -0.164518932015E+04    0.77696E+02   -0.54920E+01  7840   0.429E+01    0.134E+02
DAV:   9    -0.161140808945E+04    0.33781E+02   -0.52379E+01  8520   0.272E+01    0.101E+02
DAV:  10    -0.163599777970E+04   -0.24590E+02   -0.36273E+01  8272   0.307E+01    0.137E+02
DAV:  11    -0.160642988081E+04    0.29568E+02   -0.31966E+01  7864   0.242E+01    0.818E+01
DAV:  12    -0.159653103222E+04    0.98988E+01   -0.24269E+01  7680   0.241E+01    0.673E+01
DAV:  13    -0.158926120687E+04    0.72698E+01   -0.11874E+01  7888   0.160E+01    0.545E+01
DAV:  14    -0.158741123988E+04    0.18500E+01   -0.64454E+00  7888   0.144E+01    0.566E+01
DAV:  15    -0.158508630755E+04    0.23249E+01   -0.39583E+00  8368   0.828E+00    0.526E+01
DAV:  16    -0.158334216431E+04    0.17441E+01   -0.34849E+00  7976   0.748E+00    0.464E+01
DAV:  17    -0.158816307821E+04   -0.48209E+01   -0.41297E+00  8056   0.105E+01    0.662E+01
DAV:  18    -0.158593106341E+04    0.22320E+01   -0.40566E+00  7968   0.989E+00    0.510E+01
DAV:  19    -0.158404274315E+04    0.18883E+01   -0.27642E+00  7960   0.892E+00    0.456E+01
DAV:  20    -0.158204201113E+04    0.20007E+01   -0.34506E+00  8032   0.987E+00    0.343E+01
DAV:  21    -0.158874458600E+04   -0.67026E+01   -0.34005E+00  8256   0.122E+01    0.601E+01
DAV:  22    -0.158881827585E+04   -0.73690E-01   -0.25726E+00  8144   0.782E+00    0.526E+01
DAV:  23    -0.158547138127E+04    0.33469E+01   -0.23695E+00  7872   0.756E+00    0.467E+01
DAV:  24    -0.158352439077E+04    0.19470E+01   -0.10231E+00  7848   0.402E+00    0.402E+01
DAV:  25    -0.158272420331E+04    0.80019E+00   -0.94231E-01  7784   0.445E+00    0.400E+01
DAV:  26    -0.158200201269E+04    0.72219E+00   -0.10468E+00  8288   0.527E+00    0.400E+01
DAV:  27    -0.157978535314E+04    0.22167E+01   -0.11433E+00  8568   0.557E+00    0.206E+01
DAV:  28    -0.157915193522E+04    0.63342E+00   -0.96852E-01  8528   0.566E+00    0.172E+01
DAV:  29    -0.157891060090E+04    0.24133E+00   -0.78719E-01  8048   0.407E+00    0.135E+01
DAV:  30    -0.157860387374E+04    0.30673E+00   -0.42181E-01  7776   0.316E+00    0.870E+00
DAV:  31    -0.157860402052E+04   -0.14678E-03   -0.24800E-01  8784   0.238E+00    0.923E+00
DAV:  32    -0.157860832782E+04   -0.43073E-02   -0.29211E-01  8528   0.280E+00    0.107E+01
DAV:  33    -0.157855942849E+04    0.48899E-01   -0.14697E-01  8352   0.169E+00    0.855E+00
DAV:  34    -0.157842041325E+04    0.13902E+00   -0.99576E-02  8288   0.155E+00    0.571E+00
DAV:  35    -0.157839051051E+04    0.29903E-01   -0.55659E-02 10344   0.924E-01    0.533E+00
DAV:  36    -0.157837225711E+04    0.18253E-01   -0.28848E-02  8704   0.829E-01    0.457E+00
DAV:  37    -0.157837170673E+04    0.55038E-03   -0.27172E-02 10112   0.707E-01    0.455E+00
DAV:  38    -0.157836485557E+04    0.68512E-02   -0.16613E-02  9792   0.532E-01    0.365E+00
DAV:  39    -0.157833799748E+04    0.26858E-01   -0.91162E-03 10824   0.374E-01    0.219E+00
DAV:  40    -0.157833683478E+04    0.11627E-02   -0.66986E-03  9984   0.309E-01    0.212E+00
DAV:  41    -0.157833779781E+04   -0.96303E-03   -0.71363E-03  8984   0.364E-01    0.227E+00
DAV:  42    -0.157833752879E+04    0.26902E-03   -0.38748E-03  9760   0.268E-01    0.263E+00
DAV:  43    -0.157833005538E+04    0.74734E-02   -0.33832E-03 11400   0.175E-01    0.182E+00
DAV:  44    -0.157832806187E+04    0.19935E-02   -0.12578E-03 10176   0.991E-02    0.153E+00
DAV:  45    -0.157832529284E+04    0.27690E-02   -0.44295E-04 11200   0.734E-02    0.104E+00
DAV:  46    -0.157832333467E+04    0.19582E-02   -0.88597E-04 12800   0.115E-01    0.544E-01
DAV:  47    -0.157832288715E+04    0.44752E-03   -0.67009E-04 12312   0.901E-02    0.278E-01
DAV:  48    -0.157832287637E+04    0.10775E-04   -0.25455E-04  7496   0.421E-02    0.230E-01
DAV:  49    -0.157832288903E+04   -0.12658E-04   -0.36536E-05  7136   0.192E-02    0.260E-01
DAV:  50    -0.157832282559E+04    0.63444E-04   -0.22820E-05  5240   0.216E-02    0.165E-01
DAV:  51    -0.157832277546E+04    0.50132E-04   -0.18908E-05  4696   0.180E-02    0.509E-02
DAV:  52    -0.157832277931E+04   -0.38510E-05   -0.14942E-05  4144   0.111E-02
  37 F= -.16855270E+04 E0= -.16848765E+04  d E =-.120427E+01
 curvature:  37.63 expect dE= 0.847E+03 dE for cont linesearch  0.187E+02
 ZBRENT: bracketing found
 ZBRENT: interpolating
 opt :   5.0724  next Energy= -1688.342529 (dE=-0.402E+01)
 bond charge predicted
       N       E                     dE             d eps       ncg     rms          rms(c)
DAV:   1    -0.154395531437E+04    0.34367E+02   -0.10500E+04  6968   0.106E+02    0.399E+01
DAV:   2    -0.178754840704E+04   -0.24359E+03   -0.40958E+02  7680   0.560E+01    0.228E+02
DAV:   3    -0.178530885861E+04    0.22395E+01   -0.14161E+02  8144   0.659E+01    0.188E+02
DAV:   4    -0.169257526712E+04    0.92734E+02   -0.76875E+01  7440   0.622E+01    0.143E+02
DAV:   5    -0.162974425463E+04    0.62831E+02   -0.44045E+01  7944   0.444E+01    0.812E+01
DAV:   6    -0.160324594032E+04    0.26498E+02   -0.33421E+01  8072   0.341E+01    0.824E+01
DAV:   7    -0.160946789277E+04   -0.62220E+01   -0.22552E+01  7664   0.288E+01    0.944E+01
DAV:   8    -0.159028108353E+04    0.19187E+02   -0.13239E+01  7888   0.217E+01    0.581E+01
DAV:   9    -0.159578610513E+04   -0.55050E+01   -0.11830E+01  8024   0.191E+01    0.594E+01
DAV:  10    -0.158715481017E+04    0.86313E+01   -0.72886E+00  7816   0.163E+01    0.452E+01
DAV:  11    -0.158651697599E+04    0.63783E+00   -0.60295E+00  8032   0.141E+01    0.470E+01
DAV:  12    -0.158844576950E+04   -0.19288E+01   -0.46560E+00  7792   0.115E+01    0.529E+01
DAV:  13    -0.159086107023E+04   -0.24153E+01   -0.49599E+00  7728   0.115E+01    0.657E+01
DAV:  14    -0.158943651380E+04    0.14246E+01   -0.34802E+00  7936   0.906E+00    0.520E+01
DAV:  15    -0.158840868184E+04    0.10278E+01   -0.43407E+00  7864   0.116E+01    0.495E+01
DAV:  16    -0.159329911748E+04   -0.48904E+01   -0.55910E+00  7928   0.148E+01    0.609E+01
DAV:  17    -0.159947199341E+04   -0.61729E+01   -0.49815E+00  7816   0.129E+01    0.815E+01
DAV:  18    -0.159328416096E+04    0.61878E+01   -0.46284E+00  7776   0.917E+00    0.670E+01
DAV:  19    -0.159035335211E+04    0.29308E+01   -0.28811E+00  7672   0.820E+00    0.580E+01
DAV:  20    -0.158721669928E+04    0.31367E+01   -0.18089E+00  8044   0.670E+00    0.491E+01
DAV:  21    -0.158527511889E+04    0.19416E+01   -0.89929E-01  8316   0.405E+00    0.388E+01
DAV:  22    -0.158344648684E+04    0.18286E+01   -0.66694E-01  8184   0.450E+00    0.269E+01
DAV:  23    -0.158227547461E+04    0.11710E+01   -0.58261E-01  8176   0.378E+00    0.170E+01
DAV:  24    -0.158207763940E+04    0.19784E+00   -0.38078E-01  8492   0.258E+00    0.134E+01
DAV:  25    -0.158184562113E+04    0.23202E+00   -0.23691E-01  8168   0.211E+00    0.104E+01
DAV:  26    -0.158174147582E+04    0.10415E+00   -0.15441E-01  8112   0.171E+00    0.680E+00
DAV:  27    -0.158209902004E+04   -0.35754E+00   -0.17991E-01  9388   0.190E+00    0.149E+01
DAV:  28    -0.158170077546E+04    0.39824E+00   -0.19470E-01  8436   0.201E+00    0.533E+00
DAV:  29    -0.158172629639E+04   -0.25521E-01   -0.76208E-02 10860   0.109E+00    0.576E+00
DAV:  30    -0.158175216643E+04   -0.25870E-01   -0.71812E-02  9744   0.129E+00    0.741E+00
DAV:  31    -0.158172389028E+04    0.28276E-01   -0.37806E-02 10516   0.839E-01    0.737E+00
DAV:  32    -0.158165203087E+04    0.71859E-01   -0.20324E-02  8464   0.655E-01    0.455E+00
DAV:  33    -0.158164832174E+04    0.37091E-02   -0.99109E-03  8624   0.493E-01    0.410E+00
DAV:  34    -0.158162653675E+04    0.21785E-01   -0.98869E-03  8592   0.499E-01    0.301E+00
DAV:  35    -0.158164684573E+04   -0.20309E-01   -0.11479E-02 10112   0.466E-01    0.371E+00
DAV:  36    -0.158164901151E+04   -0.21658E-02   -0.75219E-03  9288   0.404E-01    0.403E+00
DAV:  37    -0.158162924140E+04    0.19770E-01   -0.59597E-03  8720   0.349E-01    0.214E+00
DAV:  38    -0.158162817535E+04    0.10661E-02   -0.42965E-03  9208   0.313E-01    0.142E+00
DAV:  39    -0.158162907736E+04   -0.90201E-03   -0.34828E-03  9072   0.289E-01    0.781E-01
DAV:  40    -0.158163140632E+04   -0.23290E-02   -0.26246E-03 12968   0.111E-01    0.547E-01
DAV:  41    -0.158163198094E+04   -0.57462E-03   -0.80028E-04  8992   0.121E-01    0.417E-01
DAV:  42    -0.158163267734E+04   -0.69641E-03   -0.37990E-04  9336   0.865E-02    0.517E-01
DAV:  43    -0.158163151986E+04    0.11575E-02   -0.39242E-04  9072   0.816E-02    0.369E-01
DAV:  44    -0.158163181058E+04   -0.29072E-03   -0.15788E-04  8368   0.288E-02    0.263E-01
DAV:  45    -0.158163185048E+04   -0.39896E-04   -0.38430E-05  7170   0.203E-02    0.160E-01
DAV:  46    -0.158163201544E+04   -0.16497E-03   -0.32946E-05  6944   0.193E-02    0.179E-01
DAV:  47    -0.158163204799E+04   -0.32545E-04   -0.24739E-05  4264   0.258E-02    0.733E-02
DAV:  48    -0.158163206784E+04   -0.19852E-04   -0.14554E-05  4608   0.104E-02    0.291E-02
DAV:  49    -0.158163206743E+04    0.40978E-06   -0.53214E-06  3664   0.422E-03
  38 F= -.16883339E+04 E0= -.16876623E+04  d E =-.401113E+01
 curvature:  -0.61 expect dE=-0.269E+01 dE for cont linesearch -0.466E-04
 trial: gam= 3.28100 g(F)=  0.441E+01 g(S)=  0.000E+00 ort =-0.169E-01 (trialstep = 0.147E+00)
 search vector abs. value=  0.443E+02
 bond charge predicted
       N       E                     dE             d eps       ncg     rms          rms(c)
DAV:   1    -0.158199110069E+04   -0.35903E+00   -0.14754E+02  6974   0.118E+01    0.535E+00
DAV:   2    -0.159864908525E+04   -0.16658E+02   -0.34290E+00  7944   0.113E+01    0.644E+01
DAV:   3    -0.158748576926E+04    0.11163E+02   -0.44795E+00  8080   0.136E+01    0.496E+01
DAV:   4    -0.158333853151E+04    0.41472E+01   -0.12408E+00  8912   0.827E+00    0.250E+01
DAV:   5    -0.158406038166E+04   -0.72185E+00   -0.13849E+00  8784   0.601E+00    0.259E+01
DAV:   6    -0.158342634485E+04    0.63404E+00   -0.12980E+00  8488   0.607E+00    0.216E+01
DAV:   7    -0.158261294429E+04    0.81340E+00   -0.78200E-01  8528   0.515E+00    0.135E+01
DAV:   8    -0.158271238988E+04   -0.99446E-01   -0.52973E-01  8520   0.429E+00    0.138E+01
DAV:   9    -0.158226625189E+04    0.44614E+00   -0.51360E-01  8592   0.363E+00    0.612E+00
DAV:  10    -0.158239025128E+04   -0.12400E+00   -0.27860E-01  8728   0.265E+00    0.858E+00
DAV:  11    -0.158236835111E+04    0.21900E-01   -0.19697E-01  8496   0.229E+00    0.839E+00
DAV:  12    -0.158222211193E+04    0.14624E+00   -0.12405E-01  8568   0.169E+00    0.724E+00
DAV:  13    -0.158227851677E+04   -0.56405E-01   -0.10411E-01  8864   0.146E+00    0.593E+00
DAV:  14    -0.158218546194E+04    0.93055E-01   -0.80509E-02  8520   0.142E+00    0.375E+00
DAV:  15    -0.158223126437E+04   -0.45802E-01   -0.45987E-02  8944   0.110E+00    0.398E+00
DAV:  16    -0.158221094605E+04    0.20318E-01   -0.30377E-02  8712   0.897E-01    0.345E+00
DAV:  17    -0.158219655075E+04    0.14395E-01   -0.17594E-02  8456   0.677E-01    0.262E+00
DAV:  18    -0.158218867616E+04    0.78746E-02   -0.10703E-02  9096   0.499E-01    0.199E+00
DAV:  19    -0.158218388674E+04    0.47894E-02   -0.59601E-03  8888   0.434E-01    0.988E-01
DAV:  20    -0.158218276681E+04    0.11199E-02   -0.20862E-03  8696   0.212E-01    0.801E-01
DAV:  21    -0.158218377771E+04   -0.10109E-02   -0.14490E-03  8576   0.171E-01    0.878E-01
DAV:  22    -0.158218281969E+04    0.95802E-03   -0.12188E-03  8496   0.171E-01    0.602E-01
DAV:  23    -0.158218275879E+04    0.60908E-04   -0.71532E-04  8488   0.130E-01    0.478E-01
DAV:  24    -0.158218342313E+04   -0.66435E-03   -0.61338E-04  8456   0.147E-01    0.817E-01
DAV:  25    -0.158218352845E+04   -0.10532E-03   -0.35252E-04  8536   0.100E-01    0.934E-01
DAV:  26    -0.158218242526E+04    0.11032E-02   -0.31111E-04  7984   0.757E-02    0.622E-01
DAV:  27    -0.158218229523E+04    0.13003E-03   -0.19504E-04  8160   0.670E-02    0.420E-01
DAV:  28    -0.158218213778E+04    0.15745E-03   -0.13713E-04  9448   0.510E-02    0.142E-01
DAV:  29    -0.158218214486E+04   -0.70799E-05   -0.64445E-05  8720   0.403E-02    0.101E-01
DAV:  30    -0.158218216353E+04   -0.18672E-04   -0.56127E-05  7568   0.300E-02    0.105E-01
DAV:  31    -0.158218214256E+04    0.20971E-04   -0.33519E-05  6616   0.253E-02    0.663E-02
DAV:  32    -0.158218213985E+04    0.27101E-05   -0.76788E-06  3760   0.130E-02
  39 F= -.16889373E+04 E0= -.16882699E+04  d E =-.603391E+00
 ZBRENT: can't locate minimum, use default step
 trial-energy change:   -0.603391  1 .order   -0.603839   -0.641595   -0.566082
 step:   0.5890(harm=  1.2511)  dis= 0.08231  next Energy= -1691.059561 (dE=-0.273E+01)
 bond charge predicted
       N       E                     dE             d eps       ncg     rms          rms(c)
DAV:   1    -0.158123974786E+04    0.94239E+00   -0.13272E+03  6968   0.357E+01    0.150E+01
DAV:   2    -0.166850035850E+04   -0.87261E+02   -0.29468E+01  7768   0.320E+01    0.121E+02
DAV:   3    -0.160968712393E+04    0.58813E+02   -0.14331E+01  8416   0.337E+01    0.863E+01
DAV:   4    -0.159807970613E+04    0.11607E+02   -0.73542E+00  8872   0.223E+01    0.784E+01
DAV:   5    -0.159789319585E+04    0.18651E+00   -0.11361E+01  8360   0.168E+01    0.665E+01
DAV:   6    -0.158993002441E+04    0.79632E+01   -0.62818E+00  8216   0.141E+01    0.431E+01
DAV:   7    -0.158649949464E+04    0.34305E+01   -0.40724E+00  8208   0.110E+01    0.350E+01
DAV:   8    -0.158931241703E+04   -0.28129E+01   -0.39334E+00  8928   0.116E+01    0.436E+01
DAV:   9    -0.158517810437E+04    0.41343E+01   -0.37100E+00  8360   0.108E+01    0.242E+01
DAV:  10    -0.158431586627E+04    0.86224E+00   -0.20302E+00  8512   0.779E+00    0.198E+01
DAV:  11    -0.158610457019E+04   -0.17887E+01   -0.18828E+00  8488   0.712E+00    0.271E+01
DAV:  12    -0.158403256270E+04    0.20720E+01   -0.14282E+00  7984   0.669E+00    0.155E+01
DAV:  13    -0.158393757093E+04    0.94992E-01   -0.75116E-01  8280   0.476E+00    0.150E+01
DAV:  14    -0.158444677657E+04   -0.50921E+00   -0.91386E-01  8368   0.538E+00    0.178E+01
DAV:  15    -0.158382715291E+04    0.61962E+00   -0.75217E-01  8360   0.502E+00    0.123E+01
DAV:  16    -0.158377368496E+04    0.53468E-01   -0.40820E-01  8312   0.352E+00    0.101E+01
DAV:  17    -0.158363154708E+04    0.14214E+00   -0.24346E-01  8224   0.274E+00    0.732E+00
DAV:  18    -0.158351568612E+04    0.11586E+00   -0.13401E-01  8344   0.195E+00    0.476E+00
DAV:  19    -0.158352823922E+04   -0.12553E-01   -0.64827E-02  8360   0.125E+00    0.540E+00
DAV:  20    -0.158348989066E+04    0.38349E-01   -0.35045E-02  8168   0.981E-01    0.425E+00
DAV:  21    -0.158347751715E+04    0.12374E-01   -0.16252E-02  8280   0.599E-01    0.359E+00
DAV:  22    -0.158346242190E+04    0.15095E-01   -0.11218E-02  8312   0.517E-01    0.200E+00
DAV:  23    -0.158346898565E+04   -0.65637E-02   -0.16482E-02  8432   0.661E-01    0.222E+00
DAV:  24    -0.158347959228E+04   -0.10607E-01   -0.98234E-03  8504   0.625E-01    0.390E+00
DAV:  25    -0.158347027574E+04    0.93165E-02   -0.56299E-03  7944   0.313E-01    0.356E+00
DAV:  26    -0.158345402620E+04    0.16250E-01   -0.37118E-03  8032   0.285E-01    0.201E+00
DAV:  27    -0.158345279521E+04    0.12310E-02   -0.25210E-03  8328   0.279E-01    0.112E+00
DAV:  28    -0.158345340286E+04   -0.60765E-03   -0.14197E-03  8536   0.230E-01    0.108E+00
DAV:  29    -0.158345560242E+04   -0.21996E-02   -0.16415E-03  7920   0.185E-01    0.956E-01
DAV:  30    -0.158345423408E+04    0.13683E-02   -0.14450E-03  7840   0.172E-01    0.383E-01
DAV:  31    -0.158345376163E+04    0.47244E-03   -0.47880E-04  8440   0.883E-02    0.349E-01
DAV:  32    -0.158345421398E+04   -0.45234E-03   -0.20720E-04  8376   0.588E-02    0.517E-01
DAV:  33    -0.158345392534E+04    0.28864E-03   -0.18697E-04  8288   0.364E-02    0.496E-01
DAV:  34    -0.158345370677E+04    0.21858E-03   -0.10513E-04  7688   0.383E-02    0.290E-01
DAV:  35    -0.158345392776E+04   -0.22099E-03   -0.87632E-05  8224   0.398E-02    0.220E-01
DAV:  36    -0.158345394345E+04   -0.15691E-04   -0.68776E-05  8056   0.396E-02    0.134E-01
DAV:  37    -0.158345395643E+04   -0.12979E-04   -0.46935E-05  7048   0.266E-02    0.113E-01
DAV:  38    -0.158345395407E+04    0.23604E-05   -0.28409E-05  6056   0.243E-02
  40 F= -.16903710E+04 E0= -.16897142E+04  d E =-.203708E+01
 curvature:  -4.07 expect dE=-0.105E+02 dE for cont linesearch -0.652E+00
 ZBRENT: increasing intervall
 opt :   1.4725  next Energy= -1691.680462 (dE=-0.335E+01)
