 running on    1 total cores
 distrk:  each k-point on    1 cores,    1 groups
 distr:  one band on    1 cores,    1 groups
 OpenACC runtime initialized ...    1 GPUs detected
 vasp.6.2.1 16May21 (build May 12 2022 08:28:04) complex                         
 POSCAR found type information on POSCAR NiO 
 POSCAR found :  2 types and     316 ions
 scaLAPACK will be used selectively (only on CPU)
 LDA part: xc-table for Pade appr. of Perdew
 POSCAR found type information on POSCAR NiO 
 POSCAR found :  2 types and     316 ions
 POSCAR, INCAR and KPOINTS ok, starting setup
 FFT: planning ...
 WAVECAR not read
 entering main loop
       N       E                     dE             d eps       ncg     rms          rms(c)
DAV:   1     0.276488270585E+05    0.27649E+05   -0.11237E+06  6968   0.129E+03
DAV:   2     0.185064078613E+04   -0.25798E+05   -0.24517E+05  7060   0.469E+02
DAV:   3    -0.101641403020E+04   -0.28671E+04   -0.24911E+04  9312   0.149E+02
DAV:   4    -0.163336756715E+04   -0.61695E+03   -0.51975E+03 13216   0.643E+01
DAV:   5    -0.175905984997E+04   -0.12569E+03   -0.99898E+02 13040   0.245E+01    0.262E+02
DAV:   6    -0.241255596135E+04   -0.65350E+03   -0.53530E+03  9000   0.195E+02    0.493E+02
DAV:   7    -0.271665120226E+04   -0.30410E+03   -0.11000E+03  8440   0.120E+02    0.483E+02
DAV:   8    -0.657761062908E+04   -0.38610E+04   -0.26420E+03 11384   0.946E+01    0.755E+02
DAV:   9    -0.101971299819E+05   -0.36195E+04   -0.15087E+04  9496   0.222E+02    0.791E+02
DAV:  10    -0.274835554066E+04    0.74488E+04   -0.82205E+03 10400   0.111E+02    0.448E+02
DAV:  11    -0.298387967113E+04   -0.23552E+03   -0.36595E+03  8912   0.144E+02    0.437E+02
DAV:  12    -0.190531080664E+04    0.10786E+04   -0.38328E+03 12152   0.119E+02    0.339E+02
DAV:  13    -0.216732312489E+04   -0.26201E+03   -0.37381E+03 11368   0.965E+01    0.281E+02
DAV:  14    -0.238961177629E+04   -0.22229E+03   -0.83123E+02  8856   0.109E+02    0.299E+02
DAV:  15    -0.234350878527E+04    0.46103E+02   -0.82286E+02 11320   0.852E+01    0.331E+02
DAV:  16    -0.180952508398E+04    0.53398E+03   -0.56414E+02  8344   0.634E+01    0.174E+02
DAV:  17    -0.198413814790E+04   -0.17461E+03   -0.23230E+02  9128   0.587E+01    0.244E+02
DAV:  18    -0.187484813918E+04    0.10929E+03   -0.17446E+02  8416   0.388E+01    0.214E+02
DAV:  19    -0.183677876232E+04    0.38069E+02   -0.11424E+02  7936   0.365E+01    0.211E+02
DAV:  20    -0.183707937413E+04   -0.30061E+00   -0.10797E+02  9224   0.371E+01    0.216E+02
DAV:  21    -0.169240557722E+04    0.14467E+03   -0.82474E+01  8024   0.371E+01    0.157E+02
DAV:  22    -0.172364861004E+04   -0.31243E+02   -0.87933E+01  8664   0.386E+01    0.225E+02
DAV:  23    -0.166720239029E+04    0.56446E+02   -0.52785E+01  7560   0.292E+01    0.201E+02
DAV:  24    -0.160446265311E+04    0.62740E+02   -0.49209E+01  9720   0.218E+01    0.174E+02
DAV:  25    -0.156294637361E+04    0.41516E+02   -0.38802E+01  9048   0.207E+01    0.142E+02
DAV:  26    -0.155568544330E+04    0.72609E+01   -0.25223E+01  9592   0.124E+01    0.131E+02
DAV:  27    -0.152603562585E+04    0.29650E+02   -0.22710E+01  9144   0.170E+01    0.113E+02
DAV:  28    -0.151609242544E+04    0.99432E+01   -0.12636E+01  8312   0.928E+00    0.101E+02
DAV:  29    -0.151530196453E+04    0.79046E+00   -0.65334E+00  8120   0.901E+00    0.106E+02
DAV:  30    -0.151336143037E+04    0.19405E+01   -0.49533E+00  7688   0.790E+00    0.103E+02
DAV:  31    -0.151210971297E+04    0.12517E+01   -0.57903E+00  8712   0.956E+00    0.107E+02
DAV:  32    -0.149468600467E+04    0.17424E+02   -0.11422E+01  8856   0.142E+01    0.935E+01
DAV:  33    -0.146374961544E+04    0.30936E+02   -0.16522E+01  8952   0.161E+01    0.645E+01
DAV:  34    -0.145847287898E+04    0.52767E+01   -0.11274E+01  9616   0.109E+01    0.561E+01
DAV:  35    -0.145104246832E+04    0.74304E+01   -0.86709E+00  9400   0.154E+01    0.521E+01
DAV:  36    -0.145030313349E+04    0.73933E+00   -0.64214E+00  8600   0.912E+00    0.540E+01
DAV:  37    -0.144706646787E+04    0.32367E+01   -0.47272E+00  7488   0.671E+00    0.398E+01
DAV:  38    -0.144759361150E+04   -0.52714E+00   -0.27910E+00  7968   0.663E+00    0.426E+01
DAV:  39    -0.144953211442E+04   -0.19385E+01   -0.35518E+00  8008   0.932E+00    0.492E+01
DAV:  40    -0.145485399585E+04   -0.53219E+01   -0.81423E+00 10328   0.143E+01    0.733E+01
DAV:  41    -0.146129847916E+04   -0.64445E+01   -0.49688E+00  8896   0.990E+00    0.886E+01
DAV:  42    -0.146179252142E+04   -0.49404E+00   -0.31563E+00  8448   0.771E+00    0.842E+01
DAV:  43    -0.146007386131E+04    0.17187E+01   -0.18394E+00  8024   0.551E+00    0.810E+01
DAV:  44    -0.145161429275E+04    0.84596E+01   -0.20115E+00  8520   0.541E+00    0.592E+01
DAV:  45    -0.144842200292E+04    0.31923E+01   -0.15687E+00  8770   0.454E+00    0.501E+01
DAV:  46    -0.144796715591E+04    0.45485E+00   -0.13816E+00  9504   0.340E+00    0.487E+01
DAV:  47    -0.144748491414E+04    0.48224E+00   -0.78727E-01  8176   0.280E+00    0.473E+01
DAV:  48    -0.144371831522E+04    0.37666E+01   -0.75088E-01  8920   0.363E+00    0.365E+01
DAV:  49    -0.144169175493E+04    0.20266E+01   -0.10220E+00 10248   0.251E+00    0.260E+01
DAV:  50    -0.144451325637E+04   -0.28215E+01   -0.90378E-01  8794   0.460E+00    0.433E+01
DAV:  51    -0.144928238341E+04   -0.47691E+01   -0.53798E+00  8778   0.130E+01    0.529E+01
DAV:  52    -0.144305971969E+04    0.62227E+01   -0.16480E+00 12576   0.420E+00    0.371E+01
DAV:  53    -0.144110504183E+04    0.19547E+01   -0.76517E-01 11648   0.287E+00    0.256E+01
DAV:  54    -0.144056273332E+04    0.54231E+00   -0.54926E-01  9944   0.245E+00    0.221E+01
DAV:  55    -0.143997555166E+04    0.58718E+00   -0.23862E-01  9056   0.164E+00    0.170E+01
DAV:  56    -0.143932226790E+04    0.65328E+00   -0.23001E-01 10192   0.201E+00    0.925E+00
DAV:  57    -0.143921932654E+04    0.10294E+00   -0.18861E-01 10488   0.160E+00    0.104E+01
DAV:  58    -0.143913536489E+04    0.83962E-01   -0.68361E-02 10576   0.861E-01    0.915E+00
DAV:  59    -0.143905470356E+04    0.80661E-01   -0.37467E-02  9546   0.572E-01    0.759E+00
DAV:  60    -0.143898422195E+04    0.70482E-01   -0.17321E-02 10672   0.466E-01    0.525E+00
DAV:  61    -0.143893072004E+04    0.53502E-01   -0.33302E-02 12256   0.738E-01    0.214E+00
DAV:  62    -0.143893884604E+04   -0.81260E-02   -0.14717E-02  9040   0.314E-01    0.317E+00
DAV:  63    -0.143892378891E+04    0.15057E-01   -0.20953E-02  7912   0.453E-01    0.126E+00
DAV:  64    -0.143892798693E+04   -0.41980E-02   -0.47414E-03 10312   0.312E-01    0.170E+00
DAV:  65    -0.143892350837E+04    0.44786E-02   -0.26504E-03  9864   0.260E-01    0.817E-01
DAV:  66    -0.143892540246E+04   -0.18941E-02   -0.27691E-03 11136   0.182E-01    0.637E-01
DAV:  67    -0.143892565276E+04   -0.25030E-03   -0.11092E-03  8368   0.138E-01    0.489E-01
DAV:  68    -0.143892702189E+04   -0.13691E-02   -0.52926E-04  9472   0.915E-02    0.468E-01
DAV:  69    -0.143892786641E+04   -0.84452E-03   -0.29338E-04  9728   0.679E-02    0.476E-01
DAV:  70    -0.143892854405E+04   -0.67764E-03   -0.27850E-04  9112   0.674E-02    0.387E-01
DAV:  71    -0.143892947808E+04   -0.93404E-03   -0.33531E-04  9512   0.896E-02    0.324E-01
DAV:  72    -0.143892945893E+04    0.19152E-04   -0.19164E-04  8920   0.666E-02    0.260E-01
DAV:  73    -0.143892961944E+04   -0.16051E-03   -0.13071E-04  8176   0.645E-02    0.297E-01
DAV:  74    -0.143893015810E+04   -0.53866E-03   -0.66321E-05  9072   0.248E-02    0.182E-01
DAV:  75    -0.143893037053E+04   -0.21244E-03   -0.20903E-05  5472   0.239E-02    0.656E-02
DAV:  76    -0.143893073561E+04   -0.36508E-03   -0.59507E-05  9608   0.317E-02    0.138E-01
DAV:  77    -0.143893080143E+04   -0.65821E-04   -0.45099E-05  8152   0.312E-02    0.750E-02
DAV:  78    -0.143893095587E+04   -0.15444E-03   -0.14554E-05  4928   0.153E-02    0.375E-02
DAV:  79    -0.143893111588E+04   -0.16001E-03   -0.10428E-05  4640   0.115E-02    0.540E-02
DAV:  80    -0.143893118127E+04   -0.65388E-04   -0.73468E-06  3968   0.111E-02    0.429E-02
DAV:  81    -0.143893124604E+04   -0.64768E-04   -0.51742E-06  3976   0.981E-03    0.270E-02
DAV:  82    -0.143893136474E+04   -0.11871E-03   -0.44216E-06  4344   0.837E-03    0.517E-02
DAV:  83    -0.143893152078E+04   -0.15603E-03   -0.10980E-05  5184   0.774E-03    0.162E-02
DAV:  84    -0.143893157604E+04   -0.55259E-04   -0.38303E-06  3952   0.470E-03    0.310E-02
DAV:  85    -0.143893160283E+04   -0.26796E-04   -0.31224E-06  3752   0.359E-03    0.508E-02
DAV:  86    -0.143893161653E+04   -0.13697E-04   -0.16116E-06  3736   0.321E-03    0.484E-02
DAV:  87    -0.143893162918E+04   -0.12652E-04   -0.12943E-06  3856   0.372E-03    0.227E-02
DAV:  88    -0.143893163912E+04   -0.99358E-05   -0.10260E-06  3664   0.291E-03    0.203E-02
DAV:  89    -0.143893164376E+04   -0.46408E-05   -0.74428E-07  3616   0.205E-03
   1 F= -.15397163E+04 E0= -.15390424E+04  d E =-.153972E+04
 curvature:   0.00 expect dE= 0.000E+00 dE for cont linesearch  0.000E+00
 trial: gam= 0.00000 g(F)=  0.149E+03 g(S)=  0.000E+00 ort = 0.000E+00 (trialstep = 0.100E+01)
 search vector abs. value=  0.149E+03
 bond charge predicted
       N       E                     dE             d eps       ncg     rms          rms(c)
DAV:   1    -0.125108343934E+04    0.18785E+03   -0.31993E+04  7212   0.187E+02    0.102E+02
DAV:   2    -0.342831890120E+04   -0.21772E+04   -0.16889E+03  8136   0.194E+02    0.403E+02
DAV:   3    -0.226308177873E+04    0.11652E+04   -0.20927E+03  7864   0.131E+02    0.287E+02
DAV:   4    -0.220831259172E+04    0.54769E+02   -0.42164E+02 10192   0.121E+02    0.295E+02
DAV:   5    -0.191718975193E+04    0.29112E+03   -0.63575E+02  9652   0.712E+01    0.223E+02
DAV:   6    -0.162973680030E+04    0.28745E+03   -0.40418E+02  9624   0.901E+01    0.166E+02
DAV:   7    -0.164854112733E+04   -0.18804E+02   -0.22127E+02  8184   0.743E+01    0.177E+02
DAV:   8    -0.158253651133E+04    0.66005E+02   -0.18502E+02  8568   0.577E+01    0.161E+02
DAV:   9    -0.159220190928E+04   -0.96654E+01   -0.11844E+02  8048   0.462E+01    0.174E+02
DAV:  10    -0.154377131878E+04    0.48431E+02   -0.69462E+01  7808   0.341E+01    0.108E+02
DAV:  11    -0.154311948778E+04    0.65183E+00   -0.41989E+01  7872   0.253E+01    0.112E+02
DAV:  12    -0.155433310146E+04   -0.11214E+02   -0.31979E+01  7872   0.256E+01    0.133E+02
DAV:  13    -0.153891060191E+04    0.15422E+02   -0.25604E+01  9032   0.206E+01    0.113E+02
DAV:  14    -0.152803129378E+04    0.10879E+02   -0.18193E+01  7808   0.150E+01    0.104E+02
DAV:  15    -0.152498495754E+04    0.30463E+01   -0.10828E+01  7576   0.128E+01    0.102E+02
DAV:  16    -0.152538960180E+04   -0.40464E+00   -0.79633E+00  7984   0.122E+01    0.107E+02
DAV:  17    -0.153235633017E+04   -0.69667E+01   -0.87032E+00  7968   0.149E+01    0.121E+02
DAV:  18    -0.152979875484E+04    0.25576E+01   -0.94746E+00  8080   0.152E+01    0.113E+02
DAV:  19    -0.151770038740E+04    0.12098E+02   -0.10397E+01  8256   0.181E+01    0.967E+01
DAV:  20    -0.151088531930E+04    0.68151E+01   -0.10371E+01  7800   0.143E+01    0.873E+01
DAV:  21    -0.151814383376E+04   -0.72585E+01   -0.60587E+00  7936   0.117E+01    0.113E+02
DAV:  22    -0.151366412467E+04    0.44797E+01   -0.47785E+00  8168   0.759E+00    0.102E+02
DAV:  23    -0.151160933615E+04    0.20548E+01   -0.54968E+00  8000   0.112E+01    0.919E+01
DAV:  24    -0.152762169025E+04   -0.16012E+02   -0.10204E+01  9448   0.192E+01    0.117E+02
DAV:  25    -0.151590166494E+04    0.11720E+02   -0.74883E+00  8640   0.115E+01    0.884E+01
DAV:  26    -0.150473268113E+04    0.11169E+02   -0.36240E+00  7704   0.700E+00    0.699E+01
DAV:  27    -0.150576298672E+04   -0.10303E+01   -0.24741E+00  7784   0.699E+00    0.743E+01
DAV:  28    -0.150593253214E+04   -0.16955E+00   -0.10853E+00  9032   0.275E+00    0.754E+01
DAV:  29    -0.150535271866E+04    0.57981E+00   -0.20467E+00  9872   0.707E+00    0.709E+01
DAV:  30    -0.150434736157E+04    0.10054E+01   -0.14950E+00  8776   0.608E+00    0.746E+01
DAV:  31    -0.150316552792E+04    0.11818E+01   -0.74192E-01  9736   0.175E+00    0.728E+01
DAV:  32    -0.150072652987E+04    0.24390E+01   -0.48382E-01  8464   0.302E+00    0.695E+01
DAV:  33    -0.150842470557E+04   -0.76982E+01   -0.39614E+00 10288   0.102E+01    0.840E+01
DAV:  34    -0.150510538075E+04    0.33193E+01   -0.16787E+00  9648   0.515E+00    0.847E+01
DAV:  35    -0.150600003717E+04   -0.89466E+00   -0.79606E-01 10488   0.115E+00    0.859E+01
DAV:  36    -0.150581173963E+04    0.18830E+00   -0.38144E-02  8344   0.528E-01    0.856E+01
DAV:  37    -0.150647544178E+04   -0.66370E+00   -0.32660E-01 10056   0.255E+00    0.856E+01
DAV:  38    -0.150549822418E+04    0.97722E+00   -0.11230E-01  9800   0.133E+00    0.838E+01
DAV:  39    -0.150626647164E+04   -0.76825E+00   -0.57672E-02 11808   0.727E-01    0.844E+01
DAV:  40    -0.150659593671E+04   -0.32947E+00   -0.38659E-01 11376   0.245E+00    0.886E+01
DAV:  41    -0.150500824717E+04    0.15877E+01   -0.12637E-01 10088   0.106E+00    0.883E+01
DAV:  42    -0.149628251039E+04    0.87257E+01   -0.10517E+00 12688   0.312E+00    0.634E+01
DAV:  43    -0.149380074459E+04    0.24818E+01   -0.29621E-01 10120   0.119E+00    0.577E+01
DAV:  44    -0.149418280875E+04   -0.38206E+00   -0.13415E-01  7528   0.121E+00    0.579E+01
DAV:  45    -0.149515678864E+04   -0.97398E+00   -0.15107E-01  8104   0.150E+00    0.631E+01
DAV:  46    -0.149464592247E+04    0.51087E+00   -0.53361E-02  8424   0.769E-01    0.625E+01
DAV:  47    -0.148839998773E+04    0.62459E+01   -0.24107E+00 10248   0.929E+00    0.325E+01
DAV:  48    -0.148669255208E+04    0.17074E+01   -0.12834E+00 11656   0.227E+00    0.195E+01
DAV:  49    -0.148676087012E+04   -0.68318E-01   -0.22790E-01  7720   0.147E+00    0.225E+01
DAV:  50    -0.148693112385E+04   -0.17025E+00   -0.75146E-02  8088   0.112E+00    0.244E+01
DAV:  51    -0.148612784208E+04    0.80328E+00   -0.43710E-01 10176   0.255E+00    0.135E+01
DAV:  52    -0.148610962060E+04    0.18221E-01   -0.54699E-01 12744   0.272E+00    0.131E+01
DAV:  53    -0.148598538358E+04    0.12424E+00   -0.36992E-01  8880   0.164E+00    0.978E+00
DAV:  54    -0.148591587106E+04    0.69513E-01   -0.10655E-01  7472   0.938E-01    0.820E+00
DAV:  55    -0.148582087553E+04    0.94996E-01   -0.99877E-02 11000   0.110E+00    0.755E+00
DAV:  56    -0.148579090168E+04    0.29974E-01   -0.50032E-02 10248   0.852E-01    0.701E+00
DAV:  57    -0.148580533987E+04   -0.14438E-01   -0.19220E-01 11200   0.178E+00    0.615E+00
DAV:  58    -0.148573909498E+04    0.66245E-01   -0.76131E-02  8048   0.109E+00    0.359E+00
DAV:  59    -0.148572764693E+04    0.11448E-01   -0.20575E-02  8880   0.482E-01    0.241E+00
DAV:  60    -0.148572966601E+04   -0.20191E-02   -0.15489E-02 10352   0.441E-01    0.218E+00
DAV:  61    -0.148573033173E+04   -0.66572E-03   -0.11113E-02  7984   0.349E-01    0.174E+00
DAV:  62    -0.148573568276E+04   -0.53510E-02   -0.79292E-03  9232   0.263E-01    0.189E+00
DAV:  63    -0.148573157049E+04    0.41123E-02   -0.59721E-03  8336   0.279E-01    0.986E-01
DAV:  64    -0.148573282837E+04   -0.12579E-02   -0.21632E-03 10344   0.141E-01    0.721E-01
DAV:  65    -0.148573327902E+04   -0.45065E-03   -0.89679E-04  9000   0.104E-01    0.509E-01
DAV:  66    -0.148573390050E+04   -0.62148E-03   -0.52424E-04 10024   0.785E-02    0.441E-01
DAV:  67    -0.148573458510E+04   -0.68459E-03   -0.57949E-04  9240   0.979E-02    0.353E-01
DAV:  68    -0.148573545654E+04   -0.87144E-03   -0.62961E-04  9072   0.101E-01    0.389E-01
DAV:  69    -0.148573597817E+04   -0.52163E-03   -0.32888E-04  9040   0.805E-02    0.323E-01
DAV:  70    -0.148573660390E+04   -0.62574E-03   -0.19281E-04  8752   0.648E-02    0.313E-01
DAV:  71    -0.148573706638E+04   -0.46247E-03   -0.13782E-04  8664   0.427E-02    0.284E-01
DAV:  72    -0.148573745717E+04   -0.39080E-03   -0.22448E-04  9592   0.767E-02    0.285E-01
DAV:  73    -0.148573753144E+04   -0.74266E-04   -0.17391E-04  8864   0.599E-02    0.198E-01
DAV:  74    -0.148573765848E+04   -0.12704E-03   -0.59003E-05  7840   0.314E-02    0.136E-01
DAV:  75    -0.148573772667E+04   -0.68192E-04   -0.23139E-05  6136   0.178E-02    0.125E-01
DAV:  76    -0.148573783236E+04   -0.10569E-03   -0.12455E-05  4384   0.150E-02    0.588E-02
DAV:  77    -0.148573791459E+04   -0.82224E-04   -0.10378E-05  4128   0.116E-02    0.576E-02
DAV:  78    -0.148573802194E+04   -0.10736E-03   -0.10766E-05  4040   0.116E-02    0.481E-02
DAV:  79    -0.148573809969E+04   -0.77742E-04   -0.66417E-06  3896   0.860E-03    0.383E-02
DAV:  80    -0.148573813244E+04   -0.32753E-04   -0.43126E-06  3640   0.552E-03    0.222E-02
DAV:  81    -0.148573817787E+04   -0.45431E-04   -0.30230E-06  3808   0.490E-03    0.233E-02
DAV:  82    -0.148573820200E+04   -0.24125E-04   -0.27115E-06  3616   0.510E-03    0.154E-02
DAV:  83    -0.148573824883E+04   -0.46831E-04   -0.25631E-06  3904   0.447E-03    0.140E-02
DAV:  84    -0.148573828064E+04   -0.31811E-04   -0.24274E-06  3656   0.352E-03    0.119E-02
DAV:  85    -0.148573829611E+04   -0.15475E-04   -0.14716E-06  3640   0.212E-03    0.127E-02
DAV:  86    -0.148573830027E+04   -0.41616E-05   -0.99217E-07  3592   0.199E-03
   2 F= -.15865326E+04 E0= -.15858302E+04  d E =-.468163E+02
 trial-energy change:  -46.816342  1 .order  -76.581872 -148.865316   -4.298427
 step:   1.0297(harm=  1.0297)  dis= 0.26859  next Energy= -1616.362064 (dE=-0.766E+02)
 bond charge predicted
       N       E                     dE             d eps       ncg     rms          rms(c)
DAV:   1    -0.148580919364E+04   -0.70898E-01   -0.23518E+01  6968   0.471E+00    0.185E+00
DAV:   2    -0.149792302100E+04   -0.12114E+02   -0.17151E+00  7992   0.848E+00    0.675E+01
DAV:   3    -0.148617818905E+04    0.11745E+02   -0.24683E+00  8048   0.831E+00    0.107E+01
DAV:   4    -0.148631376206E+04   -0.13557E+00   -0.76412E-01  9184   0.285E+00    0.149E+01
DAV:   5    -0.148657486831E+04   -0.26111E+00   -0.44134E-01  9024   0.347E+00    0.173E+01
DAV:   6    -0.148651099847E+04    0.63870E-01   -0.79623E-01  8952   0.313E+00    0.147E+01
DAV:   7    -0.148614529512E+04    0.36570E+00   -0.21353E-01  8808   0.226E+00    0.110E+01
DAV:   8    -0.148589750871E+04    0.24779E+00   -0.12174E-01  8848   0.144E+00    0.497E+00
DAV:   9    -0.148591113842E+04   -0.13630E-01   -0.65951E-02  9224   0.110E+00    0.459E+00
DAV:  10    -0.148588675136E+04    0.24387E-01   -0.53618E-02  9072   0.113E+00    0.381E+00
DAV:  11    -0.148587993474E+04    0.68166E-02   -0.33070E-02  9120   0.899E-01    0.359E+00
DAV:  12    -0.148587301207E+04    0.69227E-02   -0.23032E-02  9064   0.706E-01    0.331E+00
DAV:  13    -0.148586492846E+04    0.80836E-02   -0.10244E-02  8920   0.482E-01    0.279E+00
DAV:  14    -0.148585146383E+04    0.13465E-01   -0.12061E-02  8744   0.411E-01    0.114E+00
DAV:  15    -0.148585008037E+04    0.13835E-02   -0.42090E-03  8824   0.317E-01    0.655E-01
DAV:  16    -0.148585451211E+04   -0.44317E-02   -0.51045E-03 10224   0.322E-01    0.137E+00
DAV:  17    -0.148585183985E+04    0.26723E-02   -0.34835E-03  9456   0.293E-01    0.109E+00
DAV:  18    -0.148585095857E+04    0.88128E-03   -0.18934E-03  9664   0.197E-01    0.789E-01
DAV:  19    -0.148585086271E+04    0.95856E-04   -0.16064E-03  9376   0.195E-01    0.700E-01
DAV:  20    -0.148585042417E+04    0.43855E-03   -0.79102E-04  9200   0.145E-01    0.657E-01
DAV:  21    -0.148585031938E+04    0.10478E-03   -0.42491E-04  9280   0.904E-02    0.604E-01
DAV:  22    -0.148584987602E+04    0.44336E-03   -0.30713E-04  9240   0.825E-02    0.403E-01
DAV:  23    -0.148584975473E+04    0.12129E-03   -0.13491E-04  9432   0.525E-02    0.292E-01
DAV:  24    -0.148584963856E+04    0.11617E-03   -0.74510E-05  8496   0.448E-02    0.131E-01
DAV:  25    -0.148584961452E+04    0.24042E-04   -0.57273E-05  8696   0.379E-02    0.868E-02
DAV:  26    -0.148584964759E+04   -0.33076E-04   -0.39190E-05  7800   0.309E-02    0.135E-01
DAV:  27    -0.148584964142E+04    0.61770E-05   -0.43999E-05  7624   0.319E-02    0.132E-01
DAV:  28    -0.148584963660E+04    0.48107E-05   -0.34006E-05  6712   0.280E-02
   3 F= -.15866503E+04 E0= -.15859445E+04  d E =-.469340E+02
 curvature:  -0.51 expect dE=-0.952E+00 dE for cont linesearch -0.459E-01
 ZBRENT: increasing intervall
 opt :   1.0892  next Energy= -1586.827759 (dE=-0.471E+02)
 bond charge predicted
       N       E                     dE             d eps       ncg     rms          rms(c)
DAV:   1    -0.148584026037E+04    0.93810E-02   -0.94058E+01  6968   0.945E+00    0.369E+00
DAV:   2    -0.152324791288E+04   -0.37408E+02   -0.38007E+00  8088   0.161E+01    0.981E+01
DAV:   3    -0.148645915645E+04    0.36789E+02   -0.28428E+00  8000   0.150E+01    0.120E+01
DAV:   4    -0.148864765764E+04   -0.21885E+01   -0.22265E+00  9208   0.539E+00    0.346E+01
DAV:   5    -0.148806537958E+04    0.58228E+00   -0.14489E+00  8600   0.642E+00    0.281E+01
DAV:   6    -0.148843574138E+04   -0.37036E+00   -0.19489E+00  8400   0.570E+00    0.275E+01
DAV:   7    -0.148710556734E+04    0.13302E+01   -0.94084E-01  8224   0.434E+00    0.203E+01
DAV:   8    -0.148622194305E+04    0.88362E+00   -0.51717E-01  8456   0.271E+00    0.960E+00
DAV:   9    -0.148623283915E+04   -0.10896E-01   -0.23308E-01  8704   0.220E+00    0.836E+00
DAV:  10    -0.148613560070E+04    0.97238E-01   -0.17402E-01  8832   0.201E+00    0.688E+00
DAV:  11    -0.148616524943E+04   -0.29649E-01   -0.13968E-01  8792   0.178E+00    0.802E+00
DAV:  12    -0.148613365593E+04    0.31593E-01   -0.98741E-02  8864   0.153E+00    0.750E+00
DAV:  13    -0.148611367588E+04    0.19980E-01   -0.40933E-02  8664   0.102E+00    0.688E+00
DAV:  14    -0.148602337572E+04    0.90300E-01   -0.11163E-01  8272   0.832E-01    0.247E+00
DAV:  15    -0.148602120223E+04    0.21735E-02   -0.13668E-02  8544   0.627E-01    0.185E+00
DAV:  16    -0.148602809074E+04   -0.68885E-02   -0.12095E-02  9120   0.536E-01    0.256E+00
DAV:  17    -0.148602472932E+04    0.33614E-02   -0.10027E-02  8864   0.488E-01    0.249E+00
DAV:  18    -0.148602604857E+04   -0.13193E-02   -0.12949E-02 10144   0.501E-01    0.204E+00
DAV:  19    -0.148601886223E+04    0.71863E-02   -0.12136E-02  9456   0.524E-01    0.142E+00
DAV:  20    -0.148601865358E+04    0.20865E-03   -0.40545E-03  9552   0.299E-01    0.140E+00
DAV:  21    -0.148601700075E+04    0.16528E-02   -0.22751E-03  9424   0.222E-01    0.107E+00
DAV:  22    -0.148601538834E+04    0.16124E-02   -0.17201E-03  9264   0.200E-01    0.692E-01
DAV:  23    -0.148601497468E+04    0.41366E-03   -0.85887E-04  9472   0.142E-01    0.432E-01
DAV:  24    -0.148601474988E+04    0.22480E-03   -0.72200E-04  9728   0.120E-01    0.375E-01
DAV:  25    -0.148601489775E+04   -0.14787E-03   -0.41146E-04  9704   0.868E-02    0.474E-01
DAV:  26    -0.148601491390E+04   -0.16144E-04   -0.26723E-04  9400   0.753E-02    0.500E-01
DAV:  27    -0.148601480992E+04    0.10397E-03   -0.21366E-04  9624   0.707E-02    0.437E-01
DAV:  28    -0.148601459276E+04    0.21716E-03   -0.13165E-04  8912   0.590E-02    0.284E-01
DAV:  29    -0.148601451008E+04    0.82688E-04   -0.10150E-04  9432   0.507E-02    0.217E-01
DAV:  30    -0.148601454222E+04   -0.32140E-04   -0.48825E-05  8336   0.333E-02    0.229E-01
DAV:  31    -0.148601450757E+04    0.34641E-04   -0.33310E-05  7008   0.287E-02    0.206E-01
DAV:  32    -0.148601452186E+04   -0.14282E-04   -0.16110E-05  4680   0.192E-02    0.220E-01
DAV:  33    -0.148601452398E+04   -0.21257E-05   -0.13537E-05  4384   0.185E-02
   4 F= -.15868295E+04 E0= -.15861154E+04  d E =-.471132E+02
 curvature:  -1.99 expect dE=-0.366E+01 dE for cont linesearch -0.764E-01
 ZBRENT: increasing intervall
 opt :   1.2081  next Energy= -1586.964836 (dE=-0.472E+02)
 bond charge predicted
       N       E                     dE             d eps       ncg     rms          rms(c)
DAV:   1    -0.148533138779E+04    0.68313E+00   -0.37678E+02  6968   0.190E+01    0.722E+00
DAV:   2    -0.157897197065E+04   -0.93641E+02   -0.11982E+01  8200   0.286E+01    0.136E+02
DAV:   3    -0.148705661597E+04    0.91915E+02   -0.66731E+00  8024   0.255E+01    0.201E+01
DAV:   4    -0.149359224258E+04   -0.65356E+01   -0.60285E+00  8584   0.967E+00    0.537E+01
DAV:   5    -0.149357128429E+04    0.20958E-01   -0.38474E+00  8496   0.116E+01    0.539E+01
DAV:   6    -0.149455787298E+04   -0.98659E+00   -0.56960E+00  8352   0.108E+01    0.452E+01
DAV:   7    -0.148997453593E+04    0.45833E+01   -0.19792E+00  8168   0.805E+00    0.360E+01
DAV:   8    -0.148732770740E+04    0.26468E+01   -0.16193E+00  8336   0.529E+00    0.213E+01
DAV:   9    -0.148685276568E+04    0.47494E+00   -0.82087E-01  8512   0.422E+00    0.143E+01
DAV:  10    -0.148645612018E+04    0.39665E+00   -0.61455E-01  8592   0.341E+00    0.117E+01
DAV:  11    -0.148679916825E+04   -0.34305E+00   -0.62306E-01  8632   0.316E+00    0.175E+01
DAV:  12    -0.148663051311E+04    0.16866E+00   -0.37091E-01  8368   0.282E+00    0.156E+01
DAV:  13    -0.148654504391E+04    0.85469E-01   -0.18891E-01  8096   0.205E+00    0.139E+01
DAV:  14    -0.148621184414E+04    0.33320E+00   -0.18165E-01  8160   0.167E+00    0.582E+00
DAV:  15    -0.148619486822E+04    0.16976E-01   -0.72836E-02  8360   0.139E+00    0.509E+00
DAV:  16    -0.148619492092E+04   -0.52700E-04   -0.42968E-02  8504   0.973E-01    0.537E+00
DAV:  17    -0.148618506422E+04    0.98567E-02   -0.35407E-02  8576   0.874E-01    0.512E+00
DAV:  18    -0.148618740365E+04   -0.23394E-02   -0.54414E-02  9280   0.103E+00    0.408E+00
DAV:  19    -0.148614889418E+04    0.38509E-01   -0.43912E-02  9112   0.108E+00    0.216E+00
DAV:  20    -0.148615479708E+04   -0.59029E-02   -0.23735E-02 10568   0.660E-01    0.256E+00
DAV:  21    -0.148614931277E+04    0.54843E-02   -0.15436E-02  9984   0.579E-01    0.206E+00
DAV:  22    -0.148614182820E+04    0.74846E-02   -0.92097E-03  9856   0.445E-01    0.135E+00
DAV:  23    -0.148614508709E+04   -0.32589E-02   -0.40420E-03 10048   0.297E-01    0.180E+00
DAV:  24    -0.148614372895E+04    0.13581E-02   -0.33801E-03  9760   0.278E-01    0.168E+00
DAV:  25    -0.148614279804E+04    0.93091E-03   -0.19886E-03  9984   0.214E-01    0.152E+00
DAV:  26    -0.148614021556E+04    0.25825E-02   -0.16311E-03 10064   0.188E-01    0.976E-01
DAV:  27    -0.148613989853E+04    0.31703E-03   -0.17674E-03 11152   0.174E-01    0.684E-01
DAV:  28    -0.148613870391E+04    0.11946E-02   -0.81164E-04 10600   0.136E-01    0.221E-01
DAV:  29    -0.148613882055E+04   -0.11664E-03   -0.30913E-04 10336   0.678E-02    0.244E-01
DAV:  30    -0.148613868177E+04    0.13878E-03   -0.15873E-04  8648   0.535E-02    0.119E-01
DAV:  31    -0.148613869504E+04   -0.13271E-04   -0.64576E-05  8384   0.339E-02    0.128E-01
DAV:  32    -0.148613871404E+04   -0.18992E-04   -0.39469E-05  6968   0.272E-02    0.118E-01
DAV:  33    -0.148613874811E+04   -0.34073E-04   -0.41095E-05  7120   0.335E-02    0.159E-01
DAV:  34    -0.148613884236E+04   -0.94253E-04   -0.45886E-05  7336   0.359E-02    0.270E-01
DAV:  35    -0.148613881866E+04    0.23700E-04   -0.34463E-05  7192   0.305E-02    0.266E-01
DAV:  36    -0.148613883317E+04   -0.14511E-04   -0.12170E-05  4144   0.161E-02    0.284E-01
DAV:  37    -0.148613882358E+04    0.95898E-05   -0.86181E-06  3696   0.118E-02    0.272E-01
DAV:  38    -0.148613876325E+04    0.60333E-04   -0.50146E-06  3648   0.908E-03    0.195E-01
DAV:  39    -0.148613875048E+04    0.12771E-04   -0.30321E-06  3648   0.758E-03    0.169E-01
DAV:  40    -0.148613871703E+04    0.33446E-04   -0.49131E-06  3864   0.101E-02    0.753E-02
DAV:  41    -0.148613872455E+04   -0.75102E-05   -0.38142E-06  3632   0.668E-03    0.882E-02
DAV:  42    -0.148613871736E+04    0.71884E-05   -0.29745E-06  3592   0.575E-03    0.515E-02
DAV:  43    -0.148613871673E+04    0.62957E-06   -0.13916E-06  3592   0.246E-03
   5 F= -.15869892E+04 E0= -.15862558E+04  d E =-.472729E+02
 curvature:  -3.53 expect dE=-0.701E+01 dE for cont linesearch -0.278E-02
 trial: gam= 0.01105 g(F)=  0.199E+01 g(S)=  0.000E+00 ort = 0.342E+00 (trialstep = 0.104E+01)
 search vector abs. value=  0.201E+01
 bond charge predicted
       N       E                     dE             d eps       ncg     rms          rms(c)
DAV:   1    -0.148758400075E+04   -0.14453E+01   -0.42557E+02  6968   0.205E+01    0.520E+00
DAV:   2    -0.151608169182E+04   -0.28498E+02   -0.91676E+00  7776   0.175E+01    0.722E+01
DAV:   3    -0.149669694288E+04    0.19385E+02   -0.58480E+00  9192   0.175E+01    0.561E+01
DAV:   4    -0.149091247247E+04    0.57845E+01   -0.42289E+00  8200   0.104E+01    0.324E+01
DAV:   5    -0.148853484965E+04    0.23776E+01   -0.22473E+00  8232   0.554E+00    0.127E+01
DAV:   6    -0.149145800409E+04   -0.29232E+01   -0.22994E+00  8688   0.671E+00    0.352E+01
DAV:   7    -0.148971053752E+04    0.17475E+01   -0.18386E+00  8440   0.698E+00    0.205E+01
DAV:   8    -0.148899075460E+04    0.71978E+00   -0.80134E-01  8352   0.477E+00    0.177E+01
DAV:   9    -0.148838446726E+04    0.60629E+00   -0.54300E-01  8536   0.339E+00    0.786E+00
DAV:  10    -0.148823836631E+04    0.14610E+00   -0.23788E-01  8280   0.224E+00    0.480E+00
DAV:  11    -0.148854433221E+04   -0.30597E+00   -0.32560E-01  8488   0.179E+00    0.144E+01
DAV:  12    -0.148839422422E+04    0.15011E+00   -0.18325E-01  8536   0.185E+00    0.111E+01
DAV:  13    -0.148822789756E+04    0.16633E+00   -0.75234E-02  8160   0.120E+00    0.625E+00
DAV:  14    -0.148819767868E+04    0.30219E-01   -0.13083E-01  8336   0.104E+00    0.368E+00
DAV:  15    -0.148824643496E+04   -0.48756E-01   -0.49481E-02  9488   0.909E-01    0.653E+00
DAV:  16    -0.148829708373E+04   -0.50649E-01   -0.31911E-02  9256   0.837E-01    0.825E+00
DAV:  17    -0.148824106715E+04    0.56017E-01   -0.25975E-02  8664   0.754E-01    0.639E+00
DAV:  18    -0.148822372838E+04    0.17339E-01   -0.22910E-02  8784   0.774E-01    0.556E+00
DAV:  19    -0.148817343550E+04    0.50293E-01   -0.18994E-02  8744   0.645E-01    0.291E+00
DAV:  20    -0.148816369292E+04    0.97426E-02   -0.74286E-03  8952   0.411E-01    0.184E+00
DAV:  21    -0.148816781919E+04   -0.41263E-02   -0.52594E-03  8912   0.336E-01    0.207E+00
DAV:  22    -0.148816359272E+04    0.42265E-02   -0.34270E-03  8600   0.276E-01    0.160E+00
DAV:  23    -0.148816427754E+04   -0.68482E-03   -0.14785E-03  9296   0.151E-01    0.162E+00
DAV:  24    -0.148816464002E+04   -0.36248E-03   -0.94673E-04  8592   0.138E-01    0.169E+00
DAV:  25    -0.148816362254E+04    0.10175E-02   -0.57516E-04  8672   0.111E-01    0.156E+00
DAV:  26    -0.148816277163E+04    0.85091E-03   -0.39579E-04  9632   0.885E-02    0.138E+00
DAV:  27    -0.148816110575E+04    0.16659E-02   -0.39376E-04  9616   0.866E-02    0.100E+00
DAV:  28    -0.148815992862E+04    0.11771E-02   -0.52982E-04 10912   0.962E-02    0.462E-01
DAV:  29    -0.148815968050E+04    0.24813E-03   -0.30469E-04 10680   0.774E-02    0.212E-01
DAV:  30    -0.148815977145E+04   -0.90950E-04   -0.19397E-04 10112   0.540E-02    0.206E-01
DAV:  31    -0.148815974367E+04    0.27780E-04   -0.12740E-04  9048   0.479E-02    0.198E-01
DAV:  32    -0.148815979043E+04   -0.46759E-04   -0.57355E-05  7768   0.293E-02    0.246E-01
DAV:  33    -0.148815976026E+04    0.30163E-04   -0.31366E-05  6656   0.201E-02    0.214E-01
DAV:  34    -0.148815978126E+04   -0.21000E-04   -0.12091E-05  3880   0.148E-02    0.238E-01
DAV:  35    -0.148815984406E+04   -0.62794E-04   -0.96802E-06  3856   0.150E-02    0.299E-01
DAV:  36    -0.148815984076E+04    0.32955E-05   -0.12932E-05  3872   0.186E-02
   6 F= -.15890303E+04 E0= -.15882943E+04  d E =-.204111E+01
 ZBRENT: can't locate minimum, use default step
 trial-energy change:   -2.041115  1 .order   -2.039296   -2.073455   -2.005137
 step:   4.1665(harm= 31.6137)  dis= 0.08352  next Energy= -1618.454197 (dE=-0.315E+02)
 bond charge predicted
       N       E                     dE             d eps       ncg     rms          rms(c)
DAV:   1    -0.148442439437E+04    0.37354E+01   -0.38549E+03  6968   0.631E+01    0.197E+01
DAV:   2    -0.173093910539E+04   -0.24651E+03   -0.89395E+01  7744   0.717E+01    0.162E+02
DAV:   3    -0.158052304949E+04    0.15042E+03   -0.80142E+01  9168   0.532E+01    0.132E+02
DAV:   4    -0.154409044523E+04    0.36433E+02   -0.20217E+01  7976   0.343E+01    0.109E+02
DAV:   5    -0.150576802809E+04    0.38322E+02   -0.19097E+01  8016   0.237E+01    0.668E+01
DAV:   6    -0.151442619067E+04   -0.86582E+01   -0.24156E+01  8392   0.236E+01    0.640E+01
DAV:   7    -0.150947842360E+04    0.49478E+01   -0.15062E+01  7952   0.212E+01    0.709E+01
DAV:   8    -0.150050448394E+04    0.89739E+01   -0.10500E+01  7992   0.173E+01    0.492E+01
DAV:   9    -0.149730920067E+04    0.31953E+01   -0.49737E+00  8280   0.909E+00    0.346E+01
DAV:  10    -0.149488511226E+04    0.24241E+01   -0.25594E+00  8144   0.748E+00    0.173E+01
DAV:  11    -0.149712455623E+04   -0.22394E+01   -0.25014E+00  9288   0.643E+00    0.418E+01
DAV:  12    -0.149592836077E+04    0.11962E+01   -0.22713E+00  8432   0.700E+00    0.316E+01
DAV:  13    -0.149421462698E+04    0.17137E+01   -0.16008E+00  7688   0.524E+00    0.133E+01
DAV:  14    -0.149453809645E+04   -0.32347E+00   -0.10703E+00  8080   0.425E+00    0.167E+01
DAV:  15    -0.149656414431E+04   -0.20260E+01   -0.60653E-01  8016   0.427E+00    0.329E+01
DAV:  16    -0.149608394735E+04    0.48020E+00   -0.50528E-01  7912   0.349E+00    0.315E+01
DAV:  17    -0.149506050579E+04    0.10234E+01   -0.96817E-01  8136   0.439E+00    0.226E+01
DAV:  18    -0.149426273014E+04    0.79778E+00   -0.58425E-01  8216   0.404E+00    0.126E+01
DAV:  19    -0.149407776558E+04    0.18496E+00   -0.41421E-01  8280   0.339E+00    0.108E+01
DAV:  20    -0.149401620096E+04    0.61565E-01   -0.22787E-01  8384   0.226E+00    0.118E+01
DAV:  21    -0.149397439302E+04    0.41808E-01   -0.12368E-01  7896   0.147E+00    0.111E+01
DAV:  22    -0.149382304396E+04    0.15135E+00   -0.10017E-01  7752   0.115E+00    0.700E+00
DAV:  23    -0.149377817604E+04    0.44868E-01   -0.36918E-02  8104   0.791E-01    0.499E+00
DAV:  24    -0.149374826169E+04    0.29914E-01   -0.29793E-02  8392   0.669E-01    0.318E+00
DAV:  25    -0.149374245436E+04    0.58073E-02   -0.10071E-02  8192   0.448E-01    0.298E+00
DAV:  26    -0.149374699553E+04   -0.45412E-02   -0.11331E-02  8080   0.465E-01    0.306E+00
DAV:  27    -0.149374572422E+04    0.12713E-02   -0.11512E-02  8124   0.513E-01    0.274E+00
DAV:  28    -0.149375575758E+04   -0.10033E-01   -0.11144E-02  9360   0.533E-01    0.303E+00
DAV:  29    -0.149374133795E+04    0.14420E-01   -0.81785E-03  8960   0.455E-01    0.210E+00
DAV:  30    -0.149373813545E+04    0.32025E-02   -0.43608E-03 10800   0.257E-01    0.170E+00
DAV:  31    -0.149373376263E+04    0.43728E-02   -0.24162E-03 10904   0.221E-01    0.952E-01
DAV:  32    -0.149373257299E+04    0.11896E-02   -0.15450E-03 11960   0.144E-01    0.581E-01
DAV:  33    -0.149373282583E+04   -0.25284E-03   -0.11514E-03 10888   0.144E-01    0.575E-01
DAV:  34    -0.149373306782E+04   -0.24198E-03   -0.57554E-04  8784   0.109E-01    0.603E-01
DAV:  35    -0.149373340727E+04   -0.33945E-03   -0.55045E-04  8776   0.114E-01    0.734E-01
DAV:  36    -0.149373287234E+04    0.53493E-03   -0.21794E-04  8696   0.770E-02    0.485E-01
DAV:  37    -0.149373318992E+04   -0.31758E-03   -0.16962E-04  8736   0.691E-02    0.649E-01
DAV:  38    -0.149373353920E+04   -0.34928E-03   -0.10098E-04  8552   0.491E-02    0.821E-01
DAV:  39    -0.149373291985E+04    0.61935E-03   -0.10584E-04  8448   0.414E-02    0.574E-01
DAV:  40    -0.149373269057E+04    0.22928E-03   -0.46024E-05  7168   0.303E-02    0.446E-01
DAV:  41    -0.149373252549E+04    0.16508E-03   -0.22535E-05  5232   0.180E-02    0.316E-01
DAV:  42    -0.149373245568E+04    0.69811E-04   -0.31211E-05  6504   0.116E-02    0.225E-01
DAV:  43    -0.149373244024E+04    0.15440E-04   -0.14196E-05  4480   0.119E-02    0.186E-01
DAV:  44    -0.149373239977E+04    0.40473E-04   -0.55418E-06  3880   0.995E-03    0.793E-02
DAV:  45    -0.149373239822E+04    0.15441E-05   -0.60167E-06  3800   0.607E-03
   7 F= -.15946708E+04 E0= -.15939336E+04  d E =-.768156E+01
 curvature:  -3.10 expect dE=-0.988E+01 dE for cont linesearch -0.422E+01
 ZBRENT: increasing intervall
 opt :  10.4163  next Energy= -1603.317803 (dE=-0.163E+02)
 bond charge predicted
       N       E                     dE             d eps       ncg     rms          rms(c)
DAV:   1    -0.143695481322E+04    0.56778E+02   -0.16075E+04  6968   0.137E+02    0.695E+01
DAV:   2    -0.270240516477E+04   -0.12655E+04   -0.49593E+02  7872   0.205E+02    0.336E+02
DAV:   3    -0.183561937297E+04    0.86679E+03   -0.94377E+02 10328   0.811E+01    0.205E+02
DAV:   4    -0.201036516743E+04   -0.17475E+03   -0.20173E+02  9048   0.886E+01    0.216E+02
DAV:   5    -0.198152862126E+04    0.28837E+02   -0.15234E+02 10400   0.926E+01    0.267E+02
DAV:   6    -0.170315338073E+04    0.27838E+03   -0.21829E+02 10218   0.498E+01    0.189E+02
DAV:   7    -0.171138001371E+04   -0.82266E+01   -0.14207E+02  9088   0.561E+01    0.204E+02
DAV:   8    -0.156522301950E+04    0.14616E+03   -0.68715E+01  7652   0.390E+01    0.112E+02
DAV:   9    -0.153292235332E+04    0.32301E+02   -0.47134E+01  7768   0.307E+01    0.922E+01
DAV:  10    -0.151761893479E+04    0.15303E+02   -0.36255E+01  9152   0.218E+01    0.656E+01
DAV:  11    -0.153230345660E+04   -0.14685E+02   -0.19597E+01  8120   0.208E+01    0.977E+01
DAV:  12    -0.151835193706E+04    0.13952E+02   -0.13461E+01  7776   0.154E+01    0.709E+01
DAV:  13    -0.151617615201E+04    0.21758E+01   -0.83480E+00  8088   0.113E+01    0.658E+01
DAV:  14    -0.150714090651E+04    0.90352E+01   -0.55030E+00  7832   0.984E+00    0.436E+01
DAV:  15    -0.150588297821E+04    0.12579E+01   -0.37470E+00  8128   0.847E+00    0.381E+01
DAV:  16    -0.150302271780E+04    0.28603E+01   -0.23628E+00  7952   0.797E+00    0.277E+01
DAV:  17    -0.150284090478E+04    0.18181E+00   -0.25483E+00  7696   0.767E+00    0.260E+01
DAV:  18    -0.150470791888E+04   -0.18670E+01   -0.33375E+00  7912   0.883E+00    0.342E+01
DAV:  19    -0.150380244224E+04    0.90548E+00   -0.34783E+00  7824   0.101E+01    0.357E+01
DAV:  20    -0.150764223275E+04   -0.38398E+01   -0.34205E+00  8640   0.951E+00    0.545E+01
DAV:  21    -0.150772725967E+04   -0.85027E-01   -0.24444E+00  8000   0.754E+00    0.568E+01
DAV:  22    -0.150584077951E+04    0.18865E+01   -0.17601E+00  7960   0.624E+00    0.500E+01
DAV:  23    -0.150302452036E+04    0.28163E+01   -0.11735E+00  7920   0.488E+00    0.334E+01
DAV:  24    -0.150305206816E+04   -0.27548E-01   -0.22715E+00  8544   0.750E+00    0.303E+01
DAV:  25    -0.150270089617E+04    0.35117E+00   -0.79526E-01  8280   0.464E+00    0.311E+01
DAV:  26    -0.150200799256E+04    0.69290E+00   -0.57595E-01  8016   0.299E+00    0.247E+01
DAV:  27    -0.150175043767E+04    0.25755E+00   -0.28131E-01  7904   0.200E+00    0.211E+01
DAV:  28    -0.150173860668E+04    0.11831E-01   -0.27511E-01  7984   0.219E+00    0.205E+01
DAV:  29    -0.150208722148E+04   -0.34861E+00   -0.28863E-01  8168   0.232E+00    0.256E+01
DAV:  30    -0.150224389345E+04   -0.15667E+00   -0.26649E-01  8312   0.205E+00    0.285E+01
DAV:  31    -0.150195515626E+04    0.28874E+00   -0.13713E-01  8400   0.159E+00    0.258E+01
DAV:  32    -0.150186468264E+04    0.90474E-01   -0.15193E-01  8592   0.188E+00    0.240E+01
DAV:  33    -0.150125653601E+04    0.60815E+00   -0.21634E-01  8760   0.189E+00    0.148E+01
DAV:  34    -0.150109323894E+04    0.16330E+00   -0.67822E-02  8656   0.112E+00    0.120E+01
DAV:  35    -0.150102582969E+04    0.67409E-01   -0.35160E-02  8368   0.702E-01    0.110E+01
DAV:  36    -0.150097290507E+04    0.52925E-01   -0.21312E-02  9248   0.490E-01    0.967E+00
DAV:  37    -0.150093378276E+04    0.39122E-01   -0.32169E-02  9192   0.751E-01    0.878E+00
DAV:  38    -0.150086231882E+04    0.71464E-01   -0.21395E-02  9272   0.520E-01    0.652E+00
DAV:  39    -0.150079111549E+04    0.71203E-01   -0.66516E-02 11928   0.585E-01    0.214E+00
DAV:  40    -0.150078907061E+04    0.20449E-02   -0.15917E-02 12112   0.415E-01    0.222E+00
DAV:  41    -0.150078547827E+04    0.35923E-02   -0.93999E-03  9320   0.444E-01    0.182E+00
DAV:  42    -0.150078348008E+04    0.19982E-02   -0.69288E-03  8464   0.319E-01    0.159E+00
DAV:  43    -0.150078133772E+04    0.21424E-02   -0.23410E-03  7928   0.172E-01    0.118E+00
DAV:  44    -0.150077930749E+04    0.20302E-02   -0.14765E-03  8128   0.147E-01    0.549E-01
DAV:  45    -0.150077947596E+04   -0.16847E-03   -0.11328E-03 12376   0.440E-02    0.532E-01
DAV:  46    -0.150077953144E+04   -0.55481E-04   -0.10495E-04  7760   0.272E-02    0.543E-01
DAV:  47    -0.150077990193E+04   -0.37049E-03   -0.73579E-04 12448   0.117E-01    0.633E-01
DAV:  48    -0.150077925740E+04    0.64454E-03   -0.23499E-04  8464   0.638E-02    0.243E-01
DAV:  49    -0.150077964313E+04   -0.38573E-03   -0.91590E-05  7768   0.403E-02    0.542E-01
DAV:  50    -0.150077940831E+04    0.23482E-03   -0.57090E-05  7496   0.195E-02    0.411E-01
DAV:  51    -0.150077917046E+04    0.23785E-03   -0.20191E-05  4016   0.225E-02    0.196E-01
DAV:  52    -0.150077913068E+04    0.39777E-04   -0.32004E-05  4520   0.227E-02    0.978E-02
DAV:  53    -0.150077913046E+04    0.22259E-06   -0.56899E-05  8464   0.190E-02    0.427E-02
DAV:  54    -0.150077912706E+04    0.34031E-05   -0.57299E-06  3600   0.656E-03
   8 F= -.16019524E+04 E0= -.16011959E+04  d E =-.149632E+02
 curvature:  -6.36 expect dE=-0.371E+02 dE for cont linesearch -0.103E+01
 ZBRENT: increasing intervall
 opt :  22.9158  next Energy= -1595.527817 (dE=-0.854E+01)
 bond charge predicted
       N       E                     dE             d eps       ncg     rms          rms(c)
DAV:   1    -0.889662351809E+03    0.61112E+03   -0.74350E+04  6968   0.352E+02    0.360E+02
DAV:   2    -0.549832335958E+04   -0.46087E+04   -0.67583E+03  7884   0.485E+02    0.105E+03
DAV:   3    -0.352517266381E+04    0.19732E+04   -0.94703E+03 10492   0.154E+02    0.406E+02
DAV:   4    -0.475200567673E+04   -0.12268E+04   -0.17932E+04 12392   0.307E+02    0.985E+02
DAV:   5    -0.440494100147E+04    0.34706E+03   -0.63061E+03 10848   0.110E+02    0.591E+02
DAV:   6    -0.109210473587E+05   -0.65161E+04   -0.22019E+04 10836   0.300E+02    0.790E+02
DAV:   7    -0.501817145876E+04    0.59029E+04   -0.64027E+03  9416   0.134E+02    0.551E+02
DAV:   8    -0.240082061929E+04    0.26174E+04   -0.67012E+03 10568   0.691E+01    0.422E+02
DAV:   9    -0.209112257971E+04    0.30970E+03   -0.43442E+03 10592   0.101E+02    0.295E+02
DAV:  10    -0.203924575499E+04    0.51877E+02   -0.94968E+02  8208   0.973E+01    0.240E+02
DAV:  11    -0.169625885128E+04    0.34299E+03   -0.60682E+02  8568   0.724E+01    0.187E+02
DAV:  12    -0.169939636800E+04   -0.31375E+01   -0.19714E+02  7952   0.667E+01    0.208E+02
DAV:  13    -0.164611325635E+04    0.53283E+02   -0.19603E+02  7520   0.559E+01    0.197E+02
DAV:  14    -0.153725682964E+04    0.10886E+03   -0.12251E+02  7736   0.362E+01    0.124E+02
DAV:  15    -0.153363310688E+04    0.36237E+01   -0.56473E+01  8448   0.302E+01    0.138E+02
DAV:  16    -0.154836322559E+04   -0.14730E+02   -0.52643E+01  7792   0.358E+01    0.145E+02
DAV:  17    -0.151048111184E+04    0.37882E+02   -0.27576E+01  8488   0.155E+01    0.106E+02
DAV:  18    -0.151707846984E+04   -0.65974E+01   -0.14993E+01  8176   0.147E+01    0.117E+02
DAV:  19    -0.151601249326E+04    0.10660E+01   -0.11802E+01  8392   0.130E+01    0.118E+02
DAV:  20    -0.151863928021E+04   -0.26268E+01   -0.12031E+01  7824   0.186E+01    0.119E+02
DAV:  21    -0.152793768823E+04   -0.92984E+01   -0.23505E+01  9648   0.237E+01    0.131E+02
DAV:  22    -0.152458195563E+04    0.33557E+01   -0.23459E+01  8888   0.257E+01    0.109E+02
DAV:  23    -0.152150708893E+04    0.30749E+01   -0.25070E+01  7944   0.239E+01    0.103E+02
DAV:  24    -0.152751276352E+04   -0.60057E+01   -0.22310E+01  8264   0.237E+01    0.913E+01
DAV:  25    -0.151576673146E+04    0.11746E+02   -0.18954E+01  7688   0.224E+01    0.798E+01
DAV:  26    -0.150677411782E+04    0.89926E+01   -0.10765E+01  8024   0.161E+01    0.737E+01
DAV:  27    -0.151561130150E+04   -0.88372E+01   -0.14883E+01  9032   0.181E+01    0.912E+01
DAV:  28    -0.151171234310E+04    0.38990E+01   -0.12233E+01  7704   0.163E+01    0.842E+01
DAV:  29    -0.150403233280E+04    0.76800E+01   -0.69532E+00  7688   0.114E+01    0.634E+01
DAV:  30    -0.150278134335E+04    0.12510E+01   -0.58729E+00  7848   0.119E+01    0.599E+01
DAV:  31    -0.150565717921E+04   -0.28758E+01   -0.69608E+00  7960   0.125E+01    0.689E+01
DAV:  32    -0.150242237040E+04    0.32348E+01   -0.46292E+00  7736   0.945E+00    0.605E+01
DAV:  33    -0.149933208989E+04    0.30903E+01   -0.21355E+00  7624   0.595E+00    0.533E+01
DAV:  34    -0.149662959863E+04    0.27025E+01   -0.16187E+00  8168   0.513E+00    0.496E+01
DAV:  35    -0.149565609079E+04    0.97351E+00   -0.13495E+00  7944   0.512E+00    0.537E+01
DAV:  36    -0.149395491221E+04    0.17012E+01   -0.10877E+00  7920   0.437E+00    0.505E+01
DAV:  37    -0.149185876562E+04    0.20961E+01   -0.11041E+00  8072   0.456E+00    0.416E+01
DAV:  38    -0.148961661609E+04    0.22421E+01   -0.15822E+00 10536   0.456E+00    0.376E+01
DAV:  39    -0.148826002995E+04    0.13566E+01   -0.77921E-01  8496   0.308E+00    0.345E+01
DAV:  40    -0.148766840456E+04    0.59163E+00   -0.66574E-01  9872   0.282E+00    0.332E+01
DAV:  41    -0.148722089811E+04    0.44751E+00   -0.54512E-01  8624   0.301E+00    0.316E+01
DAV:  42    -0.148634139038E+04    0.87951E+00   -0.42997E-01 10816   0.186E+00    0.276E+01
DAV:  43    -0.148588680549E+04    0.45458E+00   -0.20223E-01 10560   0.122E+00    0.258E+01
DAV:  44    -0.148552427886E+04    0.36253E+00   -0.13092E-01  9784   0.124E+00    0.242E+01
DAV:  45    -0.148499983841E+04    0.52444E+00   -0.18747E-01 11704   0.157E+00    0.223E+01
DAV:  46    -0.148471181678E+04    0.28802E+00   -0.18325E-01 11560   0.147E+00    0.189E+01
DAV:  47    -0.148436673458E+04    0.34508E+00   -0.53066E-01 12280   0.254E+00    0.165E+01
DAV:  48    -0.148428249551E+04    0.84239E-01   -0.39225E-01  9912   0.268E+00    0.152E+01
DAV:  49    -0.148404590507E+04    0.23659E+00   -0.19811E-01  9216   0.112E+00    0.112E+01
DAV:  50    -0.148398677102E+04    0.59134E-01   -0.51550E-02  8288   0.704E-01    0.107E+01
DAV:  51    -0.148385955848E+04    0.12721E+00   -0.60716E-02 11616   0.878E-01    0.933E+00
DAV:  52    -0.148468497251E+04   -0.82541E+00   -0.68799E-01 12980   0.310E+00    0.237E+01
DAV:  53    -0.148372819265E+04    0.95678E+00   -0.59519E-01 10024   0.256E+00    0.758E+00
DAV:  54    -0.148380104127E+04   -0.72849E-01   -0.10952E-01 11568   0.110E+00    0.108E+01
DAV:  55    -0.148369228589E+04    0.10876E+00   -0.10720E-01  9472   0.111E+00    0.729E+00
DAV:  56    -0.148363840779E+04    0.53878E-01   -0.58744E-02  8968   0.955E-01    0.441E+00
DAV:  57    -0.148363425675E+04    0.41510E-02   -0.45118E-02  9432   0.101E+00    0.453E+00
DAV:  58    -0.148359870573E+04    0.35551E-01   -0.27971E-02  8816   0.600E-01    0.208E+00
DAV:  59    -0.148360605095E+04   -0.73452E-02   -0.12662E-02  9240   0.456E-01    0.247E+00
DAV:  60    -0.148359360520E+04    0.12446E-01   -0.12977E-02  8784   0.435E-01    0.128E+00
DAV:  61    -0.148359520552E+04   -0.16003E-02   -0.41982E-03  8592   0.227E-01    0.151E+00
DAV:  62    -0.148359591832E+04   -0.71280E-03   -0.50731E-03  9296   0.308E-01    0.133E+00
DAV:  63    -0.148359235618E+04    0.35621E-02   -0.31145E-03  8248   0.238E-01    0.531E-01
DAV:  64    -0.148359218538E+04    0.17079E-03   -0.92566E-04 11376   0.826E-02    0.389E-01
DAV:  65    -0.148359211070E+04    0.74683E-04   -0.37639E-04  9000   0.690E-02    0.329E-01
DAV:  66    -0.148359201676E+04    0.93937E-04   -0.16598E-04  8656   0.481E-02    0.217E-01
DAV:  67    -0.148359203536E+04   -0.18600E-04   -0.13276E-04 10184   0.396E-02    0.153E-01
DAV:  68    -0.148359208340E+04   -0.48035E-04   -0.66482E-05  8168   0.337E-02    0.240E-01
DAV:  69    -0.148359201303E+04    0.70372E-04   -0.46556E-05  6936   0.267E-02    0.764E-02
DAV:  70    -0.148359201873E+04   -0.57076E-05   -0.14004E-05  4560   0.138E-02    0.276E-02
DAV:  71    -0.148359203109E+04   -0.12358E-04   -0.75273E-06  3840   0.734E-03    0.229E-02
DAV:  72    -0.148359203885E+04   -0.77626E-05   -0.44019E-06  3792   0.545E-03    0.323E-02
DAV:  73    -0.148359204042E+04   -0.15670E-05   -0.42270E-06  3672   0.564E-03
   9 F= -.15860940E+04 E0= -.15853536E+04  d E =0.895237E+00
 curvature:  39.77 expect dE= 0.121E+04 dE for cont linesearch  0.267E+03
 ZBRENT: bracketing found
 ZBRENT: interpolating
 opt :  12.0935  next Energy= -1602.430553 (dE=-0.154E+02)
 bond charge predicted
       N       E                     dE             d eps       ncg     rms          rms(c)
DAV:   1    -0.112979264053E+04    0.35380E+03   -0.52965E+04  6968   0.282E+02    0.221E+02
DAV:   2    -0.387784930461E+04   -0.27481E+04   -0.33967E+03  7960   0.274E+02    0.548E+02
DAV:   3    -0.233621670749E+04    0.15416E+04   -0.32512E+03  9068   0.153E+02    0.288E+02
DAV:   4    -0.122549112688E+05   -0.99187E+04   -0.36209E+04 12758   0.415E+02    0.105E+03
DAV:   5    -0.832253884982E+04    0.39324E+04   -0.10031E+04  9640   0.133E+02    0.851E+02
DAV:   6    -0.207134095649E+04    0.62512E+04   -0.29195E+04 11096   0.111E+02    0.454E+02
DAV:   7    -0.223490649761E+04   -0.16357E+03   -0.67281E+03 10632   0.104E+02    0.300E+02
DAV:   8    -0.204692702469E+04    0.18798E+03   -0.90633E+02  9072   0.974E+01    0.282E+02
DAV:   9    -0.174804268109E+04    0.29888E+03   -0.48032E+02  8608   0.671E+01    0.178E+02
DAV:  10    -0.170949683828E+04    0.38546E+02   -0.26624E+02  8256   0.727E+01    0.216E+02
DAV:  11    -0.160088490335E+04    0.10861E+03   -0.16815E+02  7840   0.538E+01    0.130E+02
DAV:  12    -0.159117094420E+04    0.97140E+01   -0.15088E+02  9944   0.323E+01    0.136E+02
DAV:  13    -0.159251010548E+04   -0.13392E+01   -0.71386E+01  8024   0.334E+01    0.132E+02
DAV:  14    -0.157338615868E+04    0.19124E+02   -0.35960E+01  7784   0.272E+01    0.115E+02
DAV:  15    -0.156939474934E+04    0.39914E+01   -0.24971E+01  7728   0.267E+01    0.104E+02
DAV:  16    -0.152965061502E+04    0.39744E+02   -0.17636E+01  7840   0.231E+01    0.942E+01
DAV:  17    -0.153958296410E+04   -0.99323E+01   -0.25337E+01  8224   0.271E+01    0.952E+01
DAV:  18    -0.152817228507E+04    0.11411E+02   -0.23728E+01  7824   0.208E+01    0.878E+01
DAV:  19    -0.152098388595E+04    0.71884E+01   -0.16610E+01  7704   0.144E+01    0.779E+01
DAV:  20    -0.153549313245E+04   -0.14509E+02   -0.18136E+01  7984   0.221E+01    0.999E+01
DAV:  21    -0.154754364182E+04   -0.12051E+02   -0.21335E+01  8384   0.241E+01    0.118E+02
DAV:  22    -0.152119804645E+04    0.26346E+02   -0.13330E+01  7864   0.208E+01    0.701E+01
DAV:  23    -0.152252676815E+04   -0.13287E+01   -0.13464E+01  7880   0.197E+01    0.790E+01
DAV:  24    -0.151859998761E+04    0.39268E+01   -0.13622E+01  7880   0.201E+01    0.709E+01
DAV:  25    -0.151843298067E+04    0.16701E+00   -0.90129E+00  7728   0.161E+01    0.839E+01
DAV:  26    -0.151366251901E+04    0.47705E+01   -0.52855E+00  7912   0.111E+01    0.680E+01
DAV:  27    -0.151627924608E+04   -0.26167E+01   -0.37777E+00  7856   0.941E+00    0.802E+01
DAV:  28    -0.151137272020E+04    0.49065E+01   -0.22262E+00  7824   0.545E+00    0.627E+01
DAV:  29    -0.151028971345E+04    0.10830E+01   -0.13726E+00  8880   0.483E+00    0.611E+01
DAV:  30    -0.150960419311E+04    0.68552E+00   -0.14491E+00  8728   0.508E+00    0.570E+01
DAV:  31    -0.150877054310E+04    0.83365E+00   -0.17781E+00  8672   0.618E+00    0.527E+01
DAV:  32    -0.150589240394E+04    0.28781E+01   -0.15640E+00  8408   0.562E+00    0.361E+01
DAV:  33    -0.150478812178E+04    0.11043E+01   -0.84207E-01  8272   0.392E+00    0.336E+01
DAV:  34    -0.150418370536E+04    0.60442E+00   -0.68711E-01  8320   0.396E+00    0.316E+01
DAV:  35    -0.150476398975E+04   -0.58028E+00   -0.86240E-01  8440   0.387E+00    0.367E+01
DAV:  36    -0.150363879002E+04    0.11252E+01   -0.62645E-01  8192   0.244E+00    0.273E+01
DAV:  37    -0.150407124164E+04   -0.43245E+00   -0.54525E-01  9584   0.287E+00    0.328E+01
DAV:  38    -0.150360222416E+04    0.46902E+00   -0.21693E-01  9088   0.199E+00    0.318E+01
DAV:  39    -0.150276886278E+04    0.83336E+00   -0.23911E-01  8680   0.159E+00    0.238E+01
DAV:  40    -0.150270697536E+04    0.61887E-01   -0.76031E-01 12616   0.280E+00    0.235E+01
DAV:  41    -0.150313445453E+04   -0.42748E+00   -0.41926E-01  9848   0.273E+00    0.282E+01
DAV:  42    -0.150242319650E+04    0.71126E+00   -0.50484E-01  7856   0.236E+00    0.209E+01
DAV:  43    -0.150203472526E+04    0.38847E+00   -0.26796E-01  7752   0.172E+00    0.142E+01
DAV:  44    -0.150187099610E+04    0.16373E+00   -0.79012E-02  9472   0.948E-01    0.120E+01
DAV:  45    -0.150218933848E+04   -0.31834E+00   -0.15402E-01  8344   0.127E+00    0.178E+01
DAV:  46    -0.150170841509E+04    0.48092E+00   -0.21131E-01  8424   0.139E+00    0.104E+01
DAV:  47    -0.150258585596E+04   -0.87744E+00   -0.11082E+00 11296   0.383E+00    0.226E+01
DAV:  48    -0.150159723837E+04    0.98862E+00   -0.10424E+00  8504   0.368E+00    0.103E+01
DAV:  49    -0.150151442732E+04    0.82811E-01   -0.15472E-01  8896   0.139E+00    0.879E+00
DAV:  50    -0.150144803948E+04    0.66388E-01   -0.12911E-01  8040   0.118E+00    0.613E+00
DAV:  51    -0.150139187174E+04    0.56168E-01   -0.54053E-02  8504   0.738E-01    0.500E+00
DAV:  52    -0.150202594532E+04   -0.63407E+00   -0.44866E-01 12184   0.215E+00    0.191E+01
DAV:  53    -0.150154438638E+04    0.48156E+00   -0.13904E-01  8656   0.144E+00    0.996E+00
DAV:  54    -0.150160567108E+04   -0.61285E-01   -0.51761E-02  9240   0.120E+00    0.125E+01
DAV:  55    -0.150136302481E+04    0.24265E+00   -0.63039E-02  9960   0.996E-01    0.452E+00
DAV:  56    -0.150132987302E+04    0.33152E-01   -0.19308E-02  9152   0.591E-01    0.298E+00
DAV:  57    -0.150134125499E+04   -0.11382E-01   -0.26511E-02  9472   0.677E-01    0.372E+00
DAV:  58    -0.150132340524E+04    0.17850E-01   -0.16687E-02  8184   0.522E-01    0.193E+00
DAV:  59    -0.150131383940E+04    0.95658E-02   -0.68567E-03  8464   0.336E-01    0.163E+00
DAV:  60    -0.150131210882E+04    0.17306E-02   -0.54054E-03  8880   0.247E-01    0.109E+00
DAV:  61    -0.150131052609E+04    0.15827E-02   -0.28591E-03  8456   0.166E-01    0.885E-01
DAV:  62    -0.150131037662E+04    0.14947E-03   -0.22390E-03  8680   0.186E-01    0.785E-01
DAV:  63    -0.150131061745E+04   -0.24083E-03   -0.99718E-04  8104   0.801E-02    0.758E-01
DAV:  64    -0.150131009857E+04    0.51888E-03   -0.55494E-04  8656   0.806E-02    0.476E-01
DAV:  65    -0.150131001570E+04    0.82875E-04   -0.47479E-04  9408   0.772E-02    0.351E-01
DAV:  66    -0.150130982700E+04    0.18870E-03   -0.30125E-04  8576   0.545E-02    0.169E-01
DAV:  67    -0.150130996619E+04   -0.13919E-03   -0.20564E-04  9960   0.512E-02    0.234E-01
DAV:  68    -0.150130996806E+04   -0.18766E-05   -0.12260E-04  8360   0.463E-02    0.224E-01
DAV:  69    -0.150130991760E+04    0.50466E-04   -0.81329E-05  7384   0.412E-02    0.160E-01
DAV:  70    -0.150130987777E+04    0.39828E-04   -0.34268E-05  6568   0.233E-02    0.628E-02
DAV:  71    -0.150130988146E+04   -0.36932E-05   -0.15877E-05  4448   0.122E-02
  10 F= -.16025898E+04 E0= -.16018245E+04  d E =-.156005E+02
 curvature:  -0.07 expect dE=-0.474E+00 dE for cont linesearch -0.122E-02
 trial: gam= 3.31574 g(F)=  0.666E+01 g(S)=  0.000E+00 ort = 0.186E+00 (trialstep = 0.218E+00)
 search vector abs. value=  0.300E+02
 bond charge predicted
       N       E                     dE             d eps       ncg     rms          rms(c)
DAV:   1    -0.150249921761E+04   -0.11893E+01   -0.24592E+02  6968   0.160E+01    0.987E+00
DAV:   2    -0.152777023169E+04   -0.25271E+02   -0.60908E+00  7816   0.156E+01    0.701E+01
DAV:   3    -0.151197723866E+04    0.15793E+02   -0.40006E+00  8520   0.176E+01    0.568E+01
DAV:   4    -0.150901557792E+04    0.29617E+01   -0.27802E+00  8440   0.122E+01    0.473E+01
DAV:   5    -0.150964088761E+04   -0.62531E+00   -0.44725E+00  9576   0.123E+01    0.424E+01
DAV:   6    -0.150882305849E+04    0.81783E+00   -0.44665E+00  9696   0.120E+01    0.408E+01
DAV:   7    -0.150628031971E+04    0.25427E+01   -0.30611E+00  9152   0.978E+00    0.326E+01
DAV:   8    -0.150845692122E+04   -0.21766E+01   -0.21119E+00  9048   0.846E+00    0.433E+01
DAV:   9    -0.150460713480E+04    0.38498E+01   -0.15630E+00  8872   0.678E+00    0.247E+01
DAV:  10    -0.150349423394E+04    0.11129E+01   -0.72479E-01  8600   0.438E+00    0.142E+01
DAV:  11    -0.150309380785E+04    0.40043E+00   -0.48985E-01  8336   0.330E+00    0.955E+00
DAV:  12    -0.150305445349E+04    0.39354E-01   -0.24030E-01  8464   0.236E+00    0.968E+00
DAV:  13    -0.150295973957E+04    0.94714E-01   -0.26025E-01  8304   0.211E+00    0.672E+00
DAV:  14    -0.150289363538E+04    0.66104E-01   -0.10206E-01  8160   0.148E+00    0.538E+00
DAV:  15    -0.150293228925E+04   -0.38654E-01   -0.89262E-02  8248   0.148E+00    0.830E+00
DAV:  16    -0.150299269161E+04   -0.60402E-01   -0.79278E-02  8440   0.142E+00    0.102E+01
DAV:  17    -0.150313633358E+04   -0.14364E+00   -0.89444E-02  8312   0.135E+00    0.141E+01
DAV:  18    -0.150305201571E+04    0.84318E-01   -0.43274E-02  8288   0.880E-01    0.125E+01
DAV:  19    -0.150288856724E+04    0.16345E+00   -0.32579E-02  8088   0.734E-01    0.786E+00
DAV:  20    -0.150281225051E+04    0.76317E-01   -0.26158E-02  8464   0.665E-01    0.391E+00
DAV:  21    -0.150281097824E+04    0.12723E-02   -0.20426E-02  8400   0.655E-01    0.298E+00
DAV:  22    -0.150279611739E+04    0.14861E-01   -0.18270E-02  8160   0.605E-01    0.211E+00
DAV:  23    -0.150279679625E+04   -0.67886E-03   -0.67052E-03  8456   0.358E-01    0.216E+00
DAV:  24    -0.150280149276E+04   -0.46965E-02   -0.55459E-03  8256   0.325E-01    0.276E+00
DAV:  25    -0.150280315395E+04   -0.16612E-02   -0.35612E-03  8240   0.292E-01    0.300E+00
DAV:  26    -0.150279781140E+04    0.53426E-02   -0.29908E-03  8600   0.269E-01    0.227E+00
DAV:  27    -0.150279025015E+04    0.75612E-02   -0.23482E-03  8424   0.259E-01    0.105E+00
DAV:  28    -0.150279017946E+04    0.70689E-04   -0.13248E-03  9704   0.163E-01    0.856E-01
DAV:  29    -0.150278952568E+04    0.65378E-03   -0.10251E-03  9600   0.155E-01    0.585E-01
DAV:  30    -0.150278918898E+04    0.33670E-03   -0.73180E-04  9320   0.123E-01    0.471E-01
DAV:  31    -0.150278898627E+04    0.20271E-03   -0.37861E-04  9272   0.850E-02    0.291E-01
DAV:  32    -0.150278882913E+04    0.15714E-03   -0.29088E-04  9224   0.742E-02    0.188E-01
DAV:  33    -0.150278903938E+04   -0.21025E-03   -0.17132E-04 10048   0.524E-02    0.390E-01
DAV:  34    -0.150278901569E+04    0.23695E-04   -0.10835E-04  9488   0.374E-02    0.392E-01
DAV:  35    -0.150278907397E+04   -0.58282E-04   -0.56292E-05  7144   0.240E-02    0.445E-01
DAV:  36    -0.150278901529E+04    0.58683E-04   -0.46935E-05  6752   0.305E-02    0.398E-01
DAV:  37    -0.150278881078E+04    0.20451E-03   -0.25709E-05  6112   0.294E-02    0.191E-01
DAV:  38    -0.150278882330E+04   -0.12516E-04   -0.12619E-05  4496   0.169E-02    0.188E-01
DAV:  39    -0.150278880626E+04    0.17031E-04   -0.10475E-05  4304   0.147E-02    0.167E-01
DAV:  40    -0.150278877438E+04    0.31882E-04   -0.63109E-06  3736   0.914E-03    0.912E-02
DAV:  41    -0.150278877396E+04    0.42655E-06   -0.53203E-06  3600   0.600E-03
  11 F= -.16041194E+04 E0= -.16033502E+04  d E =-.152963E+01
 ZBRENT: can't locate minimum, use default step
 trial-energy change:   -1.529632  1 .order   -1.524483   -1.587031   -1.461936
 step:   0.8720(harm=  2.7658)  dis= 0.06167  next Energy= -1612.656758 (dE=-0.101E+02)
 bond charge predicted
       N       E                     dE             d eps       ncg     rms          rms(c)
DAV:   1    -0.150175608210E+04    0.10327E+01   -0.22205E+03  6968   0.486E+01    0.346E+01
DAV:   2    -0.166363197259E+04   -0.16188E+03   -0.54329E+01  7802   0.549E+01    0.136E+02
DAV:   3    -0.160774260888E+04    0.55889E+02   -0.37622E+01  9064   0.566E+01    0.139E+02
DAV:   4    -0.155976085995E+04    0.47982E+02   -0.23619E+01  8784   0.400E+01    0.978E+01
DAV:   5    -0.163759317431E+04   -0.77832E+02   -0.43754E+01  9008   0.488E+01    0.152E+02
DAV:   6    -0.156533263462E+04    0.72261E+02   -0.40357E+01  9080   0.377E+01    0.116E+02
DAV:   7    -0.155661632276E+04    0.87163E+01   -0.24049E+01  8208   0.291E+01    0.106E+02
DAV:   8    -0.153930686378E+04    0.17309E+02   -0.21794E+01  8120   0.261E+01    0.850E+01
DAV:   9    -0.154188624702E+04   -0.25794E+01   -0.19104E+01  7920   0.244E+01    0.925E+01
DAV:  10    -0.152259956657E+04    0.19287E+02   -0.11550E+01  8048   0.177E+01    0.638E+01
DAV:  11    -0.151737797499E+04    0.52216E+01   -0.10819E+01  8448   0.174E+01    0.579E+01
DAV:  12    -0.151054719728E+04    0.68308E+01   -0.71872E+00  7832   0.139E+01    0.351E+01
DAV:  13    -0.150865481669E+04    0.18924E+01   -0.36906E+00  7664   0.970E+00    0.257E+01
DAV:  14    -0.150850700680E+04    0.14781E+00   -0.22216E+00  7608   0.692E+00    0.249E+01
DAV:  15    -0.150797928947E+04    0.52772E+00   -0.11154E+00  7584   0.410E+00    0.240E+01
DAV:  16    -0.150834967527E+04   -0.37039E+00   -0.74536E-01  8392   0.336E+00    0.283E+01
DAV:  17    -0.150760876463E+04    0.74091E+00   -0.65726E-01  7904   0.354E+00    0.228E+01
DAV:  18    -0.150762214423E+04   -0.13380E-01   -0.65036E-01  8736   0.381E+00    0.240E+01
DAV:  19    -0.150685848962E+04    0.76365E+00   -0.59201E-01  8608   0.349E+00    0.181E+01
DAV:  20    -0.150664715194E+04    0.21134E+00   -0.33135E-01  8128   0.240E+00    0.149E+01
DAV:  21    -0.150669643901E+04   -0.49287E-01   -0.54977E-01  8480   0.298E+00    0.165E+01
DAV:  22    -0.150684843063E+04   -0.15199E+00   -0.36209E-01  8200   0.305E+00    0.194E+01
DAV:  23    -0.150657905117E+04    0.26938E+00   -0.21806E-01  8312   0.198E+00    0.154E+01
DAV:  24    -0.150634570655E+04    0.23334E+00   -0.15930E-01  8064   0.154E+00    0.119E+01
DAV:  25    -0.150621932503E+04    0.12638E+00   -0.10200E-01  8336   0.140E+00    0.894E+00
DAV:  26    -0.150618388269E+04    0.35442E-01   -0.11504E-01  8712   0.157E+00    0.734E+00
DAV:  27    -0.150610023583E+04    0.83647E-01   -0.10977E-01  8320   0.157E+00    0.562E+00
DAV:  28    -0.150609233423E+04    0.79016E-02   -0.48656E-02 10744   0.807E-01    0.475E+00
DAV:  29    -0.150606867861E+04    0.23656E-01   -0.20474E-02  9176   0.633E-01    0.401E+00
DAV:  30    -0.150607031219E+04   -0.16336E-02   -0.20780E-02  9376   0.676E-01    0.394E+00
DAV:  31    -0.150605088015E+04    0.19432E-01   -0.30834E-02  9312   0.831E-01    0.283E+00
DAV:  32    -0.150603736586E+04    0.13514E-01   -0.18846E-02  8960   0.580E-01    0.158E+00
DAV:  33    -0.150604794942E+04   -0.10584E-01   -0.14346E-02  9504   0.491E-01    0.290E+00
DAV:  34    -0.150605394323E+04   -0.59938E-02   -0.10326E-02  9216   0.442E-01    0.369E+00
DAV:  35    -0.150604705086E+04    0.68924E-02   -0.86313E-03  9032   0.402E-01    0.281E+00
DAV:  36    -0.150603657065E+04    0.10480E-01   -0.60525E-03  8648   0.351E-01    0.125E+00
DAV:  37    -0.150603508034E+04    0.14903E-02   -0.19356E-03  9640   0.169E-01    0.801E-01
DAV:  38    -0.150603456476E+04    0.51559E-03   -0.11738E-03  8984   0.137E-01    0.696E-01
DAV:  39    -0.150603348922E+04    0.10755E-02   -0.53938E-04  8984   0.936E-02    0.378E-01
DAV:  40    -0.150603374842E+04   -0.25919E-03   -0.61500E-04  9120   0.103E-01    0.422E-01
DAV:  41    -0.150603355619E+04    0.19223E-03   -0.53443E-04  8688   0.980E-02    0.285E-01
DAV:  42    -0.150603406907E+04   -0.51289E-03   -0.34318E-04  8752   0.810E-02    0.693E-01
DAV:  43    -0.150603395459E+04    0.11449E-03   -0.22941E-04 11208   0.287E-02    0.652E-01
DAV:  44    -0.150603364324E+04    0.31135E-03   -0.91653E-05  9872   0.385E-02    0.489E-01
DAV:  45    -0.150603331961E+04    0.32363E-03   -0.79022E-05  8256   0.389E-02    0.131E-01
DAV:  46    -0.150603337587E+04   -0.56252E-04   -0.38323E-05  6912   0.174E-02    0.176E-01
DAV:  47    -0.150603333902E+04    0.36845E-04   -0.26029E-05  5928   0.181E-02    0.365E-02
DAV:  48    -0.150603335307E+04   -0.14050E-04   -0.95789E-06  4312   0.815E-03    0.366E-02
DAV:  49    -0.150603335546E+04   -0.23851E-05   -0.66431E-06  3688   0.796E-03
  12 F= -.16075342E+04 E0= -.16067550E+04  d E =-.494445E+01
 curvature:  -2.55 expect dE=-0.184E+02 dE for cont linesearch -0.887E+00
 ZBRENT: increasing intervall
 opt :   2.1801  next Energy= -1607.212837 (dE=-0.462E+01)
 bond charge predicted
       N       E                     dE             d eps       ncg     rms          rms(c)
DAV:   1    -0.147099962427E+04    0.35034E+02   -0.91201E+03  6968   0.101E+02    0.854E+01
DAV:   2    -0.222463632463E+04   -0.75364E+03   -0.26226E+02  7816   0.147E+02    0.249E+02
DAV:   3    -0.185223033079E+04    0.37241E+03   -0.30262E+02  9712   0.952E+01    0.229E+02
DAV:   4    -0.179828913811E+04    0.53941E+02   -0.91047E+01  9344   0.760E+01    0.202E+02
DAV:   5    -0.217251218826E+04   -0.37422E+03   -0.15251E+02  8880   0.996E+01    0.276E+02
DAV:   6    -0.186243167777E+04    0.31008E+03   -0.19137E+02  8776   0.777E+01    0.217E+02
DAV:   7    -0.173528887843E+04    0.12714E+03   -0.18346E+02  8504   0.536E+01    0.184E+02
DAV:   8    -0.159762742510E+04    0.13766E+03   -0.90110E+01  7784   0.518E+01    0.127E+02
DAV:   9    -0.164833591497E+04   -0.50708E+02   -0.85391E+01  9120   0.394E+01    0.183E+02
DAV:  10    -0.158967705873E+04    0.58659E+02   -0.51264E+01  7800   0.342E+01    0.141E+02
DAV:  11    -0.155226974281E+04    0.37407E+02   -0.34863E+01  7952   0.248E+01    0.104E+02
DAV:  12    -0.156227570995E+04   -0.10006E+02   -0.36587E+01  7904   0.328E+01    0.105E+02
DAV:  13    -0.154347391273E+04    0.18802E+02   -0.36392E+01  7808   0.303E+01    0.116E+02
DAV:  14    -0.151053619641E+04    0.32938E+02   -0.20860E+01  7536   0.231E+01    0.476E+01
DAV:  15    -0.151047532789E+04    0.60869E-01   -0.13574E+01  9936   0.141E+01    0.590E+01
DAV:  16    -0.151262863883E+04   -0.21533E+01   -0.76100E+00  7688   0.130E+01    0.559E+01
DAV:  17    -0.150968688354E+04    0.29418E+01   -0.49199E+00  7496   0.637E+00    0.502E+01
DAV:  18    -0.150783492846E+04    0.18520E+01   -0.27910E+00  7944   0.731E+00    0.444E+01
DAV:  19    -0.150791362259E+04   -0.78694E-01   -0.19501E+00  8056   0.693E+00    0.460E+01
DAV:  20    -0.150562248743E+04    0.22911E+01   -0.12777E+00  8264   0.500E+00    0.384E+01
DAV:  21    -0.150832689716E+04   -0.27044E+01   -0.25817E+00  8960   0.878E+00    0.511E+01
DAV:  22    -0.150693695246E+04    0.13899E+01   -0.30431E+00  8808   0.970E+00    0.427E+01
DAV:  23    -0.150403920063E+04    0.28978E+01   -0.22138E+00  8432   0.770E+00    0.367E+01
DAV:  24    -0.150434146339E+04   -0.30226E+00   -0.22636E+00  8808   0.811E+00    0.361E+01
DAV:  25    -0.150207372128E+04    0.22677E+01   -0.12551E+00  8320   0.587E+00    0.261E+01
DAV:  26    -0.150198148398E+04    0.92237E-01   -0.15816E+00  8456   0.626E+00    0.273E+01
DAV:  27    -0.150157507716E+04    0.40641E+00   -0.16258E+00  8288   0.600E+00    0.207E+01
DAV:  28    -0.150251659291E+04   -0.94152E+00   -0.18792E+00  8296   0.743E+00    0.286E+01
DAV:  29    -0.150257871250E+04   -0.62120E-01   -0.13832E+00  8368   0.560E+00    0.301E+01
DAV:  30    -0.150232958028E+04    0.24913E+00   -0.94889E-01  8240   0.429E+00    0.311E+01
DAV:  31    -0.150172366668E+04    0.60591E+00   -0.36555E-01  8336   0.147E+00    0.274E+01
DAV:  32    -0.150194167340E+04   -0.21801E+00   -0.26480E-01  8504   0.213E+00    0.289E+01
DAV:  33    -0.150154762918E+04    0.39404E+00   -0.88095E-02  7864   0.959E-01    0.261E+01
DAV:  34    -0.150136730455E+04    0.18032E+00   -0.72420E-02  8376   0.115E+00    0.243E+01
DAV:  35    -0.150093598337E+04    0.43132E+00   -0.15935E-01  8872   0.213E+00    0.211E+01
DAV:  36    -0.150103099213E+04   -0.95009E-01   -0.33650E-01 10000   0.278E+00    0.231E+01
DAV:  37    -0.150054539608E+04    0.48560E+00   -0.29694E-01 10328   0.255E+00    0.206E+01
DAV:  38    -0.150006893454E+04    0.47646E+00   -0.22699E-01 10192   0.163E+00    0.127E+01
DAV:  39    -0.150000079761E+04    0.68137E-01   -0.84764E-02  8584   0.969E-01    0.116E+01
DAV:  40    -0.149996138893E+04    0.39409E-01   -0.40003E-02  7776   0.630E-01    0.106E+01
DAV:  41    -0.149995002664E+04    0.11362E-01   -0.20624E-02 11072   0.210E-01    0.102E+01
DAV:  42    -0.149994677554E+04    0.32511E-02   -0.15751E-03  7752   0.807E-02    0.101E+01
DAV:  43    -0.149993740538E+04    0.93702E-02   -0.34411E-04 10976   0.452E-02    0.973E+00
DAV:  44    -0.149992634187E+04    0.11064E-01   -0.11513E-03  9472   0.152E-01    0.940E+00
DAV:  45    -0.149984955661E+04    0.76785E-01   -0.31727E-02 10400   0.613E-01    0.597E+00
DAV:  46    -0.149983648399E+04    0.13073E-01   -0.10112E-01  9600   0.108E+00    0.480E+00
DAV:  47    -0.149982978277E+04    0.67012E-02   -0.30435E-02  9432   0.431E-01    0.501E+00
DAV:  48    -0.149982945578E+04    0.32699E-03   -0.69357E-03  7656   0.241E-01    0.494E+00
DAV:  49    -0.149980149424E+04    0.27962E-01   -0.77057E-03  8528   0.301E-01    0.290E+00
DAV:  50    -0.149979408795E+04    0.74063E-02   -0.35596E-03  8952   0.192E-01    0.191E+00
DAV:  51    -0.149979378633E+04    0.30162E-03   -0.25578E-03  8200   0.133E-01    0.171E+00
DAV:  52    -0.149979062555E+04    0.31608E-02   -0.27968E-03 10680   0.186E-01    0.822E-01
DAV:  53    -0.149979029374E+04    0.33181E-03   -0.12106E-03  8824   0.958E-02    0.507E-01
DAV:  54    -0.149979021072E+04    0.83016E-04   -0.50813E-04  9096   0.382E-02    0.372E-01
DAV:  55    -0.149979058173E+04   -0.37101E-03   -0.13821E-04  7808   0.397E-02    0.435E-01
DAV:  56    -0.149979062930E+04   -0.47571E-04   -0.23293E-04  8504   0.539E-02    0.403E-01
DAV:  57    -0.149979044839E+04    0.18091E-03   -0.13589E-04  7952   0.525E-02    0.215E-01
DAV:  58    -0.149979053726E+04   -0.88872E-04   -0.62107E-05  7544   0.286E-02    0.169E-01
DAV:  59    -0.149979058636E+04   -0.49099E-04   -0.26260E-05  6720   0.148E-02    0.120E-01
DAV:  60    -0.149979062640E+04   -0.40033E-04   -0.25132E-05  6816   0.156E-02    0.856E-02
DAV:  61    -0.149979065499E+04   -0.28589E-04   -0.11989E-05  4560   0.878E-03    0.791E-02
DAV:  62    -0.149979070222E+04   -0.47233E-04   -0.18150E-05  5248   0.174E-02    0.906E-02
DAV:  63    -0.149979069053E+04    0.11691E-04   -0.11822E-05  4336   0.142E-02    0.538E-02
DAV:  64    -0.149979069861E+04   -0.80774E-05   -0.39082E-06  3928   0.594E-03    0.422E-02
DAV:  65    -0.149979070399E+04   -0.53816E-05   -0.32365E-06  3856   0.417E-03    0.339E-02
DAV:  66    -0.149979071045E+04   -0.64676E-05   -0.22322E-06  3888   0.274E-03    0.257E-02
DAV:  67    -0.149979071563E+04   -0.51777E-05   -0.99209E-07  3872   0.345E-03    0.225E-02
DAV:  68    -0.149979071817E+04   -0.25379E-05   -0.14411E-06  3712   0.371E-03
  13 F= -.16017273E+04 E0= -.16009357E+04  d E =0.862405E+00
 curvature:   0.92 expect dE= 0.824E+02 dE for cont linesearch  0.714E+01
 ZBRENT: bracketing found
 ZBRENT: interpolating
 opt :   1.1010  next Energy= -1607.904019 (dE=-0.531E+01)
 bond charge predicted
       N       E                     dE             d eps       ncg     rms          rms(c)
DAV:   1    -0.148831702274E+04    0.11474E+02   -0.61721E+03  6968   0.817E+01    0.495E+01
DAV:   2    -0.167061323447E+04   -0.18230E+03   -0.16082E+02  7672   0.458E+01    0.182E+02
DAV:   3    -0.161136402434E+04    0.59249E+02   -0.86362E+01  8064   0.628E+01    0.134E+02
DAV:   4    -0.160243692454E+04    0.89271E+01   -0.45603E+01  8248   0.453E+01    0.139E+02
DAV:   5    -0.156887898891E+04    0.33558E+02   -0.33686E+01  8072   0.400E+01    0.117E+02
DAV:   6    -0.157183575084E+04   -0.29568E+01   -0.37711E+01  8416   0.365E+01    0.115E+02
DAV:   7    -0.155138594504E+04    0.20450E+02   -0.29936E+01  7928   0.355E+01    0.782E+01
DAV:   8    -0.153766850483E+04    0.13717E+02   -0.27145E+01  8840   0.331E+01    0.101E+02
DAV:   9    -0.159093636233E+04   -0.53268E+02   -0.47598E+01  9816   0.392E+01    0.160E+02
DAV:  10    -0.157696366223E+04    0.13973E+02   -0.61833E+01  9240   0.432E+01    0.113E+02
DAV:  11    -0.160272874101E+04   -0.25765E+02   -0.37111E+01  8480   0.422E+01    0.135E+02
DAV:  12    -0.156208660233E+04    0.40642E+02   -0.19717E+01  7672   0.204E+01    0.108E+02
DAV:  13    -0.153020693370E+04    0.31880E+02   -0.14847E+01  8216   0.197E+01    0.783E+01
DAV:  14    -0.153582772131E+04   -0.56208E+01   -0.16198E+01  9288   0.181E+01    0.969E+01
DAV:  15    -0.152372823772E+04    0.12099E+02   -0.91375E+00  7880   0.155E+01    0.658E+01
DAV:  16    -0.151960177381E+04    0.41265E+01   -0.56759E+00  7884   0.958E+00    0.602E+01
DAV:  17    -0.151383239076E+04    0.57694E+01   -0.40212E+00  7896   0.980E+00    0.465E+01
DAV:  18    -0.151336494379E+04    0.46745E+00   -0.43190E+00  8064   0.101E+01    0.509E+01
DAV:  19    -0.150978194164E+04    0.35830E+01   -0.23526E+00  7888   0.739E+00    0.316E+01
DAV:  20    -0.150912549117E+04    0.65645E+00   -0.13099E+00  7424   0.455E+00    0.313E+01
DAV:  21    -0.150798250047E+04    0.11430E+01   -0.85282E-01  8088   0.391E+00    0.220E+01
DAV:  22    -0.150779289301E+04    0.18961E+00   -0.69014E-01  7896   0.390E+00    0.213E+01
DAV:  23    -0.150729791378E+04    0.49498E+00   -0.78684E-01  7912   0.415E+00    0.172E+01
DAV:  24    -0.150709058567E+04    0.20733E+00   -0.41225E-01  7920   0.294E+00    0.147E+01
DAV:  25    -0.150699903330E+04    0.91552E-01   -0.22328E-01  8248   0.136E+00    0.138E+01
DAV:  26    -0.150692275513E+04    0.76278E-01   -0.16894E-01  7936   0.157E+00    0.117E+01
DAV:  27    -0.150699190603E+04   -0.69151E-01   -0.30895E-01  9272   0.276E+00    0.117E+01
DAV:  28    -0.150704555751E+04   -0.53651E-01   -0.50265E-01  8976   0.365E+00    0.129E+01
DAV:  29    -0.150688874286E+04    0.15681E+00   -0.55349E-01  8768   0.359E+00    0.118E+01
DAV:  30    -0.150676201459E+04    0.12673E+00   -0.20488E-01  8824   0.228E+00    0.111E+01
DAV:  31    -0.150689101713E+04   -0.12900E+00   -0.82008E-02  8664   0.129E+00    0.151E+01
DAV:  32    -0.150683196205E+04    0.59055E-01   -0.68521E-02  8248   0.111E+00    0.141E+01
DAV:  33    -0.150664689430E+04    0.18507E+00   -0.54471E-02  8008   0.853E-01    0.971E+00
DAV:  34    -0.150659787869E+04    0.49016E-01   -0.30930E-02  8064   0.767E-01    0.788E+00
DAV:  35    -0.150654181860E+04    0.56060E-01   -0.21080E-02  8440   0.649E-01    0.566E+00
DAV:  36    -0.150653283079E+04    0.89878E-02   -0.21072E-02  8616   0.623E-01    0.501E+00
DAV:  37    -0.150651460733E+04    0.18223E-01   -0.15652E-02  8680   0.538E-01    0.413E+00
DAV:  38    -0.150649818570E+04    0.16422E-01   -0.14412E-02 12032   0.313E-01    0.249E+00
DAV:  39    -0.150649351614E+04    0.46696E-02   -0.46727E-03  9824   0.272E-01    0.178E+00
DAV:  40    -0.150649260372E+04    0.91242E-03   -0.46951E-03 10040   0.274E-01    0.159E+00
DAV:  41    -0.150649083470E+04    0.17690E-02   -0.18229E-03  9016   0.135E-01    0.133E+00
DAV:  42    -0.150648905324E+04    0.17815E-02   -0.95732E-04  7680   0.131E-01    0.860E-01
DAV:  43    -0.150649156689E+04   -0.25137E-02   -0.96376E-04  8144   0.140E-01    0.145E+00
DAV:  44    -0.150649016275E+04    0.14041E-02   -0.11768E-03 12912   0.998E-02    0.114E+00
DAV:  45    -0.150648931258E+04    0.85017E-03   -0.40544E-04 12208   0.778E-02    0.883E-01
DAV:  46    -0.150648894190E+04    0.37069E-03   -0.20398E-04  7968   0.454E-02    0.739E-01
DAV:  47    -0.150648824892E+04    0.69297E-03   -0.29465E-04  8792   0.825E-02    0.260E-01
DAV:  48    -0.150648827119E+04   -0.22266E-04   -0.15178E-04  9736   0.427E-02    0.197E-01
DAV:  49    -0.150648823621E+04    0.34977E-04   -0.59366E-05  7024   0.299E-02    0.126E-01
DAV:  50    -0.150648822609E+04    0.10119E-04   -0.22827E-05  5336   0.160E-02    0.608E-02
DAV:  51    -0.150648822175E+04    0.43409E-05   -0.11548E-05  4000   0.103E-02
  14 F= -.16080561E+04 E0= -.16072738E+04  d E =-.546639E+01
 curvature:  -0.05 expect dE=-0.453E+00 dE for cont linesearch -0.248E-02
 trial: gam= 0.83414 g(F)=  0.946E+01 g(S)=  0.000E+00 ort = 0.125E+01 (trialstep = 0.365E+00)
 search vector abs. value=  0.324E+02
 bond charge predicted
       N       E                     dE             d eps       ncg     rms          rms(c)
DAV:   1    -0.150932792050E+04   -0.28397E+01   -0.68166E+02  6968   0.268E+01    0.192E+01
DAV:   2    -0.156405033721E+04   -0.54722E+02   -0.14016E+01  7840   0.257E+01    0.877E+01
DAV:   3    -0.155299643044E+04    0.11054E+02   -0.96566E+00  8712   0.338E+01    0.101E+02
DAV:   4    -0.154454096586E+04    0.84555E+01   -0.88038E+00  8480   0.242E+01    0.101E+02
DAV:   5    -0.154816103240E+04   -0.36201E+01   -0.10232E+01  9152   0.270E+01    0.101E+02
DAV:   6    -0.152462032722E+04    0.23541E+02   -0.10067E+01  8968   0.183E+01    0.588E+01
DAV:   7    -0.153854802674E+04   -0.13928E+02   -0.86867E+00  8552   0.209E+01    0.919E+01
DAV:   8    -0.152560591621E+04    0.12942E+02   -0.67515E+00  8576   0.178E+01    0.611E+01
DAV:   9    -0.151764025477E+04    0.79657E+01   -0.53211E+00  8488   0.124E+01    0.399E+01
DAV:  10    -0.151408984511E+04    0.35504E+01   -0.21824E+00  8280   0.682E+00    0.320E+01
DAV:  11    -0.151354873146E+04    0.54111E+00   -0.20231E+00  8232   0.713E+00    0.287E+01
DAV:  12    -0.151234965100E+04    0.11991E+01   -0.19493E+00  8112   0.659E+00    0.224E+01
DAV:  13    -0.151156627496E+04    0.78338E+00   -0.98504E-01  8136   0.497E+00    0.176E+01
DAV:  14    -0.151117553807E+04    0.39074E+00   -0.55147E-01  8104   0.349E+00    0.147E+01
DAV:  15    -0.151098352696E+04    0.19201E+00   -0.36016E-01  7792   0.272E+00    0.150E+01
DAV:  16    -0.151085206587E+04    0.13146E+00   -0.16009E-01  8160   0.178E+00    0.154E+01
DAV:  17    -0.151111102422E+04   -0.25896E+00   -0.16398E-01  8552   0.184E+00    0.186E+01
DAV:  18    -0.151099883209E+04    0.11219E+00   -0.11046E-01  8232   0.156E+00    0.188E+01
DAV:  19    -0.151049621074E+04    0.50262E+00   -0.13844E-01  8760   0.172E+00    0.933E+00
DAV:  20    -0.151036769682E+04    0.12851E+00   -0.20293E-01  9280   0.181E+00    0.858E+00
DAV:  21    -0.151045634207E+04   -0.88645E-01   -0.12274E-01  9816   0.130E+00    0.112E+01
DAV:  22    -0.151036503960E+04    0.91302E-01   -0.96150E-02  8472   0.115E+00    0.934E+00
DAV:  23    -0.151029692174E+04    0.68118E-01   -0.84151E-02  8528   0.117E+00    0.628E+00
DAV:  24    -0.151029450827E+04    0.24135E-02   -0.95731E-02  8832   0.124E+00    0.687E+00
DAV:  25    -0.151025707508E+04    0.37433E-01   -0.31719E-02  8680   0.816E-01    0.480E+00
DAV:  26    -0.151024417378E+04    0.12901E-01   -0.31707E-02  8704   0.832E-01    0.347E+00
DAV:  27    -0.151021633720E+04    0.27837E-01   -0.21712E-02  8736   0.653E-01    0.161E+00
DAV:  28    -0.151022217508E+04   -0.58379E-02   -0.10340E-02  8536   0.437E-01    0.200E+00
DAV:  29    -0.151023284623E+04   -0.10671E-01   -0.15940E-02  8632   0.568E-01    0.346E+00
DAV:  30    -0.151023424774E+04   -0.14015E-02   -0.94326E-03  9368   0.434E-01    0.339E+00
DAV:  31    -0.151022880689E+04    0.54409E-02   -0.76323E-03  9040   0.413E-01    0.319E+00
DAV:  32    -0.151022474260E+04    0.40643E-02   -0.28470E-03  9496   0.206E-01    0.279E+00
DAV:  33    -0.151021827605E+04    0.64665E-02   -0.23230E-03  9240   0.208E-01    0.181E+00
[...]
DAV:  19    -0.157202671272E+04    0.25862E+00   -0.20652E-01  8200   0.204E+00    0.147E+01
DAV:  20    -0.157192546426E+04    0.10125E+00   -0.12484E-01  8552   0.160E+00    0.130E+01
DAV:  21    -0.157193173116E+04   -0.62669E-02   -0.12409E-01  8736   0.157E+00    0.130E+01
DAV:  22    -0.157181043153E+04    0.12130E+00   -0.93728E-02  8568   0.171E+00    0.115E+01
DAV:  23    -0.157177248293E+04    0.37949E-01   -0.48603E-02  8440   0.947E-01    0.115E+01
DAV:  24    -0.157170360083E+04    0.68882E-01   -0.31148E-02  8328   0.723E-01    0.102E+01
DAV:  25    -0.157169951011E+04    0.40907E-02   -0.11888E-02  8696   0.348E-01    0.976E+00
DAV:  26    -0.157168744082E+04    0.12069E-01   -0.54068E-03  8712   0.361E-01    0.954E+00
DAV:  27    -0.157166722246E+04    0.20218E-01   -0.38501E-03  8792   0.239E-01    0.908E+00
DAV:  28    -0.157155281327E+04    0.11441E+00   -0.31269E-02 12576   0.718E-01    0.654E+00
DAV:  29    -0.157152027979E+04    0.32533E-01   -0.36185E-02 12608   0.678E-01    0.523E+00
DAV:  30    -0.157153264139E+04   -0.12362E-01   -0.35585E-02 11152   0.919E-01    0.606E+00
DAV:  31    -0.157150960104E+04    0.23040E-01   -0.32660E-02 12112   0.715E-01    0.612E+00
DAV:  32    -0.157148743605E+04    0.22165E-01   -0.23065E-02 12032   0.589E-01    0.507E+00
DAV:  33    -0.157144047734E+04    0.46959E-01   -0.36397E-02 10976   0.764E-01    0.177E+00
DAV:  34    -0.157144568216E+04   -0.52048E-02   -0.24343E-02 11840   0.508E-01    0.207E+00
DAV:  35    -0.157144658438E+04   -0.90222E-03   -0.10888E-02 10560   0.445E-01    0.272E+00
DAV:  36    -0.157143476705E+04    0.11817E-01   -0.43801E-03  8024   0.218E-01    0.187E+00
DAV:  37    -0.157143431961E+04    0.44745E-03   -0.17564E-03  7872   0.170E-01    0.148E+00
DAV:  38    -0.157143422385E+04    0.95756E-04   -0.75158E-04  8360   0.117E-01    0.120E+00
DAV:  39    -0.157143514172E+04   -0.91786E-03   -0.87020E-04  8208   0.143E-01    0.128E+00
DAV:  40    -0.157143537591E+04   -0.23419E-03   -0.53091E-04  8376   0.124E-01    0.159E+00
DAV:  41    -0.157143276492E+04    0.26110E-02   -0.11338E-03 12608   0.753E-02    0.106E+00
DAV:  42    -0.157143277859E+04   -0.13666E-04   -0.41232E-04 11080   0.530E-02    0.924E-01
DAV:  43    -0.157143193622E+04    0.84236E-03   -0.11655E-04  9776   0.522E-02    0.559E-01
DAV:  44    -0.157143151962E+04    0.41660E-03   -0.92103E-05  8368   0.313E-02    0.283E-01
DAV:  45    -0.157143154477E+04   -0.25149E-04   -0.10397E-04 10288   0.193E-02    0.228E-01
DAV:  46    -0.157143145149E+04    0.93279E-04   -0.20436E-05  5464   0.204E-02    0.131E-01
DAV:  47    -0.157143141234E+04    0.39153E-04   -0.80113E-05  9880   0.239E-02    0.288E-02
DAV:  48    -0.157143141939E+04   -0.70459E-05   -0.47680E-05  6872   0.995E-03    0.139E-02
DAV:  49    -0.157143141976E+04   -0.37020E-06   -0.31956E-06  3672   0.320E-03
  36 F= -.16758351E+04 E0= -.16750835E+04  d E =-.271315E+01
 trial-energy change:   -2.713152  1 .order   -2.650247   -3.625261   -1.675234
 step:   0.7731(harm=  0.8705)  dis= 0.04636  next Energy= -1676.397729 (dE=-0.328E+01)
 bond charge predicted
       N       E                     dE             d eps       ncg     rms          rms(c)
DAV:   1    -0.157161550766E+04   -0.18409E+00   -0.29196E+02  6968   0.170E+01    0.132E+01
DAV:   2    -0.166217508265E+04   -0.90560E+02   -0.11086E+01  9488   0.297E+01    0.115E+02
DAV:   3    -0.160744199562E+04    0.54733E+02   -0.10914E+01  9344   0.273E+01    0.937E+01
DAV:   4    -0.159242282156E+04    0.15019E+02   -0.43528E+00  8784   0.193E+01    0.836E+01
DAV:   5    -0.158104688542E+04    0.11376E+02   -0.47049E+00  8944   0.125E+01    0.563E+01
DAV:   6    -0.157225071069E+04    0.87962E+01   -0.34730E+00  8984   0.100E+01    0.216E+01
DAV:   7    -0.157662995284E+04   -0.43792E+01   -0.45397E+00  8944   0.113E+01    0.327E+01
DAV:   8    -0.157934576249E+04   -0.27158E+01   -0.43554E+00  8672   0.129E+01    0.457E+01
DAV:   9    -0.157314362260E+04    0.62021E+01   -0.29557E+00  8128   0.104E+01    0.195E+01
DAV:  10    -0.157289060446E+04    0.25302E+00   -0.14192E+00  8760   0.623E+00    0.207E+01
DAV:  11    -0.157307915157E+04   -0.18855E+00   -0.11156E+00  8616   0.541E+00    0.179E+01
DAV:  12    -0.157273638178E+04    0.34277E+00   -0.98028E-01  8104   0.537E+00    0.161E+01
DAV:  13    -0.157249902608E+04    0.23736E+00   -0.47616E-01  8392   0.362E+00    0.168E+01
DAV:  14    -0.157220602449E+04    0.29300E+00   -0.32291E-01  8072   0.228E+00    0.108E+01
DAV:  15    -0.157207752197E+04    0.12850E+00   -0.15617E-01  7968   0.187E+00    0.829E+00
DAV:  16    -0.157209466995E+04   -0.17148E-01   -0.73187E-02  8320   0.133E+00    0.798E+00
DAV:  17    -0.157207656111E+04    0.18109E-01   -0.86510E-02  8136   0.141E+00    0.768E+00
DAV:  18    -0.157206408584E+04    0.12475E-01   -0.66366E-02  8184   0.133E+00    0.801E+00
DAV:  19    -0.157203213218E+04    0.31954E-01   -0.45337E-02  8480   0.107E+00    0.700E+00
DAV:  20    -0.157201606460E+04    0.16068E-01   -0.35730E-02  8312   0.922E-01    0.680E+00
DAV:  21    -0.157198606429E+04    0.30000E-01   -0.15114E-02  8768   0.473E-01    0.495E+00
DAV:  22    -0.157194693777E+04    0.39127E-01   -0.94749E-03  8464   0.487E-01    0.211E+00
DAV:  23    -0.157194903450E+04   -0.20967E-02   -0.93735E-03  9440   0.386E-01    0.207E+00
DAV:  24    -0.157194707716E+04    0.19573E-02   -0.74468E-03  8640   0.367E-01    0.196E+00
DAV:  25    -0.157194327403E+04    0.38031E-02   -0.52947E-03  8434   0.304E-01    0.151E+00
DAV:  26    -0.157195446322E+04   -0.11189E-01   -0.97196E-03  9784   0.427E-01    0.240E+00
DAV:  27    -0.157195246332E+04    0.19999E-02   -0.77177E-03  9460   0.446E-01    0.276E+00
DAV:  28    -0.157194532532E+04    0.71380E-02   -0.32638E-03  9336   0.222E-01    0.178E+00
DAV:  29    -0.157194181902E+04    0.35063E-02   -0.21739E-03  9464   0.199E-01    0.910E-01
DAV:  30    -0.157194149497E+04    0.32405E-03   -0.13861E-03  9064   0.150E-01    0.513E-01
DAV:  31    -0.157194217227E+04   -0.67730E-03   -0.12086E-03  9176   0.155E-01    0.557E-01
DAV:  32    -0.157194134083E+04    0.83144E-03   -0.10771E-03  8736   0.158E-01    0.309E-01
DAV:  33    -0.157194148447E+04   -0.14364E-03   -0.45824E-04  8784   0.839E-02    0.304E-01
DAV:  34    -0.157194125811E+04    0.22636E-03   -0.30153E-04  8024   0.755E-02    0.165E-01
DAV:  35    -0.157194125568E+04    0.24256E-05   -0.11409E-04 10936   0.274E-02    0.114E-01
DAV:  36    -0.157194124550E+04    0.10182E-04   -0.37651E-05  6800   0.274E-02    0.106E-01
DAV:  37    -0.157194126785E+04   -0.22349E-04   -0.22304E-05  5872   0.207E-02    0.135E-01
DAV:  38    -0.157194125132E+04    0.16537E-04   -0.21340E-05  5920   0.222E-02    0.101E-01
DAV:  39    -0.157194125081E+04    0.50105E-06   -0.71927E-06  3760   0.132E-02
  37 F= -.16763924E+04 E0= -.16756404E+04  d E =-.327050E+01
 curvature:  -0.98 expect dE=-0.239E+01 dE for cont linesearch -0.117E-03
 trial: gam= 0.32214 g(F)=  0.243E+01 g(S)=  0.000E+00 ort =-0.471E-01 (trialstep = 0.529E+00)
 search vector abs. value=  0.433E+01
 bond charge predicted
       N       E                     dE             d eps       ncg     rms          rms(c)
DAV:   1    -0.157283201041E+04   -0.89076E+00   -0.20532E+02  6968   0.142E+01    0.512E+00
DAV:   2    -0.158088585988E+04   -0.80538E+01   -0.37965E+00  7928   0.867E+00    0.512E+01
DAV:   3    -0.157542781229E+04    0.54580E+01   -0.24649E+00  8424   0.944E+00    0.367E+01
DAV:   4    -0.157539690316E+04    0.30909E-01   -0.13527E+00  8152   0.650E+00    0.369E+01
DAV:   5    -0.157375660297E+04    0.16403E+01   -0.11516E+00  8296   0.556E+00    0.164E+01
DAV:   6    -0.157408414033E+04   -0.32754E+00   -0.74569E-01  8224   0.482E+00    0.192E+01
DAV:   7    -0.157350881979E+04    0.57532E+00   -0.82020E-01  8240   0.497E+00    0.128E+01
DAV:   8    -0.157425665458E+04   -0.74783E+00   -0.74206E-01  8760   0.443E+00    0.187E+01
DAV:   9    -0.157321150814E+04    0.10451E+01   -0.62168E-01  8192   0.398E+00    0.923E+00
DAV:  10    -0.157315993511E+04    0.51573E-01   -0.24073E-01  8432   0.213E+00    0.618E+00
DAV:  11    -0.157330660734E+04   -0.14667E+00   -0.19420E-01  8712   0.230E+00    0.830E+00
DAV:  12    -0.157324927331E+04    0.57334E-01   -0.18555E-01  8312   0.208E+00    0.778E+00
DAV:  13    -0.157324187076E+04    0.74025E-02   -0.81569E-02  8592   0.161E+00    0.828E+00
DAV:  14    -0.157322215616E+04    0.19715E-01   -0.62150E-02  8864   0.114E+00    0.714E+00
DAV:  15    -0.157312265317E+04    0.99503E-01   -0.48261E-02  8392   0.123E+00    0.271E+00
DAV:  16    -0.157311693774E+04    0.57154E-02   -0.22710E-02  8672   0.679E-01    0.219E+00
DAV:  17    -0.157312497314E+04   -0.80354E-02   -0.13532E-02  8528   0.589E-01    0.243E+00
DAV:  18    -0.157311007159E+04    0.14902E-01   -0.92839E-03  8208   0.481E-01    0.119E+00
DAV:  19    -0.157311035615E+04   -0.28455E-03   -0.28016E-03  8636   0.233E-01    0.112E+00
DAV:  20    -0.157310961495E+04    0.74119E-03   -0.24654E-03  8600   0.238E-01    0.810E-01
DAV:  21    -0.157310793516E+04    0.16798E-02   -0.17784E-03  8340   0.197E-01    0.374E-01
DAV:  22    -0.157310827219E+04   -0.33704E-03   -0.77962E-04  8804   0.105E-01    0.506E-01
DAV:  23    -0.157310823681E+04    0.35387E-04   -0.57281E-04  8176   0.965E-02    0.511E-01
DAV:  24    -0.157310801269E+04    0.22412E-03   -0.32372E-04  8130   0.794E-02    0.402E-01
DAV:  25    -0.157310802516E+04   -0.12477E-04   -0.24365E-04  8676   0.803E-02    0.298E-01
DAV:  26    -0.157310786912E+04    0.15604E-03   -0.19795E-04  8432   0.719E-02    0.273E-01
DAV:  27    -0.157310785965E+04    0.94683E-05   -0.89846E-05  8408   0.369E-02    0.248E-01
DAV:  28    -0.157310775361E+04    0.10604E-03   -0.52332E-05  6976   0.343E-02    0.609E-02
DAV:  29    -0.157310775764E+04   -0.40312E-05   -0.18679E-05  5136   0.164E-02
  38 F= -.16776199E+04 E0= -.16768724E+04  d E =-.122748E+01
 ZBRENT: can't locate minimum, use default step
 trial-energy change:   -1.227476  1 .order   -1.225604   -1.278682   -1.172525
 step:   2.1168(harm=  6.3742)  dis= 0.07261  next Energy= -1684.093387 (dE=-0.770E+01)
 bond charge predicted
       N       E                     dE             d eps       ncg     rms          rms(c)
DAV:   1    -0.157254690851E+04    0.56085E+00   -0.18516E+03  6968   0.430E+01    0.157E+01
DAV:   2    -0.162850351276E+04   -0.55957E+02   -0.35198E+01  7600   0.278E+01    0.109E+02
DAV:   3    -0.157968556529E+04    0.48818E+02   -0.18568E+01  8224   0.254E+01    0.403E+01
DAV:   4    -0.158802704445E+04   -0.83415E+01   -0.73845E+00  7984   0.168E+01    0.618E+01
DAV:   5    -0.159747128335E+04   -0.94442E+01   -0.65822E+00  8048   0.198E+01    0.731E+01
DAV:   6    -0.158605871397E+04    0.11413E+02   -0.63079E+00  8032   0.156E+01    0.551E+01
DAV:   7    -0.158532754313E+04    0.73117E+00   -0.49133E+00  8328   0.153E+01    0.526E+01
DAV:   8    -0.158486537417E+04    0.46217E+00   -0.56237E+00  8168   0.138E+01    0.546E+01
DAV:   9    -0.157871117220E+04    0.61542E+01   -0.46561E+00  8152   0.116E+01    0.327E+01
DAV:  10    -0.157771863530E+04    0.99254E+00   -0.25218E+00  8120   0.943E+00    0.245E+01
DAV:  11    -0.157832341440E+04   -0.60478E+00   -0.16964E+00  7904   0.668E+00    0.315E+01
DAV:  12    -0.157740385694E+04    0.91956E+00   -0.11566E+00  7888   0.521E+00    0.262E+01
DAV:  13    -0.157737430767E+04    0.29549E-01   -0.83201E-01  8312   0.450E+00    0.234E+01
DAV:  14    -0.157787141217E+04   -0.49710E+00   -0.93941E-01  8576   0.585E+00    0.306E+01
DAV:  15    -0.157731452400E+04    0.55689E+00   -0.71634E-01  8240   0.422E+00    0.264E+01
DAV:  16    -0.157659847967E+04    0.71604E+00   -0.47184E-01  8092   0.313E+00    0.177E+01
DAV:  17    -0.157606605662E+04    0.53242E+00   -0.29257E-01  8056   0.278E+00    0.754E+00
DAV:  18    -0.157605458120E+04    0.11475E-01   -0.12503E-01  8420   0.173E+00    0.793E+00
DAV:  19    -0.157610163760E+04   -0.47056E-01   -0.14437E-01  8128   0.203E+00    0.947E+00
DAV:  20    -0.157596442536E+04    0.13721E+00   -0.11554E-01  8124   0.183E+00    0.479E+00
DAV:  21    -0.157593452889E+04    0.29896E-01   -0.46497E-02  8472   0.112E+00    0.361E+00
DAV:  22    -0.157595229366E+04   -0.17765E-01   -0.57090E-02  8204   0.110E+00    0.470E+00
DAV:  23    -0.157597109063E+04   -0.18797E-01   -0.43863E-02  8500   0.100E+00    0.645E+00
DAV:  24    -0.157596045618E+04    0.10634E-01   -0.23010E-02  8348   0.667E-01    0.524E+00
DAV:  25    -0.157591944850E+04    0.41008E-01   -0.13576E-02  8204   0.515E-01    0.261E+00
DAV:  26    -0.157591714769E+04    0.23008E-02   -0.53659E-03  8104   0.351E-01    0.219E+00
DAV:  27    -0.157591162744E+04    0.55203E-02   -0.58049E-03  8464   0.381E-01    0.122E+00
DAV:  28    -0.157590855725E+04    0.30702E-02   -0.36201E-03  8044   0.304E-01    0.653E-01
DAV:  29    -0.157590960280E+04   -0.10455E-02   -0.26082E-03  8324   0.215E-01    0.859E-01
DAV:  30    -0.157590921346E+04    0.38934E-03   -0.19547E-03  8156   0.214E-01    0.103E+00
DAV:  31    -0.157590891708E+04    0.29638E-03   -0.96869E-04 10212   0.115E-01    0.831E-01
DAV:  32    -0.157590808479E+04    0.83229E-03   -0.55921E-04  8936   0.106E-01    0.585E-01
DAV:  33    -0.157590791026E+04    0.17453E-03   -0.20974E-04  9316   0.521E-02    0.456E-01
DAV:  34    -0.157590759872E+04    0.31154E-03   -0.16521E-04  8264   0.568E-02    0.138E-01
DAV:  35    -0.157590772665E+04   -0.12794E-03   -0.13094E-04 10124   0.445E-02    0.220E-01
DAV:  36    -0.157590763616E+04    0.90492E-04   -0.88428E-05  8248   0.429E-02    0.984E-02
DAV:  37    -0.157590767458E+04   -0.38422E-04   -0.25529E-05  5796   0.204E-02    0.173E-01
DAV:  38    -0.157590767007E+04    0.45169E-05   -0.17632E-05  5216   0.172E-02
  39 F= -.16806099E+04 E0= -.16798732E+04  d E =-.421747E+01
 curvature:  -2.68 expect dE=-0.461E+01 dE for cont linesearch -0.145E+01
 ZBRENT: increasing intervall
 opt :   5.2919  next Energy= -1683.289356 (dE=-0.690E+01)
 bond charge predicted
       N       E                     dE             d eps       ncg     rms          rms(c)
DAV:   1    -0.155745214041E+04    0.18456E+02   -0.74750E+03  6968   0.885E+01    0.362E+01
DAV:   2    -0.184496438902E+04   -0.28751E+03   -0.18086E+02  7584   0.787E+01    0.234E+02
DAV:   3    -0.167377001393E+04    0.17119E+03   -0.12445E+02  8616   0.360E+01    0.131E+02
DAV:   4    -0.186770208085E+04   -0.19393E+03   -0.48962E+01  8224   0.621E+01    0.219E+02
DAV:   5    -0.167332896823E+04    0.19437E+03   -0.56822E+01  9936   0.433E+01    0.144E+02
DAV:   6    -0.164278227583E+04    0.30547E+02   -0.58691E+01  9768   0.339E+01    0.126E+02
DAV:   7    -0.161867204430E+04    0.24110E+02   -0.25943E+01  7928   0.283E+01    0.908E+01
DAV:   8    -0.159830489857E+04    0.20367E+02   -0.24173E+01  7944   0.283E+01    0.794E+01
DAV:   9    -0.160125093540E+04   -0.29460E+01   -0.16678E+01  8248   0.202E+01    0.955E+01
DAV:  10    -0.160461597142E+04   -0.33650E+01   -0.14504E+01  7944   0.207E+01    0.858E+01
DAV:  11    -0.159854575777E+04    0.60702E+01   -0.96884E+00  7904   0.157E+01    0.845E+01
DAV:  12    -0.158581168348E+04    0.12734E+02   -0.11112E+01  8928   0.164E+01    0.597E+01
DAV:  13    -0.158652876836E+04   -0.71708E+00   -0.44208E+00  8056   0.920E+00    0.651E+01
DAV:  14    -0.159873712845E+04   -0.12208E+02   -0.51632E+00  7984   0.124E+01    0.899E+01
DAV:  15    -0.159824151045E+04    0.49562E+00   -0.47572E+00  8336   0.107E+01    0.844E+01
DAV:  16    -0.159293864773E+04    0.53029E+01   -0.35741E+00  8048   0.908E+00    0.719E+01
DAV:  17    -0.159029584433E+04    0.26428E+01   -0.37619E+00  8160   0.107E+01    0.631E+01
DAV:  18    -0.158865014441E+04    0.16457E+01   -0.22967E+00  7880   0.737E+00    0.574E+01
DAV:  19    -0.158684470732E+04    0.18054E+01   -0.19582E+00  7936   0.727E+00    0.539E+01
DAV:  20    -0.158484289243E+04    0.20018E+01   -0.16456E+00  8024   0.723E+00    0.445E+01
DAV:  21    -0.158460296022E+04    0.23993E+00   -0.16427E+00  8008   0.688E+00    0.437E+01
DAV:  22    -0.158210730433E+04    0.24957E+01   -0.13928E+00  7896   0.651E+00    0.350E+01
DAV:  23    -0.158147251649E+04    0.63479E+00   -0.80710E-01  8564   0.406E+00    0.357E+01
DAV:  24    -0.158099554761E+04    0.47697E+00   -0.37723E-01  8096   0.186E+00    0.340E+01
DAV:  25    -0.158090204347E+04    0.93504E-01   -0.19146E-01  9440   0.783E-01    0.335E+01
DAV:  26    -0.158089498769E+04    0.70558E-02   -0.32481E-02 10624   0.241E-01    0.334E+01
DAV:  27    -0.158074524145E+04    0.14975E+00   -0.13366E-02 10376   0.530E-01    0.319E+01
DAV:  28    -0.158087350284E+04   -0.12826E+00   -0.39357E-02 12440   0.738E-01    0.324E+01
DAV:  29    -0.158084862761E+04    0.24875E-01   -0.87520E-03  8464   0.178E-01    0.324E+01
DAV:  30    -0.158080994230E+04    0.38685E-01   -0.16853E-01 10208   0.178E+00    0.362E+01
DAV:  31    -0.158056044607E+04    0.24950E+00   -0.13206E-01 11896   0.141E+00    0.349E+01
DAV:  32    -0.158020807570E+04    0.35237E+00   -0.10113E-01 10240   0.130E+00    0.317E+01
DAV:  33    -0.157986482761E+04    0.34325E+00   -0.55481E-02 10656   0.893E-01    0.291E+01
DAV:  34    -0.157932298817E+04    0.54184E+00   -0.53374E-02 10480   0.105E+00    0.249E+01
DAV:  35    -0.157906608852E+04    0.25690E+00   -0.70848E-02 11032   0.104E+00    0.222E+01
DAV:  36    -0.157880619159E+04    0.25990E+00   -0.55154E-02 10280   0.953E-01    0.201E+01
DAV:  37    -0.157856259876E+04    0.24359E+00   -0.14933E-01 11064   0.169E+00    0.169E+01
DAV:  38    -0.157812378783E+04    0.43881E+00   -0.11422E-01 11160   0.133E+00    0.106E+01
DAV:  39    -0.157820480631E+04   -0.81018E-01   -0.10181E-01  9328   0.118E+00    0.126E+01
DAV:  40    -0.157825428813E+04   -0.49482E-01   -0.81669E-02  9048   0.132E+00    0.139E+01
DAV:  41    -0.157800801291E+04    0.24628E+00   -0.56468E-02 10808   0.101E+00    0.918E+00
DAV:  42    -0.157799430191E+04    0.13711E-01   -0.50285E-02 10392   0.711E-01    0.847E+00
DAV:  43    -0.157793272285E+04    0.61579E-01   -0.16371E-02  9352   0.491E-01    0.663E+00
DAV:  44    -0.157790292213E+04    0.29801E-01   -0.12187E-02 11208   0.253E-01    0.596E+00
DAV:  45    -0.157787973809E+04    0.23184E-01   -0.69546E-03 10120   0.268E-01    0.535E+00
DAV:  46    -0.157785348651E+04    0.26252E-01   -0.88365E-03  9512   0.252E-01    0.426E+00
DAV:  47    -0.157780606718E+04    0.47419E-01   -0.49309E-02 12448   0.876E-01    0.212E+00
DAV:  48    -0.157780651594E+04   -0.44876E-03   -0.32745E-02  7864   0.339E-01    0.185E+00
DAV:  49    -0.157780557478E+04    0.94116E-03   -0.74353E-03  8088   0.238E-01    0.170E+00
DAV:  50    -0.157780211688E+04    0.34579E-02   -0.27756E-03  8576   0.167E-01    0.744E-01
DAV:  51    -0.157780331176E+04   -0.11949E-02   -0.36662E-03  8064   0.157E-01    0.108E+00
DAV:  52    -0.157780260023E+04    0.71153E-03   -0.13605E-03  8600   0.108E-01    0.853E-01
DAV:  53    -0.157780193177E+04    0.66846E-03   -0.61285E-04  8432   0.735E-02    0.526E-01
DAV:  54    -0.157780153795E+04    0.39382E-03   -0.42141E-04  8080   0.702E-02    0.256E-01
DAV:  55    -0.157780154354E+04   -0.55949E-05   -0.23909E-04  7872   0.310E-02    0.218E-01
DAV:  56    -0.157780154200E+04    0.15446E-05   -0.78288E-05  8536   0.155E-02    0.189E-01
DAV:  57    -0.157780163108E+04   -0.89079E-04   -0.77327E-05  8976   0.344E-02    0.249E-01
DAV:  58    -0.157780155174E+04    0.79341E-04   -0.49929E-05  7456   0.319E-02    0.113E-01
DAV:  59    -0.157780156004E+04   -0.83069E-05   -0.13427E-05  4400   0.107E-02    0.984E-02
DAV:  60    -0.157780155953E+04    0.51176E-06   -0.11186E-05  3632   0.934E-03
  40 F= -.16829135E+04 E0= -.16821916E+04  d E =-.652112E+01
 curvature:  -4.96 expect dE=-0.186E+02 dE for cont linesearch -0.257E-01
 trial: gam= 1.39884 g(F)=  0.375E+01 g(S)=  0.000E+00 ort =-0.150E+00 (trialstep = 0.543E+00)
 search vector abs. value=  0.118E+02
