<?xml version="1.0" encoding="ISO-8859-1"?>
<modeling>
 <generator>
  <i name="program" type="string">vasp </i>
  <i name="version" type="string">6.2.1  </i>
  <i name="subversion" type="string">16May21 (build May 12 2022 08:28:04) complex                          parallel </i>
  <i name="platform" type="string">LinuxPGI </i>
  <i name="date" type="string">2022 07 13 </i>
  <i name="time" type="string">02:00:25 </i>
 </generator>
 <incar>
  <i type="string" name="SYSTEM">NiAl</i>
  <i type="int" name="ISTART">     0</i>
  <i type="int" name="NELMIN">     6</i>
  <i type="int" name="IBRION">     2</i>
  <i name="EDIFF">      0.00000500</i>
  <i type="int" name="NSW">    40</i>
  <i type="int" name="ISIF">     0</i>
  <i name="ENCUT">    360.00000000</i>
  <i name="POTIM">      0.20000000</i>
  <i type="string" name="LREAL">Auto</i>
  <i type="logical" name="LPLANE"> T  </i>
  <i type="int" name="ISMEAR">     0</i>
  <i name="SIGMA">      0.05000000</i>
  <i type="logical" name="LWAVE"> F  </i>
  <i type="logical" name="LCHARG"> F  </i>
  <i type="int" name="IVDW">    12</i>
 </incar>
 <primitive_cell>
  <structure name="primitive_cell" >
   <crystal>
    <varray name="basis" >
     <v>      -3.78655544      -6.55850641       0.00000000 </v>
     <v>       7.57311088       0.00000000       0.00000000 </v>
     <v>       0.00000000       0.00000000      36.40000000 </v>
    </varray>
    <i name="volume">   1807.92598260 </i>
    <varray name="rec_basis" >
     <v>       0.00000000      -0.15247374       0.00000000 </v>
     <v>       0.13204613      -0.07623687       0.00000000 </v>
     <v>      -0.00000000       0.00000000       0.02747253 </v>
    </varray>
   </crystal>
   <varray name="positions" >
    <v>       0.11111111       0.88888889       0.06198901 </v>
    <v>       0.44444444       0.88888889       0.06198901 </v>
    <v>       0.77777778       0.88888889       0.06198901 </v>
    <v>       0.11111111       0.55555556       0.06198901 </v>
    <v>       0.44444444       0.55555556       0.06198901 </v>
    <v>       0.77777778       0.55555556       0.06198901 </v>
    <v>       0.11111111       0.22222222       0.06198901 </v>
    <v>       0.44444444       0.22222222       0.06198901 </v>
    <v>       0.77777778       0.22222222       0.06198901 </v>
    <v>       0.88888889       0.11111111       0.12487340 </v>
    <v>       0.22222222       0.11111111       0.12487340 </v>
    <v>       0.55555556       0.11111111       0.12487340 </v>
    <v>       0.88888889       0.77777778       0.12487340 </v>
    <v>       0.22222222       0.77777778       0.12487340 </v>
    <v>       0.55555556       0.77777778       0.12487340 </v>
    <v>       0.88888889       0.44444444       0.12487340 </v>
    <v>       0.22222222       0.44444444       0.12487340 </v>
    <v>       0.55555556       0.44444444       0.12487340 </v>
    <v>       0.66666667       0.33333333       0.18572635 </v>
    <v>      -0.00000000       0.33333333       0.18572635 </v>
    <v>       0.33333333       0.33333333       0.18572635 </v>
    <v>       0.66666667       0.00000000       0.18572635 </v>
    <v>      -0.00000000       0.00000000       0.18572635 </v>
    <v>       0.33333333       0.00000000       0.18572635 </v>
    <v>       0.66666667       0.66666667       0.18572635 </v>
    <v>      -0.00000000       0.66666667       0.18572635 </v>
    <v>       0.33333333       0.66666667       0.18572635 </v>
    <v>       0.44444444       0.55555556       0.24835684 </v>
    <v>       0.77777778       0.55555556       0.24835684 </v>
    <v>       0.11111111       0.55555556       0.24835684 </v>
    <v>       0.44444444       0.22222222       0.24835684 </v>
    <v>       0.77777778       0.22222222       0.24835684 </v>
    <v>       0.11111111       0.22222222       0.24835684 </v>
    <v>       0.44444444       0.88888889       0.24835684 </v>
    <v>       0.77777778       0.88888889       0.24835684 </v>
    <v>       0.11111111       0.88888889       0.24835684 </v>
    <v>       0.22222222       0.77777778       0.31098733 </v>
    <v>       0.55555556       0.77777778       0.31098733 </v>
    <v>       0.88888889       0.77777778       0.31098733 </v>
    <v>       0.22222222       0.44444444       0.31098733 </v>
    <v>       0.55555556       0.44444444       0.31098733 </v>
    <v>       0.88888889       0.44444444       0.31098733 </v>
    <v>       0.22222222       0.11111111       0.31098733 </v>
    <v>       0.55555556       0.11111111       0.31098733 </v>
    <v>       0.88888889       0.11111111       0.31098733 </v>
    <v>      -0.00000000       0.00000000       0.37184028 </v>
    <v>       0.33333333       0.00000000       0.37184028 </v>
    <v>       0.66666667       0.00000000       0.37184028 </v>
    <v>      -0.00000000       0.66666667       0.37184028 </v>
    <v>       0.33333333       0.66666667       0.37184028 </v>
    <v>       0.66666667       0.66666667       0.37184028 </v>
    <v>      -0.00000000       0.33333333       0.37184028 </v>
    <v>       0.33333333       0.33333333       0.37184028 </v>
    <v>       0.66666667       0.33333333       0.37184028 </v>
    <v>       0.77777778       0.22222222       0.43472467 </v>
    <v>       0.11111111       0.22222222       0.43472467 </v>
    <v>       0.44444444       0.22222222       0.43472467 </v>
    <v>       0.77777778       0.88888889       0.43472467 </v>
    <v>       0.11111111       0.88888889       0.43472467 </v>
    <v>       0.44444444       0.88888889       0.43472467 </v>
    <v>       0.77777778       0.55555556       0.43472467 </v>
    <v>       0.11111111       0.55555556       0.43472467 </v>
    <v>       0.44444444       0.55555556       0.43472467 </v>
    <v>      -0.00000000       0.00000000       0.47318621 </v>
    <v>       0.75000000       0.00000000       0.47318621 </v>
    <v>       0.50000000       0.00000000       0.47318621 </v>
    <v>       0.25000000       0.00000000       0.47318621 </v>
    <v>      -0.00000000       0.25000000       0.47318621 </v>
    <v>       0.75000000       0.25000000       0.47318621 </v>
    <v>       0.50000000       0.25000000       0.47318621 </v>
    <v>       0.25000000       0.25000000       0.47318621 </v>
    <v>      -0.00000000       0.50000000       0.47318621 </v>
    <v>       0.75000000       0.50000000       0.47318621 </v>
    <v>       0.50000000       0.50000000       0.47318621 </v>
    <v>       0.25000000       0.50000000       0.47318621 </v>
    <v>      -0.00000000       0.75000000       0.47318621 </v>
    <v>       0.75000000       0.75000000       0.47318621 </v>
    <v>       0.50000000       0.75000000       0.47318621 </v>
    <v>       0.25000000       0.75000000       0.47318621 </v>
   </varray>
  </structure>
  <varray name="primitive_index" >
   <v type="int" >        1 </v>
   <v type="int" >      190 </v>
   <v type="int" >      191 </v>
   <v type="int" >      127 </v>
   <v type="int" >       64 </v>
   <v type="int" >       65 </v>
   <v type="int" >      130 </v>
   <v type="int" >       67 </v>
   <v type="int" >       68 </v>
   <v type="int" >       10 </v>
   <v type="int" >      199 </v>
   <v type="int" >       12 </v>
   <v type="int" >      136 </v>
   <v type="int" >       73 </v>
   <v type="int" >      138 </v>
   <v type="int" >       16 </v>
   <v type="int" >      205 </v>
   <v type="int" >       18 </v>
   <v type="int" >       19 </v>
   <v type="int" >      208 </v>
   <v type="int" >       21 </v>
   <v type="int" >      145 </v>
   <v type="int" >       82 </v>
   <v type="int" >      147 </v>
   <v type="int" >       25 </v>
   <v type="int" >      214 </v>
   <v type="int" >       27 </v>
   <v type="int" >       99 </v>
   <v type="int" >       97 </v>
   <v type="int" >      162 </v>
   <v type="int" >       93 </v>
   <v type="int" >       91 </v>
   <v type="int" >      156 </v>
   <v type="int" >      225 </v>
   <v type="int" >      223 </v>
   <v type="int" >       36 </v>
   <v type="int" >      108 </v>
   <v type="int" >      170 </v>
   <v type="int" >      171 </v>
   <v type="int" >      231 </v>
   <v type="int" >       41 </v>
   <v type="int" >       42 </v>
   <v type="int" >      234 </v>
   <v type="int" >       44 </v>
   <v type="int" >       45 </v>
   <v type="int" >      117 </v>
   <v type="int" >      179 </v>
   <v type="int" >      180 </v>
   <v type="int" >      240 </v>
   <v type="int" >       50 </v>
   <v type="int" >       51 </v>
   <v type="int" >      243 </v>
   <v type="int" >       53 </v>
   <v type="int" >       54 </v>
   <v type="int" >      126 </v>
   <v type="int" >      188 </v>
   <v type="int" >      125 </v>
   <v type="int" >      249 </v>
   <v type="int" >       59 </v>
   <v type="int" >      248 </v>
   <v type="int" >      123 </v>
   <v type="int" >      185 </v>
   <v type="int" >      122 </v>
   <v type="int" >      289 </v>
   <v type="int" >      290 </v>
   <v type="int" >      287 </v>
   <v type="int" >      288 </v>
   <v type="int" >      297 </v>
   <v type="int" >      298 </v>
   <v type="int" >      295 </v>
   <v type="int" >      296 </v>
   <v type="int" >      273 </v>
   <v type="int" >      274 </v>
   <v type="int" >      271 </v>
   <v type="int" >      272 </v>
   <v type="int" >      281 </v>
   <v type="int" >      282 </v>
   <v type="int" >      279 </v>
   <v type="int" >      280 </v>
  </varray>
 </primitive_cell>
 <kpoints>
  <generation param="Gamma">
   <v type="int" name="divisions">       2        2        1 </v>
   <v name="usershift">      0.00000000       0.00000000       0.00000000 </v>
   <v name="genvec1">      0.50000000      -0.00000000       0.00000000 </v>
   <v name="genvec2">      0.00000000       0.50000000       0.00000000 </v>
   <v name="genvec3">      0.00000000       0.00000000       1.00000000 </v>
   <v name="shift">      0.00000000       0.00000000       0.00000000 </v>
  </generation>
  <varray name="kpointlist" >
   <v>       0.00000000       0.00000000       0.00000000 </v>
   <v>       0.50000000       0.00000000       0.00000000 </v>
  </varray>
  <varray name="weights" >
   <v>       0.25000000 </v>
   <v>       0.75000000 </v>
  </varray>
 </kpoints>
 <parameters>
  <separator name="general" >
   <i type="string" name="SYSTEM">NiAl</i>
   <i type="logical" name="LCOMPAT"> F  </i>
  </separator>
  <separator name="electronic" >
   <i type="string" name="PREC">normal</i>
   <i name="ENMAX">    360.00000000</i>
   <i name="ENAUG">   1139.60900000</i>
   <i name="EDIFF">      0.00000500</i>
   <i type="int" name="IALGO">    38</i>
   <i type="int" name="IWAVPR">    11</i>
   <i type="int" name="NBANDS">  1742</i>
   <i type="int" name="NBANDSLOW">    -1</i>
   <i type="int" name="NBANDSHIGH">    -1</i>
   <i name="NELECT">   2904.00000000</i>
   <i type="int" name="TURBO">     0</i>
   <i type="int" name="IRESTART">     0</i>
   <i type="int" name="NREBOOT">     0</i>
   <i type="int" name="NMIN">     0</i>
   <i name="EREF">      0.00000000</i>
   <separator name="electronic smearing" >
    <i type="int" name="ISMEAR">     0</i>
    <i name="SIGMA">      0.05000000</i>
    <i name="KSPACING">      0.50000000</i>
    <i type="logical" name="KGAMMA"> T  </i>
    <i type="logical" name="KBLOWUP"> T  </i>
   </separator>
   <separator name="electronic projectors" >
    <i type="logical" name="LREAL"> T  </i>
    <v name="ROPT">     -0.00050000     -0.00050000</v>
    <i type="int" name="LMAXPAW">  -100</i>
    <i type="int" name="LMAXMIX">     2</i>
    <i type="logical" name="NLSPLINE"> F  </i>
   </separator>
   <separator name="electronic startup" >
    <i type="int" name="ISTART">     0</i>
    <i type="int" name="ICHARG">     2</i>
    <i type="int" name="INIWAV">     1</i>
   </separator>
   <separator name="electronic spin" >
    <i type="int" name="ISPIN">     1</i>
    <i type="logical" name="LNONCOLLINEAR"> F  </i>
    <v name="MAGMOM">      1.00000000      1.00000000      1.00000000      1.00000000      1.00000000      1.00000000      1.00000000      1.00000000      1.00000000      1.00000000      1.00000000      1.00000000      1.00000000      1.00000000      1.00000000      1.00000000      1.00000000      1.00000000      1.00000000      1.00000000
      1.00000000      1.00000000      1.00000000      1.00000000      1.00000000      1.00000000      1.00000000      1.00000000      1.00000000      1.00000000      1.00000000      1.00000000      1.00000000      1.00000000      1.00000000      1.00000000      1.00000000      1.00000000      1.00000000      1.00000000
      1.00000000      1.00000000      1.00000000      1.00000000      1.00000000      1.00000000      1.00000000      1.00000000      1.00000000      1.00000000      1.00000000      1.00000000      1.00000000      1.00000000      1.00000000      1.00000000      1.00000000      1.00000000      1.00000000      1.00000000
      1.00000000      1.00000000      1.00000000      1.00000000      1.00000000      1.00000000      1.00000000      1.00000000      1.00000000      1.00000000      1.00000000      1.00000000      1.00000000      1.00000000      1.00000000      1.00000000      1.00000000      1.00000000      1.00000000      1.00000000
      1.00000000      1.00000000      1.00000000      1.00000000      1.00000000      1.00000000      1.00000000      1.00000000      1.00000000      1.00000000      1.00000000      1.00000000      1.00000000      1.00000000      1.00000000      1.00000000      1.00000000      1.00000000      1.00000000      1.00000000
      1.00000000      1.00000000      1.00000000      1.00000000      1.00000000      1.00000000      1.00000000      1.00000000      1.00000000      1.00000000      1.00000000      1.00000000      1.00000000      1.00000000      1.00000000      1.00000000      1.00000000      1.00000000      1.00000000      1.00000000
      1.00000000      1.00000000      1.00000000      1.00000000      1.00000000      1.00000000      1.00000000      1.00000000      1.00000000      1.00000000      1.00000000      1.00000000      1.00000000      1.00000000      1.00000000      1.00000000      1.00000000      1.00000000      1.00000000      1.00000000
      1.00000000      1.00000000      1.00000000      1.00000000      1.00000000      1.00000000      1.00000000      1.00000000      1.00000000      1.00000000      1.00000000      1.00000000      1.00000000      1.00000000      1.00000000      1.00000000      1.00000000      1.00000000      1.00000000      1.00000000
      1.00000000      1.00000000      1.00000000      1.00000000      1.00000000      1.00000000      1.00000000      1.00000000      1.00000000      1.00000000      1.00000000      1.00000000      1.00000000      1.00000000      1.00000000      1.00000000      1.00000000      1.00000000      1.00000000      1.00000000
      1.00000000      1.00000000      1.00000000      1.00000000      1.00000000      1.00000000      1.00000000      1.00000000      1.00000000      1.00000000      1.00000000      1.00000000      1.00000000      1.00000000      1.00000000      1.00000000      1.00000000      1.00000000      1.00000000      1.00000000
      1.00000000      1.00000000      1.00000000      1.00000000      1.00000000      1.00000000      1.00000000      1.00000000      1.00000000      1.00000000      1.00000000      1.00000000      1.00000000      1.00000000      1.00000000      1.00000000      1.00000000      1.00000000      1.00000000      1.00000000
      1.00000000      1.00000000      1.00000000      1.00000000      1.00000000      1.00000000      1.00000000      1.00000000      1.00000000      1.00000000      1.00000000      1.00000000      1.00000000      1.00000000      1.00000000      1.00000000      1.00000000      1.00000000      1.00000000      1.00000000
      1.00000000      1.00000000      1.00000000      1.00000000      1.00000000      1.00000000      1.00000000      1.00000000      1.00000000      1.00000000      1.00000000      1.00000000      1.00000000      1.00000000      1.00000000      1.00000000      1.00000000      1.00000000      1.00000000      1.00000000
      1.00000000      1.00000000      1.00000000      1.00000000      1.00000000      1.00000000      1.00000000      1.00000000      1.00000000      1.00000000      1.00000000      1.00000000      1.00000000      1.00000000      1.00000000      1.00000000      1.00000000      1.00000000      1.00000000      1.00000000
      1.00000000      1.00000000      1.00000000      1.00000000      1.00000000      1.00000000      1.00000000      1.00000000      1.00000000      1.00000000      1.00000000      1.00000000      1.00000000      1.00000000      1.00000000      1.00000000      1.00000000      1.00000000      1.00000000      1.00000000
      1.00000000      1.00000000      1.00000000      1.00000000      1.00000000      1.00000000      1.00000000      1.00000000      1.00000000      1.00000000      1.00000000      1.00000000      1.00000000      1.00000000      1.00000000      1.00000000</v>
    <i name="NUPDOWN">     -1.00000000</i>
    <i type="logical" name="LSORBIT"> F  </i>
    <v name="SAXIS">      0.00000000      0.00000000      1.00000000</v>
    <i type="logical" name="LSPIRAL"> F  </i>
    <v name="QSPIRAL">      0.00000000      0.00000000      0.00000000</v>
    <i type="logical" name="LZEROZ"> F  </i>
   </separator>
   <separator name="electronic exchange-correlation" >
    <i type="logical" name="LASPH"> F  </i>
    <i type="logical" name="LMETAGGA"> F  </i>
   </separator>
   <separator name="electronic convergence" >
    <i type="int" name="NELM">    60</i>
    <i type="int" name="NELMDL">    -5</i>
    <i type="int" name="NELMIN">     6</i>
    <i name="ENINI">    360.00000000</i>
    <separator name="electronic convergence detail" >
     <i type="logical" name="LDIAG"> T  </i>
     <i type="logical" name="LSUBROT"> F  </i>
     <i name="WEIMIN">      0.00100000</i>
     <i name="EBREAK">      0.00000000</i>
     <i name="DEPER">      0.30000000</i>
     <i type="int" name="NRMM">     4</i>
     <i name="TIME">      0.40000000</i>
    </separator>
   </separator>
   <separator name="electronic mixer" >
    <i name="AMIX">      0.40000000</i>
    <i name="BMIX">      1.00000000</i>
    <i name="AMIN">      0.10000000</i>
    <i name="AMIX_MAG">      1.60000000</i>
    <i name="BMIX_MAG">      1.00000000</i>
    <separator name="electronic mixer details" >
     <i type="int" name="IMIX">     4</i>
     <i type="logical" name="MIXFIRST"> F  </i>
     <i type="int" name="MAXMIX">   -45</i>
     <i name="WC">    100.00000000</i>
     <i type="int" name="INIMIX">     1</i>
     <i type="int" name="MIXPRE">     1</i>
     <i type="int" name="MREMOVE">     5</i>
    </separator>
   </separator>
   <separator name="electronic dipolcorrection" >
    <i type="logical" name="LDIPOL"> F  </i>
    <i type="logical" name="LMONO"> F  </i>
    <i type="int" name="IDIPOL">     0</i>
    <i name="EPSILON">      1.00000000</i>
    <v name="DIPOL">   -100.00000000   -100.00000000   -100.00000000</v>
    <i name="EFIELD">      0.00000000</i>
   </separator>
  </separator>
  <separator name="grids" >
   <i type="int" name="NGX">    70</i>
   <i type="int" name="NGY">    70</i>
   <i type="int" name="NGZ">   180</i>
   <i type="int" name="NGXF">   140</i>
   <i type="int" name="NGYF">   140</i>
   <i type="int" name="NGZF">   360</i>
   <i type="logical" name="ADDGRID"> F  </i>
  </separator>
  <separator name="ionic" >
   <i type="int" name="NSW">    40</i>
   <i type="int" name="IBRION">     2</i>
   <i type="int" name="MDALGO">     0</i>
   <i type="int" name="ISIF">     0</i>
   <i name="PSTRESS">      0.00000000</i>
   <i name="EDIFFG">      0.00005000</i>
   <i type="int" name="NFREE">     1</i>
   <i name="POTIM">      0.20000000</i>
   <i name="SMASS">     -3.00000000</i>
   <i name="SCALEE">      1.00000000</i>
  </separator>
  <separator name="ionic md" >
   <i name="TEBEG">      0.00010000</i>
   <i name="TEEND">      0.00010000</i>
   <i type="int" name="NBLOCK">     1</i>
   <i type="int" name="KBLOCK">    40</i>
   <i type="int" name="NPACO">   256</i>
   <i name="APACO">     16.00000000</i>
  </separator>
  <separator name="symmetry" >
   <i type="int" name="ISYM">     2</i>
   <i name="SYMPREC">      0.00001000</i>
  </separator>
  <separator name="dos" >
   <i type="int" name="LORBIT">     0</i>
   <v name="RWIGS">     -1.00000000     -1.00000000</v>
   <i type="int" name="NEDOS">   301</i>
   <i name="EMIN">     10.00000000</i>
   <i name="EMAX">    -10.00000000</i>
   <i name="EFERMI">      0.00000000</i>
  </separator>
  <separator name="writing" >
   <i type="int" name="NWRITE">     2</i>
   <i type="logical" name="LWAVE"> F  </i>
   <i type="logical" name="LDOWNSAMPLE"> F  </i>
   <i type="logical" name="LCHARG"> F  </i>
   <i type="logical" name="LPARD"> F  </i>
   <i type="logical" name="LVTOT"> F  </i>
   <i type="logical" name="LVHAR"> F  </i>
   <i type="logical" name="LELF"> F  </i>
   <i type="logical" name="LOPTICS"> F  </i>
   <v name="STM">      0.00000000      0.00000000      0.00000000      0.00000000      0.00000000      0.00000000      0.00000000</v>
  </separator>
  <separator name="performance" >
   <i type="int" name="NPAR">     1</i>
   <i type="int" name="NSIM">     4</i>
   <i type="int" name="NBLK">    -1</i>
   <i type="logical" name="LPLANE"> T  </i>
   <i type="logical" name="LSCALAPACK"> T  </i>
   <i type="logical" name="LSCAAWARE"> F  </i>
   <i type="logical" name="LSCALU"> F  </i>
   <i type="logical" name="LASYNC"> F  </i>
   <i type="logical" name="LORBITALREAL"> F  </i>
  </separator>
  <separator name="miscellaneous" >
   <i type="int" name="IDIOT">     3</i>
   <i type="int" name="PHON_NSTRUCT">    -1</i>
   <i type="logical" name="LMUSIC"> F  </i>
   <v name="POMASS">     58.69000000     16.00000000</v>
   <v name="DARWINR">      0.00000000      0.00000000</v>
   <v name="DARWINV">      1.00000000      1.00000000</v>
   <i type="logical" name="LCORR"> T  </i>
  </separator>
  <i type="logical" name="GGA_COMPAT"> T  </i>
  <i type="logical" name="LBERRY"> F  </i>
  <i type="int" name="ICORELEVEL">     0</i>
  <i type="logical" name="LDAU"> F  </i>
  <i type="int" name="I_CONSTRAINED_M">     0</i>
  <separator name="electronic exchange-correlation" >
   <i type="string" name="GGA">--</i>
   <i type="int" name="VOSKOWN">     0</i>
   <i type="logical" name="LHFCALC"> F  </i>
   <i type="string" name="PRECFOCK"></i>
   <i type="logical" name="LSYMGRAD"> F  </i>
   <i type="logical" name="LHFONE"> F  </i>
   <i type="logical" name="LRHFCALC"> F  </i>
   <i type="logical" name="LTHOMAS"> F  </i>
   <i type="logical" name="LMODELHF"> F  </i>
   <i type="logical" name="LFOCKACE"> F  </i>
   <i name="ENCUT4O">     -1.00000000</i>
   <i type="int" name="EXXOEP">     0</i>
   <i type="int" name="FOURORBIT">     0</i>
   <i name="AEXX">      0.00000000</i>
   <i name="HFALPHA">      0.00000000</i>
   <i name="MCALPHA">      0.00000000</i>
   <i name="ALDAX">      1.00000000</i>
   <i name="AGGAX">      1.00000000</i>
   <i name="ALDAC">      1.00000000</i>
   <i name="AGGAC">      1.00000000</i>
   <i type="int" name="NKREDX">     1</i>
   <i type="int" name="NKREDY">     1</i>
   <i type="int" name="NKREDZ">     1</i>
   <i type="logical" name="SHIFTRED"> F  </i>
   <i type="logical" name="ODDONLY"> F  </i>
   <i type="logical" name="EVENONLY"> F  </i>
   <i type="int" name="LMAXFOCK">     0</i>
   <i type="int" name="NMAXFOCKAE">     0</i>
   <i type="logical" name="LFOCKAEDFT"> F  </i>
   <i name="HFSCREEN">      0.00000000</i>
   <i name="HFSCREENC">      0.00000000</i>
   <i type="int" name="NBANDSGWLOW">     0</i>
  </separator>
  <separator name="vdW DFT" >
   <i type="logical" name="LUSE_VDW"> F  </i>
   <i name="Zab_VDW">     -0.84910000</i>
   <i name="PARAM1">      0.12340000</i>
   <i name="PARAM2">      1.00000000</i>
   <i name="PARAM3">      0.00000000</i>
  </separator>
  <separator name="model GW" >
   <i type="int" name="MODEL_GW">     0</i>
   <i name="MODEL_EPS0">     13.73108341</i>
   <i name="MODEL_ALPHA">      1.00000000</i>
  </separator>
  <separator name="linear response parameters" >
   <i type="logical" name="LEPSILON"> F  </i>
   <i type="logical" name="LRPA"> F  </i>
   <i type="logical" name="LNABLA"> F  </i>
   <i type="logical" name="LVEL"> F  </i>
   <i type="int" name="KINTER">     0</i>
   <i name="CSHIFT">      0.10000000</i>
   <i name="OMEGAMAX">     -1.00000000</i>
   <i name="DEG_THRESHOLD">      0.00200000</i>
   <i name="RTIME">     -0.10000000</i>
   <i name="WPLASMAI">      0.00000000</i>
   <v name="DFIELD">      0.00000000      0.00000000      0.00000000</v>
   <v name="WPLASMA">      0.00000000      0.00000000      0.00000000      0.00000000      0.00000000      0.00000000      0.00000000      0.00000000      0.00000000</v>
  </separator>
  <separator name="orbital magnetization" >
   <i type="logical" name="NUCIND"> F  </i>
   <v name="MAGPOS">      0.00000000      0.00000000      0.00000000</v>
   <i type="logical" name="LNICSALL"> T  </i>
   <i type="logical" name="ORBITALMAG"> F  </i>
   <i type="logical" name="LMAGBLOCH"> F  </i>
   <i type="logical" name="LCHIMAG"> F  </i>
   <i type="logical" name="LGAUGE"> T  </i>
   <i type="int" name="MAGATOM">     0</i>
   <v name="MAGDIPOL">      0.00000000      0.00000000      0.00000000</v>
   <v name="AVECCONST">      0.00000000      0.00000000      0.00000000</v>
  </separator>
  <separator name="response functions" >
   <i type="logical" name="LFINITE_TEMPERATURE"> F  </i>
   <i type="logical" name="LADDER"> F  </i>
   <i type="logical" name="LRPAFORCE"> F  </i>
   <i type="logical" name="LFXC"> F  </i>
   <i type="logical" name="LHARTREE"> T  </i>
   <i type="int" name="IBSE">     0</i>
   <v type="int" name="KPOINT">    -1     0     0     0</v>
   <i type="logical" name="LTCTC"> F  </i>
   <i type="logical" name="LTCTE"> F  </i>
   <i type="logical" name="LTETE"> F  </i>
   <i type="logical" name="LTRIPLET"> F  </i>
   <i type="logical" name="LFXCEPS"> F  </i>
   <i type="logical" name="LFXHEG"> F  </i>
   <i type="int" name="NATURALO">     2</i>
   <i type="logical" name="LHOLEGF"> F  </i>
   <i type="logical" name="L2ORDER"> F  </i>
   <i type="logical" name="LDMP1"> F  </i>
   <i type="logical" name="LMP2LT"> F  </i>
   <i type="logical" name="LSMP2LT"> F  </i>
   <i type="logical" name="LGWLF"> F  </i>
   <i name="ENCUTGW">     -2.00000000</i>
   <i name="ENCUTGWSOFT">     -2.00000000</i>
   <i name="ENCUTLF">     -1.00000000</i>
   <i type="logical" name="LESF_SPLINES"> F  </i>
   <i type="int" name="LMAXMP2">    -1</i>
   <i name="SCISSOR">      0.00000000</i>
   <i type="int" name="NOMEGA">     0</i>
   <i type="int" name="NOMEGAR">     0</i>
   <i type="int" name="NBANDSGW">    -1</i>
   <i type="int" name="NBANDSO">    -1</i>
   <i type="int" name="NBANDSV">    -1</i>
   <i type="int" name="NELM">     1</i>
   <i type="int" name="NELMHF">     1</i>
   <i type="int" name="DIM">     3</i>
   <i type="int" name="IESPILON">     4</i>
   <i type="int" name="ANTIRES">     0</i>
   <i name="OMEGAMAX">    -30.00000000</i>
   <i name="OMEGAMIN">    -30.00000000</i>
   <i name="OMEGATL">   -200.00000000</i>
   <i type="int" name="OMEGAGRID">     0</i>
   <i name="CSHIFT">     -0.10000000</i>
   <i type="logical" name="LSELFENERGY"> F  </i>
   <i type="logical" name="LSPECTRAL"> F  </i>
   <i type="logical" name="LSPECTRALGW"> F  </i>
   <i type="logical" name="LSINGLES"> F  </i>
   <i type="logical" name="LFERMIGW"> F  </i>
   <i type="logical" name="ODDONLYGW"> F  </i>
   <i type="logical" name="EVENONLYGW"> F  </i>
   <i type="int" name="NKREDLFX">     1</i>
   <i type="int" name="NKREDLFY">     1</i>
   <i type="int" name="NKREDLFZ">     1</i>
   <i type="int" name="MAXMEM">  2800</i>
   <i type="int" name="TELESCOPE">     0</i>
   <i type="int" name="NTAUPAR">    -1</i>
   <i type="int" name="NOMEGAPAR">    -1</i>
   <i name="DAMP_NEWTON">      0.80000001</i>
   <i name="LAMBDA">      1.00000000</i>
  </separator>
  <separator name="External order field" >
   <i name="OFIELD_KAPPA">      0.00000000</i>
   <v name="OFIELD_K">      0.00000000      0.00000000      0.00000000</v>
   <i name="OFIELD_Q6_NEAR">      0.00000000</i>
   <i name="OFIELD_Q6_FAR">      0.00000000</i>
   <i name="OFIELD_A">      0.00000000</i>
  </separator>
 </parameters>
 <atominfo>
  <atoms>     316 </atoms>
  <types>       2 </types>
  <array name="atoms" >
   <dimension dim="1">ion</dimension>
   <field type="string">element</field>
   <field type="int">atomtype</field>
   <set>
    <rc><c>Ni</c><c>   1</c></rc>
    <rc><c>Ni</c><c>   1</c></rc>
    <rc><c>Ni</c><c>   1</c></rc>
    <rc><c>Ni</c><c>   1</c></rc>
    <rc><c>Ni</c><c>   1</c></rc>
    <rc><c>Ni</c><c>   1</c></rc>
    <rc><c>Ni</c><c>   1</c></rc>
    <rc><c>Ni</c><c>   1</c></rc>
    <rc><c>Ni</c><c>   1</c></rc>
    <rc><c>Ni</c><c>   1</c></rc>
    <rc><c>Ni</c><c>   1</c></rc>
    <rc><c>Ni</c><c>   1</c></rc>
    <rc><c>Ni</c><c>   1</c></rc>
    <rc><c>Ni</c><c>   1</c></rc>
    <rc><c>Ni</c><c>   1</c></rc>
    <rc><c>Ni</c><c>   1</c></rc>
    <rc><c>Ni</c><c>   1</c></rc>
    <rc><c>Ni</c><c>   1</c></rc>
    <rc><c>Ni</c><c>   1</c></rc>
    <rc><c>Ni</c><c>   1</c></rc>
    <rc><c>Ni</c><c>   1</c></rc>
    <rc><c>Ni</c><c>   1</c></rc>
    <rc><c>Ni</c><c>   1</c></rc>
    <rc><c>Ni</c><c>   1</c></rc>
    <rc><c>Ni</c><c>   1</c></rc>
    <rc><c>Ni</c><c>   1</c></rc>
    <rc><c>Ni</c><c>   1</c></rc>
    <rc><c>Ni</c><c>   1</c></rc>
    <rc><c>Ni</c><c>   1</c></rc>
    <rc><c>Ni</c><c>   1</c></rc>
    <rc><c>Ni</c><c>   1</c></rc>
    <rc><c>Ni</c><c>   1</c></rc>
    <rc><c>Ni</c><c>   1</c></rc>
    <rc><c>Ni</c><c>   1</c></rc>
    <rc><c>Ni</c><c>   1</c></rc>
    <rc><c>Ni</c><c>   1</c></rc>
    <rc><c>Ni</c><c>   1</c></rc>
    <rc><c>Ni</c><c>   1</c></rc>
    <rc><c>Ni</c><c>   1</c></rc>
    <rc><c>Ni</c><c>   1</c></rc>
    <rc><c>Ni</c><c>   1</c></rc>
    <rc><c>Ni</c><c>   1</c></rc>
    <rc><c>Ni</c><c>   1</c></rc>
    <rc><c>Ni</c><c>   1</c></rc>
    <rc><c>Ni</c><c>   1</c></rc>
    <rc><c>Ni</c><c>   1</c></rc>
    <rc><c>Ni</c><c>   1</c></rc>
    <rc><c>Ni</c><c>   1</c></rc>
    <rc><c>Ni</c><c>   1</c></rc>
    <rc><c>Ni</c><c>   1</c></rc>
    <rc><c>Ni</c><c>   1</c></rc>
    <rc><c>Ni</c><c>   1</c></rc>
    <rc><c>Ni</c><c>   1</c></rc>
    <rc><c>Ni</c><c>   1</c></rc>
    <rc><c>Ni</c><c>   1</c></rc>
    <rc><c>Ni</c><c>   1</c></rc>
    <rc><c>Ni</c><c>   1</c></rc>
    <rc><c>Ni</c><c>   1</c></rc>
    <rc><c>Ni</c><c>   1</c></rc>
    <rc><c>Ni</c><c>   1</c></rc>
    <rc><c>Ni</c><c>   1</c></rc>
    <rc><c>Ni</c><c>   1</c></rc>
    <rc><c>Ni</c><c>   1</c></rc>
    <rc><c>Ni</c><c>   1</c></rc>
    <rc><c>Ni</c><c>   1</c></rc>
    <rc><c>Ni</c><c>   1</c></rc>
    <rc><c>Ni</c><c>   1</c></rc>
    <rc><c>Ni</c><c>   1</c></rc>
    <rc><c>Ni</c><c>   1</c></rc>
    <rc><c>Ni</c><c>   1</c></rc>
    <rc><c>Ni</c><c>   1</c></rc>
    <rc><c>Ni</c><c>   1</c></rc>
    <rc><c>Ni</c><c>   1</c></rc>
    <rc><c>Ni</c><c>   1</c></rc>
    <rc><c>Ni</c><c>   1</c></rc>
    <rc><c>Ni</c><c>   1</c></rc>
    <rc><c>Ni</c><c>   1</c></rc>
    <rc><c>Ni</c><c>   1</c></rc>
    <rc><c>Ni</c><c>   1</c></rc>
    <rc><c>Ni</c><c>   1</c></rc>
    <rc><c>Ni</c><c>   1</c></rc>
    <rc><c>Ni</c><c>   1</c></rc>
    <rc><c>Ni</c><c>   1</c></rc>
    <rc><c>Ni</c><c>   1</c></rc>
    <rc><c>Ni</c><c>   1</c></rc>
    <rc><c>Ni</c><c>   1</c></rc>
    <rc><c>Ni</c><c>   1</c></rc>
    <rc><c>Ni</c><c>   1</c></rc>
    <rc><c>Ni</c><c>   1</c></rc>
    <rc><c>Ni</c><c>   1</c></rc>
    <rc><c>Ni</c><c>   1</c></rc>
    <rc><c>Ni</c><c>   1</c></rc>
    <rc><c>Ni</c><c>   1</c></rc>
    <rc><c>Ni</c><c>   1</c></rc>
    <rc><c>Ni</c><c>   1</c></rc>
    <rc><c>Ni</c><c>   1</c></rc>
    <rc><c>Ni</c><c>   1</c></rc>
    <rc><c>Ni</c><c>   1</c></rc>
    <rc><c>Ni</c><c>   1</c></rc>
    <rc><c>Ni</c><c>   1</c></rc>
    <rc><c>Ni</c><c>   1</c></rc>
    <rc><c>Ni</c><c>   1</c></rc>
    <rc><c>Ni</c><c>   1</c></rc>
    <rc><c>Ni</c><c>   1</c></rc>
    <rc><c>Ni</c><c>   1</c></rc>
    <rc><c>Ni</c><c>   1</c></rc>
    <rc><c>Ni</c><c>   1</c></rc>
    <rc><c>Ni</c><c>   1</c></rc>
    <rc><c>Ni</c><c>   1</c></rc>
    <rc><c>Ni</c><c>   1</c></rc>
    <rc><c>Ni</c><c>   1</c></rc>
    <rc><c>Ni</c><c>   1</c></rc>
    <rc><c>Ni</c><c>   1</c></rc>
    <rc><c>Ni</c><c>   1</c></rc>
    <rc><c>Ni</c><c>   1</c></rc>
    <rc><c>Ni</c><c>   1</c></rc>
    <rc><c>Ni</c><c>   1</c></rc>
    <rc><c>Ni</c><c>   1</c></rc>
    <rc><c>Ni</c><c>   1</c></rc>
    <rc><c>Ni</c><c>   1</c></rc>
    <rc><c>Ni</c><c>   1</c></rc>
    <rc><c>Ni</c><c>   1</c></rc>
    <rc><c>Ni</c><c>   1</c></rc>
    <rc><c>Ni</c><c>   1</c></rc>
    <rc><c>Ni</c><c>   1</c></rc>
    <rc><c>Ni</c><c>   1</c></rc>
    <rc><c>Ni</c><c>   1</c></rc>
    <rc><c>Ni</c><c>   1</c></rc>
    <rc><c>Ni</c><c>   1</c></rc>
    <rc><c>Ni</c><c>   1</c></rc>
    <rc><c>Ni</c><c>   1</c></rc>
    <rc><c>Ni</c><c>   1</c></rc>
    <rc><c>Ni</c><c>   1</c></rc>
    <rc><c>Ni</c><c>   1</c></rc>
    <rc><c>Ni</c><c>   1</c></rc>
    <rc><c>Ni</c><c>   1</c></rc>
    <rc><c>Ni</c><c>   1</c></rc>
    <rc><c>Ni</c><c>   1</c></rc>
    <rc><c>Ni</c><c>   1</c></rc>
    <rc><c>Ni</c><c>   1</c></rc>
    <rc><c>Ni</c><c>   1</c></rc>
    <rc><c>Ni</c><c>   1</c></rc>
    <rc><c>Ni</c><c>   1</c></rc>
    <rc><c>Ni</c><c>   1</c></rc>
    <rc><c>Ni</c><c>   1</c></rc>
    <rc><c>Ni</c><c>   1</c></rc>
    <rc><c>Ni</c><c>   1</c></rc>
    <rc><c>Ni</c><c>   1</c></rc>
    <rc><c>Ni</c><c>   1</c></rc>
    <rc><c>Ni</c><c>   1</c></rc>
    <rc><c>Ni</c><c>   1</c></rc>
    <rc><c>Ni</c><c>   1</c></rc>
    <rc><c>Ni</c><c>   1</c></rc>
    <rc><c>Ni</c><c>   1</c></rc>
    <rc><c>Ni</c><c>   1</c></rc>
    <rc><c>Ni</c><c>   1</c></rc>
    <rc><c>Ni</c><c>   1</c></rc>
    <rc><c>Ni</c><c>   1</c></rc>
    <rc><c>Ni</c><c>   1</c></rc>
    <rc><c>Ni</c><c>   1</c></rc>
    <rc><c>Ni</c><c>   1</c></rc>
    <rc><c>Ni</c><c>   1</c></rc>
    <rc><c>Ni</c><c>   1</c></rc>
    <rc><c>Ni</c><c>   1</c></rc>
    <rc><c>Ni</c><c>   1</c></rc>
    <rc><c>Ni</c><c>   1</c></rc>
    <rc><c>Ni</c><c>   1</c></rc>
    <rc><c>Ni</c><c>   1</c></rc>
    <rc><c>Ni</c><c>   1</c></rc>
    <rc><c>Ni</c><c>   1</c></rc>
    <rc><c>Ni</c><c>   1</c></rc>
    <rc><c>Ni</c><c>   1</c></rc>
    <rc><c>Ni</c><c>   1</c></rc>
    <rc><c>Ni</c><c>   1</c></rc>
    <rc><c>Ni</c><c>   1</c></rc>
    <rc><c>Ni</c><c>   1</c></rc>
    <rc><c>Ni</c><c>   1</c></rc>
    <rc><c>Ni</c><c>   1</c></rc>
    <rc><c>Ni</c><c>   1</c></rc>
    <rc><c>Ni</c><c>   1</c></rc>
    <rc><c>Ni</c><c>   1</c></rc>
    <rc><c>Ni</c><c>   1</c></rc>
    <rc><c>Ni</c><c>   1</c></rc>
    <rc><c>Ni</c><c>   1</c></rc>
    <rc><c>Ni</c><c>   1</c></rc>
    <rc><c>Ni</c><c>   1</c></rc>
    <rc><c>Ni</c><c>   1</c></rc>
    <rc><c>Ni</c><c>   1</c></rc>
    <rc><c>Ni</c><c>   1</c></rc>
    <rc><c>Ni</c><c>   1</c></rc>
    <rc><c>Ni</c><c>   1</c></rc>
    <rc><c>Ni</c><c>   1</c></rc>
    <rc><c>Ni</c><c>   1</c></rc>
    <rc><c>Ni</c><c>   1</c></rc>
    <rc><c>Ni</c><c>   1</c></rc>
    <rc><c>Ni</c><c>   1</c></rc>
    <rc><c>Ni</c><c>   1</c></rc>
    <rc><c>Ni</c><c>   1</c></rc>
    <rc><c>Ni</c><c>   1</c></rc>
    <rc><c>Ni</c><c>   1</c></rc>
    <rc><c>Ni</c><c>   1</c></rc>
    <rc><c>Ni</c><c>   1</c></rc>
    <rc><c>Ni</c><c>   1</c></rc>
    <rc><c>Ni</c><c>   1</c></rc>
    <rc><c>Ni</c><c>   1</c></rc>
    <rc><c>Ni</c><c>   1</c></rc>
    <rc><c>Ni</c><c>   1</c></rc>
    <rc><c>Ni</c><c>   1</c></rc>
    <rc><c>Ni</c><c>   1</c></rc>
    <rc><c>Ni</c><c>   1</c></rc>
    <rc><c>Ni</c><c>   1</c></rc>
    <rc><c>Ni</c><c>   1</c></rc>
    <rc><c>Ni</c><c>   1</c></rc>
    <rc><c>Ni</c><c>   1</c></rc>
    <rc><c>Ni</c><c>   1</c></rc>
    <rc><c>Ni</c><c>   1</c></rc>
    <rc><c>Ni</c><c>   1</c></rc>
    <rc><c>Ni</c><c>   1</c></rc>
    <rc><c>Ni</c><c>   1</c></rc>
    <rc><c>Ni</c><c>   1</c></rc>
    <rc><c>Ni</c><c>   1</c></rc>
    <rc><c>Ni</c><c>   1</c></rc>
    <rc><c>Ni</c><c>   1</c></rc>
    <rc><c>Ni</c><c>   1</c></rc>
    <rc><c>Ni</c><c>   1</c></rc>
    <rc><c>Ni</c><c>   1</c></rc>
    <rc><c>Ni</c><c>   1</c></rc>
    <rc><c>Ni</c><c>   1</c></rc>
    <rc><c>Ni</c><c>   1</c></rc>
    <rc><c>Ni</c><c>   1</c></rc>
    <rc><c>Ni</c><c>   1</c></rc>
    <rc><c>Ni</c><c>   1</c></rc>
    <rc><c>Ni</c><c>   1</c></rc>
    <rc><c>Ni</c><c>   1</c></rc>
    <rc><c>Ni</c><c>   1</c></rc>
    <rc><c>Ni</c><c>   1</c></rc>
    <rc><c>Ni</c><c>   1</c></rc>
    <rc><c>Ni</c><c>   1</c></rc>
    <rc><c>Ni</c><c>   1</c></rc>
    <rc><c>Ni</c><c>   1</c></rc>
    <rc><c>Ni</c><c>   1</c></rc>
    <rc><c>Ni</c><c>   1</c></rc>
    <rc><c>Ni</c><c>   1</c></rc>
    <rc><c>Ni</c><c>   1</c></rc>
    <rc><c>Ni</c><c>   1</c></rc>
    <rc><c>Ni</c><c>   1</c></rc>
    <rc><c>Ni</c><c>   1</c></rc>
    <rc><c>Ni</c><c>   1</c></rc>
    <rc><c>Ni</c><c>   1</c></rc>
    <rc><c>Ni</c><c>   1</c></rc>
    <rc><c>Ni</c><c>   1</c></rc>
    <rc><c>Ni</c><c>   1</c></rc>
    <rc><c>O </c><c>   2</c></rc>
    <rc><c>O </c><c>   2</c></rc>
    <rc><c>O </c><c>   2</c></rc>
    <rc><c>O </c><c>   2</c></rc>
    <rc><c>O </c><c>   2</c></rc>
    <rc><c>O </c><c>   2</c></rc>
    <rc><c>O </c><c>   2</c></rc>
    <rc><c>O </c><c>   2</c></rc>
    <rc><c>O </c><c>   2</c></rc>
    <rc><c>O </c><c>   2</c></rc>
    <rc><c>O </c><c>   2</c></rc>
    <rc><c>O </c><c>   2</c></rc>
    <rc><c>O </c><c>   2</c></rc>
    <rc><c>O </c><c>   2</c></rc>
    <rc><c>O </c><c>   2</c></rc>
    <rc><c>O </c><c>   2</c></rc>
    <rc><c>O </c><c>   2</c></rc>
    <rc><c>O </c><c>   2</c></rc>
    <rc><c>O </c><c>   2</c></rc>
    <rc><c>O </c><c>   2</c></rc>
    <rc><c>O </c><c>   2</c></rc>
    <rc><c>O </c><c>   2</c></rc>
    <rc><c>O </c><c>   2</c></rc>
    <rc><c>O </c><c>   2</c></rc>
    <rc><c>O </c><c>   2</c></rc>
    <rc><c>O </c><c>   2</c></rc>
    <rc><c>O </c><c>   2</c></rc>
    <rc><c>O </c><c>   2</c></rc>
    <rc><c>O </c><c>   2</c></rc>
    <rc><c>O </c><c>   2</c></rc>
    <rc><c>O </c><c>   2</c></rc>
    <rc><c>O </c><c>   2</c></rc>
    <rc><c>O </c><c>   2</c></rc>
    <rc><c>O </c><c>   2</c></rc>
    <rc><c>O </c><c>   2</c></rc>
    <rc><c>O </c><c>   2</c></rc>
    <rc><c>O </c><c>   2</c></rc>
    <rc><c>O </c><c>   2</c></rc>
    <rc><c>O </c><c>   2</c></rc>
    <rc><c>O </c><c>   2</c></rc>
    <rc><c>O </c><c>   2</c></rc>
    <rc><c>O </c><c>   2</c></rc>
    <rc><c>O </c><c>   2</c></rc>
    <rc><c>O </c><c>   2</c></rc>
    <rc><c>O </c><c>   2</c></rc>
    <rc><c>O </c><c>   2</c></rc>
    <rc><c>O </c><c>   2</c></rc>
    <rc><c>O </c><c>   2</c></rc>
    <rc><c>O </c><c>   2</c></rc>
    <rc><c>O </c><c>   2</c></rc>
    <rc><c>O </c><c>   2</c></rc>
    <rc><c>O </c><c>   2</c></rc>
    <rc><c>O </c><c>   2</c></rc>
    <rc><c>O </c><c>   2</c></rc>
    <rc><c>O </c><c>   2</c></rc>
    <rc><c>O </c><c>   2</c></rc>
    <rc><c>O </c><c>   2</c></rc>
    <rc><c>O </c><c>   2</c></rc>
    <rc><c>O </c><c>   2</c></rc>
    <rc><c>O </c><c>   2</c></rc>
    <rc><c>O </c><c>   2</c></rc>
    <rc><c>O </c><c>   2</c></rc>
    <rc><c>O </c><c>   2</c></rc>
    <rc><c>O </c><c>   2</c></rc>
   </set>
  </array>
  <array name="atomtypes" >
   <dimension dim="1">type</dimension>
   <field type="int">atomspertype</field>
   <field type="string">element</field>
   <field>mass</field>
   <field>valence</field>
   <field type="string">pseudopotential</field>
   <set>
    <rc><c> 252</c><c>Ni</c><c>     58.69000000</c><c>     10.00000000</c><c>  PAW Ni_GW 31Mar2010                   </c></rc>
    <rc><c>  64</c><c>O </c><c>     16.00000000</c><c>      6.00000000</c><c>  PAW O_GW 19Mar2012                    </c></rc>
   </set>
  </array>
 </atominfo>
 <structure name="initialpos" >
  <crystal>
   <varray name="basis" >
    <v>      15.14622176       0.00000000       0.00000000 </v>
    <v>       7.57311088      13.11701281       0.00000000 </v>
    <v>       0.00000000       0.00000000      36.40000000 </v>
   </varray>
   <i name="volume">   7231.70393039 </i>
   <varray name="rec_basis" >
    <v>       0.06602307      -0.03811843       0.00000000 </v>
    <v>       0.00000000       0.07623687       0.00000000 </v>
    <v>       0.00000000       0.00000000       0.02747253 </v>
   </varray>
  </crystal>
  <varray name="positions" >
   <v>       0.44444444       0.44444444       0.06198901 </v>
   <v>       0.44444444       0.77777778       0.06198901 </v>
   <v>       0.44444444       0.11111111       0.06198901 </v>
   <v>       0.77777778       0.44444444       0.06198901 </v>
   <v>       0.77777778       0.77777778       0.06198901 </v>
   <v>       0.77777778       0.11111111       0.06198901 </v>
   <v>       0.11111111       0.44444444       0.06198901 </v>
   <v>       0.11111111       0.77777778       0.06198901 </v>
   <v>       0.11111111       0.11111111       0.06198901 </v>
   <v>       0.55555556       0.55555556       0.12487340 </v>
   <v>       0.55555556       0.88888889       0.12487340 </v>
   <v>       0.55555556       0.22222222       0.12487340 </v>
   <v>       0.88888889       0.55555556       0.12487340 </v>
   <v>       0.88888889       0.88888889       0.12487340 </v>
   <v>       0.88888889       0.22222222       0.12487340 </v>
   <v>       0.22222222       0.55555556       0.12487340 </v>
   <v>       0.22222222       0.88888889       0.12487340 </v>
   <v>       0.22222222       0.22222222       0.12487340 </v>
   <v>       0.66666667       0.66666667       0.18572635 </v>
   <v>       0.66666667       0.00000000       0.18572635 </v>
   <v>       0.66666667       0.33333333       0.18572635 </v>
   <v>       0.00000000       0.66666667       0.18572635 </v>
   <v>       0.00000000       0.00000000       0.18572635 </v>
   <v>       0.00000000       0.33333333       0.18572635 </v>
   <v>       0.33333333       0.66666667       0.18572635 </v>
   <v>       0.33333333       0.00000000       0.18572635 </v>
   <v>       0.33333333       0.33333333       0.18572635 </v>
   <v>       0.77777778       0.77777778       0.24835684 </v>
   <v>       0.77777778       0.11111111       0.24835684 </v>
   <v>       0.77777778       0.44444444       0.24835684 </v>
   <v>       0.11111111       0.77777778       0.24835684 </v>
   <v>       0.11111111       0.11111111       0.24835684 </v>
   <v>       0.11111111       0.44444444       0.24835684 </v>
   <v>       0.44444444       0.77777778       0.24835684 </v>
   <v>       0.44444444       0.11111111       0.24835684 </v>
   <v>       0.44444444       0.44444444       0.24835684 </v>
   <v>       0.88888889       0.88888889       0.31098733 </v>
   <v>       0.88888889       0.22222222       0.31098733 </v>
   <v>       0.88888889       0.55555556       0.31098733 </v>
   <v>       0.22222222       0.88888889       0.31098733 </v>
   <v>       0.22222222       0.22222222       0.31098733 </v>
   <v>       0.22222222       0.55555556       0.31098733 </v>
   <v>       0.55555556       0.88888889       0.31098733 </v>
   <v>       0.55555556       0.22222222       0.31098733 </v>
   <v>       0.55555556       0.55555556       0.31098733 </v>
   <v>       0.00000000       0.00000000       0.37184028 </v>
   <v>       0.00000000       0.33333333       0.37184028 </v>
   <v>       0.00000000       0.66666667       0.37184028 </v>
   <v>       0.33333333       0.00000000       0.37184028 </v>
   <v>       0.33333333       0.33333333       0.37184028 </v>
   <v>       0.33333333       0.66666667       0.37184028 </v>
   <v>       0.66666667       0.00000000       0.37184028 </v>
   <v>       0.66666667       0.33333333       0.37184028 </v>
   <v>       0.66666667       0.66666667       0.37184028 </v>
   <v>       0.11111111       0.11111111       0.43472467 </v>
   <v>       0.11111111       0.44444444       0.43472467 </v>
   <v>       0.11111111       0.77777778       0.43472467 </v>
   <v>       0.44444444       0.11111111       0.43472467 </v>
   <v>       0.44444444       0.44444444       0.43472467 </v>
   <v>       0.44444444       0.77777778       0.43472467 </v>
   <v>       0.77777778       0.11111111       0.43472467 </v>
   <v>       0.77777778       0.44444444       0.43472467 </v>
   <v>       0.77777778       0.77777778       0.43472467 </v>
   <v>       0.27777778       0.27777778       0.06198901 </v>
   <v>       0.27777778       0.61111111       0.06198901 </v>
   <v>       0.27777778       0.94444444       0.06198901 </v>
   <v>       0.61111111       0.27777778       0.06198901 </v>
   <v>       0.61111111       0.61111111       0.06198901 </v>
   <v>       0.61111111       0.94444444       0.06198901 </v>
   <v>       0.94444444       0.27777778       0.06198901 </v>
   <v>       0.94444444       0.61111111       0.06198901 </v>
   <v>       0.94444444       0.94444444       0.06198901 </v>
   <v>       0.38888889       0.38888889       0.12487340 </v>
   <v>       0.38888889       0.72222222       0.12487340 </v>
   <v>       0.38888889       0.05555556       0.12487340 </v>
   <v>       0.72222222       0.38888889       0.12487340 </v>
   <v>       0.72222222       0.72222222       0.12487340 </v>
   <v>       0.72222222       0.05555556       0.12487340 </v>
   <v>       0.05555556       0.38888889       0.12487340 </v>
   <v>       0.05555556       0.72222222       0.12487340 </v>
   <v>       0.05555556       0.05555556       0.12487340 </v>
   <v>       0.50000000       0.50000000       0.18572635 </v>
   <v>       0.50000000       0.83333333       0.18572635 </v>
   <v>       0.50000000       0.16666667       0.18572635 </v>
   <v>       0.83333333       0.50000000       0.18572635 </v>
   <v>       0.83333333       0.83333333       0.18572635 </v>
   <v>       0.83333333       0.16666667       0.18572635 </v>
   <v>       0.16666667       0.50000000       0.18572635 </v>
   <v>       0.16666667       0.83333333       0.18572635 </v>
   <v>       0.16666667       0.16666667       0.18572635 </v>
   <v>       0.61111111       0.61111111       0.24835684 </v>
   <v>       0.61111111       0.94444444       0.24835684 </v>
   <v>       0.61111111       0.27777778       0.24835684 </v>
   <v>       0.94444444       0.61111111       0.24835684 </v>
   <v>       0.94444444       0.94444444       0.24835684 </v>
   <v>       0.94444444       0.27777778       0.24835684 </v>
   <v>       0.27777778       0.61111111       0.24835684 </v>
   <v>       0.27777778       0.94444444       0.24835684 </v>
   <v>       0.27777778       0.27777778       0.24835684 </v>
   <v>       0.72222222       0.72222222       0.31098733 </v>
   <v>       0.72222222       0.05555556       0.31098733 </v>
   <v>       0.72222222       0.38888889       0.31098733 </v>
   <v>       0.05555556       0.72222222       0.31098733 </v>
   <v>       0.05555556       0.05555556       0.31098733 </v>
   <v>       0.05555556       0.38888889       0.31098733 </v>
   <v>       0.38888889       0.72222222       0.31098733 </v>
   <v>       0.38888889       0.05555556       0.31098733 </v>
   <v>       0.38888889       0.38888889       0.31098733 </v>
   <v>       0.83333333       0.83333333       0.37184028 </v>
   <v>       0.83333333       0.16666667       0.37184028 </v>
   <v>       0.83333333       0.50000000       0.37184028 </v>
   <v>       0.16666667       0.83333333       0.37184028 </v>
   <v>       0.16666667       0.16666667       0.37184028 </v>
   <v>       0.16666667       0.50000000       0.37184028 </v>
   <v>       0.50000000       0.83333333       0.37184028 </v>
   <v>       0.50000000       0.16666667       0.37184028 </v>
   <v>       0.50000000       0.50000000       0.37184028 </v>
   <v>       0.94444444       0.94444444       0.43472467 </v>
   <v>       0.94444444       0.27777778       0.43472467 </v>
   <v>       0.94444444       0.61111111       0.43472467 </v>
   <v>       0.27777778       0.94444444       0.43472467 </v>
   <v>       0.27777778       0.27777778       0.43472467 </v>
   <v>       0.27777778       0.61111111       0.43472467 </v>
   <v>       0.61111111       0.94444444       0.43472467 </v>
   <v>       0.61111111       0.27777778       0.43472467 </v>
   <v>       0.61111111       0.61111111       0.43472467 </v>
   <v>       0.27777778       0.44444444       0.06198901 </v>
   <v>       0.27777778       0.77777778       0.06198901 </v>
   <v>       0.27777778       0.11111111       0.06198901 </v>
   <v>       0.61111111       0.44444444       0.06198901 </v>
   <v>       0.61111111       0.77777778       0.06198901 </v>
   <v>       0.61111111       0.11111111       0.06198901 </v>
   <v>       0.94444444       0.44444444       0.06198901 </v>
   <v>       0.94444444       0.77777778       0.06198901 </v>
   <v>       0.94444444       0.11111111       0.06198901 </v>
   <v>       0.38888889       0.55555556       0.12487340 </v>
   <v>       0.38888889       0.88888889       0.12487340 </v>
   <v>       0.38888889       0.22222222       0.12487340 </v>
   <v>       0.72222222       0.55555556       0.12487340 </v>
   <v>       0.72222222       0.88888889       0.12487340 </v>
   <v>       0.72222222       0.22222222       0.12487340 </v>
   <v>       0.05555556       0.55555556       0.12487340 </v>
   <v>       0.05555556       0.88888889       0.12487340 </v>
   <v>       0.05555556       0.22222222       0.12487340 </v>
   <v>       0.50000000       0.66666667       0.18572635 </v>
   <v>       0.50000000       0.00000000       0.18572635 </v>
   <v>       0.50000000       0.33333333       0.18572635 </v>
   <v>       0.83333333       0.66666667       0.18572635 </v>
   <v>       0.83333333       0.00000000       0.18572635 </v>
   <v>       0.83333333       0.33333333       0.18572635 </v>
   <v>       0.16666667       0.66666667       0.18572635 </v>
   <v>       0.16666667       0.00000000       0.18572635 </v>
   <v>       0.16666667       0.33333333       0.18572635 </v>
   <v>       0.61111111       0.77777778       0.24835684 </v>
   <v>       0.61111111       0.11111111       0.24835684 </v>
   <v>       0.61111111       0.44444444       0.24835684 </v>
   <v>       0.94444444       0.77777778       0.24835684 </v>
   <v>       0.94444444       0.11111111       0.24835684 </v>
   <v>       0.94444444       0.44444444       0.24835684 </v>
   <v>       0.27777778       0.77777778       0.24835684 </v>
   <v>       0.27777778       0.11111111       0.24835684 </v>
   <v>       0.27777778       0.44444444       0.24835684 </v>
   <v>       0.72222222       0.88888889       0.31098733 </v>
   <v>       0.72222222       0.22222222       0.31098733 </v>
   <v>       0.72222222       0.55555556       0.31098733 </v>
   <v>       0.05555556       0.88888889       0.31098733 </v>
   <v>       0.05555556       0.22222222       0.31098733 </v>
   <v>       0.05555556       0.55555556       0.31098733 </v>
   <v>       0.38888889       0.88888889       0.31098733 </v>
   <v>       0.38888889       0.22222222       0.31098733 </v>
   <v>       0.38888889       0.55555556       0.31098733 </v>
   <v>       0.83333333       0.00000000       0.37184028 </v>
   <v>       0.83333333       0.33333333       0.37184028 </v>
   <v>       0.83333333       0.66666667       0.37184028 </v>
   <v>       0.16666667       0.00000000       0.37184028 </v>
   <v>       0.16666667       0.33333333       0.37184028 </v>
   <v>       0.16666667       0.66666667       0.37184028 </v>
   <v>       0.50000000       0.00000000       0.37184028 </v>
   <v>       0.50000000       0.33333333       0.37184028 </v>
   <v>       0.50000000       0.66666667       0.37184028 </v>
   <v>       0.94444444       0.11111111       0.43472467 </v>
   <v>       0.94444444       0.44444444       0.43472467 </v>
   <v>       0.94444444       0.77777778       0.43472467 </v>
   <v>       0.27777778       0.11111111       0.43472467 </v>
   <v>       0.27777778       0.44444444       0.43472467 </v>
   <v>       0.27777778       0.77777778       0.43472467 </v>
   <v>       0.61111111       0.11111111       0.43472467 </v>
   <v>       0.61111111       0.44444444       0.43472467 </v>
   <v>       0.61111111       0.77777778       0.43472467 </v>
   <v>       0.44444444       0.27777778       0.06198901 </v>
   <v>       0.44444444       0.61111111       0.06198901 </v>
   <v>       0.44444444       0.94444444       0.06198901 </v>
   <v>       0.77777778       0.27777778       0.06198901 </v>
   <v>       0.77777778       0.61111111       0.06198901 </v>
   <v>       0.77777778       0.94444444       0.06198901 </v>
   <v>       0.11111111       0.27777778       0.06198901 </v>
   <v>       0.11111111       0.61111111       0.06198901 </v>
   <v>       0.11111111       0.94444444       0.06198901 </v>
   <v>       0.55555556       0.38888889       0.12487340 </v>
   <v>       0.55555556       0.72222222       0.12487340 </v>
   <v>       0.55555556       0.05555556       0.12487340 </v>
   <v>       0.88888889       0.38888889       0.12487340 </v>
   <v>       0.88888889       0.72222222       0.12487340 </v>
   <v>       0.88888889       0.05555556       0.12487340 </v>
   <v>       0.22222222       0.38888889       0.12487340 </v>
   <v>       0.22222222       0.72222222       0.12487340 </v>
   <v>       0.22222222       0.05555556       0.12487340 </v>
   <v>       0.66666667       0.50000000       0.18572635 </v>
   <v>       0.66666667       0.83333333       0.18572635 </v>
   <v>       0.66666667       0.16666667       0.18572635 </v>
   <v>       0.00000000       0.50000000       0.18572635 </v>
   <v>       0.00000000       0.83333333       0.18572635 </v>
   <v>       0.00000000       0.16666667       0.18572635 </v>
   <v>       0.33333333       0.50000000       0.18572635 </v>
   <v>       0.33333333       0.83333333       0.18572635 </v>
   <v>       0.33333333       0.16666667       0.18572635 </v>
   <v>       0.77777778       0.61111111       0.24835684 </v>
   <v>       0.77777778       0.94444444       0.24835684 </v>
   <v>       0.77777778       0.27777778       0.24835684 </v>
   <v>       0.11111111       0.61111111       0.24835684 </v>
   <v>       0.11111111       0.94444444       0.24835684 </v>
   <v>       0.11111111       0.27777778       0.24835684 </v>
   <v>       0.44444444       0.61111111       0.24835684 </v>
   <v>       0.44444444       0.94444444       0.24835684 </v>
   <v>       0.44444444       0.27777778       0.24835684 </v>
   <v>       0.88888889       0.72222222       0.31098733 </v>
   <v>       0.88888889       0.05555556       0.31098733 </v>
   <v>       0.88888889       0.38888889       0.31098733 </v>
   <v>       0.22222222       0.72222222       0.31098733 </v>
   <v>       0.22222222       0.05555556       0.31098733 </v>
   <v>       0.22222222       0.38888889       0.31098733 </v>
   <v>       0.55555556       0.72222222       0.31098733 </v>
   <v>       0.55555556       0.05555556       0.31098733 </v>
   <v>       0.55555556       0.38888889       0.31098733 </v>
   <v>       0.00000000       0.83333333       0.37184028 </v>
   <v>       0.00000000       0.16666667       0.37184028 </v>
   <v>       0.00000000       0.50000000       0.37184028 </v>
   <v>       0.33333333       0.83333333       0.37184028 </v>
   <v>       0.33333333       0.16666667       0.37184028 </v>
   <v>       0.33333333       0.50000000       0.37184028 </v>
   <v>       0.66666667       0.83333333       0.37184028 </v>
   <v>       0.66666667       0.16666667       0.37184028 </v>
   <v>       0.66666667       0.50000000       0.37184028 </v>
   <v>       0.11111111       0.94444444       0.43472467 </v>
   <v>       0.11111111       0.27777778       0.43472467 </v>
   <v>       0.11111111       0.61111111       0.43472467 </v>
   <v>       0.44444444       0.94444444       0.43472467 </v>
   <v>       0.44444444       0.27777778       0.43472467 </v>
   <v>       0.44444444       0.61111111       0.43472467 </v>
   <v>       0.77777778       0.94444444       0.43472467 </v>
   <v>       0.77777778       0.27777778       0.43472467 </v>
   <v>       0.77777778       0.61111111       0.43472467 </v>
   <v>       0.00000000       0.00000000       0.47318621 </v>
   <v>       0.00000000       0.12500000       0.47318621 </v>
   <v>       0.00000000       0.25000000       0.47318621 </v>
   <v>       0.00000000       0.37500000       0.47318621 </v>
   <v>       0.00000000       0.50000000       0.47318621 </v>
   <v>       0.00000000       0.62500000       0.47318621 </v>
   <v>       0.00000000       0.75000000       0.47318621 </v>
   <v>       0.00000000       0.87500000       0.47318621 </v>
   <v>       0.12500000       0.00000000       0.47318621 </v>
   <v>       0.12500000       0.12500000       0.47318621 </v>
   <v>       0.12500000       0.25000000       0.47318621 </v>
   <v>       0.12500000       0.37500000       0.47318621 </v>
   <v>       0.12500000       0.50000000       0.47318621 </v>
   <v>       0.12500000       0.62500000       0.47318621 </v>
   <v>       0.12500000       0.75000000       0.47318621 </v>
   <v>       0.12500000       0.87500000       0.47318621 </v>
   <v>       0.25000000       0.00000000       0.47318621 </v>
   <v>       0.25000000       0.12500000       0.47318621 </v>
   <v>       0.25000000       0.25000000       0.47318621 </v>
   <v>       0.25000000       0.37500000       0.47318621 </v>
   <v>       0.25000000       0.50000000       0.47318621 </v>
   <v>       0.25000000       0.62500000       0.47318621 </v>
   <v>       0.25000000       0.75000000       0.47318621 </v>
   <v>       0.25000000       0.87500000       0.47318621 </v>
   <v>       0.37500000       0.00000000       0.47318621 </v>
   <v>       0.37500000       0.12500000       0.47318621 </v>
   <v>       0.37500000       0.25000000       0.47318621 </v>
   <v>       0.37500000       0.37500000       0.47318621 </v>
   <v>       0.37500000       0.50000000       0.47318621 </v>
   <v>       0.37500000       0.62500000       0.47318621 </v>
   <v>       0.37500000       0.75000000       0.47318621 </v>
   <v>       0.37500000       0.87500000       0.47318621 </v>
   <v>       0.50000000       0.00000000       0.47318621 </v>
   <v>       0.50000000       0.12500000       0.47318621 </v>
   <v>       0.50000000       0.25000000       0.47318621 </v>
   <v>       0.50000000       0.37500000       0.47318621 </v>
   <v>       0.50000000       0.50000000       0.47318621 </v>
   <v>       0.50000000       0.62500000       0.47318621 </v>
   <v>       0.50000000       0.75000000       0.47318621 </v>
   <v>       0.50000000       0.87500000       0.47318621 </v>
   <v>       0.62500000       0.00000000       0.47318621 </v>
   <v>       0.62500000       0.12500000       0.47318621 </v>
   <v>       0.62500000       0.25000000       0.47318621 </v>
   <v>       0.62500000       0.37500000       0.47318621 </v>
   <v>       0.62500000       0.50000000       0.47318621 </v>
   <v>       0.62500000       0.62500000       0.47318621 </v>
   <v>       0.62500000       0.75000000       0.47318621 </v>
   <v>       0.62500000       0.87500000       0.47318621 </v>
   <v>       0.75000000       0.00000000       0.47318621 </v>
   <v>       0.75000000       0.12500000       0.47318621 </v>
   <v>       0.75000000       0.25000000       0.47318621 </v>
   <v>       0.75000000       0.37500000       0.47318621 </v>
   <v>       0.75000000       0.50000000       0.47318621 </v>
   <v>       0.75000000       0.62500000       0.47318621 </v>
   <v>       0.75000000       0.75000000       0.47318621 </v>
   <v>       0.75000000       0.87500000       0.47318621 </v>
   <v>       0.87500000       0.00000000       0.47318621 </v>
   <v>       0.87500000       0.12500000       0.47318621 </v>
   <v>       0.87500000       0.25000000       0.47318621 </v>
   <v>       0.87500000       0.37500000       0.47318621 </v>
   <v>       0.87500000       0.50000000       0.47318621 </v>
   <v>       0.87500000       0.62500000       0.47318621 </v>
   <v>       0.87500000       0.75000000       0.47318621 </v>
   <v>       0.87500000       0.87500000       0.47318621 </v>
  </varray>
 </structure>
 <calculation>
  <scstep>
   <time name="dav">   24.68   24.69</time>
   <time name="total">   25.38   25.44</time>
   <energy>
    <i name="alphaZ">  11239.05055229 </i>
    <i name="ewald">2916868.85755265 </i>
    <i name="hartreedc">**************** </i>
    <i name="XCdc">   4562.12223030 </i>
    <i name="pawpsdc"> 262292.94557836 </i>
    <i name="pawaedc">-281802.73688913 </i>
    <i name="eentropy">     -0.18337219 </i>
    <i name="bandstr">  19557.81444231 </i>
    <i name="atom"> 299207.04023851 </i>
    <i name="e_fr_energy">  27648.82705849 </i>
    <i name="e_wo_entrp">  27649.01043068 </i>
    <i name="e_0_energy">  27648.91874458 </i>
   </energy>
  </scstep>
  <scstep>
   <time name="dav">   24.90   24.90</time>
   <time name="total">   24.90   24.90</time>
   <energy>
    <i name="e_fr_energy">   1850.64078613 </i>
    <i name="e_wo_entrp">   1850.78677239 </i>
    <i name="e_0_energy">   1850.71377926 </i>
   </energy>
  </scstep>
  <scstep>
   <time name="dav">   31.26   31.26</time>
   <time name="total">   31.26   31.26</time>
   <energy>
    <i name="e_fr_energy">  -1016.41403020 </i>
    <i name="e_wo_entrp">  -1015.89220253 </i>
    <i name="e_0_energy">  -1016.15311636 </i>
   </energy>
  </scstep>
  <scstep>
   <time name="dav">   42.33   42.33</time>
   <time name="total">   42.33   42.34</time>
   <energy>
    <i name="e_fr_energy">  -1633.36756715 </i>
    <i name="e_wo_entrp">  -1632.33448763 </i>
    <i name="e_0_energy">  -1632.85102739 </i>
   </energy>
  </scstep>
  <scstep>
   <time name="dav">   41.84   41.85</time>
   <time name="total">   43.32   43.33</time>
   <energy>
    <i name="e_fr_energy">  -1759.05984997 </i>
    <i name="e_wo_entrp">  -1757.93036631 </i>
    <i name="e_0_energy">  -1758.49510814 </i>
   </energy>
  </scstep>
  <scstep>
   <time name="dav">   30.39   30.40</time>
   <time name="total">   32.53   32.54</time>
   <energy>
    <i name="e_fr_energy">  -2412.55596134 </i>
    <i name="e_wo_entrp">  -2412.41230723 </i>
    <i name="e_0_energy">  -2412.48413428 </i>
   </energy>
  </scstep>
  <scstep>
   <time name="dav">   28.82   28.82</time>
   <time name="total">   30.96   30.96</time>
   <energy>
    <i name="e_fr_energy">  -2716.65120224 </i>
    <i name="e_wo_entrp">  -2715.89237629 </i>
    <i name="e_0_energy">  -2716.27178926 </i>
   </energy>
  </scstep>
  <scstep>
   <time name="dav">   37.14   37.15</time>
   <time name="total">   39.32   39.33</time>
   <energy>
    <i name="e_fr_energy">  -6577.61062900 </i>
    <i name="e_wo_entrp">  -6577.09412268 </i>
    <i name="e_0_energy">  -6577.35237584 </i>
   </energy>
  </scstep>
  <scstep>
   <time name="dav">   31.80   31.80</time>
   <time name="total">   33.93   33.94</time>
   <energy>
    <i name="e_fr_energy"> -10197.12998091 </i>
    <i name="e_wo_entrp"> -10197.06501444 </i>
    <i name="e_0_energy"> -10197.09749767 </i>
   </energy>
  </scstep>
  <scstep>
   <time name="dav">   34.37   34.37</time>
   <time name="total">   36.54   36.55</time>
   <energy>
    <i name="e_fr_energy">  -2748.35554127 </i>
    <i name="e_wo_entrp">  -2748.16759874 </i>
    <i name="e_0_energy">  -2748.26157001 </i>
   </energy>
  </scstep>
  <scstep>
   <time name="dav">   30.15   30.15</time>
   <time name="total">   32.31   32.31</time>
   <energy>
    <i name="e_fr_energy">  -2983.87967089 </i>
    <i name="e_wo_entrp">  -2983.78161176 </i>
    <i name="e_0_energy">  -2983.83064132 </i>
   </energy>
  </scstep>
  <scstep>
   <time name="dav">   39.33   39.34</time>
   <time name="total">   41.52   41.53</time>
   <energy>
    <i name="e_fr_energy">  -1905.30784340 </i>
    <i name="e_wo_entrp">  -1904.93327927 </i>
    <i name="e_0_energy">  -1905.12056133 </i>
   </energy>
  </scstep>
  <scstep>
   <time name="dav">   37.06   37.06</time>
   <time name="total">   39.25   39.25</time>
   <energy>
    <i name="e_fr_energy">  -2167.30785987 </i>
    <i name="e_wo_entrp">  -2167.02628607 </i>
    <i name="e_0_energy">  -2167.16707297 </i>
   </energy>
  </scstep>
  <scstep>
   <time name="dav">   29.98   29.98</time>
   <time name="total">   32.18   32.19</time>
   <energy>
    <i name="e_fr_energy">  -2389.56653019 </i>
    <i name="e_wo_entrp">  -2389.18110279 </i>
    <i name="e_0_energy">  -2389.37381649 </i>
   </energy>
  </scstep>
  <scstep>
   <time name="dav">   37.07   37.07</time>
   <time name="total">   39.29   39.30</time>
   <energy>
    <i name="e_fr_energy">  -2343.52948333 </i>
    <i name="e_wo_entrp">  -2343.16586582 </i>
    <i name="e_0_energy">  -2343.34767457 </i>
   </energy>
  </scstep>
  <scstep>
   <time name="dav">   28.66   28.67</time>
   <time name="total">   30.91   30.91</time>
   <energy>
    <i name="e_fr_energy">  -1809.84709631 </i>
    <i name="e_wo_entrp">  -1809.36446805 </i>
    <i name="e_0_energy">  -1809.60578218 </i>
   </energy>
  </scstep>
  <scstep>
   <time name="dav">   30.71   30.71</time>
   <time name="total">   32.94   32.94</time>
   <energy>
    <i name="e_fr_energy">  -1984.17235231 </i>
    <i name="e_wo_entrp">  -1983.70055128 </i>
    <i name="e_0_energy">  -1983.93645179 </i>
   </energy>
  </scstep>
  <scstep>
   <time name="dav">   28.61   28.61</time>
   <time name="total">   30.85   30.86</time>
   <energy>
    <i name="e_fr_energy">  -1874.95713397 </i>
    <i name="e_wo_entrp">  -1874.59696889 </i>
    <i name="e_0_energy">  -1874.77705143 </i>
   </energy>
  </scstep>
  <scstep>
   <time name="dav">   27.22   27.23</time>
   <time name="total">   29.49   29.49</time>
   <energy>
    <i name="e_fr_energy">  -1836.60175130 </i>
    <i name="e_wo_entrp">  -1836.08277263 </i>
    <i name="e_0_energy">  -1836.34226197 </i>
   </energy>
  </scstep>
  <scstep>
   <time name="dav">   30.88   30.89</time>
   <time name="total">   33.14   33.14</time>
   <energy>
    <i name="e_fr_energy">  -1837.47155897 </i>
    <i name="e_wo_entrp">  -1837.01543514 </i>
    <i name="e_0_energy">  -1837.24349705 </i>
   </energy>
  </scstep>
  <scstep>
   <time name="dav">   27.80   27.80</time>
   <time name="total">   30.07   30.07</time>
   <energy>
    <i name="e_fr_energy">  -1692.46074744 </i>
    <i name="e_wo_entrp">  -1691.84869012 </i>
    <i name="e_0_energy">  -1692.15471878 </i>
   </energy>
  </scstep>
  <scstep>
   <time name="dav">   29.45   29.46</time>
   <time name="total">   31.76   31.77</time>
   <energy>
    <i name="e_fr_energy">  -1723.22725161 </i>
    <i name="e_wo_entrp">  -1722.85957060 </i>
    <i name="e_0_energy">  -1723.04341110 </i>
   </energy>
  </scstep>
  <scstep>
   <time name="dav">   26.35   26.35</time>
   <time name="total">   28.65   28.66</time>
   <energy>
    <i name="e_fr_energy">  -1667.30935700 </i>
    <i name="e_wo_entrp">  -1666.83993639 </i>
    <i name="e_0_energy">  -1667.07464669 </i>
   </energy>
  </scstep>
  <scstep>
   <time name="dav">   32.76   32.76</time>
   <time name="total">   35.11   35.12</time>
   <energy>
    <i name="e_fr_energy">  -1605.60477522 </i>
    <i name="e_wo_entrp">  -1604.91442168 </i>
    <i name="e_0_energy">  -1605.25959845 </i>
   </energy>
  </scstep>
  <scstep>
   <time name="dav">   31.19   31.20</time>
   <time name="total">   33.53   33.54</time>
   <energy>
    <i name="e_fr_energy">  -1562.70934652 </i>
    <i name="e_wo_entrp">  -1561.87851464 </i>
    <i name="e_0_energy">  -1562.29393058 </i>
   </energy>
  </scstep>
  <scstep>
   <time name="dav">   31.76   31.76</time>
   <time name="total">   34.13   34.13</time>
   <energy>
    <i name="e_fr_energy">  -1556.11750102 </i>
    <i name="e_wo_entrp">  -1555.18724917 </i>
    <i name="e_0_energy">  -1555.65237510 </i>
   </energy>
  </scstep>
  <scstep>
   <time name="dav">   30.68   30.68</time>
   <time name="total">   33.06   33.07</time>
   <energy>
    <i name="e_fr_energy">  -1526.05579335 </i>
    <i name="e_wo_entrp">  -1525.36049859 </i>
    <i name="e_0_energy">  -1525.70814597 </i>
   </energy>
  </scstep>
  <scstep>
   <time name="dav">   28.53   28.54</time>
   <time name="total">   30.94   30.95</time>
   <energy>
    <i name="e_fr_energy">  -1515.95703410 </i>
    <i name="e_wo_entrp">  -1515.14839114 </i>
    <i name="e_0_energy">  -1515.55271262 </i>
   </energy>
  </scstep>
  <scstep>
   <time name="dav">   27.89   27.90</time>
   <time name="total">   30.31   30.32</time>
   <energy>
    <i name="e_fr_energy">  -1515.50796441 </i>
    <i name="e_wo_entrp">  -1514.85665081 </i>
    <i name="e_0_energy">  -1515.18230761 </i>
   </energy>
  </scstep>
  <scstep>
   <time name="dav">   26.66   26.66</time>
   <time name="total">   29.07   29.07</time>
   <energy>
    <i name="e_fr_energy">  -1513.58553433 </i>
    <i name="e_wo_entrp">  -1512.87549806 </i>
    <i name="e_0_energy">  -1513.23051620 </i>
   </energy>
  </scstep>
  <scstep>
   <time name="dav">   29.73   29.74</time>
   <time name="total">   32.22   32.22</time>
   <energy>
    <i name="e_fr_energy">  -1511.22317907 </i>
    <i name="e_wo_entrp">  -1510.46516721 </i>
    <i name="e_0_energy">  -1510.84417314 </i>
   </energy>
  </scstep>
  <scstep>
   <time name="dav">   30.37   30.37</time>
   <time name="total">   32.87   32.87</time>
   <energy>
    <i name="e_fr_energy">  -1494.50318967 </i>
    <i name="e_wo_entrp">  -1493.70518574 </i>
    <i name="e_0_energy">  -1494.10418770 </i>
   </energy>
  </scstep>
  <scstep>
   <time name="dav">   30.70   30.71</time>
   <time name="total">   33.19   33.19</time>
   <energy>
    <i name="e_fr_energy">  -1464.39544081 </i>
    <i name="e_wo_entrp">  -1463.48641420 </i>
    <i name="e_0_energy">  -1463.94092750 </i>
   </energy>
  </scstep>
  <scstep>
   <time name="dav">   31.84   31.85</time>
   <time name="total">   34.36   34.36</time>
   <energy>
    <i name="e_fr_energy">  -1458.92364256 </i>
    <i name="e_wo_entrp">  -1457.80041981 </i>
    <i name="e_0_energy">  -1458.36203119 </i>
   </energy>
  </scstep>
  <scstep>
   <time name="dav">   32.54   32.55</time>
   <time name="total">   35.11   35.12</time>
   <energy>
    <i name="e_fr_energy">  -1451.30336282 </i>
    <i name="e_wo_entrp">  -1450.15624691 </i>
    <i name="e_0_energy">  -1450.72980486 </i>
   </energy>
  </scstep>
  <scstep>
   <time name="dav">   29.57   29.57</time>
   <time name="total">   32.13   32.14</time>
   <energy>
    <i name="e_fr_energy">  -1449.74422985 </i>
    <i name="e_wo_entrp">  -1448.62675406 </i>
    <i name="e_0_energy">  -1449.18549195 </i>
   </energy>
  </scstep>
  <scstep>
   <time name="dav">   26.59   26.59</time>
   <time name="total">   29.20   29.20</time>
   <energy>
    <i name="e_fr_energy">  -1447.28066491 </i>
    <i name="e_wo_entrp">  -1446.06394154 </i>
    <i name="e_0_energy">  -1446.67230323 </i>
   </energy>
  </scstep>
  <scstep>
   <time name="dav">   26.68   26.69</time>
   <time name="total">   29.30   29.31</time>
   <energy>
    <i name="e_fr_energy">  -1447.43113951 </i>
    <i name="e_wo_entrp">  -1446.25098199 </i>
    <i name="e_0_energy">  -1446.84106075 </i>
   </energy>
  </scstep>
  <scstep>
   <time name="dav">   27.42   27.43</time>
   <time name="total">   30.06   30.06</time>
   <energy>
    <i name="e_fr_energy">  -1450.42816630 </i>
    <i name="e_wo_entrp">  -1449.25610723 </i>
    <i name="e_0_energy">  -1449.84213676 </i>
   </energy>
  </scstep>
  <scstep>
   <time name="dav">   33.17   33.18</time>
   <time name="total">   35.86   35.86</time>
   <energy>
    <i name="e_fr_energy">  -1455.66678870 </i>
    <i name="e_wo_entrp">  -1454.68371251 </i>
    <i name="e_0_energy">  -1455.17525060 </i>
   </energy>
  </scstep>
  <scstep>
   <time name="dav">   28.27   28.28</time>
   <time name="total">   30.98   30.98</time>
   <energy>
    <i name="e_fr_energy">  -1461.44347435 </i>
    <i name="e_wo_entrp">  -1460.63417102 </i>
    <i name="e_0_energy">  -1461.03882268 </i>
   </energy>
  </scstep>
  <scstep>
   <time name="dav">   27.24   27.25</time>
   <time name="total">   29.93   29.94</time>
   <energy>
    <i name="e_fr_energy">  -1459.43331424 </i>
    <i name="e_wo_entrp">  -1458.45739536 </i>
    <i name="e_0_energy">  -1458.94535480 </i>
   </energy>
  </scstep>
  <scstep>
   <time name="dav">   33.25   33.26</time>
   <time name="total">   36.02   36.03</time>
   <energy>
    <i name="e_fr_energy">  -1463.23267768 </i>
    <i name="e_wo_entrp">  -1462.35194669 </i>
    <i name="e_0_energy">  -1462.79231219 </i>
   </energy>
  </scstep>
  <scstep>
   <time name="dav">   29.33   29.33</time>
   <time name="total">   32.14   32.14</time>
   <energy>
    <i name="e_fr_energy">  -1462.24938218 </i>
    <i name="e_wo_entrp">  -1461.25283784 </i>
    <i name="e_0_energy">  -1461.75111001 </i>
   </energy>
  </scstep>
  <scstep>
   <time name="dav">   27.89   27.90</time>
   <time name="total">   30.69   30.70</time>
   <energy>
    <i name="e_fr_energy">  -1454.66143683 </i>
    <i name="e_wo_entrp">  -1453.56779598 </i>
    <i name="e_0_energy">  -1454.11461640 </i>
   </energy>
  </scstep>
  <scstep>
   <time name="dav">   29.97   29.97</time>
   <time name="total">   32.85   32.85</time>
   <energy>
    <i name="e_fr_energy">  -1452.50732313 </i>
    <i name="e_wo_entrp">  -1451.41624087 </i>
    <i name="e_0_energy">  -1451.96178200 </i>
   </energy>
  </scstep>
  <scstep>
   <time name="dav">   38.39   38.40</time>
   <time name="total">   41.28   41.28</time>
   <energy>
    <i name="e_fr_energy">  -1449.01528159 </i>
    <i name="e_wo_entrp">  -1447.91607147 </i>
    <i name="e_0_energy">  -1448.46567653 </i>
   </energy>
  </scstep>
  <scstep>
   <time name="dav">   31.09   31.10</time>
   <time name="total">   33.98   33.99</time>
   <energy>
    <i name="e_fr_energy">  -1448.86100790 </i>
    <i name="e_wo_entrp">  -1447.74948531 </i>
    <i name="e_0_energy">  -1448.30524660 </i>
   </energy>
  </scstep>
  <scstep>
   <time name="dav">   28.27   28.28</time>
   <time name="total">   31.23   31.24</time>
   <energy>
    <i name="e_fr_energy">  -1442.91818903 </i>
    <i name="e_wo_entrp">  -1441.68237398 </i>
    <i name="e_0_energy">  -1442.30028151 </i>
   </energy>
  </scstep>
  <scstep>
   <time name="dav">   28.15   28.15</time>
   <time name="total">   31.00   31.00</time>
   <energy>
    <i name="e_fr_energy">  -1443.29131656 </i>
    <i name="e_wo_entrp">  -1442.06225582 </i>
    <i name="e_0_energy">  -1442.67678619 </i>
   </energy>
  </scstep>
  <scstep>
   <time name="dav">   32.96   32.96</time>
   <time name="total">   35.80   35.80</time>
   <energy>
    <i name="e_fr_energy">  -1451.24773236 </i>
    <i name="e_wo_entrp">  -1450.39117690 </i>
    <i name="e_0_energy">  -1450.81945463 </i>
   </energy>
  </scstep>
  <scstep>
   <time name="dav">   39.06   39.07</time>
   <time name="total">   41.95   41.95</time>
   <energy>
    <i name="e_fr_energy">  -1444.49148513 </i>
    <i name="e_wo_entrp">  -1443.45711174 </i>
    <i name="e_0_energy">  -1443.97429844 </i>
   </energy>
  </scstep>
  <scstep>
   <time name="dav">   36.24   36.24</time>
   <time name="total">   39.19   39.20</time>
   <energy>
    <i name="e_fr_energy">  -1441.55558364 </i>
    <i name="e_wo_entrp">  -1440.38940274 </i>
    <i name="e_0_energy">  -1440.97249319 </i>
   </energy>
  </scstep>
  <scstep>
   <time name="dav">   32.95   32.95</time>
   <time name="total">   35.91   35.92</time>
   <energy>
    <i name="e_fr_energy">  -1441.24334868 </i>
    <i name="e_wo_entrp">  -1440.06596856 </i>
    <i name="e_0_energy">  -1440.65465862 </i>
   </energy>
  </scstep>
  <scstep>
   <time name="dav">   28.44   28.44</time>
   <time name="total">   31.34   31.34</time>
   <energy>
    <i name="e_fr_energy">  -1439.99995507 </i>
    <i name="e_wo_entrp">  -1438.78733485 </i>
    <i name="e_0_energy">  -1439.39364496 </i>
   </energy>
  </scstep>
  <scstep>
   <time name="dav">   40.54   40.54</time>
   <time name="total">   43.39   43.39</time>
   <energy>
    <i name="e_fr_energy">  -1439.34292233 </i>
    <i name="e_wo_entrp">  -1438.06766670 </i>
    <i name="e_0_energy">  -1438.70529452 </i>
   </energy>
  </scstep>
  <scstep>
   <time name="dav">   36.03   36.04</time>
   <time name="total">   38.90   38.90</time>
   <energy>
    <i name="e_fr_energy">  -1439.21555623 </i>
    <i name="e_wo_entrp">  -1437.93779741 </i>
    <i name="e_0_energy">  -1438.57667682 </i>
   </energy>
  </scstep>
  <scstep>
   <time name="dav">   38.66   38.67</time>
   <time name="total">   41.56   41.57</time>
   <energy>
    <i name="e_fr_energy">  -1439.06364414 </i>
    <i name="e_wo_entrp">  -1437.76413474 </i>
    <i name="e_0_energy">  -1438.41388944 </i>
   </energy>
  </scstep>
  <scstep>
   <time name="dav">   31.13   31.14</time>
   <time name="total">   34.08   34.08</time>
   <energy>
    <i name="e_fr_energy">  -1439.05992018 </i>
    <i name="e_wo_entrp">  -1437.76137591 </i>
    <i name="e_0_energy">  -1438.41064804 </i>
   </energy>
  </scstep>
  <scstep>
   <time name="dav">   27.75   27.75</time>
   <time name="total">   28.44   28.44</time>
   <energy>
    <i name="alphaZ">  11239.05055229 </i>
    <i name="ewald">2916868.85755265 </i>
    <i name="hartreedc">**************** </i>
    <i name="XCdc">   4389.31623257 </i>
    <i name="pawpsdc"> 333247.15886203 </i>
    <i name="pawaedc">-352958.67756411 </i>
    <i name="eentropy">     -1.29734879 </i>
    <i name="bandstr"> -11520.32732964 </i>
    <i name="atom"> 299207.04023851 </i>
    <i name="e_fr_energy">  -1439.05925954 </i>
    <i name="e_wo_entrp">  -1437.76191076 </i>
    <i name="e_0_energy">  -1438.41058515 </i>
   </energy>
  </scstep>
  <structure>
   <crystal>
    <varray name="basis" >
     <v>      15.14622176       0.00000000       0.00000000 </v>
     <v>       7.57311088      13.11701281       0.00000000 </v>
     <v>       0.00000000       0.00000000      36.40000000 </v>
    </varray>
    <i name="volume">   7231.70393039 </i>
    <varray name="rec_basis" >
     <v>       0.06602307      -0.03811843       0.00000000 </v>
     <v>       0.00000000       0.07623687       0.00000000 </v>
     <v>       0.00000000       0.00000000       0.02747253 </v>
    </varray>
   </crystal>
   <varray name="positions" >
    <v>       0.44444444       0.44444444       0.06198901 </v>
    <v>       0.44444444       0.77777778       0.06198901 </v>
    <v>       0.44444444       0.11111111       0.06198901 </v>
    <v>       0.77777778       0.44444444       0.06198901 </v>
    <v>       0.77777778       0.77777778       0.06198901 </v>
    <v>       0.77777778       0.11111111       0.06198901 </v>
    <v>       0.11111111       0.44444444       0.06198901 </v>
    <v>       0.11111111       0.77777778       0.06198901 </v>
    <v>       0.11111111       0.11111111       0.06198901 </v>
    <v>       0.55555556       0.55555556       0.12487340 </v>
    <v>       0.55555556       0.88888889       0.12487340 </v>
    <v>       0.55555556       0.22222222       0.12487340 </v>
    <v>       0.88888889       0.55555556       0.12487340 </v>
    <v>       0.88888889       0.88888889       0.12487340 </v>
    <v>       0.88888889       0.22222222       0.12487340 </v>
    <v>       0.22222222       0.55555556       0.12487340 </v>
    <v>       0.22222222       0.88888889       0.12487340 </v>
    <v>       0.22222222       0.22222222       0.12487340 </v>
    <v>       0.66666667       0.66666667       0.18572635 </v>
[...]
  </crystal>
  <varray name="positions" >
   <v>       0.44451555       0.44451555       0.08458492 </v>
   <v>       0.44444609       0.77777696       0.08463658 </v>
   <v>       0.44451555       0.11096889       0.08458492 </v>
   <v>       0.77777696       0.44444609       0.08463658 </v>
   <v>       0.77777696       0.77777696       0.08463658 </v>
   <v>       0.77774141       0.11112930       0.08451727 </v>
   <v>       0.11096889       0.44451555       0.08458492 </v>
   <v>       0.11112930       0.77774141       0.08451727 </v>
   <v>       0.11112930       0.11112930       0.08451727 </v>
   <v>       0.55552234       0.55552234       0.13927321 </v>
   <v>       0.55552234       0.88895532       0.13927321 </v>
   <v>       0.55563748       0.22218126       0.13918275 </v>
   <v>       0.88895532       0.55552234       0.13927321 </v>
   <v>       0.88886060       0.88886060       0.13905141 </v>
   <v>       0.88886060       0.22227880       0.13905141 </v>
   <v>       0.22218126       0.55563748       0.13918275 </v>
   <v>       0.22227880       0.88886060       0.13905141 </v>
   <v>       0.22218126       0.22218126       0.13918275 </v>
   <v>       0.66666667       0.66666667       0.19212019 </v>
   <v>       0.66677108       0.00003081       0.19199455 </v>
   <v>       0.66677108       0.33319811       0.19199455 </v>
   <v>       0.00003081       0.66677108       0.19199455 </v>
   <v>      -0.00000000      -0.00000000       0.19207011 </v>
   <v>       0.00003081       0.33319811       0.19199455 </v>
   <v>       0.33319811       0.66677108       0.19199455 </v>
   <v>       0.33319811       0.00003081       0.19199455 </v>
   <v>       0.33333333       0.33333333       0.19193799 </v>
   <v>       0.77737189       0.77737189       0.24816271 </v>
   <v>       0.77749856       0.11125072       0.24826627 </v>
   <v>       0.77737189       0.44525622       0.24816271 </v>
   <v>       0.11125072       0.77749856       0.24826627 </v>
   <v>       0.11125072       0.11125072       0.24826627 </v>
   <v>       0.11093508       0.44453246       0.24770042 </v>
   <v>       0.44525622       0.77737189       0.24816271 </v>
   <v>       0.44453246       0.11093508       0.24770042 </v>
   <v>       0.44453246       0.44453246       0.24770042 </v>
   <v>       0.88926506       0.88926506       0.30033281 </v>
   <v>       0.88926506       0.22146989       0.30033281 </v>
   <v>       0.88928869       0.55535566       0.30131895 </v>
   <v>       0.22146989       0.88926506       0.30033281 </v>
   <v>       0.22158120       0.22158120       0.30205839 </v>
   <v>       0.22158120       0.55683759       0.30205839 </v>
   <v>       0.55535566       0.88928869       0.30131895 </v>
   <v>       0.55683759       0.22158120       0.30205839 </v>
   <v>       0.55535566       0.55535566       0.30131895 </v>
   <v>      -0.00000000      -0.00000000       0.35500562 </v>
   <v>       0.00357045       0.33178985       0.35493148 </v>
   <v>       0.00357045       0.66463970       0.35493148 </v>
   <v>       0.33178985       0.00357045       0.35493148 </v>
   <v>       0.33333333       0.33333333       0.35397344 </v>
   <v>       0.33178985       0.66463970       0.35493148 </v>
   <v>       0.66463970       0.00357045       0.35493148 </v>
   <v>       0.66463970       0.33178985       0.35493148 </v>
   <v>       0.66666667       0.66666667       0.35633565 </v>
   <v>       0.11579380       0.11579380       0.41150609 </v>
   <v>       0.12544336       0.43727832       0.40860654 </v>
   <v>       0.11579380       0.76841241       0.41150609 </v>
   <v>       0.43727832       0.12544336       0.40860654 </v>
   <v>       0.43727832       0.43727832       0.40860654 </v>
   <v>       0.44670775       0.77664612       0.40918132 </v>
   <v>       0.76841241       0.11579380       0.41150609 </v>
   <v>       0.77664612       0.44670775       0.40918132 </v>
   <v>       0.77664612       0.77664612       0.40918132 </v>
   <v>       0.27777696       0.27777696       0.08463658 </v>
   <v>       0.27774141       0.61112930       0.08451727 </v>
   <v>       0.27777696       0.94444609       0.08463658 </v>
   <v>       0.61112930       0.27774141       0.08451727 </v>
   <v>       0.61112930       0.61112930       0.08451727 </v>
   <v>       0.61096889       0.94451555       0.08458492 </v>
   <v>       0.94444609       0.27777696       0.08463658 </v>
   <v>       0.94451555       0.61096889       0.08458492 </v>
   <v>       0.94451555       0.94451555       0.08458492 </v>
   <v>       0.38886060       0.38886060       0.13905141 </v>
   <v>       0.38886060       0.72227880       0.13905141 </v>
   <v>       0.38895532       0.05552234       0.13927321 </v>
   <v>       0.72227880       0.38886060       0.13905141 </v>
   <v>       0.72218126       0.72218126       0.13918275 </v>
   <v>       0.72218126       0.05563748       0.13918275 </v>
   <v>       0.05552234       0.38895532       0.13927321 </v>
   <v>       0.05563748       0.72218126       0.13918275 </v>
   <v>       0.05552234       0.05552234       0.13927321 </v>
   <v>       0.50000000       0.50000000       0.19207011 </v>
   <v>       0.50003081       0.83319811       0.19199455 </v>
   <v>       0.50003081       0.16677108       0.19199455 </v>
   <v>       0.83319811       0.50003081       0.19199455 </v>
   <v>       0.83333333       0.83333333       0.19193799 </v>
   <v>       0.83319811       0.16677108       0.19199455 </v>
   <v>       0.16677108       0.50003081       0.19199455 </v>
   <v>       0.16677108       0.83319811       0.19199455 </v>
   <v>       0.16666667       0.16666667       0.19212019 </v>
   <v>       0.61125072       0.61125072       0.24826627 </v>
   <v>       0.61093508       0.94453246       0.24770042 </v>
   <v>       0.61125072       0.27749856       0.24826627 </v>
   <v>       0.94453246       0.61093508       0.24770042 </v>
   <v>       0.94453246       0.94453246       0.24770042 </v>
   <v>       0.94525622       0.27737189       0.24816271 </v>
   <v>       0.27749856       0.61125072       0.24826627 </v>
   <v>       0.27737189       0.94525622       0.24816271 </v>
   <v>       0.27737189       0.27737189       0.24816271 </v>
   <v>       0.72158120       0.72158120       0.30205839 </v>
   <v>       0.72158120       0.05683759       0.30205839 </v>
   <v>       0.72146989       0.38926506       0.30033281 </v>
   <v>       0.05683759       0.72158120       0.30205839 </v>
   <v>       0.05535566       0.05535566       0.30131895 </v>
   <v>       0.05535566       0.38928869       0.30131895 </v>
   <v>       0.38926506       0.72146989       0.30033281 </v>
   <v>       0.38928869       0.05535566       0.30131895 </v>
   <v>       0.38926506       0.38926506       0.30033281 </v>
   <v>       0.83333333       0.83333333       0.35397344 </v>
   <v>       0.83178985       0.16463970       0.35493148 </v>
   <v>       0.83178985       0.50357045       0.35493148 </v>
   <v>       0.16463970       0.83178985       0.35493148 </v>
   <v>       0.16666667       0.16666667       0.35633565 </v>
   <v>       0.16463970       0.50357045       0.35493148 </v>
   <v>       0.50357045       0.83178985       0.35493148 </v>
   <v>       0.50357045       0.16463970       0.35493148 </v>
   <v>       0.50000000       0.50000000       0.35500562 </v>
   <v>       0.93727832       0.93727832       0.40860654 </v>
   <v>       0.94670775       0.27664612       0.40918132 </v>
   <v>       0.93727832       0.62544336       0.40860654 </v>
   <v>       0.27664612       0.94670775       0.40918132 </v>
   <v>       0.27664612       0.27664612       0.40918132 </v>
   <v>       0.26841241       0.61579380       0.41150609 </v>
   <v>       0.62544336       0.93727832       0.40860654 </v>
   <v>       0.61579380       0.26841241       0.41150609 </v>
   <v>       0.61579380       0.61579380       0.41150609 </v>
   <v>       0.27777696       0.44444609       0.08463658 </v>
   <v>       0.27777696       0.77777696       0.08463658 </v>
   <v>       0.27774141       0.11112930       0.08451727 </v>
   <v>       0.61096889       0.44451555       0.08458492 </v>
   <v>       0.61112930       0.77774141       0.08451727 </v>
   <v>       0.61112930       0.11112930       0.08451727 </v>
   <v>       0.94451555       0.44451555       0.08458492 </v>
   <v>       0.94444609       0.77777696       0.08463658 </v>
   <v>       0.94451555       0.11096889       0.08458492 </v>
   <v>       0.38895532       0.55552234       0.13927321 </v>
   <v>       0.38886060       0.88886060       0.13905141 </v>
   <v>       0.38886060       0.22227880       0.13905141 </v>
   <v>       0.72218126       0.55563748       0.13918275 </v>
   <v>       0.72227880       0.88886060       0.13905141 </v>
   <v>       0.72218126       0.22218126       0.13918275 </v>
   <v>       0.05552234       0.55552234       0.13927321 </v>
   <v>       0.05552234       0.88895532       0.13927321 </v>
   <v>       0.05563748       0.22218126       0.13918275 </v>
   <v>       0.50003081       0.66677108       0.19199455 </v>
   <v>       0.50000000      -0.00000000       0.19207011 </v>
   <v>       0.50003081       0.33319811       0.19199455 </v>
   <v>       0.83319811       0.66677108       0.19199455 </v>
   <v>       0.83319811       0.00003081       0.19199455 </v>
   <v>       0.83333333       0.33333333       0.19193799 </v>
   <v>       0.16666667       0.66666667       0.19212019 </v>
   <v>       0.16677108       0.00003081       0.19199455 </v>
   <v>       0.16677108       0.33319811       0.19199455 </v>
   <v>       0.61125072       0.77749856       0.24826627 </v>
   <v>       0.61125072       0.11125072       0.24826627 </v>
   <v>       0.61093508       0.44453246       0.24770042 </v>
   <v>       0.94525622       0.77737189       0.24816271 </v>
   <v>       0.94453246       0.11093508       0.24770042 </v>
   <v>       0.94453246       0.44453246       0.24770042 </v>
   <v>       0.27737189       0.77737189       0.24816271 </v>
   <v>       0.27749856       0.11125072       0.24826627 </v>
   <v>       0.27737189       0.44525622       0.24816271 </v>
   <v>       0.72146989       0.88926506       0.30033281 </v>
   <v>       0.72158120       0.22158120       0.30205839 </v>
   <v>       0.72158120       0.55683759       0.30205839 </v>
   <v>       0.05535566       0.88928869       0.30131895 </v>
   <v>       0.05683759       0.22158120       0.30205839 </v>
   <v>       0.05535566       0.55535566       0.30131895 </v>
   <v>       0.38926506       0.88926506       0.30033281 </v>
   <v>       0.38926506       0.22146989       0.30033281 </v>
   <v>       0.38928869       0.55535566       0.30131895 </v>
   <v>       0.83178985       0.00357045       0.35493148 </v>
   <v>       0.83333333       0.33333333       0.35397344 </v>
   <v>       0.83178985       0.66463970       0.35493148 </v>
   <v>       0.16463970       0.00357045       0.35493148 </v>
   <v>       0.16463970       0.33178985       0.35493148 </v>
   <v>       0.16666667       0.66666667       0.35633565 </v>
   <v>       0.50000000      -0.00000000       0.35500562 </v>
   <v>       0.50357045       0.33178985       0.35493148 </v>
   <v>       0.50357045       0.66463970       0.35493148 </v>
   <v>       0.93727832       0.12544336       0.40860654 </v>
   <v>       0.93727832       0.43727832       0.40860654 </v>
   <v>       0.94670775       0.77664612       0.40918132 </v>
   <v>       0.26841241       0.11579380       0.41150609 </v>
   <v>       0.27664612       0.44670775       0.40918132 </v>
   <v>       0.27664612       0.77664612       0.40918132 </v>
   <v>       0.61579380       0.11579380       0.41150609 </v>
   <v>       0.62544336       0.43727832       0.40860654 </v>
   <v>       0.61579380       0.76841241       0.41150609 </v>
   <v>       0.44444609       0.27777696       0.08463658 </v>
   <v>       0.44451555       0.61096889       0.08458492 </v>
   <v>       0.44451555       0.94451555       0.08458492 </v>
   <v>       0.77777696       0.27777696       0.08463658 </v>
   <v>       0.77774141       0.61112930       0.08451727 </v>
   <v>       0.77777696       0.94444609       0.08463658 </v>
   <v>       0.11112930       0.27774141       0.08451727 </v>
   <v>       0.11112930       0.61112930       0.08451727 </v>
   <v>       0.11096889       0.94451555       0.08458492 </v>
   <v>       0.55552234       0.38895532       0.13927321 </v>
   <v>       0.55563748       0.72218126       0.13918275 </v>
   <v>       0.55552234       0.05552234       0.13927321 </v>
   <v>       0.88886060       0.38886060       0.13905141 </v>
   <v>       0.88886060       0.72227880       0.13905141 </v>
   <v>       0.88895532       0.05552234       0.13927321 </v>
   <v>       0.22227880       0.38886060       0.13905141 </v>
   <v>       0.22218126       0.72218126       0.13918275 </v>
   <v>       0.22218126       0.05563748       0.13918275 </v>
   <v>       0.66677108       0.50003081       0.19199455 </v>
   <v>       0.66677108       0.83319811       0.19199455 </v>
   <v>       0.66666667       0.16666667       0.19212019 </v>
   <v>      -0.00000000       0.50000000       0.19207011 </v>
   <v>       0.00003081       0.83319811       0.19199455 </v>
   <v>       0.00003081       0.16677108       0.19199455 </v>
   <v>       0.33319811       0.50003081       0.19199455 </v>
   <v>       0.33333333       0.83333333       0.19193799 </v>
   <v>       0.33319811       0.16677108       0.19199455 </v>
   <v>       0.77749856       0.61125072       0.24826627 </v>
   <v>       0.77737189       0.94525622       0.24816271 </v>
   <v>       0.77737189       0.27737189       0.24816271 </v>
   <v>       0.11125072       0.61125072       0.24826627 </v>
   <v>       0.11093508       0.94453246       0.24770042 </v>
   <v>       0.11125072       0.27749856       0.24826627 </v>
   <v>       0.44453246       0.61093508       0.24770042 </v>
   <v>       0.44453246       0.94453246       0.24770042 </v>
   <v>       0.44525622       0.27737189       0.24816271 </v>
   <v>       0.88926506       0.72146989       0.30033281 </v>
   <v>       0.88928869       0.05535566       0.30131895 </v>
   <v>       0.88926506       0.38926506       0.30033281 </v>
   <v>       0.22158120       0.72158120       0.30205839 </v>
   <v>       0.22158120       0.05683759       0.30205839 </v>
   <v>       0.22146989       0.38926506       0.30033281 </v>
   <v>       0.55683759       0.72158120       0.30205839 </v>
   <v>       0.55535566       0.05535566       0.30131895 </v>
   <v>       0.55535566       0.38928869       0.30131895 </v>
   <v>       0.00357045       0.83178985       0.35493148 </v>
   <v>       0.00357045       0.16463970       0.35493148 </v>
   <v>      -0.00000000       0.50000000       0.35500562 </v>
   <v>       0.33333333       0.83333333       0.35397344 </v>
   <v>       0.33178985       0.16463970       0.35493148 </v>
   <v>       0.33178985       0.50357045       0.35493148 </v>
   <v>       0.66463970       0.83178985       0.35493148 </v>
   <v>       0.66666667       0.16666667       0.35633565 </v>
   <v>       0.66463970       0.50357045       0.35493148 </v>
   <v>       0.12544336       0.93727832       0.40860654 </v>
   <v>       0.11579380       0.26841241       0.41150609 </v>
   <v>       0.11579380       0.61579380       0.41150609 </v>
   <v>       0.43727832       0.93727832       0.40860654 </v>
   <v>       0.44670775       0.27664612       0.40918132 </v>
   <v>       0.43727832       0.62544336       0.40860654 </v>
   <v>       0.77664612       0.94670775       0.40918132 </v>
   <v>       0.77664612       0.27664612       0.40918132 </v>
   <v>       0.76841241       0.61579380       0.41150609 </v>
   <v>      -0.00000000      -0.00000000       0.42831681 </v>
   <v>       0.02229961       0.10526998       0.48104699 </v>
   <v>      -0.03356087       0.26678044       0.46997970 </v>
   <v>       0.02229961       0.37243041       0.48104699 </v>
   <v>      -0.00000000       0.50000000       0.42831681 </v>
   <v>       0.02229961       0.60526998       0.48104699 </v>
   <v>      -0.03356087       0.76678044       0.46997970 </v>
   <v>       0.02229961       0.87243041       0.48104699 </v>
   <v>       0.10526998       0.02229961       0.48104699 </v>
   <v>       0.13522906       0.13522906       0.52577531 </v>
   <v>       0.13522906       0.22954188       0.52577531 </v>
   <v>       0.10526998       0.37243041       0.48104699 </v>
   <v>       0.10526998       0.52229961       0.48104699 </v>
   <v>       0.13522906       0.63522906       0.52577531 </v>
   <v>       0.13522906       0.72954188       0.52577531 </v>
   <v>       0.10526998       0.87243041       0.48104699 </v>
   <v>       0.26678044      -0.03356087       0.46997970 </v>
   <v>       0.22954188       0.13522906       0.52577531 </v>
   <v>       0.26678044       0.26678044       0.46997970 </v>
   <v>       0.23011930       0.38494035       0.44915281 </v>
   <v>       0.26678044       0.46643913       0.46997970 </v>
   <v>       0.22954188       0.63522906       0.52577531 </v>
   <v>       0.26678044       0.76678044       0.46997970 </v>
   <v>       0.23011930       0.88494035       0.44915281 </v>
   <v>       0.37243041       0.02229961       0.48104699 </v>
   <v>       0.37243041       0.10526998       0.48104699 </v>
   <v>       0.38494035       0.23011930       0.44915281 </v>
   <v>       0.38494035       0.38494035       0.44915281 </v>
   <v>       0.37243041       0.52229961       0.48104699 </v>
   <v>       0.37243041       0.60526998       0.48104699 </v>
   <v>       0.38494035       0.73011930       0.44915281 </v>
   <v>       0.38494035       0.88494035       0.44915281 </v>
   <v>       0.50000000      -0.00000000       0.42831681 </v>
   <v>       0.52229961       0.10526998       0.48104699 </v>
   <v>       0.46643913       0.26678044       0.46997970 </v>
   <v>       0.52229961       0.37243041       0.48104699 </v>
   <v>       0.50000000       0.50000000       0.42831681 </v>
   <v>       0.52229961       0.60526998       0.48104699 </v>
   <v>       0.46643913       0.76678044       0.46997970 </v>
   <v>       0.52229961       0.87243041       0.48104699 </v>
   <v>       0.60526998       0.02229961       0.48104699 </v>
   <v>       0.63522906       0.13522906       0.52577531 </v>
   <v>       0.63522906       0.22954188       0.52577531 </v>
   <v>       0.60526998       0.37243041       0.48104699 </v>
   <v>       0.60526998       0.52229961       0.48104699 </v>
   <v>       0.63522906       0.63522906       0.52577531 </v>
   <v>       0.63522906       0.72954188       0.52577531 </v>
   <v>       0.60526998       0.87243041       0.48104699 </v>
   <v>       0.76678044      -0.03356087       0.46997970 </v>
   <v>       0.72954188       0.13522906       0.52577531 </v>
   <v>       0.76678044       0.26678044       0.46997970 </v>
   <v>       0.73011930       0.38494035       0.44915281 </v>
   <v>       0.76678044       0.46643913       0.46997970 </v>
   <v>       0.72954188       0.63522906       0.52577531 </v>
   <v>       0.76678044       0.76678044       0.46997970 </v>
   <v>       0.73011930       0.88494035       0.44915281 </v>
   <v>       0.87243041       0.02229961       0.48104699 </v>
   <v>       0.87243041       0.10526998       0.48104699 </v>
   <v>       0.88494035       0.23011930       0.44915281 </v>
   <v>       0.88494035       0.38494035       0.44915281 </v>
   <v>       0.87243041       0.52229961       0.48104699 </v>
   <v>       0.87243041       0.60526998       0.48104699 </v>
   <v>       0.88494035       0.73011930       0.44915281 </v>
   <v>       0.88494035       0.88494035       0.44915281 </v>
  </varray>
 </structure>
</modeling>
