NiAl                                    
            1
    15.146222    0.000000    0.000000
     7.573111   13.117013    0.000000
     0.000000    0.000000   36.400000
   Ni   O 
   252    64
Direct configuration=     1
   0.44444444  0.44444444  0.06198901
   0.44444444  0.77777778  0.06198901
   0.44444444  0.11111111  0.06198901
   0.77777778  0.44444444  0.06198901
   0.77777778  0.77777778  0.06198901
   0.77777778  0.11111111  0.06198901
   0.11111111  0.44444444  0.06198901
   0.11111111  0.77777778  0.06198901
   0.11111111  0.11111111  0.06198901
   0.55555556  0.55555556  0.12487340
   0.55555556  0.88888889  0.12487340
   0.55555556  0.22222222  0.12487340
   0.88888889  0.55555556  0.12487340
   0.88888889  0.88888889  0.12487340
   0.88888889  0.22222222  0.12487340
   0.22222222  0.55555556  0.12487340
   0.22222222  0.88888889  0.12487340
   0.22222222  0.22222222  0.12487340
   0.66666667  0.66666667  0.18572635
   0.66666667  0.00000000  0.18572635
   0.66666667  0.33333333  0.18572635
   0.00000000  0.66666667  0.18572635
   0.00000000  0.00000000  0.18572635
   0.00000000  0.33333333  0.18572635
   0.33333333  0.66666667  0.18572635
   0.33333333  0.00000000  0.18572635
   0.33333333  0.33333333  0.18572635
   0.77777778  0.77777778  0.24835684
   0.77777778  0.11111111  0.24835684
   0.77777778  0.44444444  0.24835684
   0.11111111  0.77777778  0.24835684
   0.11111111  0.11111111  0.24835684
   0.11111111  0.44444444  0.24835684
   0.44444444  0.77777778  0.24835684
   0.44444444  0.11111111  0.24835684
   0.44444444  0.44444444  0.24835684
   0.88888889  0.88888889  0.31098733
   0.88888889  0.22222222  0.31098733
   0.88888889  0.55555556  0.31098733
   0.22222222  0.88888889  0.31098733
   0.22222222  0.22222222  0.31098733
   0.22222222  0.55555556  0.31098733
   0.55555556  0.88888889  0.31098733
   0.55555556  0.22222222  0.31098733
   0.55555556  0.55555556  0.31098733
   0.00000000  0.00000000  0.37184028
   0.00000000  0.33333333  0.37184028
   0.00000000  0.66666667  0.37184028
   0.33333333  0.00000000  0.37184028
   0.33333333  0.33333333  0.37184028
   0.33333333  0.66666667  0.37184028
   0.66666667  0.00000000  0.37184028
   0.66666667  0.33333333  0.37184028
   0.66666667  0.66666667  0.37184028
   0.11111111  0.11111111  0.43472467
   0.11111111  0.44444444  0.43472467
   0.11111111  0.77777778  0.43472467
   0.44444444  0.11111111  0.43472467
   0.44444444  0.44444444  0.43472467
   0.44444444  0.77777778  0.43472467
   0.77777778  0.11111111  0.43472467
   0.77777778  0.44444444  0.43472467
   0.77777778  0.77777778  0.43472467
   0.27777778  0.27777778  0.06198901
   0.27777778  0.61111111  0.06198901
   0.27777778  0.94444444  0.06198901
   0.61111111  0.27777778  0.06198901
   0.61111111  0.61111111  0.06198901
   0.61111111  0.94444444  0.06198901
   0.94444444  0.27777778  0.06198901
   0.94444444  0.61111111  0.06198901
   0.94444444  0.94444444  0.06198901
   0.38888889  0.38888889  0.12487340
   0.38888889  0.72222222  0.12487340
   0.38888889  0.05555556  0.12487340
   0.72222222  0.38888889  0.12487340
   0.72222222  0.72222222  0.12487340
   0.72222222  0.05555556  0.12487340
   0.05555556  0.38888889  0.12487340
   0.05555556  0.72222222  0.12487340
   0.05555556  0.05555556  0.12487340
   0.50000000  0.50000000  0.18572635
   0.50000000  0.83333333  0.18572635
   0.50000000  0.16666667  0.18572635
   0.83333333  0.50000000  0.18572635
   0.83333333  0.83333333  0.18572635
   0.83333333  0.16666667  0.18572635
   0.16666667  0.50000000  0.18572635
   0.16666667  0.83333333  0.18572635
   0.16666667  0.16666667  0.18572635
   0.61111111  0.61111111  0.24835684
   0.61111111  0.94444444  0.24835684
   0.61111111  0.27777778  0.24835684
   0.94444444  0.61111111  0.24835684
   0.94444444  0.94444444  0.24835684
   0.94444444  0.27777778  0.24835684
   0.27777778  0.61111111  0.24835684
   0.27777778  0.94444444  0.24835684
   0.27777778  0.27777778  0.24835684
   0.72222222  0.72222222  0.31098733
   0.72222222  0.05555556  0.31098733
   0.72222222  0.38888889  0.31098733
   0.05555556  0.72222222  0.31098733
   0.05555556  0.05555556  0.31098733
   0.05555556  0.38888889  0.31098733
   0.38888889  0.72222222  0.31098733
   0.38888889  0.05555556  0.31098733
   0.38888889  0.38888889  0.31098733
   0.83333333  0.83333333  0.37184028
   0.83333333  0.16666667  0.37184028
   0.83333333  0.50000000  0.37184028
   0.16666667  0.83333333  0.37184028
   0.16666667  0.16666667  0.37184028
   0.16666667  0.50000000  0.37184028
   0.50000000  0.83333333  0.37184028
   0.50000000  0.16666667  0.37184028
   0.50000000  0.50000000  0.37184028
   0.94444444  0.94444444  0.43472467
   0.94444444  0.27777778  0.43472467
   0.94444444  0.61111111  0.43472467
   0.27777778  0.94444444  0.43472467
   0.27777778  0.27777778  0.43472467
   0.27777778  0.61111111  0.43472467
   0.61111111  0.94444444  0.43472467
   0.61111111  0.27777778  0.43472467
   0.61111111  0.61111111  0.43472467
   0.27777778  0.44444444  0.06198901
   0.27777778  0.77777778  0.06198901
   0.27777778  0.11111111  0.06198901
   0.61111111  0.44444444  0.06198901
   0.61111111  0.77777778  0.06198901
   0.61111111  0.11111111  0.06198901
   0.94444444  0.44444444  0.06198901
   0.94444444  0.77777778  0.06198901
   0.94444444  0.11111111  0.06198901
   0.38888889  0.55555556  0.12487340
   0.38888889  0.88888889  0.12487340
   0.38888889  0.22222222  0.12487340
   0.72222222  0.55555556  0.12487340
   0.72222222  0.88888889  0.12487340
   0.72222222  0.22222222  0.12487340
   0.05555556  0.55555556  0.12487340
   0.05555556  0.88888889  0.12487340
   0.05555556  0.22222222  0.12487340
   0.50000000  0.66666667  0.18572635
   0.50000000  0.00000000  0.18572635
   0.50000000  0.33333333  0.18572635
   0.83333333  0.66666667  0.18572635
   0.83333333  0.00000000  0.18572635
   0.83333333  0.33333333  0.18572635
   0.16666667  0.66666667  0.18572635
   0.16666667  0.00000000  0.18572635
   0.16666667  0.33333333  0.18572635
   0.61111111  0.77777778  0.24835684
   0.61111111  0.11111111  0.24835684
   0.61111111  0.44444444  0.24835684
   0.94444444  0.77777778  0.24835684
   0.94444444  0.11111111  0.24835684
   0.94444444  0.44444444  0.24835684
   0.27777778  0.77777778  0.24835684
   0.27777778  0.11111111  0.24835684
   0.27777778  0.44444444  0.24835684
   0.72222222  0.88888889  0.31098733
   0.72222222  0.22222222  0.31098733
   0.72222222  0.55555556  0.31098733
   0.05555556  0.88888889  0.31098733
   0.05555556  0.22222222  0.31098733
   0.05555556  0.55555556  0.31098733
   0.38888889  0.88888889  0.31098733
   0.38888889  0.22222222  0.31098733
   0.38888889  0.55555556  0.31098733
   0.83333333  0.00000000  0.37184028
   0.83333333  0.33333333  0.37184028
   0.83333333  0.66666667  0.37184028
   0.16666667  0.00000000  0.37184028
   0.16666667  0.33333333  0.37184028
   0.16666667  0.66666667  0.37184028
   0.50000000  0.00000000  0.37184028
   0.50000000  0.33333333  0.37184028
   0.50000000  0.66666667  0.37184028
   0.94444444  0.11111111  0.43472467
   0.94444444  0.44444444  0.43472467
   0.94444444  0.77777778  0.43472467
   0.27777778  0.11111111  0.43472467
   0.27777778  0.44444444  0.43472467
   0.27777778  0.77777778  0.43472467
   0.61111111  0.11111111  0.43472467
   0.61111111  0.44444444  0.43472467
   0.61111111  0.77777778  0.43472467
   0.44444444  0.27777778  0.06198901
   0.44444444  0.61111111  0.06198901
   0.44444444  0.94444444  0.06198901
   0.77777778  0.27777778  0.06198901
   0.77777778  0.61111111  0.06198901
   0.77777778  0.94444444  0.06198901
   0.11111111  0.27777778  0.06198901
   0.11111111  0.61111111  0.06198901
   0.11111111  0.94444444  0.06198901
   0.55555556  0.38888889  0.12487340
   0.55555556  0.72222222  0.12487340
   0.55555556  0.05555556  0.12487340
   0.88888889  0.38888889  0.12487340
   0.88888889  0.72222222  0.12487340
   0.88888889  0.05555556  0.12487340
   0.22222222  0.38888889  0.12487340
   0.22222222  0.72222222  0.12487340
   0.22222222  0.05555556  0.12487340
   0.66666667  0.50000000  0.18572635
   0.66666667  0.83333333  0.18572635
   0.66666667  0.16666667  0.18572635
   0.00000000  0.50000000  0.18572635
   0.00000000  0.83333333  0.18572635
   0.00000000  0.16666667  0.18572635
   0.33333333  0.50000000  0.18572635
   0.33333333  0.83333333  0.18572635
   0.33333333  0.16666667  0.18572635
   0.77777778  0.61111111  0.24835684
   0.77777778  0.94444444  0.24835684
   0.77777778  0.27777778  0.24835684
   0.11111111  0.61111111  0.24835684
   0.11111111  0.94444444  0.24835684
   0.11111111  0.27777778  0.24835684
   0.44444444  0.61111111  0.24835684
   0.44444444  0.94444444  0.24835684
   0.44444444  0.27777778  0.24835684
   0.88888889  0.72222222  0.31098733
   0.88888889  0.05555556  0.31098733
   0.88888889  0.38888889  0.31098733
   0.22222222  0.72222222  0.31098733
   0.22222222  0.05555556  0.31098733
   0.22222222  0.38888889  0.31098733
   0.55555556  0.72222222  0.31098733
   0.55555556  0.05555556  0.31098733
   0.55555556  0.38888889  0.31098733
   0.00000000  0.83333333  0.37184028
   0.00000000  0.16666667  0.37184028
   0.00000000  0.50000000  0.37184028
   0.33333333  0.83333333  0.37184028
   0.33333333  0.16666667  0.37184028
   0.33333333  0.50000000  0.37184028
   0.66666667  0.83333333  0.37184028
   0.66666667  0.16666667  0.37184028
   0.66666667  0.50000000  0.37184028
   0.11111111  0.94444444  0.43472467
   0.11111111  0.27777778  0.43472467
   0.11111111  0.61111111  0.43472467
   0.44444444  0.94444444  0.43472467
   0.44444444  0.27777778  0.43472467
   0.44444444  0.61111111  0.43472467
   0.77777778  0.94444444  0.43472467
   0.77777778  0.27777778  0.43472467
   0.77777778  0.61111111  0.43472467
   0.00000000  0.00000000  0.47318621
   0.00000000  0.12500000  0.47318621
   0.00000000  0.25000000  0.47318621
   0.00000000  0.37500000  0.47318621
   0.00000000  0.50000000  0.47318621
   0.00000000  0.62500000  0.47318621
   0.00000000  0.75000000  0.47318621
   0.00000000  0.87500000  0.47318621
   0.12500000  0.00000000  0.47318621
   0.12500000  0.12500000  0.47318621
   0.12500000  0.25000000  0.47318621
   0.12500000  0.37500000  0.47318621
   0.12500000  0.50000000  0.47318621
   0.12500000  0.62500000  0.47318621
   0.12500000  0.75000000  0.47318621
   0.12500000  0.87500000  0.47318621
   0.25000000  0.00000000  0.47318621
   0.25000000  0.12500000  0.47318621
   0.25000000  0.25000000  0.47318621
   0.25000000  0.37500000  0.47318621
   0.25000000  0.50000000  0.47318621
   0.25000000  0.62500000  0.47318621
   0.25000000  0.75000000  0.47318621
   0.25000000  0.87500000  0.47318621
   0.37500000  0.00000000  0.47318621
   0.37500000  0.12500000  0.47318621
   0.37500000  0.25000000  0.47318621
   0.37500000  0.37500000  0.47318621
   0.37500000  0.50000000  0.47318621
   0.37500000  0.62500000  0.47318621
   0.37500000  0.75000000  0.47318621
   0.37500000  0.87500000  0.47318621
   0.50000000  0.00000000  0.47318621
   0.50000000  0.12500000  0.47318621
   0.50000000  0.25000000  0.47318621
   0.50000000  0.37500000  0.47318621
   0.50000000  0.50000000  0.47318621
   0.50000000  0.62500000  0.47318621
   0.50000000  0.75000000  0.47318621
   0.50000000  0.87500000  0.47318621
   0.62500000  0.00000000  0.47318621
   0.62500000  0.12500000  0.47318621
   0.62500000  0.25000000  0.47318621
   0.62500000  0.37500000  0.47318621
   0.62500000  0.50000000  0.47318621
   0.62500000  0.62500000  0.47318621
   0.62500000  0.75000000  0.47318621
   0.62500000  0.87500000  0.47318621
   0.75000000  0.00000000  0.47318621
   0.75000000  0.12500000  0.47318621
   0.75000000  0.25000000  0.47318621
   0.75000000  0.37500000  0.47318621
   0.75000000  0.50000000  0.47318621
   0.75000000  0.62500000  0.47318621
   0.75000000  0.75000000  0.47318621
   0.75000000  0.87500000  0.47318621
   0.87500000  0.00000000  0.47318621
   0.87500000  0.12500000  0.47318621
   0.87500000  0.25000000  0.47318621
   0.87500000  0.37500000  0.47318621
   0.87500000  0.50000000  0.47318621
   0.87500000  0.62500000  0.47318621
   0.87500000  0.75000000  0.47318621
   0.87500000  0.87500000  0.47318621
Direct configuration=     2
   0.44443759  0.44443759  0.06254920
   0.44441286  0.77779357  0.06253678
   0.44443759  0.11112483  0.06254920
   0.77779357  0.44441286  0.06253678
   0.77779357  0.77779357  0.06253678
   0.77778818  0.11110591  0.06255591
   0.11112483  0.44443759  0.06254920
   0.11110591  0.77778818  0.06255591
   0.11110591  0.11110591  0.06255591
   0.55555227  0.55555227  0.12477898
   0.55555227  0.88889546  0.12477898
   0.55556177  0.22221911  0.12477684
   0.88889546  0.55555227  0.12477898
   0.88889487  0.88889487  0.12477398
   0.88889487  0.22221025  0.12477398
   0.22221911  0.55556177  0.12477684
   0.22221025  0.88889487  0.12477398
   0.22221911  0.22221911  0.12477684
   0.66666667  0.66666667  0.18577934
   0.66664918 -0.00000840  0.18577050
   0.66664918  0.33335922  0.18577050
  -0.00000840  0.66664918  0.18577050
   0.00000000 -0.00000000  0.18576736
  -0.00000840  0.33335922  0.18577050
   0.33335922  0.66664918  0.18577050
   0.33335922 -0.00000840  0.18577050
   0.33333333  0.33333333  0.18577298
   0.77777066  0.77777066  0.24834666
   0.77777286  0.11111357  0.24834767
   0.77777066  0.44445867  0.24834666
   0.11111357  0.77777286  0.24834767
   0.11111357  0.11111357  0.24834767
   0.11109079  0.44445461  0.24834927
   0.44445867  0.77777066  0.24834666
   0.44445461  0.11109079  0.24834927
   0.44445461  0.44445461  0.24834927
   0.88888080  0.88888080  0.31093477
   0.88888080  0.22223839  0.31093477
   0.88890566  0.55554717  0.31093223
   0.22223839  0.88888080  0.31093477
   0.22219664  0.22219664  0.31094029
   0.22219664  0.55560673  0.31094029
   0.55554717  0.88890566  0.31093223
   0.55560673  0.22219664  0.31094029
   0.55554717  0.55554717  0.31093223
   0.00000000 -0.00000000  0.37184524
  -0.00001362  0.33339246  0.37187229
  -0.00001362  0.66662116  0.37187229
   0.33339246 -0.00001362  0.37187229
   0.33333333  0.33333333  0.37190158
   0.33339246  0.66662116  0.37187229
   0.66662116 -0.00001362  0.37187229
   0.66662116  0.33339246  0.37187229
   0.66666667  0.66666667  0.37175275
   0.10921582  0.10921582  0.42623909
   0.11059855  0.44470072  0.43162405
   0.10921582  0.78156835  0.42623909
   0.44470072  0.11059855  0.43162405
   0.44470072  0.44470072  0.43162405
   0.44142362  0.77928819  0.43065491
   0.78156835  0.10921582  0.42623909
   0.77928819  0.44142362  0.43065491
   0.77928819  0.77928819  0.43065491
   0.27779357  0.27779357  0.06253678
   0.27778818  0.61110591  0.06255591
   0.27779357  0.94441286  0.06253678
   0.61110591  0.27778818  0.06255591
   0.61110591  0.61110591  0.06255591
   0.61112483  0.94443759  0.06254920
   0.94441286  0.27779357  0.06253678
   0.94443759  0.61112483  0.06254920
   0.94443759  0.94443759  0.06254920
   0.38889487  0.38889487  0.12477398
   0.38889487  0.72221025  0.12477398
   0.38889546  0.05555227  0.12477898
   0.72221025  0.38889487  0.12477398
   0.72221911  0.72221911  0.12477684
   0.72221911  0.05556177  0.12477684
   0.05555227  0.38889546  0.12477898
   0.05556177  0.72221911  0.12477684
   0.05555227  0.05555227  0.12477898
   0.50000000  0.50000000  0.18576736
   0.49999160  0.83335922  0.18577050
   0.49999160  0.16664918  0.18577050
   0.83335922  0.49999160  0.18577050
   0.83333333  0.83333333  0.18577298
   0.83335922  0.16664918  0.18577050
   0.16664918  0.49999160  0.18577050
   0.16664918  0.83335922  0.18577050
   0.16666667  0.16666667  0.18577934
   0.61111357  0.61111357  0.24834767
   0.61109079  0.94445461  0.24834927
   0.61111357  0.27777286  0.24834767
   0.94445461  0.61109079  0.24834927
   0.94445461  0.94445461  0.24834927
   0.94445867  0.27777066  0.24834666
   0.27777286  0.61111357  0.24834767
   0.27777066  0.94445867  0.24834666
   0.27777066  0.27777066  0.24834666
   0.72219664  0.72219664  0.31094029
   0.72219664  0.05560673  0.31094029
   0.72223839  0.38888080  0.31093477
   0.05560673  0.72219664  0.31094029
   0.05554717  0.05554717  0.31093223
   0.05554717  0.38890566  0.31093223
   0.38888080  0.72223839  0.31093477
   0.38890566  0.05554717  0.31093223
   0.38888080  0.38888080  0.31093477
   0.83333333  0.83333333  0.37190158
   0.83339246  0.16662116  0.37187229
   0.83339246  0.49998638  0.37187229
   0.16662116  0.83339246  0.37187229
   0.16666667  0.16666667  0.37175275
   0.16662116  0.49998638  0.37187229
   0.49998638  0.83339246  0.37187229
   0.49998638  0.16662116  0.37187229
   0.50000000  0.50000000  0.37184524
   0.94470072  0.94470072  0.43162405
   0.94142362  0.27928819  0.43065491
   0.94470072  0.61059855  0.43162405
   0.27928819  0.94142362  0.43065491
   0.27928819  0.27928819  0.43065491
   0.28156835  0.60921582  0.42623909
   0.61059855  0.94470072  0.43162405
   0.60921582  0.28156835  0.42623909
   0.60921582  0.60921582  0.42623909
   0.27779357  0.44441286  0.06253678
   0.27779357  0.77779357  0.06253678
   0.27778818  0.11110591  0.06255591
   0.61112483  0.44443759  0.06254920
   0.61110591  0.77778818  0.06255591
   0.61110591  0.11110591  0.06255591
   0.94443759  0.44443759  0.06254920
   0.94441286  0.77779357  0.06253678
   0.94443759  0.11112483  0.06254920
   0.38889546  0.55555227  0.12477898
   0.38889487  0.88889487  0.12477398
   0.38889487  0.22221025  0.12477398
   0.72221911  0.55556177  0.12477684
   0.72221025  0.88889487  0.12477398
   0.72221911  0.22221911  0.12477684
   0.05555227  0.55555227  0.12477898
   0.05555227  0.88889546  0.12477898
   0.05556177  0.22221911  0.12477684
   0.49999160  0.66664918  0.18577050
   0.50000000 -0.00000000  0.18576736
   0.49999160  0.33335922  0.18577050
   0.83335922  0.66664918  0.18577050
   0.83335922 -0.00000840  0.18577050
   0.83333333  0.33333333  0.18577298
   0.16666667  0.66666667  0.18577934
   0.16664918 -0.00000840  0.18577050
   0.16664918  0.33335922  0.18577050
   0.61111357  0.77777286  0.24834767
   0.61111357  0.11111357  0.24834767
   0.61109079  0.44445461  0.24834927
   0.94445867  0.77777066  0.24834666
   0.94445461  0.11109079  0.24834927
   0.94445461  0.44445461  0.24834927
   0.27777066  0.77777066  0.24834666
   0.27777286  0.11111357  0.24834767
   0.27777066  0.44445867  0.24834666
   0.72223839  0.88888080  0.31093477
   0.72219664  0.22219664  0.31094029
   0.72219664  0.55560673  0.31094029
   0.05554717  0.88890566  0.31093223
   0.05560673  0.22219664  0.31094029
   0.05554717  0.55554717  0.31093223
   0.38888080  0.88888080  0.31093477
   0.38888080  0.22223839  0.31093477
   0.38890566  0.55554717  0.31093223
   0.83339246 -0.00001362  0.37187229
   0.83333333  0.33333333  0.37190158
   0.83339246  0.66662116  0.37187229
   0.16662116 -0.00001362  0.37187229
   0.16662116  0.33339246  0.37187229
   0.16666667  0.66666667  0.37175275
   0.50000000 -0.00000000  0.37184524
   0.49998638  0.33339246  0.37187229
   0.49998638  0.66662116  0.37187229
   0.94470072  0.11059855  0.43162405
   0.94470072  0.44470072  0.43162405
   0.94142362  0.77928819  0.43065491
   0.28156835  0.10921582  0.42623909
   0.27928819  0.44142362  0.43065491
   0.27928819  0.77928819  0.43065491
   0.60921582  0.10921582  0.42623909
   0.61059855  0.44470072  0.43162405
   0.60921582  0.78156835  0.42623909
   0.44441286  0.27779357  0.06253678
   0.44443759  0.61112483  0.06254920
   0.44443759  0.94443759  0.06254920
   0.77779357  0.27779357  0.06253678
   0.77778818  0.61110591  0.06255591
   0.77779357  0.94441286  0.06253678
   0.11110591  0.27778818  0.06255591
   0.11110591  0.61110591  0.06255591
   0.11112483  0.94443759  0.06254920
   0.55555227  0.38889546  0.12477898
   0.55556177  0.72221911  0.12477684
   0.55555227  0.05555227  0.12477898
   0.88889487  0.38889487  0.12477398
   0.88889487  0.72221025  0.12477398
   0.88889546  0.05555227  0.12477898
   0.22221025  0.38889487  0.12477398
   0.22221911  0.72221911  0.12477684
   0.22221911  0.05556177  0.12477684
   0.66664918  0.49999160  0.18577050
   0.66664918  0.83335922  0.18577050
   0.66666667  0.16666667  0.18577934
   0.00000000  0.50000000  0.18576736
  -0.00000840  0.83335922  0.18577050
  -0.00000840  0.16664918  0.18577050
   0.33335922  0.49999160  0.18577050
   0.33333333  0.83333333  0.18577298
   0.33335922  0.16664918  0.18577050
   0.77777286  0.61111357  0.24834767
   0.77777066  0.94445867  0.24834666
   0.77777066  0.27777066  0.24834666
   0.11111357  0.61111357  0.24834767
   0.11109079  0.94445461  0.24834927
   0.11111357  0.27777286  0.24834767
   0.44445461  0.61109079  0.24834927
   0.44445461  0.94445461  0.24834927
   0.44445867  0.27777066  0.24834666
   0.88888080  0.72223839  0.31093477
   0.88890566  0.05554717  0.31093223
   0.88888080  0.38888080  0.31093477
   0.22219664  0.72219664  0.31094029
   0.22219664  0.05560673  0.31094029
   0.22223839  0.38888080  0.31093477
   0.55560673  0.72219664  0.31094029
   0.55554717  0.05554717  0.31093223
   0.55554717  0.38890566  0.31093223
  -0.00001362  0.83339246  0.37187229
  -0.00001362  0.16662116  0.37187229
   0.00000000  0.50000000  0.37184524
   0.33333333  0.83333333  0.37190158
   0.33339246  0.16662116  0.37187229
   0.33339246  0.49998638  0.37187229
   0.66662116  0.83339246  0.37187229
   0.66666667  0.16666667  0.37175275
   0.66662116  0.49998638  0.37187229
   0.11059855  0.94470072  0.43162405
   0.10921582  0.28156835  0.42623909
   0.10921582  0.60921582  0.42623909
   0.44470072  0.94470072  0.43162405
   0.44142362  0.27928819  0.43065491
   0.44470072  0.61059855  0.43162405
   0.77928819  0.94142362  0.43065491
   0.77928819  0.27928819  0.43065491
   0.78156835  0.60921582  0.42623909
   0.00000000 -0.00000000  0.47344605
   0.00126202  0.12512614  0.47473481
   0.00411422  0.24794289  0.47654685
   0.00126202  0.37361183  0.47473481
   0.00000000  0.50000000  0.47344605
   0.00126202  0.62512614  0.47473481
   0.00411422  0.74794289  0.47654685
   0.00126202  0.87361183  0.47473481
   0.12512614  0.00126202  0.47473481
   0.12857252  0.12857252  0.48033455
   0.12857252  0.24285496  0.48033455
   0.12512614  0.37361183  0.47473481
   0.12512614  0.50126202  0.47473481
   0.12857252  0.62857252  0.48033455
   0.12857252  0.74285496  0.48033455
   0.12512614  0.87361183  0.47473481
   0.24794289  0.00411422  0.47654685
   0.24285496  0.12857252  0.48033455
   0.24794289  0.24794289  0.47654685
   0.25008714  0.37495643  0.47375440
   0.24794289  0.50411422  0.47654685
   0.24285496  0.62857252  0.48033455
   0.24794289  0.74794289  0.47654685
   0.25008714  0.87495643  0.47375440
   0.37361183  0.00126202  0.47473481
   0.37361183  0.12512614  0.47473481
   0.37495643  0.25008714  0.47375440
   0.37495643  0.37495643  0.47375440
   0.37361183  0.50126202  0.47473481
   0.37361183  0.62512614  0.47473481
   0.37495643  0.75008714  0.47375440
   0.37495643  0.87495643  0.47375440
   0.50000000 -0.00000000  0.47344605
   0.50126202  0.12512614  0.47473481
   0.50411422  0.24794289  0.47654685
   0.50126202  0.37361183  0.47473481
   0.50000000  0.50000000  0.47344605
   0.50126202  0.62512614  0.47473481
   0.50411422  0.74794289  0.47654685
   0.50126202  0.87361183  0.47473481
   0.62512614  0.00126202  0.47473481
   0.62857252  0.12857252  0.48033455
   0.62857252  0.24285496  0.48033455
   0.62512614  0.37361183  0.47473481
   0.62512614  0.50126202  0.47473481
   0.62857252  0.62857252  0.48033455
   0.62857252  0.74285496  0.48033455
   0.62512614  0.87361183  0.47473481
   0.74794289  0.00411422  0.47654685
   0.74285496  0.12857252  0.48033455
   0.74794289  0.24794289  0.47654685
   0.75008714  0.37495643  0.47375440
   0.74794289  0.50411422  0.47654685
   0.74285496  0.62857252  0.48033455
   0.74794289  0.74794289  0.47654685
   0.75008714  0.87495643  0.47375440
   0.87361183  0.00126202  0.47473481
   0.87361183  0.12512614  0.47473481
   0.87495643  0.25008714  0.47375440
   0.87495643  0.37495643  0.47375440
   0.87361183  0.50126202  0.47473481
   0.87361183  0.62512614  0.47473481
   0.87495643  0.75008714  0.47375440
   0.87495643  0.87495643  0.47375440
Direct configuration=     3
   0.44443733  0.44443733  0.06256995
   0.44441169  0.77779415  0.06255707
   0.44443733  0.11112533  0.06256995
   0.77779415  0.44441169  0.06255707
   0.77779415  0.77779415  0.06255707
   0.77778857  0.11110572  0.06257691
   0.11112533  0.44443733  0.06256995
   0.11110572  0.77778857  0.06257691
   0.11110572  0.11110572  0.06257691
   0.55555215  0.55555215  0.12477548
   0.55555215  0.88889570  0.12477548
   0.55556200  0.22221900  0.12477326
   0.88889570  0.55555215  0.12477548
   0.88889510  0.88889510  0.12477030
   0.88889510  0.22220981  0.12477030
   0.22221900  0.55556200  0.12477326
   0.22220981  0.88889510  0.12477030
   0.22221900  0.22221900  0.12477326
   0.66666667  0.66666667  0.18578130
   0.66664853 -0.00000871  0.18577214
   0.66664853  0.33336017  0.18577214
  -0.00000871  0.66664853  0.18577214
   0.00000000 -0.00000000  0.18576888
  -0.00000871  0.33336017  0.18577214
   0.33336017  0.66664853  0.18577214
   0.33336017 -0.00000871  0.18577214
   0.33333333  0.33333333  0.18577470
   0.77777040  0.77777040  0.24834628
   0.77777267  0.11111366  0.24834733
   0.77777040  0.44445920  0.24834628
   0.11111366  0.77777267  0.24834733
   0.11111366  0.11111366  0.24834733
   0.11109004  0.44445498  0.24834899
   0.44445920  0.77777040  0.24834628
   0.44445498  0.11109004  0.24834899
   0.44445498  0.44445498  0.24834899
   0.88888051  0.88888051  0.31093283
   0.88888051  0.22223899  0.31093283
   0.88890628  0.55554686  0.31093019
   0.22223899  0.88888051  0.31093283
   0.22219569  0.22219569  0.31093855
   0.22219569  0.55560863  0.31093855
   0.55554686  0.88890628  0.31093019
   0.55560863  0.22219569  0.31093855
   0.55554686  0.55554686  0.31093019
   0.00000000 -0.00000000  0.37184543
  -0.00001413  0.33339465  0.37187348
  -0.00001413  0.66661948  0.37187348
   0.33339465 -0.00001413  0.37187348
   0.33333333  0.33333333  0.37190386
   0.33339465  0.66661948  0.37187348
   0.66661948 -0.00001413  0.37187348
   0.66661948  0.33339465  0.37187348
   0.66666667  0.66666667  0.37174951
   0.10914563  0.10914563  0.42592480
   0.11057957  0.44471022  0.43150921
   0.10914563  0.78170875  0.42592480
   0.44471022  0.11057957  0.43150921
   0.44471022  0.44471022  0.43150921
   0.44131173  0.77934413  0.43050417
   0.78170875  0.10914563  0.42592480
   0.77934413  0.44131173  0.43050417
   0.77934413  0.77934413  0.43050417
   0.27779415  0.27779415  0.06255707
   0.27778857  0.61110572  0.06257691
   0.27779415  0.94441169  0.06255707
   0.61110572  0.27778857  0.06257691
   0.61110572  0.61110572  0.06257691
   0.61112533  0.94443733  0.06256995
   0.94441169  0.27779415  0.06255707
   0.94443733  0.61112533  0.06256995
   0.94443733  0.94443733  0.06256995
   0.38889510  0.38889510  0.12477030
   0.38889510  0.72220981  0.12477030
   0.38889570  0.05555215  0.12477548
   0.72220981  0.38889510  0.12477030
   0.72221900  0.72221900  0.12477326
   0.72221900  0.05556200  0.12477326
   0.05555215  0.38889570  0.12477548
   0.05556200  0.72221900  0.12477326
   0.05555215  0.05555215  0.12477548
   0.50000000  0.50000000  0.18576888
   0.49999129  0.83336017  0.18577214
   0.49999129  0.16664853  0.18577214
   0.83336017  0.49999129  0.18577214
   0.83333333  0.83333333  0.18577470
   0.83336017  0.16664853  0.18577214
   0.16664853  0.49999129  0.18577214
   0.16664853  0.83336017  0.18577214
   0.16666667  0.16666667  0.18578130
   0.61111366  0.61111366  0.24834733
   0.61109004  0.94445498  0.24834899
   0.61111366  0.27777267  0.24834733
   0.94445498  0.61109004  0.24834899
   0.94445498  0.94445498  0.24834899
   0.94445920  0.27777040  0.24834628
   0.27777267  0.61111366  0.24834733
   0.27777040  0.94445920  0.24834628
   0.27777040  0.27777040  0.24834628
   0.72219569  0.72219569  0.31093855
   0.72219569  0.05560863  0.31093855
   0.72223899  0.38888051  0.31093283
   0.05560863  0.72219569  0.31093855
   0.05554686  0.05554686  0.31093019
   0.05554686  0.38890628  0.31093019
   0.38888051  0.72223899  0.31093283
   0.38890628  0.05554686  0.31093019
   0.38888051  0.38888051  0.31093283
   0.83333333  0.83333333  0.37190386
   0.83339465  0.16661948  0.37187348
   0.83339465  0.49998587  0.37187348
   0.16661948  0.83339465  0.37187348
   0.16666667  0.16666667  0.37174951
   0.16661948  0.49998587  0.37187348
   0.49998587  0.83339465  0.37187348
   0.49998587  0.16661948  0.37187348
   0.50000000  0.50000000  0.37184543
   0.94471022  0.94471022  0.43150921
   0.94131173  0.27934413  0.43050417
   0.94471022  0.61057957  0.43150921
   0.27934413  0.94131173  0.43050417
   0.27934413  0.27934413  0.43050417
   0.28170875  0.60914563  0.42592480
   0.61057957  0.94471022  0.43150921
   0.60914563  0.28170875  0.42592480
   0.60914563  0.60914563  0.42592480
   0.27779415  0.44441169  0.06255707
   0.27779415  0.77779415  0.06255707
   0.27778857  0.11110572  0.06257691
   0.61112533  0.44443733  0.06256995
   0.61110572  0.77778857  0.06257691
   0.61110572  0.11110572  0.06257691
   0.94443733  0.44443733  0.06256995
   0.94441169  0.77779415  0.06255707
   0.94443733  0.11112533  0.06256995
   0.38889570  0.55555215  0.12477548
   0.38889510  0.88889510  0.12477030
   0.38889510  0.22220981  0.12477030
   0.72221900  0.55556200  0.12477326
   0.72220981  0.88889510  0.12477030
   0.72221900  0.22221900  0.12477326
   0.05555215  0.55555215  0.12477548
   0.05555215  0.88889570  0.12477548
   0.05556200  0.22221900  0.12477326
   0.49999129  0.66664853  0.18577214
   0.50000000 -0.00000000  0.18576888
   0.49999129  0.33336017  0.18577214
   0.83336017  0.66664853  0.18577214
   0.83336017 -0.00000871  0.18577214
   0.83333333  0.33333333  0.18577470