 254 254   0   0
  0.3019211E+02  0.1718057E-08  0.1718057E-08  0.3000000E-08  0.5000000E-15
   1.0000000000000000E-004
  CAR 
 NiAl                                    
      5.42976864    -22.20282493  301      1.82059911      1.00000000
    -22.203  0.0000E+00  0.0000E+00
    -22.111  0.0000E+00  0.0000E+00
    -22.019  0.0000E+00  0.0000E+00
    -21.926  0.0000E+00  0.0000E+00
    -21.834  0.0000E+00  0.0000E+00
    -21.742  0.0000E+00  0.0000E+00
    -21.650  0.0000E+00  0.0000E+00
    -21.558  0.0000E+00  0.0000E+00
    -21.466  0.0000E+00  0.0000E+00
    -21.374  0.0000E+00  0.0000E+00
    -21.282  0.0000E+00  0.0000E+00
    -21.190  0.6791E-10  0.6255E-11
    -21.098  0.2137E-03  0.1968E-04
    -21.005  0.1045E+01  0.9625E-01
    -20.913  0.1691E+02  0.1654E+01
    -20.821  0.3755E+01  0.2000E+01
    -20.729  0.4228E-02  0.2000E+01
    -20.637  0.8288E-08  0.2000E+01
    -20.545  0.0000E+00  0.2000E+01
    -20.453  0.0000E+00  0.2000E+01
    -20.361  0.0000E+00  0.2000E+01
    -20.269  0.0000E+00  0.2000E+01
    -20.176  0.0000E+00  0.2000E+01
    -20.084  0.0000E+00  0.2000E+01
    -19.992  0.0000E+00  0.2000E+01
    -19.900  0.0000E+00  0.2000E+01
    -19.808  0.0000E+00  0.2000E+01
    -19.716  0.0000E+00  0.2000E+01
    -19.624  0.0000E+00  0.2000E+01
    -19.532  0.0000E+00  0.2000E+01
    -19.440  0.0000E+00  0.2000E+01
    -19.347  0.0000E+00  0.2000E+01
    -19.255  0.0000E+00  0.2000E+01
    -19.163  0.0000E+00  0.2000E+01
    -19.071  0.0000E+00  0.2000E+01
    -18.979  0.0000E+00  0.2000E+01
    -18.887  0.0000E+00  0.2000E+01
    -18.795  0.0000E+00  0.2000E+01
    -18.703  0.0000E+00  0.2000E+01
    -18.611  0.0000E+00  0.2000E+01
    -18.518  0.0000E+00  0.2000E+01
    -18.426  0.0000E+00  0.2000E+01
    -18.334  0.0000E+00  0.2000E+01
    -18.242  0.0000E+00  0.2000E+01
    -18.150  0.0000E+00  0.2000E+01
    -18.058  0.0000E+00  0.2000E+01
    -17.966  0.0000E+00  0.2000E+01
    -17.874  0.0000E+00  0.2000E+01
    -17.782  0.0000E+00  0.2000E+01
    -17.690  0.0000E+00  0.2000E+01
    -17.597  0.0000E+00  0.2000E+01
    -17.505  0.0000E+00  0.2000E+01
    -17.413  0.0000E+00  0.2000E+01
    -17.321  0.1205E-14  0.2000E+01
    -17.229  0.1085E-06  0.2000E+01
    -17.137  0.1926E-01  0.2002E+01
    -17.045  0.6525E+01  0.2603E+01
    -16.953  0.1477E+02  0.3963E+01
    -16.861  0.4026E+00  0.4000E+01
    -16.768  0.2966E-04  0.4000E+01
    -16.676  0.3238E-11  0.4000E+01
    -16.584  0.0000E+00  0.4000E+01
    -16.492  0.0000E+00  0.4000E+01
    -16.400  0.0000E+00  0.4000E+01
    -16.308  0.0000E+00  0.4000E+01
    -16.216  0.0000E+00  0.4000E+01
    -16.124  0.0000E+00  0.4000E+01
    -16.032  0.0000E+00  0.4000E+01
    -15.939  0.0000E+00  0.4000E+01
    -15.847  0.0000E+00  0.4000E+01
    -15.755  0.0000E+00  0.4000E+01
    -15.663  0.0000E+00  0.4000E+01
    -15.571  0.0000E+00  0.4000E+01
    -15.479  0.0000E+00  0.4000E+01
    -15.387  0.0000E+00  0.4000E+01
    -15.295  0.0000E+00  0.4000E+01
    -15.203  0.0000E+00  0.4000E+01
    -15.110  0.0000E+00  0.4000E+01
    -15.018  0.0000E+00  0.4000E+01
    -14.926  0.0000E+00  0.4000E+01
    -14.834  0.0000E+00  0.4000E+01
    -14.742  0.0000E+00  0.4000E+01
    -14.650  0.0000E+00  0.4000E+01
    -14.558  0.0000E+00  0.4000E+01
    -14.466  0.0000E+00  0.4000E+01
    -14.374  0.0000E+00  0.4000E+01
    -14.281  0.0000E+00  0.4000E+01
    -14.189  0.0000E+00  0.4000E+01
    -14.097  0.0000E+00  0.4000E+01
    -14.005  0.0000E+00  0.4000E+01
    -13.913  0.0000E+00  0.4000E+01
    -13.821  0.0000E+00  0.4000E+01
    -13.729  0.0000E+00  0.4000E+01
    -13.637  0.0000E+00  0.4000E+01
    -13.545  0.0000E+00  0.4000E+01
    -13.453  0.0000E+00  0.4000E+01
    -13.360  0.0000E+00  0.4000E+01
    -13.268  0.0000E+00  0.4000E+01
    -13.176  0.0000E+00  0.4000E+01
    -13.084  0.0000E+00  0.4000E+01
    -12.992  0.0000E+00  0.4000E+01
    -12.900  0.0000E+00  0.4000E+01
    -12.808  0.0000E+00  0.4000E+01
    -12.716  0.0000E+00  0.4000E+01
    -12.624  0.0000E+00  0.4000E+01
    -12.531  0.0000E+00  0.4000E+01
    -12.439  0.0000E+00  0.4000E+01
    -12.347  0.0000E+00  0.4000E+01
    -12.255  0.0000E+00  0.4000E+01
    -12.163  0.0000E+00  0.4000E+01
    -12.071  0.0000E+00  0.4000E+01
    -11.979  0.0000E+00  0.4000E+01
    -11.887  0.0000E+00  0.4000E+01
    -11.795  0.0000E+00  0.4000E+01
    -11.702  0.0000E+00  0.4000E+01
    -11.610  0.0000E+00  0.4000E+01
    -11.518  0.0000E+00  0.4000E+01
    -11.426  0.0000E+00  0.4000E+01
    -11.334  0.0000E+00  0.4000E+01
    -11.242  0.0000E+00  0.4000E+01
    -11.150  0.0000E+00  0.4000E+01
    -11.058  0.0000E+00  0.4000E+01
    -10.966  0.0000E+00  0.4000E+01
    -10.873  0.0000E+00  0.4000E+01
    -10.781  0.0000E+00  0.4000E+01
    -10.689  0.0000E+00  0.4000E+01
    -10.597  0.0000E+00  0.4000E+01
    -10.505  0.0000E+00  0.4000E+01
    -10.413  0.0000E+00  0.4000E+01
    -10.321  0.0000E+00  0.4000E+01
    -10.229  0.0000E+00  0.4000E+01
    -10.137  0.0000E+00  0.4000E+01
    -10.044  0.0000E+00  0.4000E+01
     -9.952  0.0000E+00  0.4000E+01
     -9.860  0.0000E+00  0.4000E+01
     -9.768  0.0000E+00  0.4000E+01
     -9.676  0.0000E+00  0.4000E+01
     -9.584  0.0000E+00  0.4000E+01
     -9.492  0.0000E+00  0.4000E+01
     -9.400  0.3013E-15  0.4000E+01
     -9.308  0.2241E-07  0.4000E+01
     -9.216  0.4313E-02  0.4000E+01
     -9.123  0.1571E+01  0.4145E+01
     -9.031  0.3870E+01  0.4502E+01
     -8.939  0.1550E+02  0.5929E+01
     -8.847  0.1690E+02  0.7485E+01
     -8.755  0.2562E+01  0.7721E+01
     -8.663  0.4987E+01  0.8180E+01
     -8.571  0.4597E+02  0.1241E+02
     -8.479  0.2126E+02  0.1437E+02
     -8.387  0.2616E+02  0.1678E+02
     -8.294  0.6281E+01  0.1736E+02
     -8.202  0.2618E+02  0.1977E+02
     -8.110  0.1318E+02  0.2099E+02
     -8.018  0.2776E+02  0.2354E+02
     -7.926  0.6260E+02  0.2931E+02
     -7.834  0.3448E+02  0.3249E+02
     -7.742  0.2031E+00  0.3250E+02
     -7.650  0.1695E+02  0.3406E+02
     -7.558  0.9908E+02  0.4319E+02
     -7.465  0.2671E+02  0.4565E+02
     -7.373  0.2085E+02  0.4757E+02
     -7.281  0.2827E+02  0.5018E+02
     -7.189  0.2668E+02  0.5263E+02
     -7.097  0.4367E+02  0.5666E+02
     -7.005  0.4369E+02  0.6068E+02
     -6.913  0.8586E+02  0.6859E+02
     -6.821  0.4276E+02  0.7253E+02
     -6.729  0.4424E+02  0.7660E+02
     -6.636  0.4148E+02  0.8042E+02
     -6.544  0.8571E+02  0.8832E+02
     -6.452  0.4355E+02  0.9233E+02
     -6.360  0.1790E+02  0.9398E+02
     -6.268  0.4517E+00  0.9402E+02
     -6.176  0.8904E+01  0.9484E+02
     -6.084  0.9414E+02  0.1035E+03
     -5.992  0.8149E+02  0.1110E+03
     -5.900  0.1004E+03  0.1203E+03
     -5.807  0.2132E+02  0.1222E+03
     -5.715  0.4137E+02  0.1260E+03
     -5.623  0.8859E+02  0.1342E+03
     -5.531  0.8546E+02  0.1421E+03
     -5.439  0.2679E+02  0.1445E+03
     -5.347  0.2463E+02  0.1468E+03
     -5.255  0.6894E+02  0.1532E+03
     -5.163  0.3958E+02  0.1568E+03
     -5.071  0.7723E+02  0.1639E+03
     -4.979  0.7612E+02  0.1709E+03
     -4.886  0.5273E+02  0.1758E+03
     -4.794  0.2493E+02  0.1781E+03
     -4.702  0.6369E+02  0.1839E+03
     -4.610  0.1145E+03  0.1945E+03
     -4.518  0.5217E+02  0.1993E+03
     -4.426  0.6721E+02  0.2055E+03
     -4.334  0.3942E+02  0.2091E+03
     -4.242  0.7497E+02  0.2160E+03
     -4.150  0.8971E+02  0.2243E+03
     -4.057  0.1028E+03  0.2338E+03
     -3.965  0.8999E+02  0.2420E+03
     -3.873  0.3852E+02  0.2456E+03
     -3.781  0.7275E+02  0.2523E+03
     -3.689  0.7407E+02  0.2591E+03
     -3.597  0.8123E+02  0.2666E+03
     -3.505  0.5977E+02  0.2721E+03
     -3.413  0.5119E+02  0.2768E+03
     -3.321  0.2361E+02  0.2790E+03
     -3.228  0.3987E+02  0.2827E+03
     -3.136  0.8588E+02  0.2906E+03
     -3.044  0.9570E+02  0.2994E+03
     -2.952  0.1008E+03  0.3087E+03
     -2.860  0.9685E+02  0.3176E+03
     -2.768  0.1464E+03  0.3311E+03
     -2.676  0.1650E+03  0.3463E+03
     -2.584  0.3402E+02  0.3494E+03
     -2.492  0.2018E+02  0.3513E+03
     -2.399  0.4315E+02  0.3552E+03
     -2.307  0.7742E+02  0.3624E+03
     -2.215  0.1122E+03  0.3727E+03
     -2.123  0.8076E+02  0.3801E+03
     -2.031  0.9713E+02  0.3891E+03
     -1.939  0.5560E+02  0.3942E+03
     -1.847  0.7937E+02  0.4015E+03
     -1.755  0.1255E+03  0.4131E+03
     -1.663  0.1052E+03  0.4228E+03
     -1.570  0.4909E+02  0.4273E+03
     -1.478  0.8005E+02  0.4347E+03
     -1.386  0.6146E+02  0.4403E+03
     -1.294  0.1535E+03  0.4545E+03
     -1.202  0.1181E+03  0.4654E+03
     -1.110  0.1133E+03  0.4758E+03
     -1.018  0.6851E+02  0.4821E+03
     -0.926  0.7890E+02  0.4894E+03
     -0.834  0.1144E+03  0.4999E+03
     -0.742  0.1128E+03  0.5103E+03
     -0.649  0.6903E+02  0.5167E+03
     -0.557  0.4397E+02  0.5207E+03
     -0.465  0.8192E+02  0.5283E+03
     -0.373  0.1856E+03  0.5454E+03
     -0.281  0.1062E+03  0.5551E+03
     -0.189  0.1291E+03  0.5670E+03
     -0.097  0.7263E+02  0.5737E+03
     -0.005  0.4199E+02  0.5776E+03
      0.087  0.8952E+02  0.5858E+03
      0.180  0.9195E+02  0.5943E+03
      0.272  0.8529E+02  0.6022E+03
      0.364  0.7801E+02  0.6093E+03
      0.456  0.8553E+02  0.6172E+03
      0.548  0.1443E+03  0.6305E+03
      0.640  0.7634E+02  0.6375E+03
      0.732  0.7155E+02  0.6441E+03
      0.824  0.3759E+02  0.6476E+03
      0.916  0.7381E+02  0.6544E+03
      1.009  0.2103E+03  0.6738E+03
      1.101  0.1724E+03  0.6896E+03
      1.193  0.1117E+03  0.6999E+03
      1.285  0.8728E+02  0.7080E+03
      1.377  0.6184E+02  0.7137E+03
      1.469  0.8338E+02  0.7213E+03
      1.561  0.1139E+03  0.7318E+03
      1.653  0.1682E+03  0.7473E+03
      1.745  0.1505E+03  0.7612E+03
      1.838  0.8341E+02  0.7689E+03
      1.930  0.5590E+02  0.7740E+03
      2.022  0.1444E+03  0.7873E+03
      2.114  0.1050E+03  0.7970E+03
      2.206  0.7542E+02  0.8039E+03
      2.298  0.8198E+02  0.8115E+03
      2.390  0.7615E+02  0.8185E+03
      2.482  0.1079E+03  0.8284E+03
      2.574  0.8359E+02  0.8361E+03
      2.667  0.1428E+03  0.8493E+03
      2.759  0.7946E+02  0.8566E+03
      2.851  0.9085E+02  0.8650E+03
      2.943  0.1840E+03  0.8819E+03
      3.035  0.2504E+03  0.9050E+03
      3.127  0.1145E+03  0.9155E+03
      3.219  0.6562E+02  0.9216E+03
      3.311  0.1049E+03  0.9312E+03
      3.403  0.1352E+03  0.9437E+03
      3.495  0.1304E+03  0.9557E+03
      3.588  0.1022E+03  0.9651E+03
      3.680  0.8488E+02  0.9729E+03
      3.772  0.1071E+03  0.9828E+03
      3.864  0.7660E+02  0.9899E+03
      3.956  0.1303E+03  0.1002E+04
      4.048  0.1507E+03  0.1016E+04
      4.140  0.7312E+02  0.1022E+04
      4.232  0.1602E+02  0.1024E+04
      4.324  0.4525E+00  0.1024E+04
      4.417  0.7032E-04  0.1024E+04
      4.509  0.1995E-10  0.1024E+04
      4.601  0.0000E+00  0.1024E+04
      4.693  0.0000E+00  0.1024E+04
      4.785  0.0000E+00  0.1024E+04
      4.877  0.0000E+00  0.1024E+04
      4.969  0.0000E+00  0.1024E+04
      5.061  0.0000E+00  0.1024E+04
      5.153  0.0000E+00  0.1024E+04
      5.246  0.0000E+00  0.1024E+04
      5.338  0.0000E+00  0.1024E+04
      5.430  0.0000E+00  0.1024E+04
