       N       E                     dE             d eps       ncg     rms          rms(c)
DAV:   1     0.242923639893E+04    0.24292E+04   -0.20467E+05  3088   0.854E+02
DAV:   2    -0.686191528747E+03   -0.31154E+04   -0.29386E+04  4176   0.203E+02
DAV:   3    -0.946956426604E+03   -0.26076E+03   -0.24847E+03  4824   0.457E+01
DAV:   4    -0.963710049417E+03   -0.16754E+02   -0.16338E+02  4984   0.103E+01
DAV:   5    -0.964546041040E+03   -0.83599E+00   -0.83046E+00  4384   0.225E+00    0.397E+01
DAV:   6    -0.970799481498E+03   -0.62534E+01   -0.19554E+02  3904   0.190E+01    0.302E+01
DAV:   7    -0.946680890527E+03    0.24119E+02   -0.19167E+02  3752   0.201E+01    0.187E+01
DAV:   8    -0.979950957268E+03   -0.33270E+02   -0.93314E+01  4624   0.191E+01    0.171E+01
DAV:   9    -0.937075151519E+03    0.42876E+02   -0.38406E+01  4520   0.173E+01    0.914E+00
DAV:  10    -0.933111672597E+03    0.39635E+01   -0.42039E+01  3904   0.707E+00    0.393E+00
DAV:  11    -0.932907517429E+03    0.20416E+00   -0.59873E+00  3928   0.323E+00    0.134E+00
DAV:  12    -0.932858072727E+03    0.49445E-01   -0.96408E-01  3976   0.118E+00    0.154E+00
DAV:  13    -0.932807660067E+03    0.50413E-01   -0.23210E-01  3848   0.763E-01    0.931E-01
DAV:  14    -0.932769769191E+03    0.37891E-01   -0.10863E-01  3664   0.442E-01    0.483E-01
DAV:  15    -0.932740418806E+03    0.29350E-01   -0.47902E-02  3776   0.288E-01    0.239E-01
DAV:  16    -0.932734558815E+03    0.58600E-02   -0.25120E-02  3560   0.163E-01    0.194E-01
DAV:  17    -0.932738323272E+03   -0.37645E-02   -0.55079E-03  3856   0.901E-02    0.131E-01
DAV:  18    -0.932746002004E+03   -0.76787E-02   -0.56309E-03  3384   0.921E-02    0.750E-02
DAV:  19    -0.932748933876E+03   -0.29319E-02   -0.14157E-03  3800   0.480E-02    0.792E-02
DAV:  20    -0.932750633555E+03   -0.16997E-02   -0.26807E-04  3808   0.314E-02    0.548E-02
DAV:  21    -0.932753563823E+03   -0.29303E-02   -0.51010E-04  3504   0.313E-02    0.399E-02
DAV:  22    -0.932754449187E+03   -0.88536E-03   -0.18605E-04  3408   0.211E-02    0.331E-02
DAV:  23    -0.932755235829E+03   -0.78664E-03   -0.18118E-04  3624   0.197E-02    0.163E-02
DAV:  24    -0.932756084854E+03   -0.84903E-03   -0.72458E-05  3424   0.102E-02    0.112E-02
DAV:  25    -0.932756786058E+03   -0.70120E-03   -0.85492E-05  2960   0.702E-03    0.818E-03
DAV:  26    -0.932757514254E+03   -0.72820E-03   -0.26509E-05  2744   0.546E-03    0.886E-03
DAV:  27    -0.932758247095E+03   -0.73284E-03   -0.32172E-05  2640   0.475E-03    0.708E-03
DAV:  28    -0.932758752491E+03   -0.50540E-03   -0.37393E-05  2832   0.458E-03    0.442E-03
DAV:  29    -0.932758927123E+03   -0.17463E-03   -0.94707E-06  2624   0.227E-03    0.447E-03
DAV:  30    -0.932759006385E+03   -0.79262E-04   -0.33433E-06  2344   0.245E-03    0.245E-03
DAV:  31    -0.932759051479E+03   -0.45094E-04   -0.45078E-06  2400   0.217E-03    0.407E-03
DAV:  32    -0.932759054727E+03   -0.32475E-05   -0.55809E-07  1824   0.181E-03
   1 F= -.10055906E+04 E0= -.10055543E+04  d E =-.726003E-01
