 271 271   0   0
  0.2066250E+02  0.1441508E-08  0.1441508E-08  0.3111625E-08  0.2000000E-15
   1.0000000000000000E-004
  CAR 
 NiAl                                    
      9.78832052    -23.60773301  301     -0.66881874      1.00000000
    -23.608  0.0000E+00  0.0000E+00
    -23.496  0.0000E+00  0.0000E+00
    -23.385  0.0000E+00  0.0000E+00
    -23.274  0.0000E+00  0.0000E+00
    -23.162  0.0000E+00  0.0000E+00
    -23.051  0.0000E+00  0.0000E+00
    -22.940  0.0000E+00  0.0000E+00
    -22.828  0.0000E+00  0.0000E+00
    -22.717  0.0000E+00  0.0000E+00
    -22.606  0.0000E+00  0.0000E+00
    -22.495  0.0000E+00  0.0000E+00
    -22.383  0.6649E-17  0.7401E-18
    -22.272  0.1533E-07  0.1706E-08
    -22.161  0.2695E-02  0.3000E-03
    -22.049  0.1019E+00  0.1165E-01
    -21.938  0.1513E-01  0.1333E-01
    -21.827  0.1058E-05  0.1333E-01
    -21.715  0.5981E-14  0.1333E-01
    -21.604  0.0000E+00  0.1333E-01
    -21.493  0.0000E+00  0.1333E-01
    -21.381  0.0000E+00  0.1333E-01
    -21.270  0.0000E+00  0.1333E-01
    -21.159  0.0000E+00  0.1333E-01
    -21.047  0.0000E+00  0.1333E-01
    -20.936  0.0000E+00  0.1333E-01
    -20.825  0.6649E-17  0.1333E-01
    -20.713  0.1020E-07  0.1333E-01
    -20.602  0.1034E-02  0.1345E-01
    -20.491  0.2956E-01  0.1674E-01
    -20.379  0.1521E+00  0.3367E-01
    -20.268  0.2870E-01  0.3686E-01
    -20.157  0.1626E+00  0.5496E-01
    -20.045  0.3054E+00  0.8896E-01
    -19.934  0.1001E+00  0.1001E+00
    -19.823  0.1569E+00  0.1176E+00
    -19.712  0.5697E+00  0.1810E+00
    -19.600  0.2802E+00  0.2122E+00
    -19.489  0.3157E+00  0.2473E+00
    -19.378  0.5304E+00  0.3064E+00
    -19.266  0.4026E+00  0.3512E+00
    -19.155  0.4417E+00  0.4003E+00
    -19.044  0.6366E+00  0.4712E+00
    -18.932  0.2166E+00  0.4953E+00
    -18.821  0.4942E+00  0.5503E+00
    -18.710  0.6649E+00  0.6244E+00
    -18.598  0.8514E+00  0.7191E+00
    -18.487  0.1107E+01  0.8424E+00
    -18.376  0.1209E+01  0.9770E+00
    -18.264  0.1595E+01  0.1155E+01
    -18.153  0.1506E+01  0.1322E+01
    -18.042  0.1797E+01  0.1522E+01
    -17.930  0.1553E+01  0.1695E+01
    -17.819  0.1477E+01  0.1860E+01
    -17.708  0.2376E+01  0.2124E+01
    -17.596  0.3232E+00  0.2160E+01
    -17.485  0.1077E-03  0.2160E+01
    -17.374  0.6511E-11  0.2160E+01
    -17.262  0.0000E+00  0.2160E+01
    -17.151  0.0000E+00  0.2160E+01
    -17.040  0.0000E+00  0.2160E+01
    -16.929  0.0000E+00  0.2160E+01
    -16.817  0.0000E+00  0.2160E+01
    -16.706  0.0000E+00  0.2160E+01
    -16.595  0.0000E+00  0.2160E+01
    -16.483  0.0000E+00  0.2160E+01
    -16.372  0.3324E-16  0.2160E+01
    -16.261  0.4383E-07  0.2160E+01
    -16.149  0.4265E-02  0.2160E+01
    -16.038  0.1048E+00  0.2172E+01
    -15.927  0.1071E-01  0.2173E+01
    -15.815  0.4204E-06  0.2173E+01
    -15.704  0.1283E-14  0.2173E+01
    -15.593  0.0000E+00  0.2173E+01
    -15.481  0.0000E+00  0.2173E+01
    -15.370  0.0000E+00  0.2173E+01
    -15.259  0.0000E+00  0.2173E+01
    -15.147  0.0000E+00  0.2173E+01
    -15.036  0.0000E+00  0.2173E+01
    -14.925  0.0000E+00  0.2173E+01
    -14.813  0.0000E+00  0.2173E+01
    -14.702  0.0000E+00  0.2173E+01
    -14.591  0.0000E+00  0.2173E+01
    -14.479  0.0000E+00  0.2173E+01
    -14.368  0.0000E+00  0.2173E+01
    -14.257  0.0000E+00  0.2173E+01
    -14.146  0.0000E+00  0.2173E+01
    -14.034  0.0000E+00  0.2173E+01
    -13.923  0.0000E+00  0.2173E+01
    -13.812  0.0000E+00  0.2173E+01
    -13.700  0.0000E+00  0.2173E+01
    -13.589  0.0000E+00  0.2173E+01
    -13.478  0.0000E+00  0.2173E+01
    -13.366  0.0000E+00  0.2173E+01
    -13.255  0.0000E+00  0.2173E+01
    -13.144  0.0000E+00  0.2173E+01
    -13.032  0.0000E+00  0.2173E+01
    -12.921  0.0000E+00  0.2173E+01
    -12.810  0.0000E+00  0.2173E+01
    -12.698  0.0000E+00  0.2173E+01
    -12.587  0.0000E+00  0.2173E+01
    -12.476  0.0000E+00  0.2173E+01
    -12.364  0.0000E+00  0.2173E+01
    -12.253  0.0000E+00  0.2173E+01
    -12.142  0.0000E+00  0.2173E+01
    -12.030  0.0000E+00  0.2173E+01
    -11.919  0.0000E+00  0.2173E+01
    -11.808  0.0000E+00  0.2173E+01
    -11.696  0.0000E+00  0.2173E+01
    -11.585  0.0000E+00  0.2173E+01
    -11.474  0.0000E+00  0.2173E+01
    -11.363  0.0000E+00  0.2173E+01
    -11.251  0.0000E+00  0.2173E+01
    -11.140  0.0000E+00  0.2173E+01
    -11.029  0.0000E+00  0.2173E+01
    -10.917  0.0000E+00  0.2173E+01
    -10.806  0.0000E+00  0.2173E+01
    -10.695  0.0000E+00  0.2173E+01
    -10.583  0.0000E+00  0.2173E+01
    -10.472  0.0000E+00  0.2173E+01
    -10.361  0.0000E+00  0.2173E+01
    -10.249  0.0000E+00  0.2173E+01
    -10.138  0.0000E+00  0.2173E+01
    -10.027  0.0000E+00  0.2173E+01
     -9.915  0.0000E+00  0.2173E+01
     -9.804  0.0000E+00  0.2173E+01
     -9.693  0.0000E+00  0.2173E+01
     -9.581  0.0000E+00  0.2173E+01
     -9.470  0.0000E+00  0.2173E+01
     -9.359  0.0000E+00  0.2173E+01
     -9.247  0.0000E+00  0.2173E+01
     -9.136  0.0000E+00  0.2173E+01
     -9.025  0.0000E+00  0.2173E+01
     -8.913  0.0000E+00  0.2173E+01
     -8.802  0.0000E+00  0.2173E+01
     -8.691  0.0000E+00  0.2173E+01
     -8.580  0.0000E+00  0.2173E+01
     -8.468  0.0000E+00  0.2173E+01
     -8.357  0.0000E+00  0.2173E+01
     -8.246  0.1087E-10  0.2173E+01
     -8.134  0.3891E-04  0.2173E+01
     -8.023  0.1895E-01  0.2175E+01
     -7.912  0.1751E+00  0.2195E+01
     -7.800  0.3384E+00  0.2233E+01
     -7.689  0.3639E+00  0.2273E+01
     -7.578  0.6652E+00  0.2347E+01
     -7.466  0.6044E+00  0.2414E+01
     -7.355  0.4892E+00  0.2469E+01
     -7.244  0.9700E+00  0.2577E+01
     -7.132  0.9629E+00  0.2684E+01
     -7.021  0.8025E+00  0.2773E+01
     -6.910  0.6449E+00  0.2845E+01
     -6.798  0.7833E+00  0.2932E+01
     -6.687  0.8469E+00  0.3027E+01
     -6.576  0.5050E+00  0.3083E+01
     -6.464  0.9218E+00  0.3186E+01
     -6.353  0.7442E+00  0.3268E+01
     -6.242  0.7803E+00  0.3355E+01
     -6.130  0.5674E+00  0.3418E+01
     -6.019  0.6574E+00  0.3492E+01
     -5.908  0.5851E+00  0.3557E+01
     -5.797  0.7284E+00  0.3638E+01
     -5.685  0.8328E+00  0.3730E+01
     -5.574  0.7519E+00  0.3814E+01
     -5.463  0.1024E+01  0.3928E+01
     -5.351  0.8402E+00  0.4022E+01
     -5.240  0.1132E+01  0.4148E+01
     -5.129  0.6926E+00  0.4225E+01
     -5.017  0.7606E+00  0.4309E+01
     -4.906  0.4541E+00  0.4360E+01
     -4.795  0.5948E+00  0.4426E+01
     -4.683  0.8910E+00  0.4525E+01
     -4.572  0.9005E+00  0.4626E+01
     -4.461  0.7912E+00  0.4714E+01
     -4.349  0.8706E+00  0.4811E+01
     -4.238  0.6801E+00  0.4886E+01
     -4.127  0.9010E+00  0.4987E+01
     -4.015  0.8830E+00  0.5085E+01
     -3.904  0.1035E+01  0.5200E+01
     -3.793  0.1042E+01  0.5316E+01
     -3.681  0.1206E+01  0.5450E+01
     -3.570  0.1353E+01  0.5601E+01
     -3.459  0.1199E+01  0.5735E+01
     -3.347  0.1229E+01  0.5871E+01
     -3.236  0.1243E+01  0.6010E+01
     -3.125  0.1237E+01  0.6147E+01
     -3.013  0.1636E+01  0.6329E+01
     -2.902  0.1573E+01  0.6505E+01
     -2.791  0.1785E+01  0.6703E+01
     -2.680  0.1680E+01  0.6890E+01
     -2.568  0.1604E+01  0.7069E+01
     -2.457  0.1538E+01  0.7240E+01
     -2.346  0.1438E+01  0.7400E+01
     -2.234  0.1631E+01  0.7582E+01
     -2.123  0.1401E+01  0.7738E+01
     -2.012  0.1262E+01  0.7878E+01
     -1.900  0.1380E+01  0.8032E+01
     -1.789  0.1188E+01  0.8164E+01
     -1.678  0.1302E+01  0.8309E+01
     -1.566  0.1478E+01  0.8474E+01
     -1.455  0.1546E+01  0.8646E+01
     -1.344  0.1893E+00  0.8667E+01
     -1.232  0.1418E-03  0.8667E+01
     -1.121  0.3263E-04  0.8667E+01
     -1.010  0.4529E-01  0.8672E+01
     -0.898  0.7418E-01  0.8680E+01
     -0.787  0.2718E-03  0.8680E+01
     -0.676  0.1288E-09  0.8680E+01
     -0.564  0.0000E+00  0.8680E+01
     -0.453  0.0000E+00  0.8680E+01
     -0.342  0.0000E+00  0.8680E+01
     -0.230  0.0000E+00  0.8680E+01
     -0.119  0.0000E+00  0.8680E+01
     -0.008  0.0000E+00  0.8680E+01
      0.103  0.0000E+00  0.8680E+01
      0.215  0.0000E+00  0.8680E+01
      0.326  0.0000E+00  0.8680E+01
      0.437  0.0000E+00  0.8680E+01
      0.549  0.0000E+00  0.8680E+01
      0.660  0.0000E+00  0.8680E+01
      0.771  0.0000E+00  0.8680E+01
      0.883  0.0000E+00  0.8680E+01
      0.994  0.0000E+00  0.8680E+01
      1.105  0.0000E+00  0.8680E+01
      1.217  0.0000E+00  0.8680E+01
      1.328  0.0000E+00  0.8680E+01
      1.439  0.0000E+00  0.8680E+01
      1.551  0.0000E+00  0.8680E+01
      1.662  0.0000E+00  0.8680E+01
      1.773  0.0000E+00  0.8680E+01
      1.885  0.0000E+00  0.8680E+01
      1.996  0.0000E+00  0.8680E+01
      2.107  0.0000E+00  0.8680E+01
      2.219  0.0000E+00  0.8680E+01
      2.330  0.0000E+00  0.8680E+01
      2.441  0.3092E-15  0.8680E+01
      2.553  0.1762E-06  0.8680E+01
      2.664  0.7598E-02  0.8681E+01
      2.775  0.1059E+00  0.8693E+01
      2.886  0.6280E-02  0.8693E+01
      2.998  0.1104E-06  0.8693E+01
      3.109  0.2515E-12  0.8693E+01
      3.220  0.5087E-05  0.8693E+01
      3.332  0.9938E-02  0.8694E+01
      3.443  0.2423E-01  0.8697E+01
      3.554  0.2658E-01  0.8700E+01
      3.666  0.1075E+00  0.8712E+01
      3.777  0.2066E+00  0.8735E+01
      3.888  0.4437E-01  0.8740E+01
      4.000  0.3306E-01  0.8744E+01
      4.111  0.1697E+00  0.8763E+01
      4.222  0.2818E+00  0.8794E+01
      4.334  0.1976E+00  0.8816E+01
      4.445  0.2139E+00  0.8840E+01
      4.556  0.3618E+00  0.8880E+01
      4.668  0.3325E+00  0.8917E+01
      4.779  0.1671E+00  0.8936E+01
      4.890  0.1009E-01  0.8937E+01
      5.002  0.5948E-01  0.8943E+01
      5.113  0.1629E+00  0.8962E+01
      5.224  0.3810E-01  0.8966E+01
      5.336  0.1639E+00  0.8984E+01
      5.447  0.1631E+00  0.9002E+01
      5.558  0.1064E+00  0.9014E+01
      5.669  0.9602E-01  0.9025E+01
      5.781  0.9520E-01  0.9035E+01
      5.892  0.4421E+00  0.9084E+01
      6.003  0.2341E+00  0.9111E+01
      6.115  0.3968E+00  0.9155E+01
      6.226  0.2293E+00  0.9180E+01
      6.337  0.2968E+00  0.9213E+01
      6.449  0.8503E+00  0.9308E+01
      6.560  0.7373E+00  0.9390E+01
      6.671  0.6984E+00  0.9468E+01
      6.783  0.2211E+00  0.9492E+01
      6.894  0.4088E+00  0.9538E+01
      7.005  0.4099E+00  0.9584E+01
      7.117  0.5063E+00  0.9640E+01
      7.228  0.5599E+00  0.9702E+01
      7.339  0.4735E+00  0.9755E+01
      7.451  0.2483E+00  0.9783E+01
      7.562  0.4258E+00  0.9830E+01
      7.673  0.9454E+00  0.9935E+01
      7.785  0.1003E+01  0.1005E+02
      7.896  0.7869E+00  0.1013E+02
      8.007  0.1040E+01  0.1025E+02
      8.119  0.9786E+00  0.1036E+02
      8.230  0.8425E+00  0.1045E+02
      8.341  0.3603E+00  0.1049E+02
      8.452  0.2593E-02  0.1049E+02
      8.564  0.6979E-08  0.1049E+02
      8.675  0.0000E+00  0.1049E+02
      8.786  0.0000E+00  0.1049E+02
      8.898  0.0000E+00  0.1049E+02
      9.009  0.0000E+00  0.1049E+02
      9.120  0.0000E+00  0.1049E+02
      9.232  0.0000E+00  0.1049E+02
      9.343  0.0000E+00  0.1049E+02
      9.454  0.0000E+00  0.1049E+02
      9.566  0.0000E+00  0.1049E+02
      9.677  0.0000E+00  0.1049E+02
      9.788  0.0000E+00  0.1049E+02
