         279
 Energy:  -1975.0636092000000      en  -1923.3463892000000      edisp  -51.717219999999998     
 X   0.00000000       0.00000000       0.00000000    
 X   14.4150839       0.00000000       0.00000000    
 X  -7.20754194       12.4838276       0.00000000    
 X   0.00000000       0.00000000       31.1162548    
 X   7.20754194       12.4838276       0.00000000    
 X   14.4150839       0.00000000       31.1162548    
 X  -7.20754194       12.4838276       31.1162548    
 X   7.20754194       12.4838276       31.1162548    
 Al   0.00000000       0.00000000       1.93994999    
 Al  -0.00000000       2.77418995      0.246099994    
 Al  -0.00000000       2.77418995       4.12598991    
 Al   2.40251994       1.38708997       2.43213010    
 Al   2.40251994       1.38708997       6.31202984    
 Al   0.00000000       0.00000000       4.61817980    
 Al   0.00000000       0.00000000       8.49806976    
 Al  -0.00000000       2.77418995       6.80423021    
 Al  -0.00000000       2.77418995       10.6841202    
 Al   2.40251994       1.38708997       8.99026012    
 Al   2.40251994       1.38708997       12.8701496    
 Al   0.00000000       0.00000000       11.1763096    
 Al  -2.40250993       4.16128016       1.93994999    
 Al  -2.40251994       6.93546009      0.246099994    
 Al  -2.40251994       6.93546009       4.12598991    
 Al   0.00000000       5.54836988       2.43213010    
 Al   0.00000000       5.54836988       6.31202984    
 Al  -2.40250993       4.16128016       4.61817980    
 Al  -2.40250993       4.16128016       8.49806976    
 Al  -2.40251994       6.93546009       6.80423021    
 Al  -2.40251994       6.93546009       10.6841202    
 Al   0.00000000       5.54836988       8.99026012    
 Al   0.00000000       5.54836988       12.8701496    
 Al  -2.40250993       4.16128016       11.1763096    
 Al  -4.80502987       8.32254982       1.93994999    
 Al  -4.80502987       11.0967398      0.246099994    
 Al  -4.80502987       11.0967398       4.12598991    
 Al  -2.40250993       9.70963955       2.43213010    
 Al  -2.40250993       9.70963955       6.31202984    
 Al  -4.80502987       8.32254982       4.61817980    
 Al  -4.80502987       8.32254982       8.49806976    
 Al  -4.80502987       11.0967398       6.80423021    
 Al  -4.80502987       11.0967398       10.6841202    
 Al  -2.40250993       9.70963955       8.99026012    
 Al  -2.40250993       9.70963955       12.8701496    
 Al  -4.80502987       8.32254982       11.1763096    
 Al   4.80502987       0.00000000       1.93994999    
 Al   4.80502987       2.77418995      0.246099994    
 Al   4.80502987       2.77418995       4.12598991    
 Al   7.20754004       1.38708997       2.43213010    
 Al   7.20754004       1.38708997       6.31202984    
 Al   4.80502987       0.00000000       4.61817980    
 Al   4.80502987       0.00000000       8.49806976    
 Al   4.80502987       2.77418995       6.80423021    
 Al   4.80502987       2.77418995       10.6841202    
 Al   7.20754004       1.38708997       8.99026012    
 Al   7.20754004       1.38708997       12.8701496    
 Al   4.80502987       0.00000000       11.1763096    
 Al   2.40250993       4.16128016       1.93994999    
 Al   2.40250993       6.93546009      0.246099994    
 Al   2.40250993       6.93546009       4.12598991    
 Al   4.80502987       5.54836988       2.43213010    
 Al   4.80502987       5.54836988       6.31202984    
 Al   2.40250993       4.16128016       4.61817980    
 Al   2.40250993       4.16128016       8.49806976    
 Al   2.40250993       6.93546009       6.80423021    
 Al   2.40250993       6.93546009       10.6841202    
 Al   4.80502987       5.54836988       8.99026012    
 Al   4.80502987       5.54836988       12.8701496    
 Al   2.40250993       4.16128016       11.1763096    
 Al   0.00000000       8.32254982       1.93994999    
 Al  -0.00000000       11.0967398      0.246099994    
 Al  -0.00000000       11.0967398       4.12598991    
 Al   2.40251994       9.70963955       2.43213010    
 Al   2.40251994       9.70963955       6.31202984    
 Al   0.00000000       8.32254982       4.61817980    
 Al   0.00000000       8.32254982       8.49806976    
 Al  -0.00000000       11.0967398       6.80423021    
 Al  -0.00000000       11.0967398       10.6841202    
 Al   2.40251994       9.70963955       8.99026012    
 Al   2.40251994       9.70963955       12.8701496    
 Al   0.00000000       8.32254982       11.1763096    
 Al   9.61005974       0.00000000       1.93994999    
 Al   9.61005020       2.77418995      0.246099994    
 Al   9.61005020       2.77418995       4.12598991    
 Al   12.0125704       1.38708997       2.43213010    
 Al   12.0125704       1.38708997       6.31202984    
 Al   9.61005974       0.00000000       4.61817980    
 Al   9.61005974       0.00000000       8.49806976    
 Al   9.61005020       2.77418995       6.80423021    
 Al   9.61005020       2.77418995       10.6841202    
 Al   12.0125704       1.38708997       8.99026012    
 Al   12.0125704       1.38708997       12.8701496    
 Al   9.61005974       0.00000000       11.1763096    
 Al   7.20754004       4.16128016       1.93994999    
 Al   7.20754004       6.93546009      0.246099994    
 Al   7.20754004       6.93546009       4.12598991    
 Al   9.61005974       5.54836988       2.43213010    
 Al   9.61005974       5.54836988       6.31202984    
 Al   7.20754004       4.16128016       4.61817980    
 Al   7.20754004       4.16128016       8.49806976    
 Al   7.20754004       6.93546009       6.80423021    
 Al   7.20754004       6.93546009       10.6841202    
 Al   9.61005974       5.54836988       8.99026012    
 Al   9.61005974       5.54836988       12.8701496    
 Al   7.20754004       4.16128016       11.1763096    
 Al   4.80502987       8.32254982       1.93994999    
 Al   4.80502987       11.0967398      0.246099994    
 Al   4.80502987       11.0967398       4.12598991    
 Al   7.20754004       9.70963955       2.43213010    
 Al   7.20754004       9.70963955       6.31202984    
 Al   4.80502987       8.32254982       4.61817980    
 Al   4.80502987       8.32254982       8.49806976    
 Al   4.80502987       11.0967398       6.80423021    
 Al   4.80502987       11.0967398       10.6841202    
 Al   7.20754004       9.70963955       8.99026012    
 Al   7.20754004       9.70963955       12.8701496    
 Al   4.80502987       8.32254982       11.1763096    
 O    1.47104001       0.00000000       3.27905989    
 O    3.13804007      0.113130003       1.09301996    
 O  -0.735520005       1.27395999       3.27905989    
 O    1.66699004       2.88732004       3.27905989    
 O    3.13804007       2.66105008       1.09301996    
 O   0.931479990       1.38708997       1.09301996    
 O    3.87355995       1.38708997       7.65114021    
 O   0.735520005       1.50022995       5.46510983    
 O    1.66700006       2.66105008       7.65114021    
 O    1.66700006      0.113130003       7.65114021    
 O   0.735520005       4.04814005       5.46510983    
 O   -1.47104001       2.77418995       5.46510983    
 O    1.47104001       2.77418995       12.0232401    
 O   -1.66699004       2.88732004       9.83718967    
 O  -0.735520005       4.04814005       12.0232401    
 O  -0.735520005       1.50022995       12.0232401    
 O   0.735520005       1.27395999       9.83718967    
 O    3.33399010       0.00000000       9.83718967    
 O  -0.931469977       4.16128016       3.27905989    
 O   0.735520005       4.27440977       1.09301996    
 O   -3.13803005       5.43522978       3.27905989    
 O  -0.735520005       7.04859018       3.27905989    
 O   0.735520005       6.82231998       1.09301996    
 O   -1.47104001       5.54836988       1.09301996    
 O    1.47104001       5.54836988       7.65114021    
 O   -1.66700006       5.66149998       5.46510983    
 O  -0.735520005       6.82231998       7.65114021    
 O  -0.735520005       4.27440977       7.65114021    
 O   -1.66700006       8.20942020       5.46510983    
 O   -3.87355995       6.93546009       5.46510983    
 O  -0.931479990       6.93546009       12.0232401    
 O   -4.06950998       7.04859018       9.83718967    
 O   -3.13804007       8.20942020       12.0232401    
 O   -3.13804007       5.66149998       12.0232401    
 O   -1.66699004       5.43522978       9.83718967    
 O   0.931469977       4.16128016       9.83718967    
 O   -3.33399010       8.32254982       3.27905989    
 O   -1.66699004       8.43568039       1.09301996    
 O   -5.54055023       9.59650993       3.27905989    
 O   -3.13803005       11.2098703       3.27905989    
 O   -1.66699004       10.9835997       1.09301996    
 O   -3.87354994       9.70963955       1.09301996    
 O  -0.931469977       9.70963955       7.65114021    
 O   -4.06950998       9.82277966       5.46510983    
 O   -3.13803005       10.9835997       7.65114021    
 O   -3.13803005       8.43568039       7.65114021    
 O   -4.06950998       12.3706999       5.46510983    
 O   -6.27607012       11.0967398       5.46510983    
 O   -3.33399010       11.0967398       12.0232401    
 O   -6.47202015       11.2098703       9.83718967    
 O   -5.54055023       12.3706999       12.0232401    
 O   -5.54055023       9.82277966       12.0232401    
 O   -4.06950998       9.59650993       9.83718967    
 O   -1.47104001       8.32254982       9.83718967    
 O    6.27607012       0.00000000       3.27905989    
 O    7.94305992      0.113130003       1.09301996    
 O    4.06950998       1.27395999       3.27905989    
 O    6.47202015       2.88732004       3.27905989    
 O    7.94305992       2.66105008       1.09301996    
 O    5.73649979       1.38708997       1.09301996    
 O    8.67858028       1.38708997       7.65114021    
 O    5.54055023       1.50022995       5.46510983    
 O    6.47202015       2.66105008       7.65114021    
 O    6.47202015      0.113130003       7.65114021    
 O    5.54055023       4.04814005       5.46510983    
 O    3.33399010       2.77418995       5.46510983    
 O    6.27607012       2.77418995       12.0232401    
 O    3.13803005       2.88732004       9.83718967    
 O    4.06950998       4.04814005       12.0232401    
 O    4.06950998       1.50022995       12.0232401    
 O    5.54055023       1.27395999       9.83718967    
 O    8.13901997       0.00000000       9.83718967    
 O    3.87354994       4.16128016       3.27905989    
 O    5.54055023       4.27440977       1.09301996    
 O    1.66699004       5.43522978       3.27905989    
 O    4.06950998       7.04859018       3.27905989    
 O    5.54055023       6.82231998       1.09301996    
 O    3.33399010       5.54836988       1.09301996    
 O    6.27607012       5.54836988       7.65114021    
 O    3.13803005       5.66149998       5.46510983    
 O    4.06950998       6.82231998       7.65114021    
 O    4.06950998       4.27440977       7.65114021    
 O    3.13803005       8.20942020       5.46510983    
 O   0.931469977       6.93546009       5.46510983    
 O    3.87354994       6.93546009       12.0232401    
 O   0.735520005       7.04859018       9.83718967    
 O    1.66699004       8.20942020       12.0232401    
 O    1.66699004       5.66149998       12.0232401    
 O    3.13803005       5.43522978       9.83718967    
 O    5.73649979       4.16128016       9.83718967    
 O    1.47104001       8.32254982       3.27905989    
 O    3.13804007       8.43568039       1.09301996    
 O  -0.735520005       9.59650993       3.27905989    
 O    1.66699004       11.2098703       3.27905989    
 O    3.13804007       10.9835997       1.09301996    
 O   0.931479990       9.70963955       1.09301996    
 O    3.87355995       9.70963955       7.65114021    
 O   0.735520005       9.82277966       5.46510983    
 O    1.66700006       10.9835997       7.65114021    
 O    1.66700006       8.43568039       7.65114021    
 O   0.735520005       12.3706999       5.46510983    
 O   -1.47104001       11.0967398       5.46510983    
 O    1.47104001       11.0967398       12.0232401    
 O   -1.66699004       11.2098703       9.83718967    
 O  -0.735520005       12.3706999       12.0232401    
 O  -0.735520005       9.82277966       12.0232401    
 O   0.735520005       9.59650993       9.83718967    
 O    3.33399010       8.32254982       9.83718967    
 O    11.0811005       0.00000000       3.27905989    
 O    12.7480898      0.113130003       1.09301996    
 O    8.87454033       1.27395999       3.27905989    
 O    11.2770500       2.88732004       3.27905989    
 O    12.7480898       2.66105008       1.09301996    
 O    10.5415297       1.38708997       1.09301996    
 O    13.4836102       1.38708997       7.65114021    
 O    10.3455696       1.50022995       5.46510983    
 O    11.2770500       2.66105008       7.65114021    
 O    11.2770500      0.113130003       7.65114021    
 O    10.3455696       4.04814005       5.46510983    
 O    8.13901043       2.77418995       5.46510983    
 O    11.0810900       2.77418995       12.0232401    
 O    7.94305992       2.88732004       9.83718967    
 O    8.87452984       4.04814005       12.0232401    
 O    8.87452984       1.50022995       12.0232401    
 O    10.3455801       1.27395999       9.83718967    
 O    12.9440403       0.00000000       9.83718967    
 O    8.67858028       4.16128016       3.27905989    
 O    10.3455801       4.27440977       1.09301996    
 O    6.47202015       5.43522978       3.27905989    
 O    8.87454033       7.04859018       3.27905989    
 O    10.3455801       6.82231998       1.09301996    
 O    8.13901997       5.54836988       1.09301996    
 O    11.0811005       5.54836988       7.65114021    
 O    7.94305992       5.66149998       5.46510983    
 O    8.87454033       6.82231998       7.65114021    
 O    8.87454033       4.27440977       7.65114021    
 O    7.94305992       8.20942020       5.46510983    
 O    5.73649979       6.93546009       5.46510983    
 O    8.67858028       6.93546009       12.0232401    
 O    5.54055023       7.04859018       9.83718967    
 O    6.47202015       8.20942020       12.0232401    
 O    6.47202015       5.66149998       12.0232401    
 O    7.94305992       5.43522978       9.83718967    
 O    10.5415297       4.16128016       9.83718967    
 O    6.27607012       8.32254982       3.27905989    
 O    7.94305992       8.43568039       1.09301996    
 O    4.06950998       9.59650993       3.27905989    
 O    6.47202015       11.2098703       3.27905989    
 O    7.94305992       10.9835997       1.09301996    
 O    5.73649979       9.70963955       1.09301996    
 O    8.67858028       9.70963955       7.65114021    
 O    5.54055023       9.82277966       5.46510983    
 O    6.47202015       10.9835997       7.65114021    
 O    6.47202015       8.43568039       7.65114021    
 O    5.54055023       12.3706999       5.46510983    
 O    3.33399010       11.0967398       5.46510983    
 O    6.27607012       11.0967398       12.0232401    
 O    3.13803005       11.2098703       9.83718967    
 O    4.06950998       12.3706999       12.0232401    
 O    4.06950998       9.82277966       12.0232401    
 O    5.54055023       9.59650993       9.83718967    
 O    8.13901997       8.32254982       9.83718967    
 O    3.32901001       5.76601982       13.8701496    
         279
 Energy:  -1993.6764194000000      en  -1941.8511794000001      edisp  -51.825240000000001     
 X   0.00000000       0.00000000       0.00000000    
 X   14.4150839       0.00000000       0.00000000    
 X  -7.20754194       12.4838276       0.00000000    
 X   0.00000000       0.00000000       31.1162548    
 X   7.20754194       12.4838276       0.00000000    
 X   14.4150839       0.00000000       31.1162548    
 X  -7.20754194       12.4838276       31.1162548    
 X   7.20754194       12.4838276       31.1162548    
 Al   1.99999995E-05   1.99999995E-05   1.92537999    
 Al  -0.00000000       2.77420998      0.376219988    
 Al   2.99999992E-05   2.77419996       4.12377024    
 Al   2.40256000       1.38714004       2.39604998    
 Al   2.40264010       1.38733006       6.31245995    
 Al   4.99999987E-05   7.99999980E-05   4.61796999    
 Al   2.30000005E-04   2.60000001E-04   8.49923992    
 Al   3.49999988E-04   2.77411008       6.80523014    
 Al   9.89999971E-04   2.77407002       10.7208500    
 Al   2.40322995       1.38900006       8.99407005    
 Al   2.40253997       1.39047003       12.7426701    
 Al   3.39999999E-04  -9.99999975E-05   11.1908302    
 Al  -2.40251994       4.16128016       1.92537999    
 Al  -2.40253997       6.93547010      0.376269996    
 Al  -2.40250993       6.93548012       4.12378979    
 Al   3.99999990E-05   5.54833984       2.39603996    
 Al   1.69999999E-04   5.54829979       6.31223011    
 Al  -2.40252995       4.16123009       4.61805010    
 Al  -2.40262008       4.16134024       8.49925995    
 Al  -2.40253997       6.93539000       6.80518007    
 Al  -2.40234995       6.93505001       10.7203703    
 Al   1.40000004E-04   5.54859018       8.99328995    
 Al   3.96999996E-03   5.54852009       12.7470198    
 Al  -2.40256000       4.16161013       11.1908197    
 Al  -4.80503988       8.32258987       1.92533004    
 Al  -4.80499983       11.0967398      0.376230001    
 Al  -4.80497980       11.0967999       4.12372017    
 Al  -2.40253997       9.70963001       2.39602995    
 Al  -2.40254998       9.70967007       6.31210995    
 Al  -4.80501986       8.32254028       4.61800003    
 Al  -4.80513000       8.32227993       8.49909973    
 Al  -4.80506992       11.0968904       6.80510998    
 Al  -4.80531979       11.0969696       10.7204800    
 Al  -2.40243006       9.70962048       8.99322987    
 Al  -2.40252995       9.70952034       12.7416897    
 Al  -4.80546999       8.32209015       11.1910896    
 Al   4.80503988       1.99999995E-05   1.92539001    
 Al   4.80497980       2.77414989      0.376269996    
 Al   4.80497980       2.77415991       4.12387991    
 Al   7.20753002       1.38706994       2.39602995    
 Al   7.20741987       1.38734996       6.31233978    
 Al   4.80497980       1.10000001E-04   4.61808014    
 Al   4.80503988       6.00000028E-04   8.49921989    
 Al   4.80493021       2.77435994       6.80569983    
 Al   4.80061007       2.78120995       10.7237997    
 Al   7.20722008       1.38764000       8.99368000    
 Al   7.20698023       1.38854003       12.7418003    
 Al   4.80573988       4.79999988E-04   11.1904602    
 Al   2.40249991       4.16123009       1.92536998    
 Al   2.40251994       6.93542004      0.376260012    
 Al   2.40247011       6.93537998       4.12380981    
 Al   4.80497980       5.54834986       2.39601994    
 Al   4.80497980       5.54796982       6.31235981    
 Al   2.40254998       4.16121006       4.61813021    
 Al   2.40362000       4.16057014       8.50012016    
 Al   2.40244007       6.93517017       6.80521011    
 Al   2.40256000       6.93528986       10.7197199    
 Al   4.80456018       5.54545021       8.99351978    
 Al   4.77953005       5.54168987       12.8005199    
 Al   2.41056991       4.15937996       11.1955605    
 Al   9.99999975E-06   8.32254982       1.92539001    
 Al   1.99999995E-05   11.0967598      0.376269996    
 Al   9.99999975E-06   11.0967302       4.12377024    
 Al   2.40249991       9.70965958       2.39600992    
 Al   2.40252995       9.70967007       6.31208992    
 Al   9.99999975E-06   8.32250977       4.61796999    
 Al   2.99999992E-05   8.32225037       8.49927998    
 Al  -5.99999985E-05   11.0968800       6.80515003    
 Al  -1.99999995E-05   11.0972204       10.7203503    
 Al   2.40269995       9.70958042       8.99345970    
 Al   2.40405011       9.70798016       12.7436199    
 Al  -3.60000005E-04   8.32166004       11.1905098    
 Al   9.61009979       9.99999975E-06   1.92534006    
 Al   9.61011028       2.77415991      0.376269996    
 Al   9.61005974       2.77419996       4.12380981    
 Al   12.0125303       1.38712001       2.39601994    
 Al   12.0125799       1.38718998       6.31217003    
 Al   9.61003971       5.99999985E-05   4.61799002    
 Al   9.61001968       9.00000014E-05   8.49919033    
 Al   9.60982990       2.77438998       6.80529022    
 Al   9.60925961       2.77469993       10.7205400    
 Al   12.0125504       1.38723004       8.99330997    
 Al   12.0122805       1.38704002       12.7417002    
 Al   9.60991955       2.50000012E-04   11.1910000    
 Al   7.20753002       4.16127014       1.92543006    
 Al   7.20753002       6.93551016      0.376269996    
 Al   7.20753002       6.93542004       4.12376022    
 Al   9.61007977       5.54837990       2.39601994    
 Al   9.60988045       5.54821014       6.31236982    
 Al   7.20749998       4.16124010       4.61811018    
 Al   7.20721006       4.16160011       8.50070000    
 Al   7.20779991       6.93505001       6.80505991    
 Al   7.20702982       6.92975998       10.7248402    
 Al   9.60867977       5.54805994       8.99388027    
 Al   9.60832024       5.54822016       12.7418404    
 Al   7.20439005       4.16640997       11.1928396    
 Al   4.80501986       8.32252026       1.92535996    
 Al   4.80500984       11.0967197      0.376230001    
 Al   4.80500984       11.0967598       4.12366009    
 Al   7.20755005       9.70958996       2.39599991    
 Al   7.20767021       9.70975971       6.31199980    
 Al   4.80503988       8.32250977       4.61796999    
 Al   4.80418015       8.32336044       8.49855042    
 Al   4.80502987       11.0968599       6.80508995    
 Al   4.80490017       11.0963097       10.7208900    
 Al   7.20771980       9.70983028       8.99355984    
 Al   7.20669985       9.70876980       12.7417898    
 Al   4.80541992       8.32960987       11.1913900    
 O    1.47169995       2.73000007E-03   3.28055000    
 O    3.14634991       7.64599964E-02   1.06672001    
 O  -0.738240004       1.27314997       3.28056002    
 O    1.66898000       2.88529992       3.28049994    
 O    3.16576004       2.68662000       1.06668997    
 O   0.895510018       1.39818001       1.06680000    
 O    3.87350011       1.38666999       7.64973021    
 O   0.735300004       1.50021994       5.46394014    
 O    1.66652000       2.66086006       7.64941978    
 O    1.66687000      0.113130003       7.65007019    
 O   0.735499978       4.04806995       5.46397018    
 O   -1.47098994       2.77429008       5.46397018    
 O    1.50532997       2.76168990       12.0499697    
 O   -1.66443002       2.88802004       9.83458042    
 O  -0.743300021       4.08495998       12.0511198    
 O  -0.763059974       1.47508001       12.0510502    
 O   0.733009994       1.27546000       9.83448029    
 O    3.33351994      -3.18000000E-03   9.83489990    
 O  -0.930830002       4.16402006       3.28051996    
 O   0.743910015       4.23761988       1.06671000    
 O   -3.14075994       5.43450022       3.28068995    
 O  -0.733519971       7.04663992       3.28053999    
 O   0.763199985       6.84788990       1.06668997    
 O   -1.50709999       5.55957985       1.06667995    
 O    1.47063994       5.54843998       7.64984989    
 O   -1.66708004       5.66150999       5.46401978    
 O  -0.735450029       6.82238007       7.65026999    
 O  -0.735610008       4.27452993       7.65015984    
 O   -1.66694999       8.20913029       5.46405983    
 O   -3.87333012       6.93558979       5.46402979    
 O  -0.895730019       6.92421007       12.0510998    
 O   -4.06659985       7.04978991       9.83452034    
 O   -3.14597011       8.24608040       12.0511398    
 O   -3.16525006       5.63629007       12.0510302    
 O   -1.66891003       5.43712997       9.83438015    
 O   0.930270016       4.15935993       9.83491993    
 O   -3.33329010       8.32528973       3.28051996    
 O   -1.65868998       8.39894962       1.06668997    
 O   -5.54326010       9.59576988       3.28057003    
 O   -3.13600993       11.2079096       3.28053999    
 O   -1.63923001       11.0092402       1.06667995    
 O   -3.90960002       9.72076035       1.06673002    
 O  -0.931519985       9.70950985       7.65034008    
 O   -4.06965017       9.82279015       5.46407986    
 O   -3.13787007       10.9834299       7.65013981    
 O   -3.13807011       8.43585968       7.65010977    
 O   -4.06945992       12.3704596       5.46390009    
 O   -6.27596998       11.0967398       5.46409988    
 O   -3.29816008       11.0855999       12.0512400    
 O   -6.46931982       11.2104197       9.83458996    
 O   -5.54855013       12.4070196       12.0511398    
 O   -5.56779003       9.79753971       12.0509701    
 O   -4.07154989       9.59860992       9.83477974    
 O   -1.47176003       8.32007980       9.83460999    
 O    6.27680016       2.71999999E-03   3.28067994    
 O    7.95129013       7.63899982E-02   1.06665003    
 O    4.06679010       1.27312005       3.28049994    
 O    6.47408009       2.88531995       3.28047991    
 O    7.97069979       2.68660998       1.06672001    
 O    5.70047998       1.39821994       1.06667995    
 O    8.67852020       1.38685000       7.65007019    
 O    5.54039001       1.50018001       5.46382999    
 O    6.47227001       2.66065001       7.64966011    
 O    6.47213984      0.113100000       7.65007019    
 O    5.54068995       4.04809999       5.46390009    
 O    3.33400989       2.77427006       5.46387005    
 O    6.31229019       2.76082993       12.0514002    
 O    3.13774991       2.88552999       9.83053017    
 O    4.06693983       4.06300020       12.0162296    
 O    4.04152012       1.47446001       12.0523100    
 O    5.53872013       1.27502000       9.83421993    
 O    8.13856983      -2.92999996E-03   9.83454990    
 O    3.87423992       4.16406012       3.28047991    
 O    5.54887009       4.23769999       1.06671000    
 O    1.66427004       5.43449020       3.28050995    
 O    4.07152987       7.04661989       3.28069997    
 O    5.56819010       6.84794998       1.06667995    
 O    3.29804993       5.55956984       1.06667995    
 O    6.27572012       5.54920006       7.64994001    
 O    3.13777995       5.66170979       5.46426010    
 O    4.06991005       6.82247019       7.65031004    
 O    4.06972980       4.27490997       7.64941978    
 O    3.13807988       8.20938015       5.46403980    
 O   0.931720018       6.93571997       5.46400023    
 O    3.90317988       6.93658018       12.0118904    
 O   0.737720013       7.04968977       9.83415031    
 O    1.66093004       8.24479961       12.0502996    
 O    1.63213003       5.63969994       12.0365601    
 O    3.13644004       5.43735981       9.83368015    
 O    5.73683023       4.15878010       9.83205032    
 O    1.47170997       8.32530022       3.28052998    
 O    3.14634991       8.39885044       1.06666994    
 O  -0.738200009       9.59574032       3.28056002    
 O    1.66901004       11.2079096       3.28053999    
 O    3.16568995       11.0092697       1.06673002    
 O   0.895510018       9.72082043       1.06669998    
 O    3.87352991       9.70956993       7.65000010    
 O   0.735230029       9.82287979       5.46407986    
 O    1.66717005       10.9834805       7.65012980    
 O    1.66696000       8.43591976       7.65031004    
 O   0.735520005       12.3704100       5.46403980    
 O   -1.47099996       11.0967503       5.46404982    
 O    1.50654995       11.0852098       12.0512695    
 O   -1.66436994       11.2102299       9.83458996    
 O  -0.743680000       12.4066896       12.0509100    
 O  -0.762589991       9.79730988       12.0510597    
 O   0.733470023       9.59838963       9.83483982    
 O    3.33324003       8.32079029       9.83279991    
 O    11.0818100       2.73999991E-03   3.28055000    
 O    12.7564602       7.64300004E-02   1.06677997    
 O    8.87182045       1.27315998       3.28051996    
 O    11.2791204       2.88534999       3.28051996    
 O    12.7756901       2.68658996       1.06674004    
 O    10.5055399       1.39829004       1.06669998    
 O    13.4833202       1.38687003       7.65009022    
 O    10.3455000       1.50018001       5.46402979    
 O    11.2772398       2.66090989       7.65013981    
 O    11.2770796      0.113279998       7.65007019    
 O    10.3457298       4.04800987       5.46388006    
 O    8.13912010       2.77425003       5.46396017    
 O    11.1171999       2.76288009       12.0513096    
 O    7.94622993       2.88752007       9.83430004    
 O    8.86775970       4.08410978       12.0507898    
 O    8.84737968       1.47441995       12.0510101    
 O    10.3439102       1.27577996       9.83465004    
 O    12.9431496      -2.71999999E-03   9.83477020    
 O    8.67926979       4.16405010       3.28048992    
 O    10.3539495       4.23763990       1.06666994    
 O    6.46930981       5.43447018       3.28051996    
 O    8.87658978       7.04663992       3.28052998    
 O    10.3732901       6.84780979       1.06666005    
 O    8.10305977       5.55950022       1.06673002    
 O    11.0810204       5.54834986       7.65010023    
 O    7.94292021       5.66156006       5.46398020    
 O    8.87479973       6.82250977       7.64984989    
 O    8.87491035       4.27431011       7.64953995    
 O    7.94304991       8.20940971       5.46410990    
 O    5.73659992       6.93568993       5.46396017    
 O    8.71518993       6.92483997       12.0512104    
 O    5.53966999       7.04995012       9.83640957    
 O    6.46364021       8.24606991       12.0499697    
 O    6.44947004       5.63761997       12.0444298    
 O    7.94327021       5.43722010       9.83207989    
 O    10.5412703       4.15837002       9.83448982    
 O    6.27673006       8.32534027       3.28055000    
 O    7.95133018       8.39890957       1.06668997    