<?xml version="1.0" encoding="ISO-8859-1"?>
<modeling>
 <generator>
  <i name="program" type="string">vasp </i>
  <i name="version" type="string">6.2.1  </i>
  <i name="subversion" type="string">16May21 (build May 12 2022 08:28:04) complex                          parallel </i>
  <i name="platform" type="string">LinuxPGI </i>
  <i name="date" type="string">2022 07 12 </i>
  <i name="time" type="string">04:42:14 </i>
 </generator>
 <incar>
  <i type="string" name="SYSTEM">NiAl</i>
  <i type="int" name="ISTART">     0</i>
  <i type="int" name="NELMIN">     6</i>
  <i type="int" name="IBRION">     2</i>
  <i name="EDIFF">      0.00000500</i>
  <i type="int" name="NSW">    40</i>
  <i type="int" name="ISIF">     0</i>
  <i name="ENCUT">    360.00000000</i>
  <i name="POTIM">      0.20000000</i>
  <i type="string" name="LREAL">Auto</i>
  <i type="logical" name="LPLANE"> T  </i>
  <i type="int" name="ISMEAR">     0</i>
  <i name="SIGMA">      0.05000000</i>
  <i type="logical" name="LWAVE"> F  </i>
  <i type="logical" name="LCHARG"> F  </i>
  <i type="int" name="IVDW">    12</i>
 </incar>
 <primitive_cell>
  <structure name="primitive_cell" >
   <crystal>
    <varray name="basis" >
     <v>      14.41508400       0.00000000       0.00000000 </v>
     <v>      -7.20754200      12.48382800       0.00000000 </v>
     <v>       0.00000000       0.00000000      36.11625400 </v>
    </varray>
    <i name="volume">   6499.31599189 </i>
    <varray name="rec_basis" >
     <v>       0.06937178       0.04005182      -0.00000000 </v>
     <v>       0.00000000       0.08010363       0.00000000 </v>
     <v>       0.00000000      -0.00000000       0.02768836 </v>
    </varray>
   </crystal>
   <varray name="positions" >
    <v>       0.00000000       0.00000000       0.05371394 </v>
    <v>       0.11111100       0.22222233       0.00681411 </v>
    <v>       0.11111100       0.22222233       0.11424200 </v>
    <v>       0.22222233       0.11111100       0.06734181 </v>
    <v>       0.22222233       0.11111100       0.17476970 </v>
    <v>       0.00000000       0.00000000       0.12786987 </v>
    <v>       0.00000000       0.00000000       0.23529775 </v>
    <v>       0.11111100       0.22222233       0.18839792 </v>
    <v>       0.11111100       0.22222233       0.29582581 </v>
    <v>       0.22222233       0.11111100       0.24892562 </v>
    <v>       0.22222233       0.11111100       0.35635351 </v>
    <v>       0.00000000       0.00000000       0.30945368 </v>
    <v>       0.00000000       0.33333333       0.05371394 </v>
    <v>       0.11111100       0.55555567       0.00681411 </v>
    <v>       0.11111100       0.55555567       0.11424200 </v>
    <v>       0.22222233       0.44444433       0.06734181 </v>
    <v>       0.22222233       0.44444433       0.17476970 </v>
    <v>       0.00000000       0.33333333       0.12786987 </v>
    <v>       0.00000000       0.33333333       0.23529775 </v>
    <v>       0.11111100       0.55555567       0.18839792 </v>
    <v>       0.11111100       0.55555567       0.29582581 </v>
    <v>       0.22222233       0.44444433       0.24892562 </v>
    <v>       0.22222233       0.44444433       0.35635351 </v>
    <v>       0.00000000       0.33333333       0.30945368 </v>
    <v>       0.00000000       0.66666667       0.05371394 </v>
    <v>       0.11111100       0.88888900       0.00681411 </v>
    <v>       0.11111100       0.88888900       0.11424200 </v>
    <v>       0.22222233       0.77777767       0.06734181 </v>
    <v>       0.22222233       0.77777767       0.17476970 </v>
    <v>       0.00000000       0.66666667       0.12786987 </v>
    <v>       0.00000000       0.66666667       0.23529775 </v>
    <v>       0.11111100       0.88888900       0.18839792 </v>
    <v>       0.11111100       0.88888900       0.29582581 </v>
    <v>       0.22222233       0.77777767       0.24892562 </v>
    <v>       0.22222233       0.77777767       0.35635351 </v>
    <v>       0.00000000       0.66666667       0.30945368 </v>
    <v>       0.33333333       0.00000000       0.05371394 </v>
    <v>       0.44444433       0.22222233       0.00681411 </v>
    <v>       0.44444433       0.22222233       0.11424200 </v>
    <v>       0.55555567       0.11111100       0.06734181 </v>
    <v>       0.55555567       0.11111100       0.17476970 </v>
    <v>       0.33333333       0.00000000       0.12786987 </v>
    <v>       0.33333333       0.00000000       0.23529775 </v>
    <v>       0.44444433       0.22222233       0.18839792 </v>
    <v>       0.44444433       0.22222233       0.29582581 </v>
    <v>       0.55555567       0.11111100       0.24892562 </v>
    <v>       0.55555567       0.11111100       0.35635351 </v>
    <v>       0.33333333       0.00000000       0.30945368 </v>
    <v>       0.33333333       0.33333333       0.05371394 </v>
    <v>       0.44444433       0.55555567       0.00681411 </v>
    <v>       0.44444433       0.55555567       0.11424200 </v>
    <v>       0.55555567       0.44444433       0.06734181 </v>
    <v>       0.55555567       0.44444433       0.17476970 </v>
    <v>       0.33333333       0.33333333       0.12786987 </v>
    <v>       0.33333333       0.33333333       0.23529775 </v>
    <v>       0.44444433       0.55555567       0.18839792 </v>
    <v>       0.44444433       0.55555567       0.29582581 </v>
    <v>       0.55555567       0.44444433       0.24892562 </v>
    <v>       0.55555567       0.44444433       0.35635351 </v>
    <v>       0.33333333       0.33333333       0.30945368 </v>
    <v>       0.33333333       0.66666667       0.05371394 </v>
    <v>       0.44444433       0.88888900       0.00681411 </v>
    <v>       0.44444433       0.88888900       0.11424200 </v>
    <v>       0.55555567       0.77777767       0.06734181 </v>
    <v>       0.55555567       0.77777767       0.17476970 </v>
    <v>       0.33333333       0.66666667       0.12786987 </v>
    <v>       0.33333333       0.66666667       0.23529775 </v>
    <v>       0.44444433       0.88888900       0.18839792 </v>
    <v>       0.44444433       0.88888900       0.29582581 </v>
    <v>       0.55555567       0.77777767       0.24892562 </v>
    <v>       0.55555567       0.77777767       0.35635351 </v>
    <v>       0.33333333       0.66666667       0.30945368 </v>
    <v>       0.66666667       0.00000000       0.05371394 </v>
    <v>       0.77777767       0.22222233       0.00681411 </v>
    <v>       0.77777767       0.22222233       0.11424200 </v>
    <v>       0.88888900       0.11111100       0.06734181 </v>
    <v>       0.88888900       0.11111100       0.17476970 </v>
    <v>       0.66666667       0.00000000       0.12786987 </v>
    <v>       0.66666667       0.00000000       0.23529775 </v>
    <v>       0.77777767       0.22222233       0.18839792 </v>
    <v>       0.77777767       0.22222233       0.29582581 </v>
    <v>       0.88888900       0.11111100       0.24892562 </v>
    <v>       0.88888900       0.11111100       0.35635351 </v>
    <v>       0.66666667       0.00000000       0.30945368 </v>
    <v>       0.66666667       0.33333333       0.05371394 </v>
    <v>       0.77777767       0.55555567       0.00681411 </v>
    <v>       0.77777767       0.55555567       0.11424200 </v>
    <v>       0.88888900       0.44444433       0.06734181 </v>
    <v>       0.88888900       0.44444433       0.17476970 </v>
    <v>       0.66666667       0.33333333       0.12786987 </v>
    <v>       0.66666667       0.33333333       0.23529775 </v>
    <v>       0.77777767       0.55555567       0.18839792 </v>
    <v>       0.77777767       0.55555567       0.29582581 </v>
    <v>       0.88888900       0.44444433       0.24892562 </v>
    <v>       0.88888900       0.44444433       0.35635351 </v>
    <v>       0.66666667       0.33333333       0.30945368 </v>
    <v>       0.66666667       0.66666667       0.05371394 </v>
    <v>       0.77777767       0.88888900       0.00681411 </v>
    <v>       0.77777767       0.88888900       0.11424200 </v>
    <v>       0.88888900       0.77777767       0.06734181 </v>
    <v>       0.88888900       0.77777767       0.17476970 </v>
    <v>       0.66666667       0.66666667       0.12786987 </v>
    <v>       0.66666667       0.66666667       0.23529775 </v>
    <v>       0.77777767       0.88888900       0.18839792 </v>
    <v>       0.77777767       0.88888900       0.29582581 </v>
    <v>       0.88888900       0.77777767       0.24892562 </v>
    <v>       0.88888900       0.77777767       0.35635351 </v>
    <v>       0.66666667       0.66666667       0.30945368 </v>
    <v>       0.10204867       0.00000000       0.09079190 </v>
    <v>       0.22222233       0.00906233       0.03026385 </v>
    <v>       0.00000000       0.10204867       0.09079190 </v>
    <v>       0.23128467       0.23128467       0.09079190 </v>
    <v>       0.32427100       0.21315967       0.03026385 </v>
    <v>       0.12017367       0.11111100       0.03026385 </v>
    <v>       0.32427100       0.11111100       0.21184766 </v>
    <v>       0.11111100       0.12017367       0.15131996 </v>
    <v>       0.22222233       0.21315967       0.21184766 </v>
    <v>       0.12017367       0.00906233       0.21184766 </v>
    <v>       0.21315967       0.32427100       0.15131996 </v>
    <v>       0.00906233       0.22222233       0.15131996 </v>
    <v>       0.21315967       0.22222233       0.33290377 </v>
    <v>       0.00000000       0.23128467       0.27237571 </v>
    <v>       0.11111100       0.32427100       0.33290377 </v>
    <v>       0.00906233       0.12017367       0.33290377 </v>
    <v>       0.10204867       0.10204867       0.27237571 </v>
    <v>       0.23128467       0.00000000       0.27237571 </v>
    <v>       0.10204867       0.33333333       0.09079190 </v>
    <v>       0.22222233       0.34239567       0.03026385 </v>
    <v>       0.00000000       0.43538200       0.09079190 </v>
    <v>       0.23128467       0.56461800       0.09079190 </v>
    <v>       0.32427100       0.54649300       0.03026385 </v>
    <v>       0.12017367       0.44444433       0.03026385 </v>
    <v>       0.32427100       0.44444433       0.21184766 </v>
    <v>       0.11111100       0.45350700       0.15131996 </v>
    <v>       0.22222233       0.54649300       0.21184766 </v>
    <v>       0.12017367       0.34239567       0.21184766 </v>
    <v>       0.21315967       0.65760433       0.15131996 </v>
    <v>       0.00906233       0.55555567       0.15131996 </v>
    <v>       0.21315967       0.55555567       0.33290377 </v>
    <v>       0.00000000       0.56461800       0.27237571 </v>
    <v>       0.11111100       0.65760433       0.33290377 </v>
    <v>       0.00906233       0.45350700       0.33290377 </v>
    <v>       0.10204867       0.43538200       0.27237571 </v>
    <v>       0.23128467       0.33333333       0.27237571 </v>
    <v>       0.10204867       0.66666667       0.09079190 </v>
    <v>       0.22222233       0.67572900       0.03026385 </v>
    <v>       0.00000000       0.76871533       0.09079190 </v>
    <v>       0.23128467       0.89795133       0.09079190 </v>
    <v>       0.32427100       0.87982633       0.03026385 </v>
    <v>       0.12017367       0.77777767       0.03026385 </v>
    <v>       0.32427100       0.77777767       0.21184766 </v>
    <v>       0.11111100       0.78684033       0.15131996 </v>
    <v>       0.22222233       0.87982633       0.21184766 </v>
    <v>       0.12017367       0.67572900       0.21184766 </v>
    <v>       0.21315967       0.99093767       0.15131996 </v>
    <v>       0.00906233       0.88888900       0.15131996 </v>
    <v>       0.21315967       0.88888900       0.33290377 </v>
    <v>       0.00000000       0.89795133       0.27237571 </v>
    <v>       0.11111100       0.99093767       0.33290377 </v>
    <v>       0.00906233       0.78684033       0.33290377 </v>
    <v>       0.10204867       0.76871533       0.27237571 </v>
    <v>       0.23128467       0.66666667       0.27237571 </v>
    <v>       0.43538200       0.00000000       0.09079190 </v>
    <v>       0.55555567       0.00906233       0.03026385 </v>
    <v>       0.33333333       0.10204867       0.09079190 </v>
    <v>       0.56461800       0.23128467       0.09079190 </v>
    <v>       0.65760433       0.21315967       0.03026385 </v>
    <v>       0.45350700       0.11111100       0.03026385 </v>
    <v>       0.65760433       0.11111100       0.21184766 </v>
    <v>       0.44444433       0.12017367       0.15131996 </v>
    <v>       0.55555567       0.21315967       0.21184766 </v>
    <v>       0.45350700       0.00906233       0.21184766 </v>
    <v>       0.54649300       0.32427100       0.15131996 </v>
    <v>       0.34239567       0.22222233       0.15131996 </v>
    <v>       0.54649300       0.22222233       0.33290377 </v>
    <v>       0.33333333       0.23128467       0.27237571 </v>
    <v>       0.44444433       0.32427100       0.33290377 </v>
    <v>       0.34239567       0.12017367       0.33290377 </v>
    <v>       0.43538200       0.10204867       0.27237571 </v>
    <v>       0.56461800       0.00000000       0.27237571 </v>
    <v>       0.43538200       0.33333333       0.09079190 </v>
    <v>       0.55555567       0.34239567       0.03026385 </v>
    <v>       0.33333333       0.43538200       0.09079190 </v>
    <v>       0.56461800       0.56461800       0.09079190 </v>
    <v>       0.65760433       0.54649300       0.03026385 </v>
    <v>       0.45350700       0.44444433       0.03026385 </v>
    <v>       0.65760433       0.44444433       0.21184766 </v>
    <v>       0.44444433       0.45350700       0.15131996 </v>
    <v>       0.55555567       0.54649300       0.21184766 </v>
    <v>       0.45350700       0.34239567       0.21184766 </v>
    <v>       0.54649300       0.65760433       0.15131996 </v>
    <v>       0.34239567       0.55555567       0.15131996 </v>
    <v>       0.54649300       0.55555567       0.33290377 </v>
    <v>       0.33333333       0.56461800       0.27237571 </v>
    <v>       0.44444433       0.65760433       0.33290377 </v>
    <v>       0.34239567       0.45350700       0.33290377 </v>
    <v>       0.43538200       0.43538200       0.27237571 </v>
    <v>       0.56461800       0.33333333       0.27237571 </v>
    <v>       0.43538200       0.66666667       0.09079190 </v>
    <v>       0.55555567       0.67572900       0.03026385 </v>
    <v>       0.33333333       0.76871533       0.09079190 </v>
    <v>       0.56461800       0.89795133       0.09079190 </v>
    <v>       0.65760433       0.87982633       0.03026385 </v>
    <v>       0.45350700       0.77777767       0.03026385 </v>
    <v>       0.65760433       0.77777767       0.21184766 </v>
    <v>       0.44444433       0.78684033       0.15131996 </v>
    <v>       0.55555567       0.87982633       0.21184766 </v>
    <v>       0.45350700       0.67572900       0.21184766 </v>
    <v>       0.54649300       0.99093767       0.15131996 </v>
    <v>       0.34239567       0.88888900       0.15131996 </v>
    <v>       0.54649300       0.88888900       0.33290377 </v>
    <v>       0.33333333       0.89795133       0.27237571 </v>
    <v>       0.44444433       0.99093767       0.33290377 </v>
    <v>       0.34239567       0.78684033       0.33290377 </v>
    <v>       0.43538200       0.76871533       0.27237571 </v>
    <v>       0.56461800       0.66666667       0.27237571 </v>
    <v>       0.76871533       0.00000000       0.09079190 </v>
    <v>       0.88888900       0.00906233       0.03026385 </v>
    <v>       0.66666667       0.10204867       0.09079190 </v>
    <v>       0.89795133       0.23128467       0.09079190 </v>
    <v>       0.99093767       0.21315967       0.03026385 </v>
    <v>       0.78684033       0.11111100       0.03026385 </v>
    <v>       0.99093767       0.11111100       0.21184766 </v>
    <v>       0.77777767       0.12017367       0.15131996 </v>
    <v>       0.88888900       0.21315967       0.21184766 </v>
    <v>       0.78684033       0.00906233       0.21184766 </v>
    <v>       0.87982633       0.32427100       0.15131996 </v>
    <v>       0.67572900       0.22222233       0.15131996 </v>
    <v>       0.87982633       0.22222233       0.33290377 </v>
    <v>       0.66666667       0.23128467       0.27237571 </v>
    <v>       0.77777767       0.32427100       0.33290377 </v>
    <v>       0.67572900       0.12017367       0.33290377 </v>
    <v>       0.76871533       0.10204867       0.27237571 </v>
    <v>       0.89795133       0.00000000       0.27237571 </v>
    <v>       0.76871533       0.33333333       0.09079190 </v>
    <v>       0.88888900       0.34239567       0.03026385 </v>
    <v>       0.66666667       0.43538200       0.09079190 </v>
    <v>       0.89795133       0.56461800       0.09079190 </v>
    <v>       0.99093767       0.54649300       0.03026385 </v>
    <v>       0.78684033       0.44444433       0.03026385 </v>
    <v>       0.99093767       0.44444433       0.21184766 </v>
    <v>       0.77777767       0.45350700       0.15131996 </v>
    <v>       0.88888900       0.54649300       0.21184766 </v>
    <v>       0.78684033       0.34239567       0.21184766 </v>
    <v>       0.87982633       0.65760433       0.15131996 </v>
    <v>       0.67572900       0.55555567       0.15131996 </v>
    <v>       0.87982633       0.55555567       0.33290377 </v>
    <v>       0.66666667       0.56461800       0.27237571 </v>
    <v>       0.77777767       0.65760433       0.33290377 </v>
    <v>       0.67572900       0.45350700       0.33290377 </v>
    <v>       0.76871533       0.43538200       0.27237571 </v>
    <v>       0.89795133       0.33333333       0.27237571 </v>
    <v>       0.76871533       0.66666667       0.09079190 </v>
    <v>       0.88888900       0.67572900       0.03026385 </v>
    <v>       0.66666667       0.76871533       0.09079190 </v>
    <v>       0.89795133       0.89795133       0.09079190 </v>
    <v>       0.99093767       0.87982633       0.03026385 </v>
    <v>       0.78684033       0.77777767       0.03026385 </v>
    <v>       0.99093767       0.77777767       0.21184766 </v>
    <v>       0.77777767       0.78684033       0.15131996 </v>
    <v>       0.88888900       0.87982633       0.21184766 </v>
    <v>       0.78684033       0.67572900       0.21184766 </v>
    <v>       0.87982633       0.99093767       0.15131996 </v>
    <v>       0.67572900       0.88888900       0.15131996 </v>
    <v>       0.87982633       0.88888900       0.33290377 </v>
    <v>       0.66666667       0.89795133       0.27237571 </v>
    <v>       0.77777767       0.99093767       0.33290377 </v>
    <v>       0.67572900       0.78684033       0.33290377 </v>
    <v>       0.76871533       0.76871533       0.27237571 </v>
    <v>       0.89795133       0.66666667       0.27237571 </v>
    <v>       0.00000000       0.00000000       0.39511722 </v>
    <v>       0.00000000       0.00000000       0.42834325 </v>
    <v>       0.00000000       0.00000000       0.46156929 </v>
    <v>       0.00000000       0.00000000       0.49479533 </v>
    <v>       0.00000000       0.12500000       0.39511722 </v>
    <v>       0.00000000       0.12500000       0.42834325 </v>
    <v>       0.00000000       0.12500000       0.46156929 </v>
    <v>       0.00000000       0.12500000       0.49479533 </v>
    <v>       0.00000000       0.25000000       0.39511722 </v>
    <v>       0.00000000       0.25000000       0.42834325 </v>
    <v>       0.00000000       0.25000000       0.46156929 </v>
    <v>       0.00000000       0.25000000       0.49479533 </v>
    <v>       0.00000000       0.37500000       0.39511722 </v>
    <v>       0.00000000       0.37500000       0.42834325 </v>
    <v>       0.00000000       0.37500000       0.46156929 </v>
    <v>       0.00000000       0.37500000       0.49479533 </v>
    <v>       0.00000000       0.50000000       0.39511722 </v>
    <v>       0.00000000       0.50000000       0.42834325 </v>
    <v>       0.00000000       0.50000000       0.46156929 </v>
    <v>       0.00000000       0.50000000       0.49479533 </v>
    <v>       0.00000000       0.62500000       0.39511722 </v>
    <v>       0.00000000       0.62500000       0.42834325 </v>
    <v>       0.00000000       0.62500000       0.46156929 </v>
    <v>       0.00000000       0.62500000       0.49479533 </v>
    <v>       0.00000000       0.75000000       0.39511722 </v>
    <v>       0.00000000       0.75000000       0.42834325 </v>
    <v>       0.00000000       0.75000000       0.46156929 </v>
    <v>       0.00000000       0.75000000       0.49479533 </v>
    <v>       0.00000000       0.87500000       0.39511722 </v>
    <v>       0.00000000       0.87500000       0.42834325 </v>
    <v>       0.00000000       0.87500000       0.46156929 </v>
    <v>       0.00000000       0.87500000       0.49479533 </v>
    <v>       0.12500000       0.00000000       0.39511722 </v>
    <v>       0.12500000       0.00000000       0.42834325 </v>
    <v>       0.12500000       0.00000000       0.46156929 </v>
    <v>       0.12500000       0.00000000       0.49479533 </v>
    <v>       0.12500000       0.12500000       0.39511722 </v>
    <v>       0.12500000       0.12500000       0.42834325 </v>
    <v>       0.12500000       0.12500000       0.46156929 </v>
    <v>       0.12500000       0.12500000       0.49479533 </v>
    <v>       0.12500000       0.25000000       0.39511722 </v>
    <v>       0.12500000       0.25000000       0.42834325 </v>
    <v>       0.12500000       0.25000000       0.46156929 </v>
    <v>       0.12500000       0.25000000       0.49479533 </v>
    <v>       0.12500000       0.37500000       0.39511722 </v>
    <v>       0.12500000       0.37500000       0.42834325 </v>
    <v>       0.12500000       0.37500000       0.46156929 </v>
    <v>       0.12500000       0.37500000       0.49479533 </v>
    <v>       0.12500000       0.50000000       0.39511722 </v>
    <v>       0.12500000       0.50000000       0.42834325 </v>
    <v>       0.12500000       0.50000000       0.46156929 </v>
    <v>       0.12500000       0.50000000       0.49479533 </v>
    <v>       0.12500000       0.62500000       0.39511722 </v>
    <v>       0.12500000       0.62500000       0.42834325 </v>
    <v>       0.12500000       0.62500000       0.46156929 </v>
    <v>       0.12500000       0.62500000       0.49479533 </v>
    <v>       0.12500000       0.75000000       0.39511722 </v>
    <v>       0.12500000       0.75000000       0.42834325 </v>
    <v>       0.12500000       0.75000000       0.46156929 </v>
    <v>       0.12500000       0.75000000       0.49479533 </v>
    <v>       0.12500000       0.87500000       0.39511722 </v>
    <v>       0.12500000       0.87500000       0.42834325 </v>
    <v>       0.12500000       0.87500000       0.46156929 </v>
    <v>       0.12500000       0.87500000       0.49479533 </v>
    <v>       0.25000000       0.00000000       0.39511722 </v>
    <v>       0.25000000       0.00000000       0.42834325 </v>
    <v>       0.25000000       0.00000000       0.46156929 </v>
    <v>       0.25000000       0.00000000       0.49479533 </v>
    <v>       0.25000000       0.12500000       0.39511722 </v>
    <v>       0.25000000       0.12500000       0.42834325 </v>
    <v>       0.25000000       0.12500000       0.46156929 </v>
    <v>       0.25000000       0.12500000       0.49479533 </v>
    <v>       0.25000000       0.25000000       0.39511722 </v>
    <v>       0.25000000       0.25000000       0.42834325 </v>
    <v>       0.25000000       0.25000000       0.46156929 </v>
    <v>       0.25000000       0.25000000       0.49479533 </v>
    <v>       0.25000000       0.37500000       0.39511722 </v>
    <v>       0.25000000       0.37500000       0.42834325 </v>
    <v>       0.25000000       0.37500000       0.46156929 </v>
    <v>       0.25000000       0.37500000       0.49479533 </v>
    <v>       0.25000000       0.50000000       0.39511722 </v>
    <v>       0.25000000       0.50000000       0.42834325 </v>
    <v>       0.25000000       0.50000000       0.46156929 </v>
    <v>       0.25000000       0.50000000       0.49479533 </v>
    <v>       0.25000000       0.62500000       0.39511722 </v>
    <v>       0.25000000       0.62500000       0.42834325 </v>
    <v>       0.25000000       0.62500000       0.46156929 </v>
    <v>       0.25000000       0.62500000       0.49479533 </v>
    <v>       0.25000000       0.75000000       0.39511722 </v>
    <v>       0.25000000       0.75000000       0.42834325 </v>
    <v>       0.25000000       0.75000000       0.46156929 </v>
    <v>       0.25000000       0.75000000       0.49479533 </v>
    <v>       0.25000000       0.87500000       0.39511722 </v>
    <v>       0.25000000       0.87500000       0.42834325 </v>
    <v>       0.25000000       0.87500000       0.46156929 </v>
    <v>       0.25000000       0.87500000       0.49479533 </v>
    <v>       0.37500000       0.00000000       0.39511722 </v>
    <v>       0.37500000       0.00000000       0.42834325 </v>
    <v>       0.37500000       0.00000000       0.46156929 </v>
    <v>       0.37500000       0.00000000       0.49479533 </v>
    <v>       0.37500000       0.12500000       0.39511722 </v>
    <v>       0.37500000       0.12500000       0.42834325 </v>
    <v>       0.37500000       0.12500000       0.46156929 </v>
    <v>       0.37500000       0.12500000       0.49479533 </v>
    <v>       0.37500000       0.25000000       0.39511722 </v>
    <v>       0.37500000       0.25000000       0.42834325 </v>
    <v>       0.37500000       0.25000000       0.46156929 </v>
    <v>       0.37500000       0.25000000       0.49479533 </v>
    <v>       0.37500000       0.37500000       0.39511722 </v>
    <v>       0.37500000       0.37500000       0.42834325 </v>
    <v>       0.37500000       0.37500000       0.46156929 </v>
    <v>       0.37500000       0.37500000       0.49479533 </v>
    <v>       0.37500000       0.50000000       0.39511722 </v>
    <v>       0.37500000       0.50000000       0.42834325 </v>
    <v>       0.37500000       0.50000000       0.46156929 </v>
    <v>       0.37500000       0.50000000       0.49479533 </v>
    <v>       0.37500000       0.62500000       0.39511722 </v>
    <v>       0.37500000       0.62500000       0.42834325 </v>
    <v>       0.37500000       0.62500000       0.46156929 </v>
    <v>       0.37500000       0.62500000       0.49479533 </v>
    <v>       0.37500000       0.75000000       0.39511722 </v>
    <v>       0.37500000       0.75000000       0.42834325 </v>
    <v>       0.37500000       0.75000000       0.46156929 </v>
    <v>       0.37500000       0.75000000       0.49479533 </v>
    <v>       0.37500000       0.87500000       0.39511722 </v>
    <v>       0.37500000       0.87500000       0.42834325 </v>
    <v>       0.37500000       0.87500000       0.46156929 </v>
    <v>       0.37500000       0.87500000       0.49479533 </v>
    <v>       0.50000000       0.00000000       0.39511722 </v>
    <v>       0.50000000       0.00000000       0.42834325 </v>
    <v>       0.50000000       0.00000000       0.46156929 </v>
    <v>       0.50000000       0.00000000       0.49479533 </v>
    <v>       0.50000000       0.12500000       0.39511722 </v>
    <v>       0.50000000       0.12500000       0.42834325 </v>
    <v>       0.50000000       0.12500000       0.46156929 </v>
    <v>       0.50000000       0.12500000       0.49479533 </v>
    <v>       0.50000000       0.25000000       0.39511722 </v>
    <v>       0.50000000       0.25000000       0.42834325 </v>
    <v>       0.50000000       0.25000000       0.46156929 </v>
    <v>       0.50000000       0.25000000       0.49479533 </v>
    <v>       0.50000000       0.37500000       0.39511722 </v>
    <v>       0.50000000       0.37500000       0.42834325 </v>
    <v>       0.50000000       0.37500000       0.46156929 </v>
    <v>       0.50000000       0.37500000       0.49479533 </v>
    <v>       0.50000000       0.50000000       0.39511722 </v>
    <v>       0.50000000       0.50000000       0.42834325 </v>
    <v>       0.50000000       0.50000000       0.46156929 </v>
    <v>       0.50000000       0.50000000       0.49479533 </v>
    <v>       0.50000000       0.62500000       0.39511722 </v>
    <v>       0.50000000       0.62500000       0.42834325 </v>
    <v>       0.50000000       0.62500000       0.46156929 </v>
    <v>       0.50000000       0.62500000       0.49479533 </v>
    <v>       0.50000000       0.75000000       0.39511722 </v>
    <v>       0.50000000       0.75000000       0.42834325 </v>
    <v>       0.50000000       0.75000000       0.46156929 </v>
    <v>       0.50000000       0.75000000       0.49479533 </v>
    <v>       0.50000000       0.87500000       0.39511722 </v>
    <v>       0.50000000       0.87500000       0.42834325 </v>
    <v>       0.50000000       0.87500000       0.46156929 </v>
    <v>       0.50000000       0.87500000       0.49479533 </v>
    <v>       0.62500000       0.00000000       0.39511722 </v>
    <v>       0.62500000       0.00000000       0.42834325 </v>
    <v>       0.62500000       0.00000000       0.46156929 </v>
    <v>       0.62500000       0.00000000       0.49479533 </v>
    <v>       0.62500000       0.12500000       0.39511722 </v>
    <v>       0.62500000       0.12500000       0.42834325 </v>
    <v>       0.62500000       0.12500000       0.46156929 </v>
    <v>       0.62500000       0.12500000       0.49479533 </v>
    <v>       0.62500000       0.25000000       0.39511722 </v>
    <v>       0.62500000       0.25000000       0.42834325 </v>
    <v>       0.62500000       0.25000000       0.46156929 </v>
    <v>       0.62500000       0.25000000       0.49479533 </v>
    <v>       0.62500000       0.37500000       0.39511722 </v>
    <v>       0.62500000       0.37500000       0.42834325 </v>
    <v>       0.62500000       0.37500000       0.46156929 </v>
    <v>       0.62500000       0.37500000       0.49479533 </v>
    <v>       0.62500000       0.50000000       0.39511722 </v>
    <v>       0.62500000       0.50000000       0.42834325 </v>
    <v>       0.62500000       0.50000000       0.46156929 </v>
    <v>       0.62500000       0.50000000       0.49479533 </v>
    <v>       0.62500000       0.62500000       0.39511722 </v>
    <v>       0.62500000       0.62500000       0.42834325 </v>
    <v>       0.62500000       0.62500000       0.46156929 </v>
    <v>       0.62500000       0.62500000       0.49479533 </v>
    <v>       0.62500000       0.75000000       0.39511722 </v>
    <v>       0.62500000       0.75000000       0.42834325 </v>
    <v>       0.62500000       0.75000000       0.46156929 </v>
    <v>       0.62500000       0.75000000       0.49479533 </v>
    <v>       0.62500000       0.87500000       0.39511722 </v>
    <v>       0.62500000       0.87500000       0.42834325 </v>
    <v>       0.62500000       0.87500000       0.46156929 </v>
    <v>       0.62500000       0.87500000       0.49479533 </v>
    <v>       0.75000000       0.00000000       0.39511722 </v>
    <v>       0.75000000       0.00000000       0.42834325 </v>
    <v>       0.75000000       0.00000000       0.46156929 </v>
    <v>       0.75000000       0.00000000       0.49479533 </v>
    <v>       0.75000000       0.12500000       0.39511722 </v>
    <v>       0.75000000       0.12500000       0.42834325 </v>
    <v>       0.75000000       0.12500000       0.46156929 </v>
    <v>       0.75000000       0.12500000       0.49479533 </v>
    <v>       0.75000000       0.25000000       0.39511722 </v>
    <v>       0.75000000       0.25000000       0.42834325 </v>
    <v>       0.75000000       0.25000000       0.46156929 </v>
    <v>       0.75000000       0.25000000       0.49479533 </v>
    <v>       0.75000000       0.37500000       0.39511722 </v>
    <v>       0.75000000       0.37500000       0.42834325 </v>
    <v>       0.75000000       0.37500000       0.46156929 </v>
    <v>       0.75000000       0.37500000       0.49479533 </v>
    <v>       0.75000000       0.50000000       0.39511722 </v>
    <v>       0.75000000       0.50000000       0.42834325 </v>
    <v>       0.75000000       0.50000000       0.46156929 </v>
    <v>       0.75000000       0.50000000       0.49479533 </v>
    <v>       0.75000000       0.62500000       0.39511722 </v>
    <v>       0.75000000       0.62500000       0.42834325 </v>
    <v>       0.75000000       0.62500000       0.46156929 </v>
    <v>       0.75000000       0.62500000       0.49479533 </v>
    <v>       0.75000000       0.75000000       0.39511722 </v>
    <v>       0.75000000       0.75000000       0.42834325 </v>
    <v>       0.75000000       0.75000000       0.46156929 </v>
    <v>       0.75000000       0.75000000       0.49479533 </v>
    <v>       0.75000000       0.87500000       0.39511722 </v>
    <v>       0.75000000       0.87500000       0.42834325 </v>
    <v>       0.75000000       0.87500000       0.46156929 </v>
    <v>       0.75000000       0.87500000       0.49479533 </v>
    <v>       0.87500000       0.00000000       0.39511722 </v>
    <v>       0.87500000       0.00000000       0.42834325 </v>
    <v>       0.87500000       0.00000000       0.46156929 </v>
    <v>       0.87500000       0.00000000       0.49479533 </v>
    <v>       0.87500000       0.12500000       0.39511722 </v>
    <v>       0.87500000       0.12500000       0.42834325 </v>
    <v>       0.87500000       0.12500000       0.46156929 </v>
    <v>       0.87500000       0.12500000       0.49479533 </v>
    <v>       0.87500000       0.25000000       0.39511722 </v>
    <v>       0.87500000       0.25000000       0.42834325 </v>
    <v>       0.87500000       0.25000000       0.46156929 </v>
    <v>       0.87500000       0.25000000       0.49479533 </v>
    <v>       0.87500000       0.37500000       0.39511722 </v>
    <v>       0.87500000       0.37500000       0.42834325 </v>
    <v>       0.87500000       0.37500000       0.46156929 </v>
    <v>       0.87500000       0.37500000       0.49479533 </v>
    <v>       0.87500000       0.50000000       0.39511722 </v>
    <v>       0.87500000       0.50000000       0.42834325 </v>
    <v>       0.87500000       0.50000000       0.46156929 </v>
    <v>       0.87500000       0.50000000       0.49479533 </v>
    <v>       0.87500000       0.62500000       0.39511722 </v>
    <v>       0.87500000       0.62500000       0.42834325 </v>
    <v>       0.87500000       0.62500000       0.46156929 </v>
    <v>       0.87500000       0.62500000       0.49479533 </v>
    <v>       0.87500000       0.75000000       0.39511722 </v>
    <v>       0.87500000       0.75000000       0.42834325 </v>
    <v>       0.87500000       0.75000000       0.46156929 </v>
    <v>       0.87500000       0.75000000       0.49479533 </v>
    <v>       0.87500000       0.87500000       0.39511722 </v>
    <v>       0.87500000       0.87500000       0.42834325 </v>
    <v>       0.87500000       0.87500000       0.46156929 </v>
    <v>       0.87500000       0.87500000       0.49479533 </v>
   </varray>
  </structure>
  <varray name="primitive_index" >
   <v type="int" >        1 </v>
   <v type="int" >        2 </v>
   <v type="int" >        3 </v>
   <v type="int" >        4 </v>
   <v type="int" >        5 </v>
   <v type="int" >        6 </v>
   <v type="int" >        7 </v>
   <v type="int" >        8 </v>
   <v type="int" >        9 </v>
   <v type="int" >       10 </v>
   <v type="int" >       11 </v>
   <v type="int" >       12 </v>
   <v type="int" >       13 </v>
   <v type="int" >       14 </v>
   <v type="int" >       15 </v>
   <v type="int" >       16 </v>
   <v type="int" >       17 </v>
   <v type="int" >       18 </v>
   <v type="int" >       19 </v>
   <v type="int" >       20 </v>
   <v type="int" >       21 </v>
   <v type="int" >       22 </v>
   <v type="int" >       23 </v>
   <v type="int" >       24 </v>
   <v type="int" >       25 </v>
   <v type="int" >       26 </v>
   <v type="int" >       27 </v>
   <v type="int" >       28 </v>
   <v type="int" >       29 </v>
   <v type="int" >       30 </v>
   <v type="int" >       31 </v>
   <v type="int" >       32 </v>
   <v type="int" >       33 </v>
   <v type="int" >       34 </v>
   <v type="int" >       35 </v>
   <v type="int" >       36 </v>
   <v type="int" >       37 </v>
   <v type="int" >       38 </v>
   <v type="int" >       39 </v>
   <v type="int" >       40 </v>
   <v type="int" >       41 </v>
   <v type="int" >       42 </v>
   <v type="int" >       43 </v>
   <v type="int" >       44 </v>
   <v type="int" >       45 </v>
   <v type="int" >       46 </v>
   <v type="int" >       47 </v>
   <v type="int" >       48 </v>
   <v type="int" >       49 </v>
   <v type="int" >       50 </v>
   <v type="int" >       51 </v>
   <v type="int" >       52 </v>
   <v type="int" >       53 </v>
   <v type="int" >       54 </v>
   <v type="int" >       55 </v>
   <v type="int" >       56 </v>
   <v type="int" >       57 </v>
   <v type="int" >       58 </v>
   <v type="int" >       59 </v>
   <v type="int" >       60 </v>
   <v type="int" >       61 </v>
   <v type="int" >       62 </v>
   <v type="int" >       63 </v>
   <v type="int" >       64 </v>
   <v type="int" >       65 </v>
   <v type="int" >       66 </v>
   <v type="int" >       67 </v>
   <v type="int" >       68 </v>
   <v type="int" >       69 </v>
   <v type="int" >       70 </v>
   <v type="int" >       71 </v>
   <v type="int" >       72 </v>
   <v type="int" >       73 </v>
   <v type="int" >       74 </v>
   <v type="int" >       75 </v>
   <v type="int" >       76 </v>
   <v type="int" >       77 </v>
   <v type="int" >       78 </v>
   <v type="int" >       79 </v>
   <v type="int" >       80 </v>
   <v type="int" >       81 </v>
   <v type="int" >       82 </v>
   <v type="int" >       83 </v>
   <v type="int" >       84 </v>
   <v type="int" >       85 </v>
   <v type="int" >       86 </v>
   <v type="int" >       87 </v>
   <v type="int" >       88 </v>
   <v type="int" >       89 </v>
   <v type="int" >       90 </v>
   <v type="int" >       91 </v>
   <v type="int" >       92 </v>
   <v type="int" >       93 </v>
   <v type="int" >       94 </v>
   <v type="int" >       95 </v>
   <v type="int" >       96 </v>
   <v type="int" >       97 </v>
   <v type="int" >       98 </v>
   <v type="int" >       99 </v>
   <v type="int" >      100 </v>
   <v type="int" >      101 </v>
   <v type="int" >      102 </v>
   <v type="int" >      103 </v>
   <v type="int" >      104 </v>
   <v type="int" >      105 </v>
   <v type="int" >      106 </v>
   <v type="int" >      107 </v>
   <v type="int" >      108 </v>
   <v type="int" >      109 </v>
   <v type="int" >      110 </v>
   <v type="int" >      111 </v>
   <v type="int" >      112 </v>
   <v type="int" >      113 </v>
   <v type="int" >      114 </v>
   <v type="int" >      115 </v>
   <v type="int" >      116 </v>
   <v type="int" >      117 </v>
   <v type="int" >      118 </v>
   <v type="int" >      119 </v>
   <v type="int" >      120 </v>
   <v type="int" >      121 </v>
   <v type="int" >      122 </v>
   <v type="int" >      123 </v>
   <v type="int" >      124 </v>
   <v type="int" >      125 </v>
   <v type="int" >      126 </v>
   <v type="int" >      127 </v>
   <v type="int" >      128 </v>
   <v type="int" >      129 </v>
   <v type="int" >      130 </v>
   <v type="int" >      131 </v>
   <v type="int" >      132 </v>
   <v type="int" >      133 </v>
   <v type="int" >      134 </v>
   <v type="int" >      135 </v>
   <v type="int" >      136 </v>
   <v type="int" >      137 </v>
   <v type="int" >      138 </v>
   <v type="int" >      139 </v>
   <v type="int" >      140 </v>
   <v type="int" >      141 </v>
   <v type="int" >      142 </v>
   <v type="int" >      143 </v>
   <v type="int" >      144 </v>
   <v type="int" >      145 </v>
   <v type="int" >      146 </v>
   <v type="int" >      147 </v>
   <v type="int" >      148 </v>
   <v type="int" >      149 </v>
   <v type="int" >      150 </v>
   <v type="int" >      151 </v>
   <v type="int" >      152 </v>
   <v type="int" >      153 </v>
   <v type="int" >      154 </v>
   <v type="int" >      155 </v>
   <v type="int" >      156 </v>
   <v type="int" >      157 </v>
   <v type="int" >      158 </v>
   <v type="int" >      159 </v>
   <v type="int" >      160 </v>
   <v type="int" >      161 </v>
   <v type="int" >      162 </v>
   <v type="int" >      163 </v>
   <v type="int" >      164 </v>
   <v type="int" >      165 </v>
   <v type="int" >      166 </v>
   <v type="int" >      167 </v>
   <v type="int" >      168 </v>
   <v type="int" >      169 </v>
   <v type="int" >      170 </v>
   <v type="int" >      171 </v>
   <v type="int" >      172 </v>
   <v type="int" >      173 </v>
   <v type="int" >      174 </v>
   <v type="int" >      175 </v>
   <v type="int" >      176 </v>
   <v type="int" >      177 </v>
   <v type="int" >      178 </v>
   <v type="int" >      179 </v>
   <v type="int" >      180 </v>
   <v type="int" >      181 </v>
   <v type="int" >      182 </v>
   <v type="int" >      183 </v>
   <v type="int" >      184 </v>
   <v type="int" >      185 </v>
   <v type="int" >      186 </v>
   <v type="int" >      187 </v>
   <v type="int" >      188 </v>
   <v type="int" >      189 </v>
   <v type="int" >      190 </v>
   <v type="int" >      191 </v>
   <v type="int" >      192 </v>
   <v type="int" >      193 </v>
   <v type="int" >      194 </v>
   <v type="int" >      195 </v>
   <v type="int" >      196 </v>
   <v type="int" >      197 </v>
   <v type="int" >      198 </v>
   <v type="int" >      199 </v>
   <v type="int" >      200 </v>
   <v type="int" >      201 </v>
   <v type="int" >      202 </v>
   <v type="int" >      203 </v>
   <v type="int" >      204 </v>
   <v type="int" >      205 </v>
   <v type="int" >      206 </v>
   <v type="int" >      207 </v>
   <v type="int" >      208 </v>
   <v type="int" >      209 </v>
   <v type="int" >      210 </v>
   <v type="int" >      211 </v>
   <v type="int" >      212 </v>
   <v type="int" >      213 </v>
   <v type="int" >      214 </v>
   <v type="int" >      215 </v>
   <v type="int" >      216 </v>
   <v type="int" >      217 </v>
   <v type="int" >      218 </v>
   <v type="int" >      219 </v>
   <v type="int" >      220 </v>
   <v type="int" >      221 </v>
   <v type="int" >      222 </v>
   <v type="int" >      223 </v>
   <v type="int" >      224 </v>
   <v type="int" >      225 </v>
   <v type="int" >      226 </v>
   <v type="int" >      227 </v>
   <v type="int" >      228 </v>
   <v type="int" >      229 </v>
   <v type="int" >      230 </v>
   <v type="int" >      231 </v>
   <v type="int" >      232 </v>
   <v type="int" >      233 </v>
   <v type="int" >      234 </v>
   <v type="int" >      235 </v>
   <v type="int" >      236 </v>
   <v type="int" >      237 </v>
   <v type="int" >      238 </v>
   <v type="int" >      239 </v>
   <v type="int" >      240 </v>
   <v type="int" >      241 </v>
   <v type="int" >      242 </v>
   <v type="int" >      243 </v>
   <v type="int" >      244 </v>
   <v type="int" >      245 </v>
   <v type="int" >      246 </v>
   <v type="int" >      247 </v>
   <v type="int" >      248 </v>
   <v type="int" >      249 </v>
   <v type="int" >      250 </v>
   <v type="int" >      251 </v>
   <v type="int" >      252 </v>
   <v type="int" >      253 </v>
   <v type="int" >      254 </v>
   <v type="int" >      255 </v>
   <v type="int" >      256 </v>
   <v type="int" >      257 </v>
   <v type="int" >      258 </v>
   <v type="int" >      259 </v>
   <v type="int" >      260 </v>
   <v type="int" >      261 </v>
   <v type="int" >      262 </v>
   <v type="int" >      263 </v>
   <v type="int" >      264 </v>
   <v type="int" >      265 </v>
   <v type="int" >      266 </v>
   <v type="int" >      267 </v>
   <v type="int" >      268 </v>
   <v type="int" >      269 </v>
   <v type="int" >      270 </v>
   <v type="int" >      271 </v>
   <v type="int" >      272 </v>
   <v type="int" >      273 </v>
   <v type="int" >      274 </v>
   <v type="int" >      275 </v>
   <v type="int" >      276 </v>
   <v type="int" >      277 </v>
   <v type="int" >      278 </v>
   <v type="int" >      279 </v>
   <v type="int" >      280 </v>
   <v type="int" >      281 </v>
   <v type="int" >      282 </v>
   <v type="int" >      283 </v>
   <v type="int" >      284 </v>
   <v type="int" >      285 </v>
   <v type="int" >      286 </v>
   <v type="int" >      287 </v>
   <v type="int" >      288 </v>
   <v type="int" >      289 </v>
   <v type="int" >      290 </v>
   <v type="int" >      291 </v>
   <v type="int" >      292 </v>
   <v type="int" >      293 </v>
   <v type="int" >      294 </v>
   <v type="int" >      295 </v>
   <v type="int" >      296 </v>
   <v type="int" >      297 </v>
   <v type="int" >      298 </v>
   <v type="int" >      299 </v>
   <v type="int" >      300 </v>
   <v type="int" >      301 </v>
   <v type="int" >      302 </v>
   <v type="int" >      303 </v>
   <v type="int" >      304 </v>
   <v type="int" >      305 </v>
   <v type="int" >      306 </v>
   <v type="int" >      307 </v>
   <v type="int" >      308 </v>
   <v type="int" >      309 </v>
   <v type="int" >      310 </v>
   <v type="int" >      311 </v>
   <v type="int" >      312 </v>
   <v type="int" >      313 </v>
   <v type="int" >      314 </v>
   <v type="int" >      315 </v>
   <v type="int" >      316 </v>
   <v type="int" >      317 </v>
   <v type="int" >      318 </v>
   <v type="int" >      319 </v>
   <v type="int" >      320 </v>
   <v type="int" >      321 </v>
   <v type="int" >      322 </v>
   <v type="int" >      323 </v>
   <v type="int" >      324 </v>
   <v type="int" >      325 </v>
   <v type="int" >      326 </v>
   <v type="int" >      327 </v>
   <v type="int" >      328 </v>
   <v type="int" >      329 </v>
   <v type="int" >      330 </v>
   <v type="int" >      331 </v>
   <v type="int" >      332 </v>
   <v type="int" >      333 </v>
   <v type="int" >      334 </v>
   <v type="int" >      335 </v>
   <v type="int" >      336 </v>
   <v type="int" >      337 </v>
   <v type="int" >      338 </v>
   <v type="int" >      339 </v>
   <v type="int" >      340 </v>
   <v type="int" >      341 </v>
   <v type="int" >      342 </v>
   <v type="int" >      343 </v>
   <v type="int" >      344 </v>
   <v type="int" >      345 </v>
   <v type="int" >      346 </v>
   <v type="int" >      347 </v>
   <v type="int" >      348 </v>
   <v type="int" >      349 </v>
   <v type="int" >      350 </v>
   <v type="int" >      351 </v>
   <v type="int" >      352 </v>
   <v type="int" >      353 </v>
   <v type="int" >      354 </v>
   <v type="int" >      355 </v>
   <v type="int" >      356 </v>
   <v type="int" >      357 </v>
   <v type="int" >      358 </v>
   <v type="int" >      359 </v>
   <v type="int" >      360 </v>
   <v type="int" >      361 </v>
   <v type="int" >      362 </v>
   <v type="int" >      363 </v>
   <v type="int" >      364 </v>
   <v type="int" >      365 </v>
   <v type="int" >      366 </v>
   <v type="int" >      367 </v>
   <v type="int" >      368 </v>
   <v type="int" >      369 </v>
   <v type="int" >      370 </v>
   <v type="int" >      371 </v>
   <v type="int" >      372 </v>
   <v type="int" >      373 </v>
   <v type="int" >      374 </v>
   <v type="int" >      375 </v>
   <v type="int" >      376 </v>
   <v type="int" >      377 </v>
   <v type="int" >      378 </v>
   <v type="int" >      379 </v>
   <v type="int" >      380 </v>
   <v type="int" >      381 </v>
   <v type="int" >      382 </v>
   <v type="int" >      383 </v>
   <v type="int" >      384 </v>
   <v type="int" >      385 </v>
   <v type="int" >      386 </v>
   <v type="int" >      387 </v>
   <v type="int" >      388 </v>
   <v type="int" >      389 </v>
   <v type="int" >      390 </v>
   <v type="int" >      391 </v>
   <v type="int" >      392 </v>
   <v type="int" >      393 </v>
   <v type="int" >      394 </v>
   <v type="int" >      395 </v>
   <v type="int" >      396 </v>
   <v type="int" >      397 </v>
   <v type="int" >      398 </v>
   <v type="int" >      399 </v>
   <v type="int" >      400 </v>
   <v type="int" >      401 </v>
   <v type="int" >      402 </v>
   <v type="int" >      403 </v>
   <v type="int" >      404 </v>
   <v type="int" >      405 </v>
   <v type="int" >      406 </v>
   <v type="int" >      407 </v>
   <v type="int" >      408 </v>
   <v type="int" >      409 </v>
   <v type="int" >      410 </v>
   <v type="int" >      411 </v>
   <v type="int" >      412 </v>
   <v type="int" >      413 </v>
   <v type="int" >      414 </v>
   <v type="int" >      415 </v>
   <v type="int" >      416 </v>
   <v type="int" >      417 </v>
   <v type="int" >      418 </v>
   <v type="int" >      419 </v>
   <v type="int" >      420 </v>
   <v type="int" >      421 </v>
   <v type="int" >      422 </v>
   <v type="int" >      423 </v>
   <v type="int" >      424 </v>
   <v type="int" >      425 </v>
   <v type="int" >      426 </v>
   <v type="int" >      427 </v>
   <v type="int" >      428 </v>
   <v type="int" >      429 </v>
   <v type="int" >      430 </v>
   <v type="int" >      431 </v>
   <v type="int" >      432 </v>
   <v type="int" >      433 </v>
   <v type="int" >      434 </v>
   <v type="int" >      435 </v>
   <v type="int" >      436 </v>
   <v type="int" >      437 </v>
   <v type="int" >      438 </v>
   <v type="int" >      439 </v>
   <v type="int" >      440 </v>
   <v type="int" >      441 </v>
   <v type="int" >      442 </v>
   <v type="int" >      443 </v>
   <v type="int" >      444 </v>
   <v type="int" >      445 </v>
   <v type="int" >      446 </v>
   <v type="int" >      447 </v>
   <v type="int" >      448 </v>
   <v type="int" >      449 </v>
   <v type="int" >      450 </v>
   <v type="int" >      451 </v>
   <v type="int" >      452 </v>
   <v type="int" >      453 </v>
   <v type="int" >      454 </v>
   <v type="int" >      455 </v>
   <v type="int" >      456 </v>
   <v type="int" >      457 </v>
   <v type="int" >      458 </v>
   <v type="int" >      459 </v>
   <v type="int" >      460 </v>
   <v type="int" >      461 </v>
   <v type="int" >      462 </v>
   <v type="int" >      463 </v>
   <v type="int" >      464 </v>
   <v type="int" >      465 </v>
   <v type="int" >      466 </v>
   <v type="int" >      467 </v>
   <v type="int" >      468 </v>
   <v type="int" >      469 </v>
   <v type="int" >      470 </v>
   <v type="int" >      471 </v>
   <v type="int" >      472 </v>
   <v type="int" >      473 </v>
   <v type="int" >      474 </v>
   <v type="int" >      475 </v>
   <v type="int" >      476 </v>
   <v type="int" >      477 </v>
   <v type="int" >      478 </v>
   <v type="int" >      479 </v>
   <v type="int" >      480 </v>
   <v type="int" >      481 </v>
   <v type="int" >      482 </v>
   <v type="int" >      483 </v>
   <v type="int" >      484 </v>
   <v type="int" >      485 </v>
   <v type="int" >      486 </v>
   <v type="int" >      487 </v>
   <v type="int" >      488 </v>
   <v type="int" >      489 </v>
   <v type="int" >      490 </v>
   <v type="int" >      491 </v>
   <v type="int" >      492 </v>
   <v type="int" >      493 </v>
   <v type="int" >      494 </v>
   <v type="int" >      495 </v>
   <v type="int" >      496 </v>
   <v type="int" >      497 </v>
   <v type="int" >      498 </v>
   <v type="int" >      499 </v>
   <v type="int" >      500 </v>
   <v type="int" >      501 </v>
   <v type="int" >      502 </v>
   <v type="int" >      503 </v>
   <v type="int" >      504 </v>
   <v type="int" >      505 </v>
   <v type="int" >      506 </v>
   <v type="int" >      507 </v>
   <v type="int" >      508 </v>
   <v type="int" >      509 </v>
   <v type="int" >      510 </v>
   <v type="int" >      511 </v>
   <v type="int" >      512 </v>
   <v type="int" >      513 </v>
   <v type="int" >      514 </v>
   <v type="int" >      515 </v>
   <v type="int" >      516 </v>
   <v type="int" >      517 </v>
   <v type="int" >      518 </v>
   <v type="int" >      519 </v>
   <v type="int" >      520 </v>
   <v type="int" >      521 </v>
   <v type="int" >      522 </v>
   <v type="int" >      523 </v>
   <v type="int" >      524 </v>
   <v type="int" >      525 </v>
   <v type="int" >      526 </v>
  </varray>
 </primitive_cell>
 <kpoints>
  <generation param="Gamma">
   <v type="int" name="divisions">       2        2        1 </v>
   <v name="usershift">      0.00000000       0.00000000       0.00000000 </v>
   <v name="genvec1">      0.50000000       0.00000000       0.00000000 </v>
   <v name="genvec2">      0.00000000       0.50000000       0.00000000 </v>
   <v name="genvec3">      0.00000000       0.00000000       1.00000000 </v>
   <v name="shift">      0.00000000       0.00000000       0.00000000 </v>
  </generation>
  <varray name="kpointlist" >
   <v>       0.00000000       0.00000000       0.00000000 </v>
   <v>       0.50000000       0.00000000       0.00000000 </v>
  </varray>
  <varray name="weights" >
   <v>       0.25000000 </v>
   <v>       0.75000000 </v>
  </varray>
 </kpoints>
 <parameters>
  <separator name="general" >
   <i type="string" name="SYSTEM">NiAl</i>
   <i type="logical" name="LCOMPAT"> F  </i>
  </separator>
  <separator name="electronic" >
   <i type="string" name="PREC">normal</i>
   <i name="ENMAX">    360.00000000</i>
   <i name="ENAUG">   1139.60900000</i>
   <i name="EDIFF">      0.00000500</i>
   <i type="int" name="IALGO">    38</i>
   <i type="int" name="IWAVPR">    11</i>
   <i type="int" name="NBANDS">  1699</i>
   <i type="int" name="NBANDSLOW">    -1</i>
   <i type="int" name="NBANDSHIGH">    -1</i>
   <i name="NELECT">   2832.00000000</i>
   <i type="int" name="TURBO">     0</i>
   <i type="int" name="IRESTART">     0</i>
   <i type="int" name="NREBOOT">     0</i>
   <i type="int" name="NMIN">     0</i>
   <i name="EREF">      0.00000000</i>
   <separator name="electronic smearing" >
    <i type="int" name="ISMEAR">     0</i>
    <i name="SIGMA">      0.05000000</i>
    <i name="KSPACING">      0.50000000</i>
    <i type="logical" name="KGAMMA"> T  </i>
    <i type="logical" name="KBLOWUP"> T  </i>
   </separator>
   <separator name="electronic projectors" >
    <i type="logical" name="LREAL"> T  </i>
    <v name="ROPT">     -0.00050000     -0.00050000</v>
    <i type="int" name="LMAXPAW">  -100</i>
    <i type="int" name="LMAXMIX">     2</i>
    <i type="logical" name="NLSPLINE"> F  </i>
   </separator>
   <separator name="electronic startup" >
    <i type="int" name="ISTART">     0</i>
    <i type="int" name="ICHARG">     2</i>
    <i type="int" name="INIWAV">     1</i>
   </separator>
   <separator name="electronic spin" >
    <i type="int" name="ISPIN">     1</i>
    <i type="logical" name="LNONCOLLINEAR"> F  </i>
    <v name="MAGMOM">      1.00000000      1.00000000      1.00000000      1.00000000      1.00000000      1.00000000      1.00000000      1.00000000      1.00000000      1.00000000      1.00000000      1.00000000      1.00000000      1.00000000      1.00000000      1.00000000      1.00000000      1.00000000      1.00000000      1.00000000
      1.00000000      1.00000000      1.00000000      1.00000000      1.00000000      1.00000000      1.00000000      1.00000000      1.00000000      1.00000000      1.00000000      1.00000000      1.00000000      1.00000000      1.00000000      1.00000000      1.00000000      1.00000000      1.00000000      1.00000000
      1.00000000      1.00000000      1.00000000      1.00000000      1.00000000      1.00000000      1.00000000      1.00000000      1.00000000      1.00000000      1.00000000      1.00000000      1.00000000      1.00000000      1.00000000      1.00000000      1.00000000      1.00000000      1.00000000      1.00000000
      1.00000000      1.00000000      1.00000000      1.00000000      1.00000000      1.00000000      1.00000000      1.00000000      1.00000000      1.00000000      1.00000000      1.00000000      1.00000000      1.00000000      1.00000000      1.00000000      1.00000000      1.00000000      1.00000000      1.00000000
      1.00000000      1.00000000      1.00000000      1.00000000      1.00000000      1.00000000      1.00000000      1.00000000      1.00000000      1.00000000      1.00000000      1.00000000      1.00000000      1.00000000      1.00000000      1.00000000      1.00000000      1.00000000      1.00000000      1.00000000
      1.00000000      1.00000000      1.00000000      1.00000000      1.00000000      1.00000000      1.00000000      1.00000000      1.00000000      1.00000000      1.00000000      1.00000000      1.00000000      1.00000000      1.00000000      1.00000000      1.00000000      1.00000000      1.00000000      1.00000000
      1.00000000      1.00000000      1.00000000      1.00000000      1.00000000      1.00000000      1.00000000      1.00000000      1.00000000      1.00000000      1.00000000      1.00000000      1.00000000      1.00000000      1.00000000      1.00000000      1.00000000      1.00000000      1.00000000      1.00000000
      1.00000000      1.00000000      1.00000000      1.00000000      1.00000000      1.00000000      1.00000000      1.00000000      1.00000000      1.00000000      1.00000000      1.00000000      1.00000000      1.00000000      1.00000000      1.00000000      1.00000000      1.00000000      1.00000000      1.00000000
      1.00000000      1.00000000      1.00000000      1.00000000      1.00000000      1.00000000      1.00000000      1.00000000      1.00000000      1.00000000      1.00000000      1.00000000      1.00000000      1.00000000      1.00000000      1.00000000      1.00000000      1.00000000      1.00000000      1.00000000
      1.00000000      1.00000000      1.00000000      1.00000000      1.00000000      1.00000000      1.00000000      1.00000000      1.00000000      1.00000000      1.00000000      1.00000000      1.00000000      1.00000000      1.00000000      1.00000000      1.00000000      1.00000000      1.00000000      1.00000000
      1.00000000      1.00000000      1.00000000      1.00000000      1.00000000      1.00000000      1.00000000      1.00000000      1.00000000      1.00000000      1.00000000      1.00000000      1.00000000      1.00000000      1.00000000      1.00000000      1.00000000      1.00000000      1.00000000      1.00000000
      1.00000000      1.00000000      1.00000000      1.00000000      1.00000000      1.00000000      1.00000000      1.00000000      1.00000000      1.00000000      1.00000000      1.00000000      1.00000000      1.00000000      1.00000000      1.00000000      1.00000000      1.00000000      1.00000000      1.00000000
      1.00000000      1.00000000      1.00000000      1.00000000      1.00000000      1.00000000      1.00000000      1.00000000      1.00000000      1.00000000      1.00000000      1.00000000      1.00000000      1.00000000      1.00000000      1.00000000      1.00000000      1.00000000      1.00000000      1.00000000
      1.00000000      1.00000000      1.00000000      1.00000000      1.00000000      1.00000000      1.00000000      1.00000000      1.00000000      1.00000000      1.00000000      1.00000000      1.00000000      1.00000000      1.00000000      1.00000000      1.00000000      1.00000000      1.00000000      1.00000000
      1.00000000      1.00000000      1.00000000      1.00000000      1.00000000      1.00000000      1.00000000      1.00000000      1.00000000      1.00000000      1.00000000      1.00000000      1.00000000      1.00000000      1.00000000      1.00000000      1.00000000      1.00000000      1.00000000      1.00000000
      1.00000000      1.00000000      1.00000000      1.00000000      1.00000000      1.00000000      1.00000000      1.00000000      1.00000000      1.00000000      1.00000000      1.00000000      1.00000000      1.00000000      1.00000000      1.00000000      1.00000000      1.00000000      1.00000000      1.00000000
      1.00000000      1.00000000      1.00000000      1.00000000      1.00000000      1.00000000      1.00000000      1.00000000      1.00000000      1.00000000      1.00000000      1.00000000      1.00000000      1.00000000      1.00000000      1.00000000      1.00000000      1.00000000      1.00000000      1.00000000
      1.00000000      1.00000000      1.00000000      1.00000000      1.00000000      1.00000000      1.00000000      1.00000000      1.00000000      1.00000000      1.00000000      1.00000000      1.00000000      1.00000000      1.00000000      1.00000000      1.00000000      1.00000000      1.00000000      1.00000000
      1.00000000      1.00000000      1.00000000      1.00000000      1.00000000      1.00000000      1.00000000      1.00000000      1.00000000      1.00000000      1.00000000      1.00000000      1.00000000      1.00000000      1.00000000      1.00000000      1.00000000      1.00000000      1.00000000      1.00000000
      1.00000000      1.00000000      1.00000000      1.00000000      1.00000000      1.00000000      1.00000000      1.00000000      1.00000000      1.00000000      1.00000000      1.00000000      1.00000000      1.00000000      1.00000000      1.00000000      1.00000000      1.00000000      1.00000000      1.00000000
      1.00000000      1.00000000      1.00000000      1.00000000      1.00000000      1.00000000      1.00000000      1.00000000      1.00000000      1.00000000      1.00000000      1.00000000      1.00000000      1.00000000      1.00000000      1.00000000      1.00000000      1.00000000      1.00000000      1.00000000
      1.00000000      1.00000000      1.00000000      1.00000000      1.00000000      1.00000000      1.00000000      1.00000000      1.00000000      1.00000000      1.00000000      1.00000000      1.00000000      1.00000000      1.00000000      1.00000000      1.00000000      1.00000000      1.00000000      1.00000000
      1.00000000      1.00000000      1.00000000      1.00000000      1.00000000      1.00000000      1.00000000      1.00000000      1.00000000      1.00000000      1.00000000      1.00000000      1.00000000      1.00000000      1.00000000      1.00000000      1.00000000      1.00000000      1.00000000      1.00000000
      1.00000000      1.00000000      1.00000000      1.00000000      1.00000000      1.00000000      1.00000000      1.00000000      1.00000000      1.00000000      1.00000000      1.00000000      1.00000000      1.00000000      1.00000000      1.00000000      1.00000000      1.00000000      1.00000000      1.00000000
      1.00000000      1.00000000      1.00000000      1.00000000      1.00000000      1.00000000      1.00000000      1.00000000      1.00000000      1.00000000      1.00000000      1.00000000      1.00000000      1.00000000      1.00000000      1.00000000      1.00000000      1.00000000      1.00000000      1.00000000
      1.00000000      1.00000000      1.00000000      1.00000000      1.00000000      1.00000000      1.00000000      1.00000000      1.00000000      1.00000000      1.00000000      1.00000000      1.00000000      1.00000000      1.00000000      1.00000000      1.00000000      1.00000000      1.00000000      1.00000000
      1.00000000      1.00000000      1.00000000      1.00000000      1.00000000      1.00000000</v>
    <i name="NUPDOWN">     -1.00000000</i>
    <i type="logical" name="LSORBIT"> F  </i>
    <v name="SAXIS">      0.00000000      0.00000000      1.00000000</v>
    <i type="logical" name="LSPIRAL"> F  </i>
    <v name="QSPIRAL">      0.00000000      0.00000000      0.00000000</v>
    <i type="logical" name="LZEROZ"> F  </i>
   </separator>
   <separator name="electronic exchange-correlation" >
    <i type="logical" name="LASPH"> F  </i>
    <i type="logical" name="LMETAGGA"> F  </i>
   </separator>
   <separator name="electronic convergence" >
    <i type="int" name="NELM">    60</i>
    <i type="int" name="NELMDL">    -5</i>
    <i type="int" name="NELMIN">     6</i>
    <i name="ENINI">    360.00000000</i>
    <separator name="electronic convergence detail" >
     <i type="logical" name="LDIAG"> T  </i>
     <i type="logical" name="LSUBROT"> F  </i>
     <i name="WEIMIN">      0.00100000</i>
     <i name="EBREAK">      0.00000000</i>
     <i name="DEPER">      0.30000000</i>
     <i type="int" name="NRMM">     4</i>
     <i name="TIME">      0.40000000</i>
    </separator>
   </separator>
   <separator name="electronic mixer" >
    <i name="AMIX">      0.40000000</i>
    <i name="BMIX">      1.00000000</i>
    <i name="AMIN">      0.10000000</i>
    <i name="AMIX_MAG">      1.60000000</i>
    <i name="BMIX_MAG">      1.00000000</i>
    <separator name="electronic mixer details" >
     <i type="int" name="IMIX">     4</i>
     <i type="logical" name="MIXFIRST"> F  </i>
     <i type="int" name="MAXMIX">   -45</i>
     <i name="WC">    100.00000000</i>
     <i type="int" name="INIMIX">     1</i>
     <i type="int" name="MIXPRE">     1</i>
     <i type="int" name="MREMOVE">     5</i>
    </separator>
   </separator>
   <separator name="electronic dipolcorrection" >
    <i type="logical" name="LDIPOL"> F  </i>
    <i type="logical" name="LMONO"> F  </i>
    <i type="int" name="IDIPOL">     0</i>
    <i name="EPSILON">      1.00000000</i>
    <v name="DIPOL">   -100.00000000   -100.00000000   -100.00000000</v>
    <i name="EFIELD">      0.00000000</i>
   </separator>
  </separator>
  <separator name="grids" >
   <i type="int" name="NGX">    70</i>
   <i type="int" name="NGY">    70</i>
   <i type="int" name="NGZ">   168</i>
   <i type="int" name="NGXF">   140</i>
   <i type="int" name="NGYF">   140</i>
   <i type="int" name="NGZF">   336</i>
   <i type="logical" name="ADDGRID"> F  </i>
  </separator>
  <separator name="ionic" >
   <i type="int" name="NSW">    40</i>
   <i type="int" name="IBRION">     2</i>
   <i type="int" name="MDALGO">     0</i>
   <i type="int" name="ISIF">     0</i>
   <i name="PSTRESS">      0.00000000</i>
   <i name="EDIFFG">      0.00005000</i>
   <i type="int" name="NFREE">     1</i>
   <i name="POTIM">      0.20000000</i>
   <i name="SMASS">     -3.00000000</i>
   <i name="SCALEE">      1.00000000</i>
  </separator>
  <separator name="ionic md" >
   <i name="TEBEG">      0.00010000</i>
   <i name="TEEND">      0.00010000</i>
   <i type="int" name="NBLOCK">     1</i>
   <i type="int" name="KBLOCK">    40</i>
   <i type="int" name="NPACO">   256</i>
   <i name="APACO">     16.00000000</i>
  </separator>
  <separator name="symmetry" >
   <i type="int" name="ISYM">     2</i>
   <i name="SYMPREC">      0.00001000</i>
  </separator>
  <separator name="dos" >
   <i type="int" name="LORBIT">     0</i>
   <v name="RWIGS">     -1.00000000     -1.00000000</v>
   <i type="int" name="NEDOS">   301</i>
   <i name="EMIN">     10.00000000</i>
   <i name="EMAX">    -10.00000000</i>
   <i name="EFERMI">      0.00000000</i>
  </separator>
  <separator name="writing" >
   <i type="int" name="NWRITE">     2</i>
   <i type="logical" name="LWAVE"> F  </i>
   <i type="logical" name="LDOWNSAMPLE"> F  </i>
   <i type="logical" name="LCHARG"> F  </i>
   <i type="logical" name="LPARD"> F  </i>
   <i type="logical" name="LVTOT"> F  </i>
   <i type="logical" name="LVHAR"> F  </i>
   <i type="logical" name="LELF"> F  </i>
   <i type="logical" name="LOPTICS"> F  </i>
   <v name="STM">      0.00000000      0.00000000      0.00000000      0.00000000      0.00000000      0.00000000      0.00000000</v>
  </separator>
  <separator name="performance" >
   <i type="int" name="NPAR">     1</i>
   <i type="int" name="NSIM">     4</i>
   <i type="int" name="NBLK">    -1</i>
   <i type="logical" name="LPLANE"> T  </i>
   <i type="logical" name="LSCALAPACK"> T  </i>
   <i type="logical" name="LSCAAWARE"> F  </i>
   <i type="logical" name="LSCALU"> F  </i>
   <i type="logical" name="LASYNC"> F  </i>
   <i type="logical" name="LORBITALREAL"> F  </i>
  </separator>
  <separator name="miscellaneous" >
   <i type="int" name="IDIOT">     3</i>
   <i type="int" name="PHON_NSTRUCT">    -1</i>
   <i type="logical" name="LMUSIC"> F  </i>
   <v name="POMASS">     26.98200000     16.00000000</v>
   <v name="DARWINR">      0.00000000      0.00000000</v>
   <v name="DARWINV">      1.00000000      1.00000000</v>
   <i type="logical" name="LCORR"> T  </i>
  </separator>
  <i type="logical" name="GGA_COMPAT"> T  </i>
  <i type="logical" name="LBERRY"> F  </i>
  <i type="int" name="ICORELEVEL">     0</i>
  <i type="logical" name="LDAU"> F  </i>
  <i type="int" name="I_CONSTRAINED_M">     0</i>
  <separator name="electronic exchange-correlation" >
   <i type="string" name="GGA">--</i>
   <i type="int" name="VOSKOWN">     0</i>
   <i type="logical" name="LHFCALC"> F  </i>
   <i type="string" name="PRECFOCK"></i>
   <i type="logical" name="LSYMGRAD"> F  </i>
   <i type="logical" name="LHFONE"> F  </i>
   <i type="logical" name="LRHFCALC"> F  </i>
   <i type="logical" name="LTHOMAS"> F  </i>
   <i type="logical" name="LMODELHF"> F  </i>
   <i type="logical" name="LFOCKACE"> F  </i>
   <i name="ENCUT4O">     -1.00000000</i>
   <i type="int" name="EXXOEP">     0</i>
   <i type="int" name="FOURORBIT">     0</i>
   <i name="AEXX">      0.00000000</i>
   <i name="HFALPHA">      0.00000000</i>
   <i name="MCALPHA">      0.00000000</i>
   <i name="ALDAX">      1.00000000</i>
   <i name="AGGAX">      1.00000000</i>
   <i name="ALDAC">      1.00000000</i>
   <i name="AGGAC">      1.00000000</i>
   <i type="int" name="NKREDX">     1</i>
   <i type="int" name="NKREDY">     1</i>
   <i type="int" name="NKREDZ">     1</i>
   <i type="logical" name="SHIFTRED"> F  </i>
   <i type="logical" name="ODDONLY"> F  </i>
   <i type="logical" name="EVENONLY"> F  </i>
   <i type="int" name="LMAXFOCK">     0</i>
   <i type="int" name="NMAXFOCKAE">     0</i>
   <i type="logical" name="LFOCKAEDFT"> F  </i>
   <i name="HFSCREEN">      0.00000000</i>
   <i name="HFSCREENC">      0.00000000</i>
   <i type="int" name="NBANDSGWLOW">     0</i>
  </separator>
  <separator name="vdW DFT" >
   <i type="logical" name="LUSE_VDW"> F  </i>
   <i name="Zab_VDW">     -0.84910000</i>
   <i name="PARAM1">      0.12340000</i>
   <i name="PARAM2">      1.00000000</i>
   <i name="PARAM3">      0.00000000</i>
  </separator>
  <separator name="model GW" >
   <i type="int" name="MODEL_GW">     0</i>
   <i name="MODEL_EPS0">      7.41366843</i>
   <i name="MODEL_ALPHA">      1.00000000</i>
  </separator>
  <separator name="linear response parameters" >
   <i type="logical" name="LEPSILON"> F  </i>
   <i type="logical" name="LRPA"> F  </i>
   <i type="logical" name="LNABLA"> F  </i>
   <i type="logical" name="LVEL"> F  </i>
   <i type="int" name="KINTER">     0</i>
   <i name="CSHIFT">      0.10000000</i>
   <i name="OMEGAMAX">     -1.00000000</i>
   <i name="DEG_THRESHOLD">      0.00200000</i>
   <i name="RTIME">     -0.10000000</i>
   <i name="WPLASMAI">      0.00000000</i>
   <v name="DFIELD">      0.00000000      0.00000000      0.00000000</v>
   <v name="WPLASMA">      0.00000000      0.00000000      0.00000000      0.00000000      0.00000000      0.00000000      0.00000000      0.00000000      0.00000000</v>
  </separator>
  <separator name="orbital magnetization" >
   <i type="logical" name="NUCIND"> F  </i>
   <v name="MAGPOS">      0.00000000      0.00000000      0.00000000</v>
   <i type="logical" name="LNICSALL"> T  </i>
   <i type="logical" name="ORBITALMAG"> F  </i>
   <i type="logical" name="LMAGBLOCH"> F  </i>
   <i type="logical" name="LCHIMAG"> F  </i>
   <i type="logical" name="LGAUGE"> T  </i>
   <i type="int" name="MAGATOM">     0</i>
   <v name="MAGDIPOL">      0.00000000      0.00000000      0.00000000</v>
   <v name="AVECCONST">      0.00000000      0.00000000      0.00000000</v>
  </separator>
  <separator name="response functions" >
   <i type="logical" name="LFINITE_TEMPERATURE"> F  </i>
   <i type="logical" name="LADDER"> F  </i>
   <i type="logical" name="LRPAFORCE"> F  </i>
   <i type="logical" name="LFXC"> F  </i>
   <i type="logical" name="LHARTREE"> T  </i>
   <i type="int" name="IBSE">     0</i>
   <v type="int" name="KPOINT">    -1     0     0     0</v>
   <i type="logical" name="LTCTC"> F  </i>
   <i type="logical" name="LTCTE"> F  </i>
   <i type="logical" name="LTETE"> F  </i>
   <i type="logical" name="LTRIPLET"> F  </i>
   <i type="logical" name="LFXCEPS"> F  </i>
   <i type="logical" name="LFXHEG"> F  </i>
   <i type="int" name="NATURALO">     2</i>
   <i type="logical" name="LHOLEGF"> F  </i>
   <i type="logical" name="L2ORDER"> F  </i>
   <i type="logical" name="LDMP1"> F  </i>
   <i type="logical" name="LMP2LT"> F  </i>
   <i type="logical" name="LSMP2LT"> F  </i>
   <i type="logical" name="LGWLF"> F  </i>
   <i name="ENCUTGW">     -2.00000000</i>
   <i name="ENCUTGWSOFT">     -2.00000000</i>
   <i name="ENCUTLF">     -1.00000000</i>
   <i type="logical" name="LESF_SPLINES"> F  </i>
   <i type="int" name="LMAXMP2">    -1</i>
   <i name="SCISSOR">      0.00000000</i>
   <i type="int" name="NOMEGA">     0</i>
   <i type="int" name="NOMEGAR">     0</i>
   <i type="int" name="NBANDSGW">    -1</i>
   <i type="int" name="NBANDSO">    -1</i>
   <i type="int" name="NBANDSV">    -1</i>
   <i type="int" name="NELM">     1</i>
   <i type="int" name="NELMHF">     1</i>
   <i type="int" name="DIM">     3</i>
   <i type="int" name="IESPILON">     4</i>
   <i type="int" name="ANTIRES">     0</i>
   <i name="OMEGAMAX">    -30.00000000</i>
   <i name="OMEGAMIN">    -30.00000000</i>
   <i name="OMEGATL">   -200.00000000</i>
   <i type="int" name="OMEGAGRID">     0</i>
   <i name="CSHIFT">     -0.10000000</i>
   <i type="logical" name="LSELFENERGY"> F  </i>
   <i type="logical" name="LSPECTRAL"> F  </i>
   <i type="logical" name="LSPECTRALGW"> F  </i>
   <i type="logical" name="LSINGLES"> F  </i>
   <i type="logical" name="LFERMIGW"> F  </i>
   <i type="logical" name="ODDONLYGW"> F  </i>
   <i type="logical" name="EVENONLYGW"> F  </i>
   <i type="int" name="NKREDLFX">     1</i>
   <i type="int" name="NKREDLFY">     1</i>
   <i type="int" name="NKREDLFZ">     1</i>
   <i type="int" name="MAXMEM">  2800</i>
   <i type="int" name="TELESCOPE">     0</i>
   <i type="int" name="NTAUPAR">    -1</i>
   <i type="int" name="NOMEGAPAR">    -1</i>
   <i name="DAMP_NEWTON">      0.80000001</i>
   <i name="LAMBDA">      1.00000000</i>
  </separator>
  <separator name="External order field" >
   <i name="OFIELD_KAPPA">      0.00000000</i>
   <v name="OFIELD_K">      0.00000000      0.00000000      0.00000000</v>
   <i name="OFIELD_Q6_NEAR">      0.00000000</i>
   <i name="OFIELD_Q6_FAR">      0.00000000</i>
   <i name="OFIELD_A">      0.00000000</i>
  </separator>
 </parameters>
 <atominfo>
  <atoms>     526 </atoms>
  <types>       2 </types>
  <array name="atoms" >
   <dimension dim="1">ion</dimension>
   <field type="string">element</field>
   <field type="int">atomtype</field>
   <set>
    <rc><c>Al</c><c>   1</c></rc>
    <rc><c>Al</c><c>   1</c></rc>
    <rc><c>Al</c><c>   1</c></rc>
    <rc><c>Al</c><c>   1</c></rc>
    <rc><c>Al</c><c>   1</c></rc>
    <rc><c>Al</c><c>   1</c></rc>
    <rc><c>Al</c><c>   1</c></rc>
    <rc><c>Al</c><c>   1</c></rc>
    <rc><c>Al</c><c>   1</c></rc>
    <rc><c>Al</c><c>   1</c></rc>
    <rc><c>Al</c><c>   1</c></rc>
    <rc><c>Al</c><c>   1</c></rc>
    <rc><c>Al</c><c>   1</c></rc>
    <rc><c>Al</c><c>   1</c></rc>
    <rc><c>Al</c><c>   1</c></rc>
    <rc><c>Al</c><c>   1</c></rc>
    <rc><c>Al</c><c>   1</c></rc>
    <rc><c>Al</c><c>   1</c></rc>
    <rc><c>Al</c><c>   1</c></rc>
    <rc><c>Al</c><c>   1</c></rc>
    <rc><c>Al</c><c>   1</c></rc>
    <rc><c>Al</c><c>   1</c></rc>
    <rc><c>Al</c><c>   1</c></rc>
    <rc><c>Al</c><c>   1</c></rc>
    <rc><c>Al</c><c>   1</c></rc>
    <rc><c>Al</c><c>   1</c></rc>
    <rc><c>Al</c><c>   1</c></rc>
    <rc><c>Al</c><c>   1</c></rc>
    <rc><c>Al</c><c>   1</c></rc>
    <rc><c>Al</c><c>   1</c></rc>
    <rc><c>Al</c><c>   1</c></rc>
    <rc><c>Al</c><c>   1</c></rc>
    <rc><c>Al</c><c>   1</c></rc>
    <rc><c>Al</c><c>   1</c></rc>
    <rc><c>Al</c><c>   1</c></rc>
    <rc><c>Al</c><c>   1</c></rc>
    <rc><c>Al</c><c>   1</c></rc>
    <rc><c>Al</c><c>   1</c></rc>
    <rc><c>Al</c><c>   1</c></rc>
    <rc><c>Al</c><c>   1</c></rc>
    <rc><c>Al</c><c>   1</c></rc>
    <rc><c>Al</c><c>   1</c></rc>
    <rc><c>Al</c><c>   1</c></rc>
    <rc><c>Al</c><c>   1</c></rc>
    <rc><c>Al</c><c>   1</c></rc>
    <rc><c>Al</c><c>   1</c></rc>
    <rc><c>Al</c><c>   1</c></rc>
    <rc><c>Al</c><c>   1</c></rc>
    <rc><c>Al</c><c>   1</c></rc>
    <rc><c>Al</c><c>   1</c></rc>
    <rc><c>Al</c><c>   1</c></rc>
    <rc><c>Al</c><c>   1</c></rc>
    <rc><c>Al</c><c>   1</c></rc>
    <rc><c>Al</c><c>   1</c></rc>
    <rc><c>Al</c><c>   1</c></rc>
    <rc><c>Al</c><c>   1</c></rc>
    <rc><c>Al</c><c>   1</c></rc>
    <rc><c>Al</c><c>   1</c></rc>
    <rc><c>Al</c><c>   1</c></rc>
    <rc><c>Al</c><c>   1</c></rc>
    <rc><c>Al</c><c>   1</c></rc>
    <rc><c>Al</c><c>   1</c></rc>
    <rc><c>Al</c><c>   1</c></rc>
    <rc><c>Al</c><c>   1</c></rc>
    <rc><c>Al</c><c>   1</c></rc>
    <rc><c>Al</c><c>   1</c></rc>
    <rc><c>Al</c><c>   1</c></rc>
    <rc><c>Al</c><c>   1</c></rc>
    <rc><c>Al</c><c>   1</c></rc>
    <rc><c>Al</c><c>   1</c></rc>
    <rc><c>Al</c><c>   1</c></rc>
    <rc><c>Al</c><c>   1</c></rc>
    <rc><c>Al</c><c>   1</c></rc>
    <rc><c>Al</c><c>   1</c></rc>
    <rc><c>Al</c><c>   1</c></rc>
    <rc><c>Al</c><c>   1</c></rc>
    <rc><c>Al</c><c>   1</c></rc>
    <rc><c>Al</c><c>   1</c></rc>
    <rc><c>Al</c><c>   1</c></rc>
    <rc><c>Al</c><c>   1</c></rc>
    <rc><c>Al</c><c>   1</c></rc>
    <rc><c>Al</c><c>   1</c></rc>
    <rc><c>Al</c><c>   1</c></rc>
    <rc><c>Al</c><c>   1</c></rc>
    <rc><c>Al</c><c>   1</c></rc>
    <rc><c>Al</c><c>   1</c></rc>
    <rc><c>Al</c><c>   1</c></rc>
    <rc><c>Al</c><c>   1</c></rc>
    <rc><c>Al</c><c>   1</c></rc>
    <rc><c>Al</c><c>   1</c></rc>
    <rc><c>Al</c><c>   1</c></rc>
    <rc><c>Al</c><c>   1</c></rc>
    <rc><c>Al</c><c>   1</c></rc>
    <rc><c>Al</c><c>   1</c></rc>
    <rc><c>Al</c><c>   1</c></rc>
    <rc><c>Al</c><c>   1</c></rc>
    <rc><c>Al</c><c>   1</c></rc>
    <rc><c>Al</c><c>   1</c></rc>
    <rc><c>Al</c><c>   1</c></rc>
    <rc><c>Al</c><c>   1</c></rc>
    <rc><c>Al</c><c>   1</c></rc>
    <rc><c>Al</c><c>   1</c></rc>
    <rc><c>Al</c><c>   1</c></rc>
    <rc><c>Al</c><c>   1</c></rc>
    <rc><c>Al</c><c>   1</c></rc>
    <rc><c>Al</c><c>   1</c></rc>
    <rc><c>Al</c><c>   1</c></rc>
    <rc><c>Al</c><c>   1</c></rc>
    <rc><c>O </c><c>   2</c></rc>
    <rc><c>O </c><c>   2</c></rc>
    <rc><c>O </c><c>   2</c></rc>
    <rc><c>O </c><c>   2</c></rc>
    <rc><c>O </c><c>   2</c></rc>
    <rc><c>O </c><c>   2</c></rc>
    <rc><c>O </c><c>   2</c></rc>
    <rc><c>O </c><c>   2</c></rc>
    <rc><c>O </c><c>   2</c></rc>
    <rc><c>O </c><c>   2</c></rc>
    <rc><c>O </c><c>   2</c></rc>
    <rc><c>O </c><c>   2</c></rc>
    <rc><c>O </c><c>   2</c></rc>
    <rc><c>O </c><c>   2</c></rc>
    <rc><c>O </c><c>   2</c></rc>
    <rc><c>O </c><c>   2</c></rc>
    <rc><c>O </c><c>   2</c></rc>
    <rc><c>O </c><c>   2</c></rc>
    <rc><c>O </c><c>   2</c></rc>
    <rc><c>O </c><c>   2</c></rc>
    <rc><c>O </c><c>   2</c></rc>
    <rc><c>O </c><c>   2</c></rc>
    <rc><c>O </c><c>   2</c></rc>
    <rc><c>O </c><c>   2</c></rc>
    <rc><c>O </c><c>   2</c></rc>
    <rc><c>O </c><c>   2</c></rc>
[...]
   <v>       0.55039498       0.88827765       0.31100442 </v>
   <v>       0.33551458       0.89574510       0.25805844 </v>
   <v>       0.44760261      -0.00126947       0.31036048 </v>
   <v>       0.33426834       0.78241509       0.31453502 </v>
   <v>       0.43354282       0.76959175       0.25708385 </v>
   <v>       0.56023052       0.66448542       0.25805844 </v>
   <v>       0.77246693       0.00040522       0.08139892 </v>
   <v>       0.89344564       0.00850097       0.01947125 </v>
   <v>       0.66670825       0.10632244       0.08116675 </v>
   <v>       0.89526195       0.22716737       0.08163818 </v>
   <v>      -0.00887951       0.21782458       0.01937338 </v>
   <v>       0.78080611       0.10650266       0.01843891 </v>
   <v>       0.99046100       0.11172634       0.20279315 </v>
   <v>       0.77443851       0.11642174       0.14321286 </v>
   <v>       0.88843179       0.20981518       0.20177791 </v>
   <v>       0.79032479       0.01097288       0.20196004 </v>
   <v>       0.88443850       0.32302085       0.14405897 </v>
   <v>       0.67651955       0.22602917       0.14409363 </v>
   <v>       0.88224065       0.21793017       0.31149727 </v>
   <v>       0.67003258       0.23380587       0.25739418 </v>
   <v>       0.78204451       0.32984336       0.31111204 </v>
   <v>       0.66906907       0.12275528       0.30914709 </v>
   <v>       0.77002044       0.10722079       0.25655700 </v>
   <v>       0.89723042       0.00054680       0.25933650 </v>
   <v>       0.77295740       0.33423840       0.08204485 </v>
   <v>       0.89118262       0.33745458       0.02006627 </v>
   <v>       0.66576160       0.43871900       0.08204485 </v>
   <v>       0.89367756       0.56038581       0.08116675 </v>
   <v>       0.98975573       0.55018838       0.01968174 </v>
   <v>       0.78116594       0.43890903       0.01964916 </v>
   <v>       0.98959495       0.44776271       0.20191267 </v>
   <v>       0.77397083       0.45049072       0.14409363 </v>
   <v>       0.88585873       0.54237035       0.20127049 </v>
   <v>       0.78912921       0.34297749       0.20125235 </v>
   <v>       0.88357826       0.65801711       0.14321286 </v>
   <v>       0.67697915       0.56141798       0.14405897 </v>
   <v>       0.87724472       0.54631413       0.30914709 </v>
   <v>       0.66776463       0.56594596       0.25612655 </v>
   <v>       0.78206983       0.66431082       0.31149727 </v>
   <v>       0.67015664       0.45220149       0.31111204 </v>
   <v>       0.76619413       0.43622670       0.25739418 </v>
   <v>       0.89818134       0.33223537       0.25612655 </v>
   <v>       0.77283263       0.66809458       0.08163818 </v>
   <v>       0.89349734       0.67430312       0.01843891 </v>
   <v>       0.66757532       0.77486145       0.08154608 </v>
   <v>       0.89255614       0.89388759       0.08140072 </v>
   <v>      -0.00850097       0.88494433       0.01947125 </v>
   <v>       0.78217542       0.77329558       0.01937338 </v>
   <v>       0.98902712       0.77935158       0.20196004 </v>
   <v>       0.77369981       0.78576204       0.14494993 </v>
   <v>       0.88827366       0.87873433       0.20279315 </v>
   <v>       0.79018482       0.67861627       0.20177791 </v>
   <v>       0.88340239      -0.01064631       0.14468550 </v>
   <v>       0.67815827       0.89436283       0.14438315 </v>
   <v>       0.88297121       0.89053216       0.31281760 </v>
   <v>       0.66720786       0.90044199       0.25807273 </v>
   <v>       0.77155177      -0.00229529       0.31405511 </v>
   <v>       0.66844681       0.78749317       0.31247770 </v>
   <v>       0.76566005       0.77243387       0.25749049 </v>
   <v>       0.89277921       0.66279965       0.25655700 </v>
   <v>       0.00000000       0.00000000       0.34439278 </v>
   <v>       0.00000000       0.00000000       0.43387551 </v>
   <v>       0.00000000       0.00000000       0.46811043 </v>
   <v>       0.00000000       0.00000000       0.53110739 </v>
   <v>      -0.02248873       0.11254264       0.38821013 </v>
   <v>      -0.00496084       0.12578031       0.44564656 </v>
   <v>      -0.00070943       0.12406791       0.48012368 </v>
   <v>      -0.00287385       0.08940798       0.54776327 </v>
   <v>       0.00144018       0.25259164       0.35233696 </v>
   <v>      -0.00334323       0.24577661       0.44159055 </v>
   <v>       0.00099318       0.25529110       0.47581020 </v>
   <v>      -0.01227843       0.20680689       0.53742250 </v>
   <v>       0.03561423       0.39447110       0.35340407 </v>
   <v>      -0.00323678       0.37393889       0.43580966 </v>
   <v>      -0.01143173       0.37474257       0.46966769 </v>
   <v>      -0.03595328       0.34805011       0.54867158 </v>
   <v>      -0.01794521       0.50188375       0.37902900 </v>
   <v>      -0.00931333       0.49377343       0.44005384 </v>
   <v>      -0.01127214       0.48827999       0.47385501 </v>
   <v>       0.01490879       0.53156710       0.54560932 </v>
   <v>      -0.00984445       0.62790209       0.34815589 </v>
   <v>      -0.00115955       0.62559674       0.43693722 </v>
   <v>      -0.00098452       0.62201621       0.47132330 </v>
   <v>       0.00952714       0.62242230       0.53554954 </v>
   <v>       0.05382362       0.78802669       0.38561839 </v>
   <v>      -0.00585218       0.74789086       0.44286252 </v>
   <v>       0.00133246       0.75076814       0.47706901 </v>
   <v>      -0.02137981       0.73434577       0.54648750 </v>
   <v>      -0.02346074       0.89618000       0.37015707 </v>
   <v>       0.00001176       0.87503486       0.43695546 </v>
   <v>       0.00232609       0.87752696       0.47138552 </v>
   <v>      -0.01015434       0.83404267       0.53527944 </v>
   <v>       0.13503136       0.02248873       0.38821013 </v>
   <v>       0.13074115       0.00496084       0.44564656 </v>
   <v>       0.12477734       0.00070943       0.48012368 </v>
   <v>       0.09228183       0.00287385       0.54776327 </v>
   <v>       0.10382000       0.08035926       0.37015707 </v>
   <v>       0.12496514       0.12497691       0.43695546 </v>
   <v>       0.12247304       0.12479914       0.47138552 </v>
   <v>       0.16595733       0.15580299       0.53527944 </v>
   <v>       0.13216874       0.23589248       0.36267002 </v>
   <v>       0.12387994       0.24856064       0.43721694 </v>
   <v>       0.12503360       0.24969802       0.47138222 </v>
   <v>       0.12872544       0.25251613       0.54327959 </v>
   <v>       0.06867213       0.31391257       0.37957369 </v>
   <v>       0.12232267       0.37524494       0.43918366 </v>
   <v>       0.12115527       0.37438586       0.47342475 </v>
   <v>       0.11041559       0.37594057       0.53302754 </v>
   <v>       0.07698187       0.48482178       0.36973773 </v>
   <v>       0.12504396       0.50094237       0.43870410 </v>
   <v>       0.12272104       0.49928593       0.47281776 </v>
   <v>       0.13000053       0.47177832       0.54234746 </v>
   <v>       0.15359098       0.62633026       0.38042315 </v>
   <v>       0.12108473       0.62221364       0.43959419 </v>
   <v>       0.11965001       0.62081855       0.47369032 </v>
   <v>       0.12011431       0.61399274       0.54261363 </v>
   <v>       0.09348361       0.72129847       0.37928322 </v>
   <v>       0.12552522       0.75129299       0.43964067 </v>
   <v>       0.12420618       0.75071177       0.47370695 </v>
   <v>       0.15794826       0.79072577       0.54140945 </v>
   <v>       0.10372374       0.86783126       0.36267002 </v>
   <v>       0.12468069       0.87612006       0.43721694 </v>
   <v>       0.12466442       0.87496640       0.47138222 </v>
   <v>       0.12379069       0.87127456       0.54327959 </v>
   <v>       0.25115147      -0.00144018       0.35233696 </v>
   <v>       0.24911984       0.00334323       0.44159055 </v>
   <v>       0.25429792      -0.00099318       0.47581020 </v>
   <v>       0.21908533       0.01227843       0.53742250 </v>
   <v>       0.26038559       0.13530055       0.38631859 </v>
   <v>       0.25374350       0.12653456       0.45064767 </v>
   <v>       0.25691478       0.12636509       0.48473538 </v>
   <v>       0.27226629       0.08973326       0.56276927 </v>
   <v>       0.21197331       0.26579693       0.38561839 </v>
   <v>       0.25210914       0.24625696       0.44286252 </v>
   <v>       0.24923186       0.25056432       0.47706901 </v>
   <v>       0.26565423       0.24427442       0.54648750 </v>
   <v>       0.27870153       0.37218514       0.37928322 </v>
   <v>       0.24870701       0.37423223       0.43964067 </v>
   <v>       0.24928823       0.37349441       0.47370695 </v>
   <v>       0.20927423       0.36722249       0.54140945 </v>
   <v>       0.20629316       0.47990984       0.38254808 </v>
   <v>       0.25133750       0.49932828       0.44246719 </v>
   <v>       0.25082053       0.49892749       0.47665705 </v>
   <v>       0.27304843       0.52621328       0.55509754 </v>
   <v>       0.25063445       0.67243069       0.37053820 </v>
   <v>       0.24919672       0.62440023       0.43750319 </v>
   <v>       0.25033090       0.62523015       0.47145628 </v>
   <v>       0.23856958       0.62527764       0.53398768 </v>
   <v>       0.27361669       0.79370684       0.38254808 </v>
   <v>       0.24799077       0.74866250       0.44246719 </v>
   <v>       0.24810696       0.74917947       0.47665705 </v>
   <v>       0.25316485       0.72695157       0.55509754 </v>
   <v>       0.24524044       0.93132787       0.37957369 </v>
   <v>       0.25292227       0.87767733       0.43918366 </v>
   <v>       0.25323059       0.87884473       0.47342475 </v>
   <v>       0.26552498       0.88958441       0.53302754 </v>
   <v>       0.35885687      -0.03561423       0.35340407 </v>
   <v>       0.37717567       0.00323678       0.43580966 </v>
   <v>       0.38617430       0.01143173       0.46966769 </v>
   <v>       0.38400339       0.03595328       0.54867158 </v>
   <v>       0.33194153       0.10746205       0.37953064 </v>
   <v>       0.37632595       0.12773415       0.43794431 </v>
   <v>       0.39083641       0.12667460       0.47115010 </v>
   <v>       0.36204475       0.12772494       0.53869147 </v>
   <v>       0.35395168       0.26920068       0.36238547 </v>
   <v>       0.37579125       0.25095079       0.44362077 </v>
   <v>       0.38335886       0.25490592       0.47764166 </v>
   <v>       0.35667214       0.25575181       0.53581440 </v>
   <v>       0.37209791       0.36225346       0.34815589 </v>
   <v>       0.37440326       0.37324371       0.43693722 </v>
   <v>       0.37798379       0.37699928       0.47132330 </v>
   <v>       0.37757770       0.38710483       0.53554954 </v>
   <v>       0.37366974       0.52726072       0.38042315 </v>
   <v>       0.37778636       0.49887109       0.43959419 </v>
   <v>       0.37918145       0.49883146       0.47369032 </v>
   <v>       0.38600726       0.50612157       0.54261363 </v>
   <v>       0.32756931       0.57820376       0.37053820 </v>
   <v>       0.37559977       0.62479649       0.43750319 </v>
   <v>       0.37476985       0.62510075       0.47145628 </v>
   <v>       0.37472236       0.61329194       0.53398768 </v>
   <v>       0.42179624       0.74936555       0.37053820 </v>
   <v>       0.37520351       0.75080328       0.43750319 </v>
   <v>       0.37489925       0.74966910       0.47145628 </v>
   <v>       0.38670806       0.76143042       0.53398768 </v>
   <v>       0.40783990       0.92301813       0.36973773 </v>
   <v>       0.37589841       0.87495604       0.43870410 </v>
   <v>       0.37656489       0.87727896       0.47281776 </v>
   <v>       0.34177779       0.86999947       0.54234746 </v>
   <v>       0.51982896       0.01794521       0.37902900 </v>
   <v>       0.50308676       0.00931333       0.44005384 </v>
   <v>       0.49955213       0.01127214       0.47385501 </v>
   <v>       0.51665831      -0.01490879       0.54560932 </v>
   <v>       0.48045379       0.10010438       0.38165384 </v>
   <v>       0.49624835       0.13259446       0.41387736 </v>
   <v>       0.50235410       0.14057175       0.50559779 </v>
   <v>       0.48835233       0.09222026       0.54021187 </v>
   <v>       0.50263601       0.25832927       0.36256695 </v>
   <v>       0.49689999       0.25070127       0.43639433 </v>
   <v>       0.50531014       0.24359949       0.46981422 </v>
   <v>       0.49484315       0.24853812       0.55050430 </v>
   <v>       0.43289926       0.28434862       0.38786167 </v>
   <v>       0.50550286       0.37945607       0.44048707 </v>
   <v>       0.51104390       0.37966220       0.47429313 </v>
   <v>       0.51518431       0.35048067       0.55039760 </v>
   <v>       0.49811625       0.48017104       0.37902900 </v>
   <v>       0.50622657       0.49691324       0.44005384 </v>
   <v>       0.51172001       0.50044787       0.47385501 </v>
   <v>       0.46843290       0.48334169       0.54560932 </v>
   <v>       0.51517822       0.59216010       0.36973773 </v>
   <v>       0.49905763       0.62410159       0.43870410 </v>
   <v>       0.50071407       0.62343511       0.47281776 </v>
   <v>       0.52822168       0.65822221       0.54234746 </v>
   <v>       0.52009016       0.72638331       0.38254808 </v>
   <v>       0.50067172       0.75200923       0.44246719 </v>
   <v>       0.50107251       0.75189304       0.47665705 </v>
   <v>       0.47378672       0.74683515       0.55509754 </v>
   <v>       0.47273928       0.84640902       0.38042315 </v>
   <v>       0.50112891       0.87891527       0.43959419 </v>
   <v>       0.50116854       0.88034999       0.47369032 </v>
   <v>       0.49387843       0.87988569       0.54261363 </v>
   <v>       0.63774654       0.00984445       0.34815589 </v>
   <v>       0.62675629       0.00115955       0.43693722 </v>
   <v>       0.62300072       0.00098452       0.47132330 </v>
   <v>       0.61289517      -0.00952714       0.53554954 </v>
   <v>       0.71565138       0.14855063       0.38786167 </v>
   <v>       0.62054393       0.12604679       0.44048707 </v>
   <v>       0.62033780       0.13138169       0.47429313 </v>
   <v>       0.64951933       0.16470365       0.55039760 </v>
   <v>       0.64818314       0.23740727       0.36478168 </v>
   <v>       0.62043702       0.24790621       0.43347616 </v>
   <v>       0.61730669       0.24664708       0.46760239 </v>
   <v>       0.62204141       0.24741091       0.54151748 </v>
   <v>       0.58922413       0.35181686       0.36478168 </v>
   <v>       0.62746919       0.37956298       0.43347616 </v>
   <v>       0.62934040       0.38269331       0.46760239 </v>
   <v>       0.62536950       0.37795859       0.54151748 </v>
   <v>       0.61965059       0.51954621       0.38165384 </v>
   <v>       0.63634612       0.50375165       0.41387736 </v>
   <v>       0.63821765       0.49764590       0.50559779 </v>
   <v>       0.60386793       0.51164767       0.54021187 </v>
   <v>       0.60552890       0.64114313       0.35340407 </v>
   <v>       0.62606111       0.62282433       0.43580966 </v>
   <v>       0.62525743       0.61382570       0.46966769 </v>
   <v>       0.65194989       0.61599661       0.54867158 </v>
   <v>       0.68608743       0.75475956       0.37957369 </v>
   <v>       0.62475506       0.74707773       0.43918366 </v>
   <v>       0.62561414       0.74676941       0.47342475 </v>
   <v>       0.62405943       0.73447502       0.53302754 </v>
   <v>       0.62781486       0.90651639       0.37928322 </v>
   <v>       0.62576777       0.87447478       0.43964067 </v>
   <v>       0.62650559       0.87579382       0.47370695 </v>
   <v>       0.63277751       0.84205174       0.54140945 </v>
   <v>       0.73420307      -0.05382362       0.38561839 </v>
   <v>       0.75374304       0.00585218       0.44286252 </v>
   <v>       0.74943568      -0.00133246       0.47706901 </v>
   <v>       0.75572558       0.02137981       0.54648750 </v>
   <v>       0.73079932       0.08475099       0.36238547 </v>
   <v>       0.74904921       0.12484045       0.44362077 </v>
   <v>       0.74509408       0.12845295       0.47764166 </v>
   <v>       0.74424819       0.10092033       0.53581440 </v>
   <v>       0.74167073       0.24430674       0.36256695 </v>
   <v>       0.74929873       0.24619872       0.43639433 </v>
   <v>       0.75640051       0.26171066       0.46981422 </v>
   <v>       0.75146188       0.24630502       0.55050430 </v>
   <v>       0.76259273       0.41077587       0.36478168 </v>
   <v>       0.75209379       0.37253081       0.43347616 </v>
   <v>       0.75335292       0.37065960       0.46760239 </v>
   <v>       0.75258909       0.37463050       0.54151748 </v>
   <v>       0.75569326       0.49736399       0.36256695 </v>
   <v>       0.75380128       0.50310001       0.43639433 </v>
   <v>       0.73828934       0.49468986       0.46981422 </v>
   <v>       0.75369498       0.50515685       0.55050430 </v>
   <v>       0.77552052       0.66805847       0.37953064 </v>
   <v>       0.75140820       0.62367405       0.43794431 </v>
   <v>       0.73583819       0.60916359       0.47115010 </v>
   <v>       0.76568019       0.63795525       0.53869147 </v>
   <v>       0.74740836       0.74884853       0.35233696 </v>
   <v>       0.75422339       0.75088016       0.44159055 </v>
   <v>       0.74470890       0.74570208       0.47581020 </v>
   <v>       0.79319311       0.78091467       0.53742250 </v>
   <v>       0.76410752       0.89627626       0.36267002 </v>
   <v>       0.75143936       0.87531931       0.43721694 </v>
   <v>       0.75030198       0.87533558       0.47138222 </v>
   <v>       0.74748387       0.87620931       0.54327959 </v>
   <v>       0.91964074       0.02346074       0.37015707 </v>
   <v>       0.87502309      -0.00001176       0.43695546 </v>
   <v>       0.87520086      -0.00232609       0.47138552 </v>
   <v>       0.84419701       0.01015434       0.53527944 </v>
   <v>       0.86469945       0.12508504       0.38631859 </v>
   <v>       0.87346544       0.12720894       0.45064767 </v>
   <v>       0.87363491       0.13054969       0.48473538 </v>
   <v>       0.91026674       0.18253303       0.56276927 </v>
   <v>       0.89253795       0.22447948       0.37953064 </v>
   <v>       0.87226585       0.24859180       0.43794431 </v>
   <v>       0.87332540       0.26416181       0.47115010 </v>
   <v>       0.87227506       0.23431981       0.53869147 </v>
   <v>       0.89989562       0.38034941       0.38165384 </v>
   <v>       0.86740554       0.36365388       0.41387736 </v>
   <v>       0.85942825       0.36178235       0.50559779 </v>
   <v>       0.90777974       0.39613207       0.54021187 </v>
   <v>       0.85144937       0.56710074       0.38786167 </v>
   <v>       0.87395321       0.49449714       0.44048707 </v>
   <v>       0.86861831       0.48895610       0.47429313 </v>
   <v>       0.83529635       0.48481569       0.55039760 </v>
   <v>       0.91524901       0.64604832       0.36238547 </v>
   <v>       0.87515955       0.62420875       0.44362077 </v>
   <v>       0.87154705       0.61664114       0.47764166 </v>
   <v>       0.89907967       0.64332786       0.53581440 </v>
   <v>       0.87491496       0.73961441       0.38631859 </v>
   <v>       0.87279106       0.74625650       0.45064767 </v>
   <v>       0.86945031       0.74308522       0.48473538 </v>
   <v>       0.81746697       0.72773371       0.56276927 </v>
   <v>       0.88745736       0.86496864       0.38821013 </v>
   <v>       0.87421969       0.86925885       0.44564656 </v>
   <v>       0.87593209       0.87522266       0.48012368 </v>
   <v>       0.91059202       0.90771817       0.54776327 </v>
  </varray>
 </structure>
</modeling>
