NiAl                                    
            1
    14.415084    0.000000    0.000000
    -7.207542   12.483828    0.000000
     0.000000    0.000000   36.116254
   Al   O 
   108   418
Direct configuration=     1
   0.00000000  0.00000000  0.05371394
   0.11111100  0.22222233  0.00681411
   0.11111100  0.22222233  0.11424200
   0.22222233  0.11111100  0.06734181
   0.22222233  0.11111100  0.17476970
   0.00000000  0.00000000  0.12786987
   0.00000000  0.00000000  0.23529775
   0.11111100  0.22222233  0.18839792
   0.11111100  0.22222233  0.29582581
   0.22222233  0.11111100  0.24892562
   0.22222233  0.11111100  0.35635351
   0.00000000  0.00000000  0.30945368
   0.00000000  0.33333333  0.05371394
   0.11111100  0.55555567  0.00681411
   0.11111100  0.55555567  0.11424200
   0.22222233  0.44444433  0.06734181
   0.22222233  0.44444433  0.17476970
   0.00000000  0.33333333  0.12786987
   0.00000000  0.33333333  0.23529775
   0.11111100  0.55555567  0.18839792
   0.11111100  0.55555567  0.29582581
   0.22222233  0.44444433  0.24892562
   0.22222233  0.44444433  0.35635351
   0.00000000  0.33333333  0.30945368
   0.00000000  0.66666667  0.05371394
   0.11111100  0.88888900  0.00681411
   0.11111100  0.88888900  0.11424200
   0.22222233  0.77777767  0.06734181
   0.22222233  0.77777767  0.17476970
   0.00000000  0.66666667  0.12786987
   0.00000000  0.66666667  0.23529775
   0.11111100  0.88888900  0.18839792
   0.11111100  0.88888900  0.29582581
   0.22222233  0.77777767  0.24892562
   0.22222233  0.77777767  0.35635351
   0.00000000  0.66666667  0.30945368
   0.33333333  0.00000000  0.05371394
   0.44444433  0.22222233  0.00681411
   0.44444433  0.22222233  0.11424200
   0.55555567  0.11111100  0.06734181
   0.55555567  0.11111100  0.17476970
   0.33333333  0.00000000  0.12786987
   0.33333333  0.00000000  0.23529775
   0.44444433  0.22222233  0.18839792
   0.44444433  0.22222233  0.29582581
   0.55555567  0.11111100  0.24892562
   0.55555567  0.11111100  0.35635351
   0.33333333  0.00000000  0.30945368
   0.33333333  0.33333333  0.05371394
   0.44444433  0.55555567  0.00681411
   0.44444433  0.55555567  0.11424200
   0.55555567  0.44444433  0.06734181
   0.55555567  0.44444433  0.17476970
   0.33333333  0.33333333  0.12786987
   0.33333333  0.33333333  0.23529775
   0.44444433  0.55555567  0.18839792
   0.44444433  0.55555567  0.29582581
   0.55555567  0.44444433  0.24892562
   0.55555567  0.44444433  0.35635351
   0.33333333  0.33333333  0.30945368
   0.33333333  0.66666667  0.05371394
   0.44444433  0.88888900  0.00681411
   0.44444433  0.88888900  0.11424200
   0.55555567  0.77777767  0.06734181
   0.55555567  0.77777767  0.17476970
   0.33333333  0.66666667  0.12786987
   0.33333333  0.66666667  0.23529775
   0.44444433  0.88888900  0.18839792
   0.44444433  0.88888900  0.29582581
   0.55555567  0.77777767  0.24892562
   0.55555567  0.77777767  0.35635351
   0.33333333  0.66666667  0.30945368
   0.66666667  0.00000000  0.05371394
   0.77777767  0.22222233  0.00681411
   0.77777767  0.22222233  0.11424200
   0.88888900  0.11111100  0.06734181
   0.88888900  0.11111100  0.17476970
   0.66666667  0.00000000  0.12786987
   0.66666667  0.00000000  0.23529775
   0.77777767  0.22222233  0.18839792
   0.77777767  0.22222233  0.29582581
   0.88888900  0.11111100  0.24892562
   0.88888900  0.11111100  0.35635351
   0.66666667  0.00000000  0.30945368
   0.66666667  0.33333333  0.05371394
   0.77777767  0.55555567  0.00681411
   0.77777767  0.55555567  0.11424200
   0.88888900  0.44444433  0.06734181
   0.88888900  0.44444433  0.17476970
   0.66666667  0.33333333  0.12786987
   0.66666667  0.33333333  0.23529775
   0.77777767  0.55555567  0.18839792
   0.77777767  0.55555567  0.29582581
   0.88888900  0.44444433  0.24892562
   0.88888900  0.44444433  0.35635351
   0.66666667  0.33333333  0.30945368
   0.66666667  0.66666667  0.05371394
   0.77777767  0.88888900  0.00681411
   0.77777767  0.88888900  0.11424200
   0.88888900  0.77777767  0.06734181
   0.88888900  0.77777767  0.17476970
   0.66666667  0.66666667  0.12786987
   0.66666667  0.66666667  0.23529775
   0.77777767  0.88888900  0.18839792
   0.77777767  0.88888900  0.29582581
   0.88888900  0.77777767  0.24892562
   0.88888900  0.77777767  0.35635351
   0.66666667  0.66666667  0.30945368
   0.10204867  0.00000000  0.09079190
   0.22222233  0.00906233  0.03026385
   0.00000000  0.10204867  0.09079190
   0.23128467  0.23128467  0.09079190
   0.32427100  0.21315967  0.03026385
   0.12017367  0.11111100  0.03026385
   0.32427100  0.11111100  0.21184766
   0.11111100  0.12017367  0.15131996
   0.22222233  0.21315967  0.21184766
   0.12017367  0.00906233  0.21184766
   0.21315967  0.32427100  0.15131996
   0.00906233  0.22222233  0.15131996
   0.21315967  0.22222233  0.33290377
   0.00000000  0.23128467  0.27237571
   0.11111100  0.32427100  0.33290377
   0.00906233  0.12017367  0.33290377
   0.10204867  0.10204867  0.27237571
   0.23128467  0.00000000  0.27237571
   0.10204867  0.33333333  0.09079190
   0.22222233  0.34239567  0.03026385
   0.00000000  0.43538200  0.09079190
   0.23128467  0.56461800  0.09079190
   0.32427100  0.54649300  0.03026385
   0.12017367  0.44444433  0.03026385
   0.32427100  0.44444433  0.21184766
   0.11111100  0.45350700  0.15131996
   0.22222233  0.54649300  0.21184766
   0.12017367  0.34239567  0.21184766
   0.21315967  0.65760433  0.15131996
   0.00906233  0.55555567  0.15131996
   0.21315967  0.55555567  0.33290377
   0.00000000  0.56461800  0.27237571
   0.11111100  0.65760433  0.33290377
   0.00906233  0.45350700  0.33290377
   0.10204867  0.43538200  0.27237571
   0.23128467  0.33333333  0.27237571
   0.10204867  0.66666667  0.09079190
   0.22222233  0.67572900  0.03026385
   0.00000000  0.76871533  0.09079190
   0.23128467  0.89795133  0.09079190
   0.32427100  0.87982633  0.03026385
   0.12017367  0.77777767  0.03026385
   0.32427100  0.77777767  0.21184766
   0.11111100  0.78684033  0.15131996
   0.22222233  0.87982633  0.21184766
   0.12017367  0.67572900  0.21184766
   0.21315967  0.99093767  0.15131996
   0.00906233  0.88888900  0.15131996
   0.21315967  0.88888900  0.33290377
   0.00000000  0.89795133  0.27237571
   0.11111100  0.99093767  0.33290377
   0.00906233  0.78684033  0.33290377
   0.10204867  0.76871533  0.27237571
   0.23128467  0.66666667  0.27237571
   0.43538200  0.00000000  0.09079190
   0.55555567  0.00906233  0.03026385
   0.33333333  0.10204867  0.09079190
   0.56461800  0.23128467  0.09079190
   0.65760433  0.21315967  0.03026385
   0.45350700  0.11111100  0.03026385
   0.65760433  0.11111100  0.21184766
   0.44444433  0.12017367  0.15131996
   0.55555567  0.21315967  0.21184766
   0.45350700  0.00906233  0.21184766
   0.54649300  0.32427100  0.15131996
   0.34239567  0.22222233  0.15131996
   0.54649300  0.22222233  0.33290377
   0.33333333  0.23128467  0.27237571
   0.44444433  0.32427100  0.33290377
   0.34239567  0.12017367  0.33290377
   0.43538200  0.10204867  0.27237571
   0.56461800  0.00000000  0.27237571
   0.43538200  0.33333333  0.09079190
   0.55555567  0.34239567  0.03026385
   0.33333333  0.43538200  0.09079190
   0.56461800  0.56461800  0.09079190
   0.65760433  0.54649300  0.03026385
   0.45350700  0.44444433  0.03026385
   0.65760433  0.44444433  0.21184766
   0.44444433  0.45350700  0.15131996
   0.55555567  0.54649300  0.21184766
   0.45350700  0.34239567  0.21184766
   0.54649300  0.65760433  0.15131996
   0.34239567  0.55555567  0.15131996
   0.54649300  0.55555567  0.33290377
   0.33333333  0.56461800  0.27237571
   0.44444433  0.65760433  0.33290377
   0.34239567  0.45350700  0.33290377
   0.43538200  0.43538200  0.27237571
   0.56461800  0.33333333  0.27237571
   0.43538200  0.66666667  0.09079190
   0.55555567  0.67572900  0.03026385
   0.33333333  0.76871533  0.09079190
   0.56461800  0.89795133  0.09079190
   0.65760433  0.87982633  0.03026385
   0.45350700  0.77777767  0.03026385
   0.65760433  0.77777767  0.21184766
   0.44444433  0.78684033  0.15131996
   0.55555567  0.87982633  0.21184766
   0.45350700  0.67572900  0.21184766
   0.54649300  0.99093767  0.15131996
   0.34239567  0.88888900  0.15131996
   0.54649300  0.88888900  0.33290377
   0.33333333  0.89795133  0.27237571
   0.44444433  0.99093767  0.33290377
   0.34239567  0.78684033  0.33290377
   0.43538200  0.76871533  0.27237571
   0.56461800  0.66666667  0.27237571
   0.76871533  0.00000000  0.09079190
   0.88888900  0.00906233  0.03026385
   0.66666667  0.10204867  0.09079190
   0.89795133  0.23128467  0.09079190
   0.99093767  0.21315967  0.03026385
   0.78684033  0.11111100  0.03026385
   0.99093767  0.11111100  0.21184766
   0.77777767  0.12017367  0.15131996
   0.88888900  0.21315967  0.21184766
   0.78684033  0.00906233  0.21184766
   0.87982633  0.32427100  0.15131996
   0.67572900  0.22222233  0.15131996
   0.87982633  0.22222233  0.33290377
   0.66666667  0.23128467  0.27237571
   0.77777767  0.32427100  0.33290377
   0.67572900  0.12017367  0.33290377
   0.76871533  0.10204867  0.27237571
   0.89795133  0.00000000  0.27237571
   0.76871533  0.33333333  0.09079190
   0.88888900  0.34239567  0.03026385
   0.66666667  0.43538200  0.09079190
   0.89795133  0.56461800  0.09079190
   0.99093767  0.54649300  0.03026385
   0.78684033  0.44444433  0.03026385
   0.99093767  0.44444433  0.21184766
   0.77777767  0.45350700  0.15131996
   0.88888900  0.54649300  0.21184766
   0.78684033  0.34239567  0.21184766
   0.87982633  0.65760433  0.15131996
   0.67572900  0.55555567  0.15131996
   0.87982633  0.55555567  0.33290377
   0.66666667  0.56461800  0.27237571
   0.77777767  0.65760433  0.33290377
   0.67572900  0.45350700  0.33290377
   0.76871533  0.43538200  0.27237571
   0.89795133  0.33333333  0.27237571
   0.76871533  0.66666667  0.09079190
   0.88888900  0.67572900  0.03026385
   0.66666667  0.76871533  0.09079190
   0.89795133  0.89795133  0.09079190
   0.99093767  0.87982633  0.03026385
   0.78684033  0.77777767  0.03026385
   0.99093767  0.77777767  0.21184766
   0.77777767  0.78684033  0.15131996
   0.88888900  0.87982633  0.21184766
   0.78684033  0.67572900  0.21184766
   0.87982633  0.99093767  0.15131996
   0.67572900  0.88888900  0.15131996
   0.87982633  0.88888900  0.33290377
   0.66666667  0.89795133  0.27237571
   0.77777767  0.99093767  0.33290377
   0.67572900  0.78684033  0.33290377
   0.76871533  0.76871533  0.27237571
   0.89795133  0.66666667  0.27237571
   0.00000000  0.00000000  0.39511722
   0.00000000  0.00000000  0.42834325
   0.00000000  0.00000000  0.46156929
   0.00000000  0.00000000  0.49479533
   0.00000000  0.12500000  0.39511722
   0.00000000  0.12500000  0.42834325
   0.00000000  0.12500000  0.46156929
   0.00000000  0.12500000  0.49479533
   0.00000000  0.25000000  0.39511722
   0.00000000  0.25000000  0.42834325
   0.00000000  0.25000000  0.46156929
   0.00000000  0.25000000  0.49479533
   0.00000000  0.37500000  0.39511722
   0.00000000  0.37500000  0.42834325
   0.00000000  0.37500000  0.46156929
   0.00000000  0.37500000  0.49479533
   0.00000000  0.50000000  0.39511722
   0.00000000  0.50000000  0.42834325
   0.00000000  0.50000000  0.46156929
   0.00000000  0.50000000  0.49479533
   0.00000000  0.62500000  0.39511722
   0.00000000  0.62500000  0.42834325
   0.00000000  0.62500000  0.46156929
   0.00000000  0.62500000  0.49479533
   0.00000000  0.75000000  0.39511722
   0.00000000  0.75000000  0.42834325
   0.00000000  0.75000000  0.46156929
   0.00000000  0.75000000  0.49479533
   0.00000000  0.87500000  0.39511722
   0.00000000  0.87500000  0.42834325
   0.00000000  0.87500000  0.46156929
   0.00000000  0.87500000  0.49479533
   0.12500000  0.00000000  0.39511722
   0.12500000  0.00000000  0.42834325
   0.12500000  0.00000000  0.46156929
   0.12500000  0.00000000  0.49479533
   0.12500000  0.12500000  0.39511722
   0.12500000  0.12500000  0.42834325
   0.12500000  0.12500000  0.46156929
   0.12500000  0.12500000  0.49479533
   0.12500000  0.25000000  0.39511722
   0.12500000  0.25000000  0.42834325
   0.12500000  0.25000000  0.46156929
   0.12500000  0.25000000  0.49479533
   0.12500000  0.37500000  0.39511722
   0.12500000  0.37500000  0.42834325
   0.12500000  0.37500000  0.46156929
   0.12500000  0.37500000  0.49479533
   0.12500000  0.50000000  0.39511722
   0.12500000  0.50000000  0.42834325
   0.12500000  0.50000000  0.46156929
   0.12500000  0.50000000  0.49479533
   0.12500000  0.62500000  0.39511722
   0.12500000  0.62500000  0.42834325
   0.12500000  0.62500000  0.46156929
   0.12500000  0.62500000  0.49479533
   0.12500000  0.75000000  0.39511722
   0.12500000  0.75000000  0.42834325
   0.12500000  0.75000000  0.46156929
   0.12500000  0.75000000  0.49479533
   0.12500000  0.87500000  0.39511722
   0.12500000  0.87500000  0.42834325
   0.12500000  0.87500000  0.46156929
   0.12500000  0.87500000  0.49479533
   0.25000000  0.00000000  0.39511722
   0.25000000  0.00000000  0.42834325
   0.25000000  0.00000000  0.46156929
   0.25000000  0.00000000  0.49479533
   0.25000000  0.12500000  0.39511722
   0.25000000  0.12500000  0.42834325
   0.25000000  0.12500000  0.46156929
   0.25000000  0.12500000  0.49479533
   0.25000000  0.25000000  0.39511722
   0.25000000  0.25000000  0.42834325
   0.25000000  0.25000000  0.46156929
   0.25000000  0.25000000  0.49479533
   0.25000000  0.37500000  0.39511722
   0.25000000  0.37500000  0.42834325
   0.25000000  0.37500000  0.46156929
   0.25000000  0.37500000  0.49479533
   0.25000000  0.50000000  0.39511722
   0.25000000  0.50000000  0.42834325
   0.25000000  0.50000000  0.46156929
   0.25000000  0.50000000  0.49479533
   0.25000000  0.62500000  0.39511722
   0.25000000  0.62500000  0.42834325
   0.25000000  0.62500000  0.46156929
   0.25000000  0.62500000  0.49479533
   0.25000000  0.75000000  0.39511722
   0.25000000  0.75000000  0.42834325
   0.25000000  0.75000000  0.46156929
   0.25000000  0.75000000  0.49479533
   0.25000000  0.87500000  0.39511722
   0.25000000  0.87500000  0.42834325
   0.25000000  0.87500000  0.46156929
   0.25000000  0.87500000  0.49479533
   0.37500000  0.00000000  0.39511722
   0.37500000  0.00000000  0.42834325
   0.37500000  0.00000000  0.46156929
   0.37500000  0.00000000  0.49479533
   0.37500000  0.12500000  0.39511722
   0.37500000  0.12500000  0.42834325
   0.37500000  0.12500000  0.46156929
   0.37500000  0.12500000  0.49479533
   0.37500000  0.25000000  0.39511722
   0.37500000  0.25000000  0.42834325
   0.37500000  0.25000000  0.46156929
   0.37500000  0.25000000  0.49479533
   0.37500000  0.37500000  0.39511722
   0.37500000  0.37500000  0.42834325
   0.37500000  0.37500000  0.46156929
   0.37500000  0.37500000  0.49479533
   0.37500000  0.50000000  0.39511722
   0.37500000  0.50000000  0.42834325
   0.37500000  0.50000000  0.46156929
   0.37500000  0.50000000  0.49479533
   0.37500000  0.62500000  0.39511722
   0.37500000  0.62500000  0.42834325
   0.37500000  0.62500000  0.46156929
   0.37500000  0.62500000  0.49479533
   0.37500000  0.75000000  0.39511722
   0.37500000  0.75000000  0.42834325
   0.37500000  0.75000000  0.46156929
   0.37500000  0.75000000  0.49479533
   0.37500000  0.87500000  0.39511722
   0.37500000  0.87500000  0.42834325
   0.37500000  0.87500000  0.46156929
   0.37500000  0.87500000  0.49479533
   0.50000000  0.00000000  0.39511722
   0.50000000  0.00000000  0.42834325
   0.50000000  0.00000000  0.46156929
   0.50000000  0.00000000  0.49479533
   0.50000000  0.12500000  0.39511722
   0.50000000  0.12500000  0.42834325
   0.50000000  0.12500000  0.46156929
   0.50000000  0.12500000  0.49479533
   0.50000000  0.25000000  0.39511722
   0.50000000  0.25000000  0.42834325
   0.50000000  0.25000000  0.46156929
   0.50000000  0.25000000  0.49479533
   0.50000000  0.37500000  0.39511722
   0.50000000  0.37500000  0.42834325
   0.50000000  0.37500000  0.46156929
   0.50000000  0.37500000  0.49479533
   0.50000000  0.50000000  0.39511722
   0.50000000  0.50000000  0.42834325
   0.50000000  0.50000000  0.46156929
   0.50000000  0.50000000  0.49479533
   0.50000000  0.62500000  0.39511722
   0.50000000  0.62500000  0.42834325
   0.50000000  0.62500000  0.46156929
   0.50000000  0.62500000  0.49479533
   0.50000000  0.75000000  0.39511722
   0.50000000  0.75000000  0.42834325
   0.50000000  0.75000000  0.46156929
   0.50000000  0.75000000  0.49479533
   0.50000000  0.87500000  0.39511722
   0.50000000  0.87500000  0.42834325
   0.50000000  0.87500000  0.46156929
   0.50000000  0.87500000  0.49479533
   0.62500000  0.00000000  0.39511722
   0.62500000  0.00000000  0.42834325
   0.62500000  0.00000000  0.46156929
   0.62500000  0.00000000  0.49479533
   0.62500000  0.12500000  0.39511722
   0.62500000  0.12500000  0.42834325
   0.62500000  0.12500000  0.46156929
   0.62500000  0.12500000  0.49479533
   0.62500000  0.25000000  0.39511722
   0.62500000  0.25000000  0.42834325
   0.62500000  0.25000000  0.46156929
   0.62500000  0.25000000  0.49479533
   0.62500000  0.37500000  0.39511722
   0.62500000  0.37500000  0.42834325
   0.62500000  0.37500000  0.46156929
   0.62500000  0.37500000  0.49479533
   0.62500000  0.50000000  0.39511722
   0.62500000  0.50000000  0.42834325
   0.62500000  0.50000000  0.46156929
   0.62500000  0.50000000  0.49479533
   0.62500000  0.62500000  0.39511722
   0.62500000  0.62500000  0.42834325
   0.62500000  0.62500000  0.46156929
   0.62500000  0.62500000  0.49479533
   0.62500000  0.75000000  0.39511722
   0.62500000  0.75000000  0.42834325
   0.62500000  0.75000000  0.46156929
   0.62500000  0.75000000  0.49479533
   0.62500000  0.87500000  0.39511722
   0.62500000  0.87500000  0.42834325
   0.62500000  0.87500000  0.46156929
   0.62500000  0.87500000  0.49479533
   0.75000000  0.00000000  0.39511722
   0.75000000  0.00000000  0.42834325
   0.75000000  0.00000000  0.46156929
   0.75000000  0.00000000  0.49479533
   0.75000000  0.12500000  0.39511722
   0.75000000  0.12500000  0.42834325
   0.75000000  0.12500000  0.46156929
   0.75000000  0.12500000  0.49479533
   0.75000000  0.25000000  0.39511722
   0.75000000  0.25000000  0.42834325
   0.75000000  0.25000000  0.46156929
   0.75000000  0.25000000  0.49479533
   0.75000000  0.37500000  0.39511722
   0.75000000  0.37500000  0.42834325
   0.75000000  0.37500000  0.46156929
   0.75000000  0.37500000  0.49479533
   0.75000000  0.50000000  0.39511722
   0.75000000  0.50000000  0.42834325
   0.75000000  0.50000000  0.46156929
   0.75000000  0.50000000  0.49479533
   0.75000000  0.62500000  0.39511722
   0.75000000  0.62500000  0.42834325
   0.75000000  0.62500000  0.46156929
   0.75000000  0.62500000  0.49479533
   0.75000000  0.75000000  0.39511722
   0.75000000  0.75000000  0.42834325
   0.75000000  0.75000000  0.46156929
   0.75000000  0.75000000  0.49479533
   0.75000000  0.87500000  0.39511722
   0.75000000  0.87500000  0.42834325
   0.75000000  0.87500000  0.46156929
   0.75000000  0.87500000  0.49479533
   0.87500000  0.00000000  0.39511722
   0.87500000  0.00000000  0.42834325
   0.87500000  0.00000000  0.46156929
   0.87500000  0.00000000  0.49479533
   0.87500000  0.12500000  0.39511722
   0.87500000  0.12500000  0.42834325
   0.87500000  0.12500000  0.46156929
   0.87500000  0.12500000  0.49479533
   0.87500000  0.25000000  0.39511722
   0.87500000  0.25000000  0.42834325
   0.87500000  0.25000000  0.46156929
   0.87500000  0.25000000  0.49479533
   0.87500000  0.37500000  0.39511722
   0.87500000  0.37500000  0.42834325
   0.87500000  0.37500000  0.46156929
   0.87500000  0.37500000  0.49479533
   0.87500000  0.50000000  0.39511722
   0.87500000  0.50000000  0.42834325
   0.87500000  0.50000000  0.46156929
   0.87500000  0.50000000  0.49479533
   0.87500000  0.62500000  0.39511722
   0.87500000  0.62500000  0.42834325
   0.87500000  0.62500000  0.46156929
   0.87500000  0.62500000  0.49479533
   0.87500000  0.75000000  0.39511722
   0.87500000  0.75000000  0.42834325
   0.87500000  0.75000000  0.46156929
   0.87500000  0.75000000  0.49479533
   0.87500000  0.87500000  0.39511722
   0.87500000  0.87500000  0.42834325
   0.87500000  0.87500000  0.46156929
   0.87500000  0.87500000  0.49479533
Direct configuration=     2
   0.00000000  0.00000000  0.05108310
   0.10626277  0.21875939 -0.00403787
   0.11411490  0.22470968  0.09689126
   0.22664474  0.11258815  0.06783201
   0.22817322  0.11827468  0.16888847
   0.00000000  0.00000000  0.11864505
   0.00000000  0.00000000  0.24284299
   0.11299982  0.22159439  0.19206336
   0.11280795  0.22306079  0.30065331
   0.22349418  0.11327884  0.26091554
   0.21537923  0.10671825  0.35723521
   0.00000000  0.00000000  0.31322477
  -0.00232562  0.32974412  0.05493702
   0.10713513  0.55589864 -0.00436262
   0.10443700  0.55256691  0.09950526
   0.22181795  0.44241669  0.07006134
   0.22287151  0.44884314  0.16921062
  -0.00388231  0.33739310  0.11670121
   0.00156033  0.33399509  0.24387192
   0.11253811  0.55642195  0.18853986
   0.11151841  0.55560077  0.30032658
   0.22207308  0.44561713  0.25988878
   0.21923875  0.44012971  0.36166369
   0.00158955  0.33250584  0.31402940
  -0.00547503  0.65958233  0.05478172
   0.11249629  0.89373723 -0.00403787
   0.11059445  0.88588510  0.09689126
   0.22059907  0.77818205  0.07006134
   0.22597196  0.77712849  0.16921062
  -0.00863674  0.65745576  0.11735385
  -0.00126766  0.66865855  0.24211470
   0.10859423  0.88700018  0.19206336
   0.11025251  0.88719205  0.30065331
   0.22354439  0.77792692  0.25988878
   0.22089129  0.78076125  0.36166369
   0.00032835  0.66787671  0.31441978
   0.33206973  0.00232562  0.05493702
   0.44952494  0.22918430 -0.00355267
   0.44629656  0.22514526  0.09945007
   0.56068864  0.11433190  0.06985552
   0.55907717  0.11437909  0.16636316
   0.34127542  0.00388231  0.11670121
   0.33243476 -0.00156033  0.24387192
   0.44635990  0.22491172  0.18675724
   0.44241797  0.22166927  0.29979797
   0.55766938  0.11399926  0.26121341
   0.55458666  0.10994854  0.36181192
   0.33091629 -0.00158955  0.31402940
   0.34041767  0.33494264  0.05478172
   0.44410136  0.55123682 -0.00436262
   0.44743309  0.55187042  0.09950526
   0.55364359  0.43931136  0.06985552
   0.55530225  0.44092283  0.16636316
   0.34254424  0.33390750  0.11735385
   0.33134145  0.33007379  0.24211470
   0.44357805  0.55611649  0.18853986
   0.44439923  0.55591797  0.30032658
   0.55633021  0.44233062  0.26121341
   0.55536221  0.44541334  0.36181192
   0.33212329  0.33245164  0.31441978
   0.33333333  0.66666667  0.05316680
   0.44876318  0.89286487 -0.00436262
   0.44812958  0.89556300  0.09950526
   0.55758331  0.77940093  0.07006134
   0.55115686  0.77402804  0.16921062
   0.33333333  0.66666667  0.11970505
   0.33333333  0.66666667  0.24255863
   0.44388351  0.88746189  0.18853986
   0.44408203  0.88848159  0.30032658
   0.55438287  0.77645561  0.25988878
   0.55987029  0.77910871  0.36166369
   0.33333333  0.66666667  0.31270289
   0.66505736  0.00547503  0.05478172
   0.77081570  0.22034097 -0.00355267
   0.77485474  0.22115164  0.09945007
   0.88741185  0.11405626  0.06783201
   0.88172532  0.10989820  0.16888847
   0.66609250  0.00863674  0.11735385
   0.66992621  0.00126766  0.24211470
   0.77508828  0.22144852  0.18675724
   0.77833073  0.22074903  0.29979797
   0.88672116  0.11021501  0.26091554
   0.89328175  0.10866064  0.35723521
   0.66754836 -0.00032835  0.31441978
   0.66666667  0.33333333  0.05334426
   0.77965903  0.55047506 -0.00355267
   0.77884836  0.55370344  0.09945007
   0.88566810  0.44635641  0.06985552
   0.88562091  0.44469775  0.16636316
   0.66666667  0.33333333  0.11721116
   0.66666667  0.33333333  0.24263178
   0.77855148  0.55364010  0.18675724
   0.77925097  0.55758203  0.29979797
   0.88600074  0.44366979  0.26121341
   0.89005146  0.44463779  0.36181192
   0.66666667  0.33333333  0.31220410
   0.67025588  0.66793027  0.05493702
   0.78124061  0.88750371 -0.00403787
   0.77529032  0.88940555  0.09689126
   0.88594374  0.77335526  0.06783201
   0.89010180  0.77182678  0.16888847
   0.66260690  0.65872458  0.11670121
   0.66600491  0.66756524  0.24387192
   0.77840561  0.89140577  0.19206336
   0.77693921  0.88974749  0.30065331
   0.88978499  0.77650582  0.26091554
   0.89133936  0.78462077  0.35723521
   0.66749416  0.66908371  0.31402940
   0.11106231  0.00377068  0.07541000
   0.22998904  0.03037474  0.04078300
  -0.00377068  0.10729162  0.07541000
   0.24200525  0.23481624  0.07567034
   0.30446933  0.20181424  0.03814621
   0.13575918  0.10485781  0.03945929
   0.31674056  0.10275673  0.19516056
   0.11258197  0.10640713  0.11889382
   0.23429956  0.21458972  0.19721081
   0.11619429  0.01823674  0.20018888
   0.23753489  0.33913056  0.11710367
  -0.00957019  0.22969520  0.11649919
   0.21210956  0.22317278  0.33546170
   0.00046050  0.22876693  0.26834692
   0.11433397  0.32633869  0.33680266
   0.01004745  0.11664321  0.33583580
   0.09826555  0.10094829  0.27705538
   0.22830643 -0.00046050  0.26834692
   0.10101778  0.34138377  0.07424556
   0.22755861  0.36157081  0.03880383
  -0.00854268  0.43354350  0.07773937
   0.22412410  0.55765440  0.07944660
   0.30744517  0.53045481  0.03930287
   0.13007535  0.43380830  0.04002510
   0.31768341  0.43214743  0.19900101
   0.10493318  0.44587562  0.11660823
   0.23325813  0.54921341  0.19843116
   0.11627402  0.35258106  0.20169731
   0.22091063  0.65812256  0.11888794
  -0.00273192  0.55885421  0.11532898
   0.21359060  0.55520966  0.33560251
   0.00327909  0.57293393  0.26908657
   0.11286927  0.66177796  0.33706222
   0.00731851  0.45215412  0.33673821
   0.10533633  0.43981468  0.27697776
   0.23200006  0.33107737  0.27663989
   0.09309737  0.66236653  0.07688754
   0.22300997  0.69255483  0.03930287
  -0.00718901  0.75799475  0.07567034
   0.24036599  0.89898222  0.07424556
   0.30373329  0.86992465  0.04002510
   0.13401253  0.77244139  0.03880383
   0.31595562  0.76674187  0.19843116
   0.10159534  0.76246511  0.11710367
   0.23630738  0.88372598  0.20169731
   0.11446435  0.68231659  0.19900101
   0.23926506  0.00957019  0.11649919
  -0.00617517  0.88741803  0.11889382
   0.21200439  0.88566603  0.33680266
   0.00268274  0.90173445  0.27705538
   0.10659543  0.98995255  0.33583580
   0.01106289  0.78789044  0.33546170
   0.09907731  0.76799994  0.27663989
   0.22802202  0.66385107  0.27741660
   0.44208619  0.00854268  0.07773937
   0.56992954  0.03679134  0.03991747
   0.34187809  0.10949225  0.07871364
   0.57054402  0.23470743  0.07613869
   0.63756825  0.20327855  0.03799717
   0.47186523  0.10983543  0.05010993
   0.64807219  0.09721306  0.19635209
   0.44421209  0.12720124  0.11506405
   0.57032066  0.21796852  0.19692473
   0.45004585  0.01574793  0.19339829
   0.54414168  0.32187288  0.11898595
   0.35453450  0.23025642  0.11865406
   0.54619362  0.22026269  0.33677845
   0.33831387  0.23759214  0.27731971
   0.44482123  0.32484407  0.33642535
   0.34350476  0.12055935  0.33602368
   0.43984826  0.11173652  0.27152871
   0.56965484 -0.00327909  0.26908657
   0.44052258  0.33747654  0.07822795
   0.56571063  0.36243175  0.03799717
   0.33763347  0.43073084  0.07688754
   0.56645650  0.55791381  0.07773937
   0.63797053  0.52813477  0.05010993
   0.46686213  0.43007046  0.03991747
   0.64764819  0.42967934  0.19692473
   0.44114579  0.43841421  0.11532898
   0.56570241  0.54995415  0.19339829
   0.44914121  0.35192781  0.19635209
   0.55412438  0.65905789  0.11660823
   0.34187744  0.56278840  0.11888794
   0.54784588  0.55516472  0.33673821
   0.33614893  0.56417095  0.27741660
   0.44479034  0.65838128  0.33560251
   0.33822204  0.45109165  0.33706222
   0.42706607  0.43034516  0.26908657
   0.56060817  0.32568632  0.27662829
   0.44234560  0.66646970  0.07944660
   0.56619170  0.69626671  0.04002510
   0.33353030  0.77587590  0.07944660
   0.56926916  0.90690263  0.07688754
   0.63842919  0.86598747  0.03880383
   0.46954519  0.77699003  0.03930287
   0.64741894  0.76369262  0.20169731
   0.43721160  0.77908937  0.11888794
   0.56785257  0.88553565  0.19900101
   0.45078659  0.68404438  0.19843116
   0.56158579  0.00273192  0.11532898
   0.34094211  0.89506682  0.11660823
   0.54890835  0.88713073  0.33706222
   0.33447835  0.89466367  0.27697776
   0.44483528  0.99268149  0.33673821
   0.34161872  0.78640940  0.33560251
   0.43582905  0.77197798  0.27741660
   0.56018532  0.66552165  0.27697776
   0.76518376  0.00718901  0.07567034
   0.89514219  0.03090103  0.03945929
   0.66252346  0.10304603  0.07822795
   0.89050775  0.23238584  0.07871364
   0.96962526  0.19961397  0.04078300
   0.79818576  0.10265476  0.03814621
   0.98176326  0.09795722  0.20018888
   0.76974358  0.12427841  0.11865406
   0.89724327  0.21398350  0.19516056
   0.78541028  0.01970951  0.19721081
   0.87279876  0.31701118  0.11506405
   0.67812712  0.22226913  0.11898595
   0.87944065  0.22294574  0.33602368
   0.67431368  0.23492184  0.27662829
   0.77973731  0.32593126  0.33677845
   0.67515593  0.11997749  0.33642535
   0.76240786  0.10072173  0.27731971
   0.89905171 -0.00268274  0.27705538
   0.76529257  0.33583659  0.07613869
   0.89016457  0.36202947  0.05010993
   0.66416341  0.42945598  0.07613869
   0.89695397  0.55947742  0.07822795
   0.96320866  0.53313787  0.03991747
   0.79672145  0.43428937  0.03799717
   0.98425207  0.43429759  0.19339829
   0.77773087  0.45585832  0.11898595
   0.90278694  0.55085879  0.19635209
   0.78203148  0.35235181  0.19692473
   0.87572159  0.64546550  0.11865406
   0.68298882  0.55578791  0.11506405
   0.88002251  0.55517877  0.33642535
   0.67188826  0.56015174  0.27152871
   0.77705426  0.65649524  0.33602368
   0.67406874  0.45380638  0.33677845
   0.76507816  0.43939183  0.27662829
   0.88826348  0.32811174  0.27152871
   0.76761416  0.65812191  0.07871364
   0.89734524  0.69553067  0.03814621
   0.65861623  0.75963401  0.07424556
   0.89270838  0.88893769  0.07541000