       N       E                     dE             d eps       ncg     rms          rms(c)
DAV:   1     0.206516265137E+03    0.20652E+03   -0.46052E+03    48   0.579E+02
DAV:   2     0.716479694862E+02   -0.13487E+03   -0.13430E+03    64   0.175E+02
DAV:   3     0.159275672877E+01   -0.70055E+02   -0.69426E+02    48   0.877E+01
DAV:   4    -0.122706652026E+02   -0.13863E+02   -0.13860E+02    40   0.502E+01
DAV:   5    -0.125060530941E+02   -0.23539E+00   -0.23187E+00    48   0.927E+00    0.769E+01
DAV:   6    -0.151019622612E+02   -0.25959E+01   -0.40768E+01    48   0.319E+01    0.510E+01
DAV:   7    -0.346297318333E+02   -0.19528E+02   -0.33263E+02    48   0.131E+02    0.394E+01
DAV:   8    -0.208831711998E+02    0.13747E+02   -0.96222E+00    48   0.473E+01    0.229E+01
DAV:   9    -0.116623602678E+02    0.92208E+01   -0.24175E+01    48   0.528E+01    0.102E+01
DAV:  10    -0.121014431419E+02   -0.43908E+00   -0.14115E+00    32   0.116E+01    0.101E+01
DAV:  11    -0.117191492281E+02    0.38229E+00   -0.24538E-01    32   0.408E+00    0.887E+00
DAV:  12    -0.122099098279E+02   -0.49076E+00   -0.11325E+01    40   0.839E+00    0.113E+01
DAV:  13    -0.118665096737E+02    0.34340E+00   -0.12333E-01    32   0.427E+00    0.102E+01
DAV:  14    -0.116904188127E+02    0.17609E+00   -0.76546E-03    32   0.112E+00    0.103E+01
DAV:  15    -0.115720048354E+02    0.11841E+00   -0.92127E-03    48   0.102E+00    0.100E+01
DAV:  16    -0.118093569873E+02   -0.23735E+00   -0.68806E-02    40   0.296E+00    0.109E+01
DAV:  17    -0.132821640580E+02   -0.14728E+01   -0.28496E+01    40   0.192E+01    0.132E+01
DAV:  18    -0.127499507385E+02    0.53221E+00   -0.23876E-01    32   0.522E+00    0.123E+01
DAV:  19    -0.124202536942E+02    0.32970E+00   -0.16488E-02    48   0.159E+00    0.118E+01
DAV:  20    -0.116796557989E+02    0.74060E+00   -0.46806E-01    40   0.716E+00    0.934E+00
DAV:  21    -0.116061959423E+02    0.73460E-01   -0.29521E-02    40   0.159E+00    0.903E+00
DAV:  22    -0.121802499960E+02   -0.57405E+00   -0.11333E+01    40   0.812E+00    0.112E+01
DAV:  23    -0.118087882406E+02    0.37146E+00   -0.37146E+00    40   0.788E+00    0.898E+00
DAV:  24    -0.118118970966E+02   -0.31089E-02   -0.30693E+00    32   0.371E+00    0.951E+00
DAV:  25    -0.116423389405E+02    0.16956E+00   -0.41418E-01    32   0.272E+00    0.226E+00
DAV:  26    -0.118828861866E+02   -0.24055E+00   -0.16570E-01    32   0.140E+00    0.373E+00
DAV:  27    -0.118079206865E+02    0.74966E-01   -0.40201E-01    32   0.114E+00    0.470E+00
DAV:  28    -0.118152797119E+02   -0.73590E-02   -0.66016E-01    32   0.169E+00    0.584E+00
DAV:  29    -0.117986216548E+02    0.16658E-01   -0.10683E+00    32   0.205E+00    0.698E+00
DAV:  30    -0.117351853330E+02    0.63436E-01   -0.73023E-01    32   0.214E+00    0.480E+00
DAV:  31    -0.117997424873E+02   -0.64557E-01   -0.12481E-01    32   0.151E+00    0.116E+00
DAV:  32    -0.118777667295E+02   -0.78024E-01   -0.28475E-03    32   0.693E-01    0.279E+00
DAV:  33    -0.118227943033E+02    0.54972E-01   -0.18821E-01    32   0.785E-01    0.307E+00
DAV:  34    -0.118287809157E+02   -0.59866E-02   -0.64419E-02    32   0.957E-01    0.894E-01
DAV:  35    -0.118753131465E+02   -0.46532E-01   -0.15525E-02    32   0.554E-01    0.906E-01
DAV:  36    -0.118671879258E+02    0.81252E-02   -0.63509E-04    32   0.303E-01    0.236E+00
DAV:  37    -0.118221683214E+02    0.45020E-01   -0.90249E-04    32   0.416E-01    0.663E-01
DAV:  38    -0.118604350027E+02   -0.38267E-01   -0.57544E-04    32   0.323E-01    0.156E+00
DAV:  39    -0.118422924200E+02    0.18143E-01   -0.15880E-04    32   0.169E-01    0.144E+00
DAV:  40    -0.118420179054E+02    0.27451E-03   -0.38774E-05    48   0.743E-02    0.719E-01
DAV:  41    -0.118612771468E+02   -0.19259E-01   -0.18907E-04    32   0.189E-01    0.949E-01
DAV:  42    -0.118595602781E+02    0.17169E-02   -0.38688E-03    40   0.999E-02    0.185E-01
DAV:  43    -0.118747830460E+02   -0.15223E-01   -0.28312E-04    32   0.238E-01    0.200E-01
DAV:  44    -0.118748060837E+02   -0.23038E-04   -0.55173E-06    48   0.266E-02    0.544E-02
DAV:  45    -0.118755574411E+02   -0.75136E-03   -0.26710E-05    32   0.634E-02    0.247E-01
DAV:  46    -0.118747283121E+02    0.82913E-03   -0.25392E-05    32   0.647E-02    0.152E-01
DAV:  47    -0.118749645265E+02   -0.23621E-03   -0.23050E-06    32   0.184E-02    0.269E-01
DAV:  48    -0.118742068733E+02    0.75765E-03   -0.60139E-06    32   0.314E-02    0.154E-01
DAV:  49    -0.118749029386E+02   -0.69607E-03   -0.39085E-06    32   0.257E-02    0.179E-01
DAV:  50    -0.118748859535E+02    0.16985E-04   -0.66053E-07    24   0.101E-02    0.797E-02
DAV:  51    -0.118753571977E+02   -0.47124E-03   -0.45758E-06    32   0.263E-02    0.416E-02
DAV:  52    -0.118754974800E+02   -0.14028E-03   -0.14290E-06    32   0.144E-02    0.306E-02
DAV:  53    -0.118755293902E+02   -0.31910E-04   -0.47995E-07    32   0.779E-03    0.804E-02
DAV:  54    -0.118754507974E+02    0.78593E-04   -0.92284E-07    32   0.116E-02    0.796E-02
DAV:  55    -0.118754337817E+02    0.17016E-04   -0.16238E-07    24   0.464E-03    0.411E-02
DAV:  56    -0.118755093916E+02   -0.75610E-04   -0.61008E-07    32   0.980E-03    0.624E-02
DAV:  57    -0.118754837699E+02    0.25622E-04   -0.11335E-07    24   0.408E-03    0.538E-02
DAV:  58    -0.118754953033E+02   -0.11533E-04   -0.41581E-08    32   0.214E-03    0.396E-02
DAV:  59    -0.118755206754E+02   -0.25372E-04   -0.15416E-07    24   0.465E-03    0.291E-02
DAV:  60    -0.118755371801E+02   -0.16505E-04   -0.86932E-08    24   0.373E-03
   1 F= -.11911383E+02 E0= -.11883194E+02  d E =-.563775E-01
