   2   2   0   0
  0.1524313E+04  0.1450000E-08  0.1450000E-08  0.1450000E-08  0.5000000E-15
   1.0000000000000000E-004
  CAR 
 NiAl                                    
      2.39022895    -39.94567861  301     -3.68860294      1.00000000
    -39.946  0.0000E+00  0.0000E+00
    -39.805  0.0000E+00  0.0000E+00
    -39.663  0.0000E+00  0.0000E+00
    -39.522  0.0000E+00  0.0000E+00
    -39.381  0.0000E+00  0.0000E+00
    -39.240  0.0000E+00  0.0000E+00
    -39.099  0.0000E+00  0.0000E+00
    -38.958  0.0000E+00  0.0000E+00
    -38.817  0.0000E+00  0.0000E+00
    -38.676  0.0000E+00  0.0000E+00
    -38.534  0.0000E+00  0.0000E+00
    -38.393  0.0000E+00  0.0000E+00
    -38.252  0.4614E-09  0.6512E-10
    -38.111  0.7855E-01  0.1108E-01
    -37.970  0.1305E+02  0.1853E+01
    -37.829  0.1039E+01  0.2000E+01
    -37.688  0.3714E-06  0.2000E+01
    -37.547  0.0000E+00  0.2000E+01
    -37.406  0.0000E+00  0.2000E+01
    -37.264  0.0000E+00  0.2000E+01
    -37.123  0.0000E+00  0.2000E+01
    -36.982  0.0000E+00  0.2000E+01
    -36.841  0.0000E+00  0.2000E+01
    -36.700  0.0000E+00  0.2000E+01
    -36.559  0.0000E+00  0.2000E+01
    -36.418  0.0000E+00  0.2000E+01
    -36.277  0.0000E+00  0.2000E+01
    -36.135  0.0000E+00  0.2000E+01
    -35.994  0.0000E+00  0.2000E+01
    -35.853  0.0000E+00  0.2000E+01
    -35.712  0.0000E+00  0.2000E+01
    -35.571  0.0000E+00  0.2000E+01
    -35.430  0.0000E+00  0.2000E+01
    -35.289  0.0000E+00  0.2000E+01
    -35.148  0.0000E+00  0.2000E+01
    -35.006  0.0000E+00  0.2000E+01
    -34.865  0.0000E+00  0.2000E+01
    -34.724  0.0000E+00  0.2000E+01
    -34.583  0.0000E+00  0.2000E+01
    -34.442  0.0000E+00  0.2000E+01
    -34.301  0.0000E+00  0.2000E+01
    -34.160  0.0000E+00  0.2000E+01
    -34.019  0.0000E+00  0.2000E+01
    -33.878  0.0000E+00  0.2000E+01
    -33.736  0.0000E+00  0.2000E+01
    -33.595  0.0000E+00  0.2000E+01
    -33.454  0.0000E+00  0.2000E+01
    -33.313  0.0000E+00  0.2000E+01
    -33.172  0.0000E+00  0.2000E+01
    -33.031  0.0000E+00  0.2000E+01
    -32.890  0.0000E+00  0.2000E+01
    -32.749  0.0000E+00  0.2000E+01
    -32.607  0.0000E+00  0.2000E+01
    -32.466  0.0000E+00  0.2000E+01
    -32.325  0.0000E+00  0.2000E+01
    -32.184  0.0000E+00  0.2000E+01
    -32.043  0.0000E+00  0.2000E+01
    -31.902  0.0000E+00  0.2000E+01
    -31.761  0.0000E+00  0.2000E+01
    -31.620  0.0000E+00  0.2000E+01
    -31.478  0.0000E+00  0.2000E+01
    -31.337  0.0000E+00  0.2000E+01
    -31.196  0.0000E+00  0.2000E+01
    -31.055  0.0000E+00  0.2000E+01
    -30.914  0.0000E+00  0.2000E+01
    -30.773  0.0000E+00  0.2000E+01
    -30.632  0.0000E+00  0.2000E+01
    -30.491  0.0000E+00  0.2000E+01
    -30.350  0.0000E+00  0.2000E+01
    -30.208  0.0000E+00  0.2000E+01
    -30.067  0.0000E+00  0.2000E+01
    -29.926  0.0000E+00  0.2000E+01
    -29.785  0.0000E+00  0.2000E+01
    -29.644  0.0000E+00  0.2000E+01
    -29.503  0.0000E+00  0.2000E+01
    -29.362  0.0000E+00  0.2000E+01
    -29.221  0.0000E+00  0.2000E+01
    -29.079  0.0000E+00  0.2000E+01
    -28.938  0.0000E+00  0.2000E+01
    -28.797  0.0000E+00  0.2000E+01
    -28.656  0.0000E+00  0.2000E+01
    -28.515  0.0000E+00  0.2000E+01
    -28.374  0.0000E+00  0.2000E+01
    -28.233  0.0000E+00  0.2000E+01
    -28.092  0.0000E+00  0.2000E+01
    -27.951  0.0000E+00  0.2000E+01
    -27.809  0.0000E+00  0.2000E+01
    -27.668  0.0000E+00  0.2000E+01
    -27.527  0.0000E+00  0.2000E+01
    -27.386  0.0000E+00  0.2000E+01
    -27.245  0.0000E+00  0.2000E+01
    -27.104  0.0000E+00  0.2000E+01
    -26.963  0.0000E+00  0.2000E+01
    -26.822  0.0000E+00  0.2000E+01
    -26.680  0.0000E+00  0.2000E+01
    -26.539  0.0000E+00  0.2000E+01
    -26.398  0.0000E+00  0.2000E+01
    -26.257  0.0000E+00  0.2000E+01
    -26.116  0.0000E+00  0.2000E+01
    -25.975  0.0000E+00  0.2000E+01
    -25.834  0.0000E+00  0.2000E+01
    -25.693  0.0000E+00  0.2000E+01
    -25.551  0.0000E+00  0.2000E+01
    -25.410  0.0000E+00  0.2000E+01
    -25.269  0.0000E+00  0.2000E+01
    -25.128  0.0000E+00  0.2000E+01
    -24.987  0.0000E+00  0.2000E+01
    -24.846  0.0000E+00  0.2000E+01
    -24.705  0.0000E+00  0.2000E+01
    -24.564  0.0000E+00  0.2000E+01
    -24.423  0.0000E+00  0.2000E+01
    -24.281  0.0000E+00  0.2000E+01
    -24.140  0.0000E+00  0.2000E+01
    -23.999  0.0000E+00  0.2000E+01
    -23.858  0.0000E+00  0.2000E+01
    -23.717  0.0000E+00  0.2000E+01
    -23.576  0.0000E+00  0.2000E+01
    -23.435  0.0000E+00  0.2000E+01
    -23.294  0.0000E+00  0.2000E+01
    -23.152  0.0000E+00  0.2000E+01
    -23.011  0.0000E+00  0.2000E+01
    -22.870  0.0000E+00  0.2000E+01
    -22.729  0.0000E+00  0.2000E+01
    -22.588  0.0000E+00  0.2000E+01
    -22.447  0.0000E+00  0.2000E+01
    -22.306  0.0000E+00  0.2000E+01
    -22.165  0.0000E+00  0.2000E+01
    -22.023  0.0000E+00  0.2000E+01
    -21.882  0.0000E+00  0.2000E+01
    -21.741  0.0000E+00  0.2000E+01
    -21.600  0.0000E+00  0.2000E+01
    -21.459  0.0000E+00  0.2000E+01
    -21.318  0.0000E+00  0.2000E+01
    -21.177  0.0000E+00  0.2000E+01
    -21.036  0.0000E+00  0.2000E+01
    -20.895  0.0000E+00  0.2000E+01
    -20.753  0.0000E+00  0.2000E+01
    -20.612  0.0000E+00  0.2000E+01
    -20.471  0.0000E+00  0.2000E+01
    -20.330  0.0000E+00  0.2000E+01
    -20.189  0.0000E+00  0.2000E+01
    -20.048  0.0000E+00  0.2000E+01
    -19.907  0.0000E+00  0.2000E+01
    -19.766  0.0000E+00  0.2000E+01
    -19.624  0.0000E+00  0.2000E+01
    -19.483  0.0000E+00  0.2000E+01
    -19.342  0.0000E+00  0.2000E+01
    -19.201  0.0000E+00  0.2000E+01
    -19.060  0.0000E+00  0.2000E+01
    -18.919  0.0000E+00  0.2000E+01
    -18.778  0.0000E+00  0.2000E+01
    -18.637  0.0000E+00  0.2000E+01
    -18.495  0.1056E-10  0.2000E+01
    -18.354  0.1448E-01  0.2002E+01
    -18.213  0.1158E+02  0.3636E+01
    -18.072  0.2580E+01  0.4000E+01
    -17.931  0.6825E-05  0.4000E+01
    -17.790  0.0000E+00  0.4000E+01
    -17.649  0.0000E+00  0.4000E+01
    -17.508  0.0000E+00  0.4000E+01
    -17.367  0.0000E+00  0.4000E+01
    -17.225  0.0000E+00  0.4000E+01
    -17.084  0.0000E+00  0.4000E+01
    -16.943  0.0000E+00  0.4000E+01
    -16.802  0.0000E+00  0.4000E+01
    -16.661  0.0000E+00  0.4000E+01
    -16.520  0.0000E+00  0.4000E+01
    -16.379  0.0000E+00  0.4000E+01
    -16.238  0.0000E+00  0.4000E+01
    -16.096  0.0000E+00  0.4000E+01
    -15.955  0.0000E+00  0.4000E+01
    -15.814  0.0000E+00  0.4000E+01
    -15.673  0.0000E+00  0.4000E+01
    -15.532  0.9651E-07  0.4000E+01
    -15.391  0.1009E+01  0.4142E+01
    -15.250  0.2693E+02  0.7943E+01
    -15.109  0.4070E+00  0.8000E+01
    -14.967  0.9151E-08  0.8000E+01
    -14.826  0.0000E+00  0.8000E+01
    -14.685  0.0000E+00  0.8000E+01
    -14.544  0.0000E+00  0.8000E+01
    -14.403  0.0000E+00  0.8000E+01
    -14.262  0.0000E+00  0.8000E+01
    -14.121  0.0000E+00  0.8000E+01
    -13.980  0.3753E-12  0.8000E+01
    -13.839  0.2911E-02  0.8000E+01
    -13.697  0.9587E+01  0.9353E+01
    -13.556  0.4582E+01  0.1000E+02
    -13.415  0.6088E-04  0.1000E+02
    -13.274  0.0000E+00  0.1000E+02
    -13.133  0.0000E+00  0.1000E+02
    -12.992  0.0000E+00  0.1000E+02
    -12.851  0.0000E+00  0.1000E+02
    -12.710  0.0000E+00  0.1000E+02
    -12.568  0.0000E+00  0.1000E+02
    -12.427  0.0000E+00  0.1000E+02
    -12.286  0.0000E+00  0.1000E+02
    -12.145  0.0000E+00  0.1000E+02
    -12.004  0.0000E+00  0.1000E+02
    -11.863  0.0000E+00  0.1000E+02
    -11.722  0.0000E+00  0.1000E+02
    -11.581  0.0000E+00  0.1000E+02
    -11.440  0.0000E+00  0.1000E+02
    -11.298  0.0000E+00  0.1000E+02
    -11.157  0.0000E+00  0.1000E+02
    -11.016  0.0000E+00  0.1000E+02
    -10.875  0.0000E+00  0.1000E+02
    -10.734  0.0000E+00  0.1000E+02
    -10.593  0.0000E+00  0.1000E+02
    -10.452  0.0000E+00  0.1000E+02
    -10.311  0.0000E+00  0.1000E+02
    -10.169  0.0000E+00  0.1000E+02
    -10.028  0.0000E+00  0.1000E+02
     -9.887  0.0000E+00  0.1000E+02
     -9.746  0.0000E+00  0.1000E+02
     -9.605  0.0000E+00  0.1000E+02
     -9.464  0.0000E+00  0.1000E+02
     -9.323  0.0000E+00  0.1000E+02
     -9.182  0.0000E+00  0.1000E+02
     -9.040  0.0000E+00  0.1000E+02
     -8.899  0.0000E+00  0.1000E+02
     -8.758  0.0000E+00  0.1000E+02
     -8.617  0.0000E+00  0.1000E+02
     -8.476  0.0000E+00  0.1000E+02
     -8.335  0.0000E+00  0.1000E+02
     -8.194  0.0000E+00  0.1000E+02
     -8.053  0.0000E+00  0.1000E+02
     -7.912  0.0000E+00  0.1000E+02
     -7.770  0.0000E+00  0.1000E+02
     -7.629  0.0000E+00  0.1000E+02
     -7.488  0.0000E+00  0.1000E+02
     -7.347  0.0000E+00  0.1000E+02
     -7.206  0.0000E+00  0.1000E+02
     -7.065  0.0000E+00  0.1000E+02
     -6.924  0.0000E+00  0.1000E+02
     -6.783  0.0000E+00  0.1000E+02
     -6.641  0.0000E+00  0.1000E+02
     -6.500  0.0000E+00  0.1000E+02
     -6.359  0.0000E+00  0.1000E+02
     -6.218  0.0000E+00  0.1000E+02
     -6.077  0.0000E+00  0.1000E+02
     -5.936  0.0000E+00  0.1000E+02
     -5.795  0.0000E+00  0.1000E+02
     -5.654  0.0000E+00  0.1000E+02
     -5.512  0.0000E+00  0.1000E+02
     -5.371  0.0000E+00  0.1000E+02
     -5.230  0.0000E+00  0.1000E+02
     -5.089  0.0000E+00  0.1000E+02
     -4.948  0.0000E+00  0.1000E+02
     -4.807  0.0000E+00  0.1000E+02
     -4.666  0.0000E+00  0.1000E+02
     -4.525  0.0000E+00  0.1000E+02
     -4.384  0.0000E+00  0.1000E+02
     -4.242  0.0000E+00  0.1000E+02
     -4.101  0.0000E+00  0.1000E+02
     -3.960  0.2234E-12  0.1000E+02
     -3.819  0.3188E-02  0.1000E+02
     -3.678  0.1754E+02  0.1248E+02
     -3.537  0.1081E+02  0.1400E+02
     -3.396  0.2490E-03  0.1400E+02
     -3.255  0.0000E+00  0.1400E+02
     -3.113  0.0000E+00  0.1400E+02
     -2.972  0.0000E+00  0.1400E+02
     -2.831  0.0000E+00  0.1400E+02
     -2.690  0.0000E+00  0.1400E+02
     -2.549  0.0000E+00  0.1400E+02
     -2.408  0.0000E+00  0.1400E+02
     -2.267  0.0000E+00  0.1400E+02
     -2.126  0.0000E+00  0.1400E+02
     -1.984  0.0000E+00  0.1400E+02
     -1.843  0.0000E+00  0.1400E+02
     -1.702  0.0000E+00  0.1400E+02
     -1.561  0.0000E+00  0.1400E+02
     -1.420  0.0000E+00  0.1400E+02
     -1.279  0.0000E+00  0.1400E+02
     -1.138  0.0000E+00  0.1400E+02
     -0.997  0.0000E+00  0.1400E+02
     -0.856  0.0000E+00  0.1400E+02
     -0.714  0.0000E+00  0.1400E+02
     -0.573  0.7867E-15  0.1400E+02
     -0.432  0.1222E-03  0.1400E+02
     -0.291  0.5380E+01  0.1476E+02
     -0.150  0.8790E+01  0.1600E+02
     -0.009  0.1620E-02  0.1600E+02
      0.132  0.1341E-06  0.1600E+02
      0.273  0.7305E+00  0.1610E+02
      0.415  0.1435E+02  0.1813E+02
      0.556  0.1318E+02  0.1999E+02
      0.697  0.7855E-01  0.2000E+02
      0.838  0.4614E-09  0.2000E+02
      0.979  0.0000E+00  0.2000E+02
      1.120  0.0000E+00  0.2000E+02
      1.261  0.0000E+00  0.2000E+02
      1.402  0.0000E+00  0.2000E+02
      1.544  0.0000E+00  0.2000E+02
      1.685  0.0000E+00  0.2000E+02
      1.826  0.0000E+00  0.2000E+02
      1.967  0.0000E+00  0.2000E+02
      2.108  0.0000E+00  0.2000E+02
      2.249  0.0000E+00  0.2000E+02
      2.390  0.0000E+00  0.2000E+02
