    2    2    1    1
  0.1524313E+04  0.1450000E-08  0.1450000E-08  0.1450000E-08  0.5000000E-15
   1.0000000000000000E-004
  CAR 
 NiAl                                    
     12      1     10
 
  0.1262379E-14  0.1262379E-14  0.1262379E-14  0.1000000E+01
    1      -38.021319   1.000000
    2      -18.245333   1.000000
    3      -15.327068   1.000000
    4      -15.327068   1.000000
    5      -13.713624   1.000000
    6       -3.688603   0.500000
    7       -3.688603   0.500000
    8       -0.280213   0.000000
    9        0.331066   0.000000
   10        0.465870   0.000000
