       N       E                     dE             d eps       ncg     rms          rms(c)
DAV:   1     0.876140417377E+02    0.87614E+02   -0.21091E+03    36   0.396E+02
DAV:   2     0.135407124648E+02   -0.74073E+02   -0.73903E+02    36   0.140E+02
DAV:   3     0.422395174266E+01   -0.93168E+01   -0.93153E+01    22   0.601E+01
DAV:   4     0.196516826177E+01   -0.22588E+01   -0.14721E+00    24   0.107E+01
DAV:   5    -0.516005430294E+01   -0.71252E+01   -0.71248E+01    36   0.145E+01    0.627E+01
DAV:   6    -0.487993968844E+01    0.28011E+00   -0.15806E+00    20   0.107E+01    0.386E+01
DAV:   7    -0.488980422859E+01   -0.98645E-02   -0.12856E+00    28   0.116E+01    0.148E+00
DAV:   8    -0.486274209738E+01    0.27062E-01   -0.15627E-01    30   0.374E+00    0.482E-01
DAV:   9    -0.486339571326E+01   -0.65362E-03   -0.16192E-02    32   0.122E+00    0.119E-01
DAV:  10    -0.486482436085E+01   -0.14286E-02   -0.86166E-04    24   0.240E-01    0.292E-02
DAV:  11    -0.486548295476E+01   -0.65859E-03   -0.16877E-04    24   0.877E-02    0.115E-02
DAV:  12    -0.486582432525E+01   -0.34137E-03   -0.52688E-05    24   0.497E-02    0.574E-03
DAV:  13    -0.486621435854E+01   -0.39003E-03   -0.54944E-05    22   0.369E-02    0.463E-03
DAV:  14    -0.486635186028E+01   -0.13750E-03   -0.18799E-05    22   0.197E-02    0.268E-03
DAV:  15    -0.486646696207E+01   -0.11510E-03   -0.15927E-05    22   0.182E-02    0.298E-03
DAV:  16    -0.486652375131E+01   -0.56789E-04   -0.68970E-06    20   0.141E-02    0.201E-03
DAV:  17    -0.486654831296E+01   -0.24562E-04   -0.27004E-06    22   0.883E-03    0.164E-03
DAV:  18    -0.486656254687E+01   -0.14234E-04   -0.10955E-06    22   0.621E-03    0.479E-04
DAV:  19    -0.486656834532E+01   -0.57985E-05   -0.34866E-07    22   0.378E-03    0.323E-04
DAV:  20    -0.486657017366E+01   -0.18283E-05   -0.11090E-07    22   0.181E-03    0.127E-04
DAV:  21    -0.486657056055E+01   -0.38689E-06   -0.33396E-08    22   0.996E-04    0.942E-05
DAV:  22    -0.486657076530E+01   -0.20475E-06   -0.11194E-08    22   0.631E-04    0.366E-05
DAV:  23    -0.486657083592E+01   -0.70612E-07   -0.42158E-09    22   0.364E-04
   1 F= -.48738614E+01 E0= -.48456519E+01  d E =-.564190E-01
