<?xml version="1.0" encoding="ISO-8859-1"?>
<modeling>
 <generator>
  <i name="program" type="string">vasp </i>
  <i name="version" type="string">6.2.1  </i>
  <i name="subversion" type="string">16May21 (build Jun 16 2021 03:23:30) complex                          parallel </i>
  <i name="platform" type="string">LinuxPGI </i>
  <i name="date" type="string">2022 04 23 </i>
  <i name="time" type="string">22:05:05 </i>
 </generator>
 <incar>
  <i type="string" name="SYSTEM">NiAl</i>
  <i type="int" name="ISTART">     0</i>
  <i type="int" name="NELMIN">     6</i>
  <i name="EDIFF">      0.00000010</i>
  <i name="ENCUT">    360.00000000</i>
  <i type="string" name="LREAL">Auto</i>
  <i type="logical" name="LPLANE"> T  </i>
  <i type="int" name="ISMEAR">     0</i>
  <i name="SIGMA">      0.05000000</i>
  <i type="logical" name="LWAVE"> F  </i>
  <i type="logical" name="LCHARG"> F  </i>
  <i type="int" name="IVDW">    12</i>
 </incar>
 <primitive_cell>
  <structure name="primitive_cell" >
   <crystal>
    <varray name="basis" >
     <v>      14.50000000       0.00000000       0.00000000 </v>
     <v>       0.00000000      14.50000000       0.00000000 </v>
     <v>       0.00000000       0.00000000      14.50000000 </v>
    </varray>
    <i name="volume">   3048.62500000 </i>
    <varray name="rec_basis" >
     <v>       0.06896552       0.00000000       0.00000000 </v>
     <v>       0.00000000       0.06896552       0.00000000 </v>
     <v>       0.00000000       0.00000000       0.06896552 </v>
    </varray>
   </crystal>
   <varray name="positions" >
    <v>       0.00000000       0.00000000       0.00000000 </v>
    <v>       0.06896552       0.00000000       0.00000000 </v>
   </varray>
  </structure>
  <varray name="primitive_index" >
   <v type="int" >        1 </v>
   <v type="int" >        2 </v>
  </varray>
 </primitive_cell>
 <kpoints>
  <generation param="Gamma">
   <v type="int" name="divisions">       1        1        1 </v>
   <v name="usershift">      0.00000000       0.00000000       0.00000000 </v>
   <v name="genvec1">      1.00000000       0.00000000       0.00000000 </v>
   <v name="genvec2">      0.00000000       1.00000000       0.00000000 </v>
   <v name="genvec3">      0.00000000       0.00000000       1.00000000 </v>
   <v name="shift">      0.00000000       0.00000000       0.00000000 </v>
  </generation>
  <varray name="kpointlist" >
   <v>       0.00000000       0.00000000       0.00000000 </v>
  </varray>
  <varray name="weights" >
   <v>       1.00000000 </v>
  </varray>
 </kpoints>
 <parameters>
  <separator name="general" >
   <i type="string" name="SYSTEM">NiAl</i>
   <i type="logical" name="LCOMPAT"> F  </i>
  </separator>
  <separator name="electronic" >
   <i type="string" name="PREC">normal</i>
   <i name="ENMAX">    360.00000000</i>
   <i name="ENAUG">   1139.60900000</i>
   <i name="EDIFF">      0.00000010</i>
   <i type="int" name="IALGO">    38</i>
   <i type="int" name="IWAVPR">    10</i>
   <i type="int" name="NBANDS">    10</i>
   <i type="int" name="NBANDSLOW">    -1</i>
   <i type="int" name="NBANDSHIGH">    -1</i>
   <i name="NELECT">     12.00000000</i>
   <i type="int" name="TURBO">     0</i>
   <i type="int" name="IRESTART">     0</i>
   <i type="int" name="NREBOOT">     0</i>
   <i type="int" name="NMIN">     0</i>
   <i name="EREF">      0.00000000</i>
   <separator name="electronic smearing" >
    <i type="int" name="ISMEAR">     0</i>
    <i name="SIGMA">      0.05000000</i>
    <i name="KSPACING">      0.50000000</i>
    <i type="logical" name="KGAMMA"> T  </i>
    <i type="logical" name="KBLOWUP"> T  </i>
   </separator>
   <separator name="electronic projectors" >
    <i type="logical" name="LREAL"> T  </i>
    <v name="ROPT">     -0.00050000</v>
    <i type="int" name="LMAXPAW">  -100</i>
    <i type="int" name="LMAXMIX">     2</i>
    <i type="logical" name="NLSPLINE"> F  </i>
   </separator>
   <separator name="electronic startup" >
    <i type="int" name="ISTART">     0</i>
    <i type="int" name="ICHARG">     2</i>
    <i type="int" name="INIWAV">     1</i>
   </separator>
   <separator name="electronic spin" >
    <i type="int" name="ISPIN">     1</i>
    <i type="logical" name="LNONCOLLINEAR"> F  </i>
    <v name="MAGMOM">      1.00000000      1.00000000</v>
    <i name="NUPDOWN">     -1.00000000</i>
    <i type="logical" name="LSORBIT"> F  </i>
    <v name="SAXIS">      0.00000000      0.00000000      1.00000000</v>
    <i type="logical" name="LSPIRAL"> F  </i>
    <v name="QSPIRAL">      0.00000000      0.00000000      0.00000000</v>
    <i type="logical" name="LZEROZ"> F  </i>
   </separator>
   <separator name="electronic exchange-correlation" >
    <i type="logical" name="LASPH"> F  </i>
    <i type="logical" name="LMETAGGA"> F  </i>
   </separator>
   <separator name="electronic convergence" >
    <i type="int" name="NELM">    60</i>
    <i type="int" name="NELMDL">    -5</i>
    <i type="int" name="NELMIN">     6</i>
    <i name="ENINI">    360.00000000</i>
    <separator name="electronic convergence detail" >
     <i type="logical" name="LDIAG"> T  </i>
     <i type="logical" name="LSUBROT"> F  </i>
     <i name="WEIMIN">      0.00000000</i>
     <i name="EBREAK">      0.00000000</i>
     <i name="DEPER">      0.30000000</i>
     <i type="int" name="NRMM">     4</i>
     <i name="TIME">      0.40000000</i>
    </separator>
   </separator>
   <separator name="electronic mixer" >
    <i name="AMIX">      0.40000000</i>
    <i name="BMIX">      1.00000000</i>
    <i name="AMIN">      0.10000000</i>
    <i name="AMIX_MAG">      1.60000000</i>
    <i name="BMIX_MAG">      1.00000000</i>
    <separator name="electronic mixer details" >
     <i type="int" name="IMIX">     4</i>
     <i type="logical" name="MIXFIRST"> F  </i>
     <i type="int" name="MAXMIX">   -45</i>
     <i name="WC">    100.00000000</i>
     <i type="int" name="INIMIX">     1</i>
     <i type="int" name="MIXPRE">     1</i>
     <i type="int" name="MREMOVE">     5</i>
    </separator>
   </separator>
   <separator name="electronic dipolcorrection" >
    <i type="logical" name="LDIPOL"> F  </i>
    <i type="logical" name="LMONO"> F  </i>
    <i type="int" name="IDIPOL">     0</i>
    <i name="EPSILON">      1.00000000</i>
    <v name="DIPOL">   -100.00000000   -100.00000000   -100.00000000</v>
    <i name="EFIELD">      0.00000000</i>
   </separator>
  </separator>
  <separator name="grids" >
   <i type="int" name="NGX">    70</i>
   <i type="int" name="NGY">    70</i>
   <i type="int" name="NGZ">    70</i>
   <i type="int" name="NGXF">   140</i>
   <i type="int" name="NGYF">   140</i>
   <i type="int" name="NGZF">   140</i>
   <i type="logical" name="ADDGRID"> F  </i>
  </separator>
  <separator name="ionic" >
   <i type="int" name="NSW">     0</i>
   <i type="int" name="IBRION">    -1</i>
   <i type="int" name="MDALGO">     0</i>
   <i type="int" name="ISIF">     2</i>
   <i name="PSTRESS">      0.00000000</i>
   <i name="EDIFFG">      0.00000100</i>
   <i type="int" name="NFREE">     0</i>
   <i name="POTIM">      0.50000000</i>
   <i name="SMASS">     -3.00000000</i>
   <i name="SCALEE">      1.00000000</i>
  </separator>
  <separator name="ionic md" >
   <i name="TEBEG">      0.00010000</i>
   <i name="TEEND">      0.00010000</i>
   <i type="int" name="NBLOCK">     1</i>
   <i type="int" name="KBLOCK">     1</i>
   <i type="int" name="NPACO">   256</i>
   <i name="APACO">     16.00000000</i>
  </separator>
  <separator name="symmetry" >
   <i type="int" name="ISYM">     2</i>
   <i name="SYMPREC">      0.00001000</i>
  </separator>
  <separator name="dos" >
   <i type="int" name="LORBIT">     0</i>
   <v name="RWIGS">     -1.00000000</v>
   <i type="int" name="NEDOS">   301</i>
   <i name="EMIN">     10.00000000</i>
   <i name="EMAX">    -10.00000000</i>
   <i name="EFERMI">      0.00000000</i>
  </separator>
  <separator name="writing" >
   <i type="int" name="NWRITE">     2</i>
   <i type="logical" name="LWAVE"> F  </i>
   <i type="logical" name="LDOWNSAMPLE"> F  </i>
   <i type="logical" name="LCHARG"> F  </i>
   <i type="logical" name="LPARD"> F  </i>
   <i type="logical" name="LVTOT"> F  </i>
   <i type="logical" name="LVHAR"> F  </i>
   <i type="logical" name="LELF"> F  </i>
   <i type="logical" name="LOPTICS"> F  </i>
   <v name="STM">      0.00000000      0.00000000      0.00000000      0.00000000      0.00000000      0.00000000      0.00000000</v>
  </separator>
  <separator name="performance" >
   <i type="int" name="NPAR">     1</i>
   <i type="int" name="NSIM">     4</i>
   <i type="int" name="NBLK">    -1</i>
   <i type="logical" name="LPLANE"> T  </i>
   <i type="logical" name="LSCALAPACK"> T  </i>
   <i type="logical" name="LSCAAWARE"> F  </i>
   <i type="logical" name="LSCALU"> F  </i>
   <i type="logical" name="LASYNC"> F  </i>
   <i type="logical" name="LORBITALREAL"> F  </i>
  </separator>
  <separator name="miscellaneous" >
   <i type="int" name="IDIOT">     3</i>
   <i type="int" name="PHON_NSTRUCT">    -1</i>
   <i type="logical" name="LMUSIC"> F  </i>
   <v name="POMASS">     16.00000000</v>
   <v name="DARWINR">      0.00000000</v>
   <v name="DARWINV">      1.00000000</v>
   <i type="logical" name="LCORR"> T  </i>
  </separator>
  <i type="logical" name="GGA_COMPAT"> T  </i>
  <i type="logical" name="LBERRY"> F  </i>
  <i type="int" name="ICORELEVEL">     0</i>
  <i type="logical" name="LDAU"> F  </i>
  <i type="int" name="I_CONSTRAINED_M">     0</i>
  <separator name="electronic exchange-correlation" >
   <i type="string" name="GGA">--</i>
   <i type="int" name="VOSKOWN">     0</i>
   <i type="logical" name="LHFCALC"> F  </i>
   <i type="string" name="PRECFOCK"></i>
   <i type="logical" name="LSYMGRAD"> F  </i>
   <i type="logical" name="LHFONE"> F  </i>
   <i type="logical" name="LRHFCALC"> F  </i>
   <i type="logical" name="LTHOMAS"> F  </i>
   <i type="logical" name="LMODELHF"> F  </i>
   <i type="logical" name="LFOCKACE"> F  </i>
   <i name="ENCUT4O">     -1.00000000</i>
   <i type="int" name="EXXOEP">     0</i>
   <i type="int" name="FOURORBIT">     0</i>
   <i name="AEXX">      0.00000000</i>
   <i name="HFALPHA">      0.00000000</i>
   <i name="MCALPHA">      0.00000000</i>
   <i name="ALDAX">      1.00000000</i>
   <i name="AGGAX">      1.00000000</i>
   <i name="ALDAC">      1.00000000</i>
   <i name="AGGAC">      1.00000000</i>
   <i type="int" name="NKREDX">     1</i>
   <i type="int" name="NKREDY">     1</i>
   <i type="int" name="NKREDZ">     1</i>
   <i type="logical" name="SHIFTRED"> F  </i>
   <i type="logical" name="ODDONLY"> F  </i>
   <i type="logical" name="EVENONLY"> F  </i>
   <i type="int" name="LMAXFOCK">     0</i>
   <i type="int" name="NMAXFOCKAE">     0</i>
   <i type="logical" name="LFOCKAEDFT"> F  </i>
   <i name="HFSCREEN">      0.00000000</i>
   <i name="HFSCREENC">      0.00000000</i>
   <i type="int" name="NBANDSGWLOW">     0</i>
  </separator>
  <separator name="vdW DFT" >
   <i type="logical" name="LUSE_VDW"> F  </i>
   <i name="Zab_VDW">     -0.84910000</i>
   <i name="PARAM1">      0.12340000</i>
   <i name="PARAM2">      1.00000000</i>
   <i name="PARAM3">      0.00000000</i>
  </separator>
  <separator name="model GW" >
   <i type="int" name="MODEL_GW">     0</i>
   <i name="MODEL_EPS0">    914.58750000</i>
   <i name="MODEL_ALPHA">      1.00000000</i>
  </separator>
  <separator name="linear response parameters" >
   <i type="logical" name="LEPSILON"> F  </i>
   <i type="logical" name="LRPA"> F  </i>
   <i type="logical" name="LNABLA"> F  </i>
   <i type="logical" name="LVEL"> F  </i>
   <i type="int" name="KINTER">     0</i>
   <i name="CSHIFT">      0.10000000</i>
   <i name="OMEGAMAX">     -1.00000000</i>
   <i name="DEG_THRESHOLD">      0.00200000</i>
   <i name="RTIME">     -0.10000000</i>
   <i name="WPLASMAI">      0.00000000</i>
   <v name="DFIELD">      0.00000000      0.00000000      0.00000000</v>
   <v name="WPLASMA">      0.00000000      0.00000000      0.00000000      0.00000000      0.00000000      0.00000000      0.00000000      0.00000000      0.00000000</v>
  </separator>
  <separator name="orbital magnetization" >
   <i type="logical" name="NUCIND"> F  </i>
   <v name="MAGPOS">      0.00000000      0.00000000      0.00000000</v>
   <i type="logical" name="LNICSALL"> T  </i>
   <i type="logical" name="ORBITALMAG"> F  </i>
   <i type="logical" name="LMAGBLOCH"> F  </i>
   <i type="logical" name="LCHIMAG"> F  </i>
   <i type="logical" name="LGAUGE"> T  </i>
   <i type="int" name="MAGATOM">     0</i>
   <v name="MAGDIPOL">      0.00000000      0.00000000      0.00000000</v>
   <v name="AVECCONST">      0.00000000      0.00000000      0.00000000</v>
  </separator>
  <separator name="response functions" >
   <i type="logical" name="LFINITE_TEMPERATURE"> F  </i>
   <i type="logical" name="LADDER"> F  </i>
   <i type="logical" name="LRPAFORCE"> F  </i>
   <i type="logical" name="LFXC"> F  </i>
   <i type="logical" name="LHARTREE"> T  </i>
   <i type="int" name="IBSE">     0</i>
   <v type="int" name="KPOINT">    -1     0     0     0</v>
   <i type="logical" name="LTCTC"> F  </i>
   <i type="logical" name="LTCTE"> F  </i>
   <i type="logical" name="LTETE"> F  </i>
   <i type="logical" name="LTRIPLET"> F  </i>
   <i type="logical" name="LFXCEPS"> F  </i>
   <i type="logical" name="LFXHEG"> F  </i>
   <i type="int" name="NATURALO">     2</i>
   <i type="logical" name="LHOLEGF"> F  </i>
   <i type="logical" name="L2ORDER"> F  </i>
   <i type="logical" name="LDMP1"> F  </i>
   <i type="logical" name="LMP2LT"> F  </i>
   <i type="logical" name="LSMP2LT"> F  </i>
   <i type="logical" name="LGWLF"> F  </i>
   <i name="ENCUTGW">     -2.00000000</i>
   <i name="ENCUTGWSOFT">     -2.00000000</i>
   <i name="ENCUTLF">     -1.00000000</i>
   <i type="logical" name="LESF_SPLINES"> F  </i>
   <i type="int" name="LMAXMP2">    -1</i>
   <i name="SCISSOR">      0.00000000</i>
   <i type="int" name="NOMEGA">     0</i>
   <i type="int" name="NOMEGAR">     0</i>
   <i type="int" name="NBANDSGW">    -1</i>
   <i type="int" name="NBANDSO">    -1</i>
   <i type="int" name="NBANDSV">    -1</i>
   <i type="int" name="NELM">     1</i>
   <i type="int" name="NELMHF">     1</i>
   <i type="int" name="DIM">     3</i>
   <i type="int" name="IESPILON">     4</i>
   <i type="int" name="ANTIRES">     0</i>
   <i name="OMEGAMAX">    -30.00000000</i>
   <i name="OMEGAMIN">    -30.00000000</i>
   <i name="OMEGATL">   -200.00000000</i>
   <i type="int" name="OMEGAGRID">     0</i>
   <i name="CSHIFT">     -0.10000000</i>
   <i type="logical" name="LSELFENERGY"> F  </i>
   <i type="logical" name="LSPECTRAL"> F  </i>
   <i type="logical" name="LSPECTRALGW"> F  </i>
   <i type="logical" name="LSINGLES"> F  </i>
   <i type="logical" name="LFERMIGW"> F  </i>
   <i type="logical" name="ODDONLYGW"> F  </i>
   <i type="logical" name="EVENONLYGW"> F  </i>
   <i type="int" name="NKREDLFX">     1</i>
   <i type="int" name="NKREDLFY">     1</i>
   <i type="int" name="NKREDLFZ">     1</i>
   <i type="int" name="MAXMEM">  2800</i>
   <i type="int" name="TELESCOPE">     0</i>
   <i type="int" name="NTAUPAR">    -1</i>
   <i type="int" name="NOMEGAPAR">    -1</i>
   <i name="DAMP_NEWTON">      0.80000001</i>
   <i name="LAMBDA">      1.00000000</i>
  </separator>
  <separator name="External order field" >
   <i name="OFIELD_KAPPA">      0.00000000</i>
   <v name="OFIELD_K">      0.00000000      0.00000000      0.00000000</v>
   <i name="OFIELD_Q6_NEAR">      0.00000000</i>
   <i name="OFIELD_Q6_FAR">      0.00000000</i>
   <i name="OFIELD_A">      0.00000000</i>
  </separator>
  <separator name="solvation model" >
   <i type="logical" name="LSOL"> F  </i>
  </separator>
 </parameters>
 <atominfo>
  <atoms>       2 </atoms>
  <types>       1 </types>
  <array name="atoms" >
   <dimension dim="1">ion</dimension>
   <field type="string">element</field>
   <field type="int">atomtype</field>
   <set>
    <rc><c>O </c><c>   1</c></rc>
    <rc><c>O </c><c>   1</c></rc>
   </set>
  </array>
  <array name="atomtypes" >
   <dimension dim="1">type</dimension>
   <field type="int">atomspertype</field>
   <field type="string">element</field>
   <field>mass</field>
   <field>valence</field>
   <field type="string">pseudopotential</field>
   <set>
    <rc><c>   2</c><c>O </c><c>     16.00000000</c><c>      6.00000000</c><c>  PAW O_GW 19Mar2012                    </c></rc>
   </set>
  </array>
 </atominfo>
 <structure name="initialpos" >
  <crystal>
   <varray name="basis" >
    <v>      14.50000000       0.00000000       0.00000000 </v>
    <v>       0.00000000      14.50000000       0.00000000 </v>
    <v>       0.00000000       0.00000000      14.50000000 </v>
   </varray>
   <i name="volume">   3048.62500000 </i>
   <varray name="rec_basis" >
    <v>       0.06896552       0.00000000       0.00000000 </v>
    <v>       0.00000000       0.06896552       0.00000000 </v>
    <v>       0.00000000       0.00000000       0.06896552 </v>
   </varray>
  </crystal>
  <varray name="positions" >
   <v>       0.00000000       0.00000000       0.00000000 </v>
   <v>       0.06896552       0.00000000       0.00000000 </v>
  </varray>
 </structure>
 <calculation>
  <scstep>
   <time name="dav">    0.06    0.07</time>
   <time name="total">    0.11    0.13</time>
   <energy>
    <i name="alphaZ">      0.08965302 </i>
    <i name="ewald">    315.87742977 </i>
    <i name="hartreedc">  -1015.09216102 </i>
    <i name="XCdc">     52.62487888 </i>
    <i name="pawpsdc">    698.30301748 </i>
    <i name="pawaedc">   -696.69629178 </i>
    <i name="eentropy">     -0.00000000 </i>
    <i name="bandstr">   -131.46750577 </i>
    <i name="atom">    863.97502114 </i>
    <i name="e_fr_energy">     87.61404174 </i>
    <i name="e_wo_entrp">     87.61404174 </i>
    <i name="e_0_energy">     87.61404174 </i>
   </energy>
  </scstep>
  <scstep>
   <time name="dav">    0.03    0.03</time>
   <time name="total">    0.03    0.03</time>
   <energy>
    <i name="e_fr_energy">     13.54071246 </i>
    <i name="e_wo_entrp">     13.54071246 </i>
    <i name="e_0_energy">     13.54071246 </i>
   </energy>
  </scstep>
  <scstep>
   <time name="dav">    0.02    0.02</time>
   <time name="total">    0.02    0.02</time>
   <energy>
    <i name="e_fr_energy">      4.22395174 </i>
    <i name="e_wo_entrp">      4.22395174 </i>
    <i name="e_0_energy">      4.22395174 </i>
   </energy>
  </scstep>
  <scstep>
   <time name="dav">    0.03    0.03</time>
   <time name="total">    0.03    0.03</time>
   <energy>
    <i name="e_fr_energy">      1.96516826 </i>
    <i name="e_wo_entrp">      1.96516826 </i>
    <i name="e_0_energy">      1.96516826 </i>
   </energy>
  </scstep>
  <scstep>
   <time name="dav">    0.03    0.03</time>
   <time name="total">    0.16    0.17</time>
   <energy>
    <i name="e_fr_energy">     -5.16005430 </i>
    <i name="e_wo_entrp">     -5.15980965 </i>
    <i name="e_0_energy">     -5.15993198 </i>
   </energy>
  </scstep>
  <scstep>
   <time name="dav">    0.02    0.02</time>
   <time name="total">    0.18    0.18</time>
   <energy>
    <i name="e_fr_energy">     -4.87993969 </i>
    <i name="e_wo_entrp">     -4.83033288 </i>
    <i name="e_0_energy">     -4.85513628 </i>
   </energy>
  </scstep>
  <scstep>
   <time name="dav">    0.03    0.03</time>
   <time name="total">    0.19    0.19</time>
   <energy>
    <i name="e_fr_energy">     -4.88980423 </i>
    <i name="e_wo_entrp">     -4.83340004 </i>
    <i name="e_0_energy">     -4.86160213 </i>
   </energy>
  </scstep>
  <scstep>
   <time name="dav">    0.03    0.03</time>
   <time name="total">    0.19    0.19</time>
   <energy>
    <i name="e_fr_energy">     -4.86274210 </i>
    <i name="e_wo_entrp">     -4.80632375 </i>
    <i name="e_0_energy">     -4.83453292 </i>
   </energy>
  </scstep>
  <scstep>
   <time name="dav">    0.04    0.04</time>
   <time name="total">    0.20    0.20</time>
   <energy>
    <i name="e_fr_energy">     -4.86339571 </i>
    <i name="e_wo_entrp">     -4.80697676 </i>
    <i name="e_0_energy">     -4.83518623 </i>
   </energy>
  </scstep>
  <scstep>
   <time name="dav">    0.03    0.03</time>
   <time name="total">    0.19    0.19</time>
   <energy>
    <i name="e_fr_energy">     -4.86482436 </i>
    <i name="e_wo_entrp">     -4.80840540 </i>
    <i name="e_0_energy">     -4.83661488 </i>
   </energy>
  </scstep>
  <scstep>
   <time name="dav">    0.03    0.03</time>
   <time name="total">    0.20    0.20</time>
   <energy>
    <i name="e_fr_energy">     -4.86548295 </i>
    <i name="e_wo_entrp">     -4.80906400 </i>
    <i name="e_0_energy">     -4.83727348 </i>
   </energy>
  </scstep>
  <scstep>
   <time name="dav">    0.03    0.03</time>
   <time name="total">    0.21    0.21</time>
   <energy>
    <i name="e_fr_energy">     -4.86582433 </i>
    <i name="e_wo_entrp">     -4.80940537 </i>
    <i name="e_0_energy">     -4.83761485 </i>
   </energy>
  </scstep>
  <scstep>
   <time name="dav">    0.02    0.02</time>
   <time name="total">    0.21    0.21</time>
   <energy>
    <i name="e_fr_energy">     -4.86621436 </i>
    <i name="e_wo_entrp">     -4.80979540 </i>
    <i name="e_0_energy">     -4.83800488 </i>
   </energy>
  </scstep>
  <scstep>
   <time name="dav">    0.02    0.02</time>
   <time name="total">    0.20    0.20</time>
   <energy>
    <i name="e_fr_energy">     -4.86635186 </i>
    <i name="e_wo_entrp">     -4.80993290 </i>
    <i name="e_0_energy">     -4.83814238 </i>
   </energy>
  </scstep>
  <scstep>
   <time name="dav">    0.02    0.02</time>
   <time name="total">    0.21    0.21</time>
   <energy>
    <i name="e_fr_energy">     -4.86646696 </i>
    <i name="e_wo_entrp">     -4.81004800 </i>
    <i name="e_0_energy">     -4.83825748 </i>
   </energy>
  </scstep>
  <scstep>
   <time name="dav">    0.02    0.02</time>
   <time name="total">    0.21    0.21</time>
   <energy>
    <i name="e_fr_energy">     -4.86652375 </i>
    <i name="e_wo_entrp">     -4.81010479 </i>
    <i name="e_0_energy">     -4.83831427 </i>
   </energy>
  </scstep>
  <scstep>
   <time name="dav">    0.02    0.02</time>
   <time name="total">    0.21    0.21</time>
   <energy>
    <i name="e_fr_energy">     -4.86654831 </i>
    <i name="e_wo_entrp">     -4.81012935 </i>
    <i name="e_0_energy">     -4.83833883 </i>
   </energy>
  </scstep>
  <scstep>
   <time name="dav">    0.02    0.02</time>
   <time name="total">    0.22    0.22</time>
   <energy>
    <i name="e_fr_energy">     -4.86656255 </i>
    <i name="e_wo_entrp">     -4.81014359 </i>
    <i name="e_0_energy">     -4.83835307 </i>
   </energy>
  </scstep>
  <scstep>
   <time name="dav">    0.02    0.02</time>
   <time name="total">    0.22    0.22</time>
   <energy>
    <i name="e_fr_energy">     -4.86656835 </i>
    <i name="e_wo_entrp">     -4.81014939 </i>
    <i name="e_0_energy">     -4.83835887 </i>
   </energy>
  </scstep>
  <scstep>
   <time name="dav">    0.02    0.02</time>
   <time name="total">    0.23    0.23</time>
   <energy>
    <i name="e_fr_energy">     -4.86657017 </i>
    <i name="e_wo_entrp">     -4.81015122 </i>
    <i name="e_0_energy">     -4.83836069 </i>
   </energy>
  </scstep>
  <scstep>
   <time name="dav">    0.02    0.02</time>
   <time name="total">    0.23    0.23</time>
   <energy>
    <i name="e_fr_energy">     -4.86657056 </i>
    <i name="e_wo_entrp">     -4.81015160 </i>
    <i name="e_0_energy">     -4.83836108 </i>
   </energy>
  </scstep>
  <scstep>
   <time name="dav">    0.02    0.02</time>
   <time name="total">    0.23    0.23</time>
   <energy>
    <i name="e_fr_energy">     -4.86657077 </i>
    <i name="e_wo_entrp">     -4.81015181 </i>
    <i name="e_0_energy">     -4.83836129 </i>
   </energy>
  </scstep>
  <scstep>
   <time name="dav">    0.02    0.02</time>
   <time name="total">    0.06    0.06</time>
   <energy>
    <i name="alphaZ">      0.08965302 </i>
    <i name="ewald">    315.87742977 </i>
    <i name="hartreedc">  -1030.77022525 </i>
    <i name="XCdc">     53.70176248 </i>
    <i name="pawpsdc">   3564.29010468 </i>
    <i name="pawaedc">  -3563.32786629 </i>
    <i name="eentropy">     -0.05641896 </i>
    <i name="bandstr">   -208.64603143 </i>
    <i name="atom">    863.97502114 </i>
    <i name="e_fr_energy">     -4.86657084 </i>
    <i name="e_wo_entrp">     -4.81015188 </i>
    <i name="e_0_energy">     -4.83836136 </i>
   </energy>
  </scstep>
  <structure>
   <crystal>
    <varray name="basis" >
     <v>      14.50000000       0.00000000       0.00000000 </v>
     <v>       0.00000000      14.50000000       0.00000000 </v>
     <v>       0.00000000       0.00000000      14.50000000 </v>
    </varray>
    <i name="volume">   3048.62500000 </i>
    <varray name="rec_basis" >
     <v>       0.06896552       0.00000000       0.00000000 </v>
     <v>       0.00000000       0.06896552       0.00000000 </v>
     <v>       0.00000000       0.00000000       0.06896552 </v>
    </varray>
   </crystal>
   <varray name="positions" >
    <v>       0.00000000       0.00000000       0.00000000 </v>
    <v>       0.06896552       0.00000000       0.00000000 </v>
   </varray>
  </structure>
  <varray name="forces" >
   <v>     -37.19038356       0.00000000       0.00000000 </v>
   <v>      37.19038356      -0.00000000      -0.00000000 </v>
  </varray>
  <varray name="stress" >
   <v>      14.54962325       0.00000000       0.00000000 </v>
   <v>      -0.00000000      -4.27522771       0.00000000 </v>
   <v>       0.00000000       0.00000000      -4.27522771 </v>
  </varray>
  <energy>
   <i name="e_fr_energy">     -4.87386135 </i>
   <i name="e_wo_entrp">     -4.81744239 </i>
   <i name="e_0_energy">     -4.84565187 </i>
  </energy>
  <time name="totalsc">    4.35    4.49</time>
  <eigenvalues>
   <array>
    <dimension dim="1">band</dimension>
    <dimension dim="2">kpoint</dimension>
    <dimension dim="3">spin</dimension>
    <field>eigene</field>
    <field>occ</field>
    <set>
     <set comment="spin 1">
      <set comment="kpoint 1">
       <r>  -38.0213    1.0000 </r>
       <r>  -18.2453    1.0000 </r>
       <r>  -15.3271    1.0000 </r>
       <r>  -15.3271    1.0000 </r>
       <r>  -13.7136    1.0000 </r>
       <r>   -3.6886    0.5000 </r>
       <r>   -3.6886    0.5000 </r>
       <r>   -0.2802    0.0000 </r>
       <r>    0.3311    0.0000 </r>
       <r>    0.4659    0.0000 </r>
      </set>
     </set>
    </set>
   </array>
  </eigenvalues>
  <separator name="orbital magnetization" >
   <v name="MAGDIPOLOUT">      0.00000000      0.00000000      0.00000000</v>
  </separator>
  <dos>
   <i name="efermi">     -3.68860294 </i>
   <total>
    <array>
     <dimension dim="1">gridpoints</dimension>
     <dimension dim="2">spin</dimension>
     <field>energy</field>
     <field>total</field>
     <field>integrated</field>
     <set>
      <set comment="spin 1">
       <r>   -39.9457     0.0000     0.0000 </r>
       <r>   -39.8046     0.0000     0.0000 </r>
       <r>   -39.6634     0.0000     0.0000 </r>
       <r>   -39.5223     0.0000     0.0000 </r>
       <r>   -39.3812     0.0000     0.0000 </r>
       <r>   -39.2401     0.0000     0.0000 </r>
       <r>   -39.0990     0.0000     0.0000 </r>
       <r>   -38.9578     0.0000     0.0000 </r>
       <r>   -38.8167     0.0000     0.0000 </r>
       <r>   -38.6756     0.0000     0.0000 </r>
       <r>   -38.5345     0.0000     0.0000 </r>
       <r>   -38.3934     0.0000     0.0000 </r>
       <r>   -38.2522     0.0000     0.0000 </r>
       <r>   -38.1111     0.0785     0.0111 </r>
       <r>   -37.9700    13.0546     1.8533 </r>
       <r>   -37.8289     1.0392     2.0000 </r>
       <r>   -37.6878     0.0000     2.0000 </r>
       <r>   -37.5466     0.0000     2.0000 </r>
       <r>   -37.4055     0.0000     2.0000 </r>
       <r>   -37.2644     0.0000     2.0000 </r>
       <r>   -37.1233     0.0000     2.0000 </r>
       <r>   -36.9822     0.0000     2.0000 </r>
       <r>   -36.8410     0.0000     2.0000 </r>
       <r>   -36.6999     0.0000     2.0000 </r>
       <r>   -36.5588     0.0000     2.0000 </r>
       <r>   -36.4177     0.0000     2.0000 </r>
       <r>   -36.2766     0.0000     2.0000 </r>
       <r>   -36.1354     0.0000     2.0000 </r>
       <r>   -35.9943     0.0000     2.0000 </r>
       <r>   -35.8532     0.0000     2.0000 </r>
       <r>   -35.7121     0.0000     2.0000 </r>
       <r>   -35.5710     0.0000     2.0000 </r>
       <r>   -35.4298     0.0000     2.0000 </r>
       <r>   -35.2887     0.0000     2.0000 </r>
       <r>   -35.1476     0.0000     2.0000 </r>
       <r>   -35.0065     0.0000     2.0000 </r>
       <r>   -34.8654     0.0000     2.0000 </r>
       <r>   -34.7243     0.0000     2.0000 </r>
       <r>   -34.5831     0.0000     2.0000 </r>
       <r>   -34.4420     0.0000     2.0000 </r>
       <r>   -34.3009     0.0000     2.0000 </r>
       <r>   -34.1598     0.0000     2.0000 </r>
       <r>   -34.0187     0.0000     2.0000 </r>
       <r>   -33.8775     0.0000     2.0000 </r>
       <r>   -33.7364     0.0000     2.0000 </r>
       <r>   -33.5953     0.0000     2.0000 </r>
       <r>   -33.4542     0.0000     2.0000 </r>
       <r>   -33.3131     0.0000     2.0000 </r>
       <r>   -33.1719     0.0000     2.0000 </r>
       <r>   -33.0308     0.0000     2.0000 </r>
       <r>   -32.8897     0.0000     2.0000 </r>
       <r>   -32.7486     0.0000     2.0000 </r>
       <r>   -32.6075     0.0000     2.0000 </r>
       <r>   -32.4663     0.0000     2.0000 </r>
       <r>   -32.3252     0.0000     2.0000 </r>
       <r>   -32.1841     0.0000     2.0000 </r>
       <r>   -32.0430     0.0000     2.0000 </r>
       <r>   -31.9019     0.0000     2.0000 </r>
       <r>   -31.7607     0.0000     2.0000 </r>
       <r>   -31.6196     0.0000     2.0000 </r>
       <r>   -31.4785     0.0000     2.0000 </r>
       <r>   -31.3374     0.0000     2.0000 </r>
       <r>   -31.1963     0.0000     2.0000 </r>
       <r>   -31.0551     0.0000     2.0000 </r>
       <r>   -30.9140     0.0000     2.0000 </r>
       <r>   -30.7729     0.0000     2.0000 </r>
       <r>   -30.6318     0.0000     2.0000 </r>
       <r>   -30.4907     0.0000     2.0000 </r>
       <r>   -30.3495     0.0000     2.0000 </r>
       <r>   -30.2084     0.0000     2.0000 </r>
       <r>   -30.0673     0.0000     2.0000 </r>
       <r>   -29.9262     0.0000     2.0000 </r>
       <r>   -29.7851     0.0000     2.0000 </r>
       <r>   -29.6439     0.0000     2.0000 </r>
       <r>   -29.5028     0.0000     2.0000 </r>
       <r>   -29.3617     0.0000     2.0000 </r>
       <r>   -29.2206     0.0000     2.0000 </r>
       <r>   -29.0795     0.0000     2.0000 </r>
       <r>   -28.9383     0.0000     2.0000 </r>
       <r>   -28.7972     0.0000     2.0000 </r>
       <r>   -28.6561     0.0000     2.0000 </r>
       <r>   -28.5150     0.0000     2.0000 </r>
       <r>   -28.3739     0.0000     2.0000 </r>
       <r>   -28.2327     0.0000     2.0000 </r>
       <r>   -28.0916     0.0000     2.0000 </r>
       <r>   -27.9505     0.0000     2.0000 </r>
       <r>   -27.8094     0.0000     2.0000 </r>
       <r>   -27.6683     0.0000     2.0000 </r>
       <r>   -27.5271     0.0000     2.0000 </r>
       <r>   -27.3860     0.0000     2.0000 </r>
       <r>   -27.2449     0.0000     2.0000 </r>
       <r>   -27.1038     0.0000     2.0000 </r>
       <r>   -26.9627     0.0000     2.0000 </r>
       <r>   -26.8215     0.0000     2.0000 </r>
       <r>   -26.6804     0.0000     2.0000 </r>
       <r>   -26.5393     0.0000     2.0000 </r>
       <r>   -26.3982     0.0000     2.0000 </r>
       <r>   -26.2571     0.0000     2.0000 </r>
       <r>   -26.1159     0.0000     2.0000 </r>
       <r>   -25.9748     0.0000     2.0000 </r>
       <r>   -25.8337     0.0000     2.0000 </r>
       <r>   -25.6926     0.0000     2.0000 </r>
       <r>   -25.5515     0.0000     2.0000 </r>
       <r>   -25.4104     0.0000     2.0000 </r>
       <r>   -25.2692     0.0000     2.0000 </r>
       <r>   -25.1281     0.0000     2.0000 </r>
       <r>   -24.9870     0.0000     2.0000 </r>
       <r>   -24.8459     0.0000     2.0000 </r>
       <r>   -24.7048     0.0000     2.0000 </r>
       <r>   -24.5636     0.0000     2.0000 </r>
       <r>   -24.4225     0.0000     2.0000 </r>
       <r>   -24.2814     0.0000     2.0000 </r>
       <r>   -24.1403     0.0000     2.0000 </r>
       <r>   -23.9992     0.0000     2.0000 </r>
       <r>   -23.8580     0.0000     2.0000 </r>
       <r>   -23.7169     0.0000     2.0000 </r>
       <r>   -23.5758     0.0000     2.0000 </r>
       <r>   -23.4347     0.0000     2.0000 </r>
       <r>   -23.2936     0.0000     2.0000 </r>
       <r>   -23.1524     0.0000     2.0000 </r>
       <r>   -23.0113     0.0000     2.0000 </r>
       <r>   -22.8702     0.0000     2.0000 </r>
       <r>   -22.7291     0.0000     2.0000 </r>
       <r>   -22.5880     0.0000     2.0000 </r>
       <r>   -22.4468     0.0000     2.0000 </r>
       <r>   -22.3057     0.0000     2.0000 </r>
       <r>   -22.1646     0.0000     2.0000 </r>
       <r>   -22.0235     0.0000     2.0000 </r>
       <r>   -21.8824     0.0000     2.0000 </r>
       <r>   -21.7412     0.0000     2.0000 </r>
       <r>   -21.6001     0.0000     2.0000 </r>
       <r>   -21.4590     0.0000     2.0000 </r>
       <r>   -21.3179     0.0000     2.0000 </r>
       <r>   -21.1768     0.0000     2.0000 </r>
       <r>   -21.0356     0.0000     2.0000 </r>
       <r>   -20.8945     0.0000     2.0000 </r>
       <r>   -20.7534     0.0000     2.0000 </r>
       <r>   -20.6123     0.0000     2.0000 </r>
       <r>   -20.4712     0.0000     2.0000 </r>
       <r>   -20.3300     0.0000     2.0000 </r>
       <r>   -20.1889     0.0000     2.0000 </r>
       <r>   -20.0478     0.0000     2.0000 </r>
       <r>   -19.9067     0.0000     2.0000 </r>
       <r>   -19.7656     0.0000     2.0000 </r>
       <r>   -19.6244     0.0000     2.0000 </r>
       <r>   -19.4833     0.0000     2.0000 </r>
       <r>   -19.3422     0.0000     2.0000 </r>
       <r>   -19.2011     0.0000     2.0000 </r>
       <r>   -19.0600     0.0000     2.0000 </r>
       <r>   -18.9188     0.0000     2.0000 </r>
       <r>   -18.7777     0.0000     2.0000 </r>
       <r>   -18.6366     0.0000     2.0000 </r>
       <r>   -18.4955     0.0000     2.0000 </r>
       <r>   -18.3544     0.0145     2.0020 </r>
       <r>   -18.2132    11.5778     3.6359 </r>
       <r>   -18.0721     2.5801     4.0000 </r>
       <r>   -17.9310     0.0000     4.0000 </r>
       <r>   -17.7899     0.0000     4.0000 </r>
       <r>   -17.6488     0.0000     4.0000 </r>
       <r>   -17.5076     0.0000     4.0000 </r>
       <r>   -17.3665     0.0000     4.0000 </r>
       <r>   -17.2254     0.0000     4.0000 </r>
       <r>   -17.0843     0.0000     4.0000 </r>
       <r>   -16.9432     0.0000     4.0000 </r>
       <r>   -16.8020     0.0000     4.0000 </r>
       <r>   -16.6609     0.0000     4.0000 </r>
       <r>   -16.5198     0.0000     4.0000 </r>
       <r>   -16.3787     0.0000     4.0000 </r>
       <r>   -16.2376     0.0000     4.0000 </r>
       <r>   -16.0965     0.0000     4.0000 </r>
       <r>   -15.9553     0.0000     4.0000 </r>
       <r>   -15.8142     0.0000     4.0000 </r>
       <r>   -15.6731     0.0000     4.0000 </r>
       <r>   -15.5320     0.0000     4.0000 </r>
       <r>   -15.3909     1.0093     4.1424 </r>
       <r>   -15.2497    26.9285     7.9426 </r>
       <r>   -15.1086     0.4070     8.0000 </r>
       <r>   -14.9675     0.0000     8.0000 </r>
       <r>   -14.8264     0.0000     8.0000 </r>
       <r>   -14.6853     0.0000     8.0000 </r>
       <r>   -14.5441     0.0000     8.0000 </r>
       <r>   -14.4030     0.0000     8.0000 </r>
       <r>   -14.2619     0.0000     8.0000 </r>
       <r>   -14.1208     0.0000     8.0000 </r>
       <r>   -13.9797     0.0000     8.0000 </r>
       <r>   -13.8385     0.0029     8.0004 </r>
       <r>   -13.6974     9.5872     9.3534 </r>
       <r>   -13.5563     4.5822    10.0000 </r>
       <r>   -13.4152     0.0001    10.0000 </r>
       <r>   -13.2741     0.0000    10.0000 </r>
       <r>   -13.1329     0.0000    10.0000 </r>
       <r>   -12.9918     0.0000    10.0000 </r>
       <r>   -12.8507     0.0000    10.0000 </r>
       <r>   -12.7096     0.0000    10.0000 </r>
       <r>   -12.5685     0.0000    10.0000 </r>
       <r>   -12.4273     0.0000    10.0000 </r>
       <r>   -12.2862     0.0000    10.0000 </r>
       <r>   -12.1451     0.0000    10.0000 </r>
       <r>   -12.0040     0.0000    10.0000 </r>
       <r>   -11.8629     0.0000    10.0000 </r>
       <r>   -11.7217     0.0000    10.0000 </r>
       <r>   -11.5806     0.0000    10.0000 </r>
       <r>   -11.4395     0.0000    10.0000 </r>
       <r>   -11.2984     0.0000    10.0000 </r>
       <r>   -11.1573     0.0000    10.0000 </r>
       <r>   -11.0161     0.0000    10.0000 </r>
       <r>   -10.8750     0.0000    10.0000 </r>
       <r>   -10.7339     0.0000    10.0000 </r>
       <r>   -10.5928     0.0000    10.0000 </r>
       <r>   -10.4517     0.0000    10.0000 </r>
       <r>   -10.3105     0.0000    10.0000 </r>
       <r>   -10.1694     0.0000    10.0000 </r>
       <r>   -10.0283     0.0000    10.0000 </r>
       <r>    -9.8872     0.0000    10.0000 </r>
       <r>    -9.7461     0.0000    10.0000 </r>
       <r>    -9.6049     0.0000    10.0000 </r>
       <r>    -9.4638     0.0000    10.0000 </r>
       <r>    -9.3227     0.0000    10.0000 </r>
       <r>    -9.1816     0.0000    10.0000 </r>
       <r>    -9.0405     0.0000    10.0000 </r>
       <r>    -8.8993     0.0000    10.0000 </r>
       <r>    -8.7582     0.0000    10.0000 </r>
       <r>    -8.6171     0.0000    10.0000 </r>
       <r>    -8.4760     0.0000    10.0000 </r>
       <r>    -8.3349     0.0000    10.0000 </r>
       <r>    -8.1937     0.0000    10.0000 </r>
       <r>    -8.0526     0.0000    10.0000 </r>
       <r>    -7.9115     0.0000    10.0000 </r>
       <r>    -7.7704     0.0000    10.0000 </r>
       <r>    -7.6293     0.0000    10.0000 </r>
       <r>    -7.4881     0.0000    10.0000 </r>
       <r>    -7.3470     0.0000    10.0000 </r>
       <r>    -7.2059     0.0000    10.0000 </r>
       <r>    -7.0648     0.0000    10.0000 </r>
       <r>    -6.9237     0.0000    10.0000 </r>
       <r>    -6.7826     0.0000    10.0000 </r>
       <r>    -6.6414     0.0000    10.0000 </r>
       <r>    -6.5003     0.0000    10.0000 </r>
       <r>    -6.3592     0.0000    10.0000 </r>
       <r>    -6.2181     0.0000    10.0000 </r>
       <r>    -6.0770     0.0000    10.0000 </r>
       <r>    -5.9358     0.0000    10.0000 </r>
       <r>    -5.7947     0.0000    10.0000 </r>
       <r>    -5.6536     0.0000    10.0000 </r>
       <r>    -5.5125     0.0000    10.0000 </r>
       <r>    -5.3714     0.0000    10.0000 </r>
       <r>    -5.2302     0.0000    10.0000 </r>
       <r>    -5.0891     0.0000    10.0000 </r>
       <r>    -4.9480     0.0000    10.0000 </r>
       <r>    -4.8069     0.0000    10.0000 </r>
       <r>    -4.6658     0.0000    10.0000 </r>
       <r>    -4.5246     0.0000    10.0000 </r>
       <r>    -4.3835     0.0000    10.0000 </r>
       <r>    -4.2424     0.0000    10.0000 </r>
       <r>    -4.1013     0.0000    10.0000 </r>
       <r>    -3.9602     0.0000    10.0000 </r>
       <r>    -3.8190     0.0032    10.0004 </r>
       <r>    -3.6779    17.5354    12.4750 </r>
       <r>    -3.5368    10.8059    14.0000 </r>
       <r>    -3.3957     0.0002    14.0000 </r>
       <r>    -3.2546     0.0000    14.0000 </r>
       <r>    -3.1134     0.0000    14.0000 </r>
       <r>    -2.9723     0.0000    14.0000 </r>
       <r>    -2.8312     0.0000    14.0000 </r>
       <r>    -2.6901     0.0000    14.0000 </r>
       <r>    -2.5490     0.0000    14.0000 </r>
       <r>    -2.4078     0.0000    14.0000 </r>
       <r>    -2.2667     0.0000    14.0000 </r>
       <r>    -2.1256     0.0000    14.0000 </r>
       <r>    -1.9845     0.0000    14.0000 </r>
       <r>    -1.8434     0.0000    14.0000 </r>
       <r>    -1.7022     0.0000    14.0000 </r>
       <r>    -1.5611     0.0000    14.0000 </r>
       <r>    -1.4200     0.0000    14.0000 </r>
       <r>    -1.2789     0.0000    14.0000 </r>
       <r>    -1.1378     0.0000    14.0000 </r>
       <r>    -0.9966     0.0000    14.0000 </r>
       <r>    -0.8555     0.0000    14.0000 </r>
       <r>    -0.7144     0.0000    14.0000 </r>
       <r>    -0.5733     0.0000    14.0000 </r>
       <r>    -0.4322     0.0001    14.0000 </r>
       <r>    -0.2910     5.3805    14.7593 </r>
       <r>    -0.1499     8.7901    15.9998 </r>
       <r>    -0.0088     0.0016    16.0000 </r>
       <r>     0.1323     0.0000    16.0000 </r>
       <r>     0.2734     0.7305    16.1031 </r>
       <r>     0.4146    14.3521    18.1284 </r>
       <r>     0.5557    13.1836    19.9889 </r>
       <r>     0.6968     0.0785    20.0000 </r>
       <r>     0.8379     0.0000    20.0000 </r>
       <r>     0.9790     0.0000    20.0000 </r>
       <r>     1.1202     0.0000    20.0000 </r>
       <r>     1.2613     0.0000    20.0000 </r>
       <r>     1.4024     0.0000    20.0000 </r>
       <r>     1.5435     0.0000    20.0000 </r>
       <r>     1.6846     0.0000    20.0000 </r>
       <r>     1.8258     0.0000    20.0000 </r>
       <r>     1.9669     0.0000    20.0000 </r>
       <r>     2.1080     0.0000    20.0000 </r>
       <r>     2.2491     0.0000    20.0000 </r>
       <r>     2.3902     0.0000    20.0000 </r>
      </set>
     </set>
    </array>
   </total>
  </dos>
 </calculation>
 <structure name="finalpos" >
  <crystal>
   <varray name="basis" >
    <v>      14.50000000       0.00000000       0.00000000 </v>
    <v>       0.00000000      14.50000000       0.00000000 </v>
    <v>       0.00000000       0.00000000      14.50000000 </v>
   </varray>
   <i name="volume">   3048.62500000 </i>
   <varray name="rec_basis" >
    <v>       0.06896552       0.00000000       0.00000000 </v>
    <v>       0.00000000       0.06896552       0.00000000 </v>
    <v>       0.00000000       0.00000000       0.06896552 </v>
   </varray>
  </crystal>
  <varray name="positions" >
   <v>       0.00000000       0.00000000       0.00000000 </v>
   <v>       0.06896552       0.00000000       0.00000000 </v>
  </varray>
 </structure>
</modeling>
