 216 216   0   0
  0.9371374E+01  0.1264986E-08  0.1264986E-08  0.1264986E-08  0.2000000E-15
   1.0000000000000000E-004
  CAR 
 NiAl                                    
     13.85928188    -16.33062908  301      5.24652104      1.00000000
    -16.331  0.0000E+00  0.0000E+00
    -16.230  0.0000E+00  0.0000E+00
    -16.129  0.0000E+00  0.0000E+00
    -16.029  0.0000E+00  0.0000E+00
    -15.928  0.0000E+00  0.0000E+00
    -15.827  0.0000E+00  0.0000E+00
    -15.727  0.0000E+00  0.0000E+00
    -15.626  0.0000E+00  0.0000E+00
    -15.526  0.0000E+00  0.0000E+00
    -15.425  0.0000E+00  0.0000E+00
    -15.324  0.0000E+00  0.0000E+00
    -15.224  0.1924E-14  0.1936E-15
    -15.123  0.9933E-07  0.9996E-08
    -15.022  0.2178E-02  0.2192E-03
    -14.922  0.7243E-01  0.7508E-02
    -14.821  0.3859E+00  0.4634E-01
    -14.721  0.7388E+00  0.1207E+00
    -14.620  0.5909E+00  0.1802E+00
    -14.519  0.1080E+01  0.2889E+00
    -14.419  0.1795E+01  0.4695E+00
    -14.318  0.6383E+00  0.5337E+00
    -14.217  0.2184E+01  0.7534E+00
    -14.117  0.2597E+01  0.1015E+01
    -14.016  0.2058E+01  0.1222E+01
    -13.915  0.3853E+01  0.1610E+01
    -13.815  0.4667E+01  0.2079E+01
    -13.714  0.7628E+01  0.2847E+01
    -13.614  0.1349E+02  0.4204E+01
    -13.513  0.1122E+02  0.5334E+01
    -13.412  0.6587E+00  0.5400E+01
    -13.312  0.2466E-03  0.5400E+01
    -13.211  0.1257E-09  0.5400E+01
    -13.110  0.0000E+00  0.5400E+01
    -13.010  0.0000E+00  0.5400E+01
    -12.909  0.0000E+00  0.5400E+01
    -12.808  0.0000E+00  0.5400E+01
    -12.708  0.0000E+00  0.5400E+01
    -12.607  0.0000E+00  0.5400E+01
    -12.507  0.0000E+00  0.5400E+01
    -12.406  0.0000E+00  0.5400E+01
    -12.305  0.0000E+00  0.5400E+01
    -12.205  0.0000E+00  0.5400E+01
    -12.104  0.0000E+00  0.5400E+01
    -12.003  0.0000E+00  0.5400E+01
    -11.903  0.0000E+00  0.5400E+01
    -11.802  0.0000E+00  0.5400E+01
    -11.702  0.0000E+00  0.5400E+01
    -11.601  0.0000E+00  0.5400E+01
    -11.500  0.0000E+00  0.5400E+01
    -11.400  0.0000E+00  0.5400E+01
    -11.299  0.0000E+00  0.5400E+01
    -11.198  0.0000E+00  0.5400E+01
    -11.098  0.0000E+00  0.5400E+01
    -10.997  0.0000E+00  0.5400E+01
    -10.896  0.0000E+00  0.5400E+01
    -10.796  0.0000E+00  0.5400E+01
    -10.695  0.0000E+00  0.5400E+01
    -10.595  0.0000E+00  0.5400E+01
    -10.494  0.0000E+00  0.5400E+01
    -10.393  0.0000E+00  0.5400E+01
    -10.293  0.0000E+00  0.5400E+01
    -10.192  0.0000E+00  0.5400E+01
    -10.091  0.0000E+00  0.5400E+01
     -9.991  0.0000E+00  0.5400E+01
     -9.890  0.0000E+00  0.5400E+01
     -9.789  0.0000E+00  0.5400E+01
     -9.689  0.0000E+00  0.5400E+01
     -9.588  0.0000E+00  0.5400E+01
     -9.488  0.0000E+00  0.5400E+01
     -9.387  0.0000E+00  0.5400E+01
     -9.286  0.0000E+00  0.5400E+01
     -9.186  0.0000E+00  0.5400E+01
     -9.085  0.0000E+00  0.5400E+01
     -8.984  0.0000E+00  0.5400E+01
     -8.884  0.0000E+00  0.5400E+01
     -8.783  0.0000E+00  0.5400E+01
     -8.683  0.0000E+00  0.5400E+01
     -8.582  0.0000E+00  0.5400E+01
     -8.481  0.0000E+00  0.5400E+01
     -8.381  0.0000E+00  0.5400E+01
     -8.280  0.0000E+00  0.5400E+01
     -8.179  0.0000E+00  0.5400E+01
     -8.079  0.0000E+00  0.5400E+01
     -7.978  0.0000E+00  0.5400E+01
     -7.877  0.0000E+00  0.5400E+01
     -7.777  0.0000E+00  0.5400E+01
     -7.676  0.0000E+00  0.5400E+01
     -7.576  0.0000E+00  0.5400E+01
     -7.475  0.0000E+00  0.5400E+01
     -7.374  0.0000E+00  0.5400E+01
     -7.274  0.0000E+00  0.5400E+01
     -7.173  0.0000E+00  0.5400E+01
     -7.072  0.0000E+00  0.5400E+01
     -6.972  0.0000E+00  0.5400E+01
     -6.871  0.0000E+00  0.5400E+01
     -6.770  0.0000E+00  0.5400E+01
     -6.670  0.0000E+00  0.5400E+01
     -6.569  0.0000E+00  0.5400E+01
     -6.469  0.0000E+00  0.5400E+01
     -6.368  0.0000E+00  0.5400E+01
     -6.267  0.0000E+00  0.5400E+01
     -6.167  0.0000E+00  0.5400E+01
     -6.066  0.0000E+00  0.5400E+01
     -5.965  0.0000E+00  0.5400E+01
     -5.865  0.0000E+00  0.5400E+01
     -5.764  0.0000E+00  0.5400E+01
     -5.664  0.0000E+00  0.5400E+01
     -5.563  0.0000E+00  0.5400E+01
     -5.462  0.0000E+00  0.5400E+01
     -5.362  0.0000E+00  0.5400E+01
     -5.261  0.0000E+00  0.5400E+01
     -5.160  0.0000E+00  0.5400E+01
     -5.060  0.0000E+00  0.5400E+01
     -4.959  0.0000E+00  0.5400E+01
     -4.858  0.0000E+00  0.5400E+01
     -4.758  0.0000E+00  0.5400E+01
     -4.657  0.0000E+00  0.5400E+01
     -4.557  0.0000E+00  0.5400E+01
     -4.456  0.0000E+00  0.5400E+01
     -4.355  0.0000E+00  0.5400E+01
     -4.255  0.0000E+00  0.5400E+01
     -4.154  0.0000E+00  0.5400E+01
     -4.053  0.0000E+00  0.5400E+01
     -3.953  0.0000E+00  0.5400E+01
     -3.852  0.0000E+00  0.5400E+01
     -3.751  0.0000E+00  0.5400E+01
     -3.651  0.0000E+00  0.5400E+01
     -3.550  0.0000E+00  0.5400E+01
     -3.450  0.0000E+00  0.5400E+01
     -3.349  0.0000E+00  0.5400E+01
     -3.248  0.0000E+00  0.5400E+01
     -3.148  0.0000E+00  0.5400E+01
     -3.047  0.0000E+00  0.5400E+01
     -2.946  0.0000E+00  0.5400E+01
     -2.846  0.8136E-15  0.5400E+01
     -2.745  0.9422E-07  0.5400E+01
     -2.645  0.4444E-02  0.5400E+01
     -2.544  0.1875E+00  0.5419E+01
     -2.443  0.8845E-01  0.5428E+01
     -2.343  0.1169E+01  0.5546E+01
     -2.242  0.1351E+01  0.5682E+01
     -2.141  0.5949E+00  0.5742E+01
     -2.041  0.2495E+01  0.5993E+01
     -1.940  0.5280E+00  0.6046E+01
     -1.839  0.2483E+01  0.6296E+01
     -1.739  0.2029E+01  0.6500E+01
     -1.638  0.4452E+01  0.6948E+01
     -1.538  0.4644E+01  0.7415E+01
     -1.437  0.4869E+01  0.7905E+01
     -1.336  0.9215E+01  0.8833E+01
     -1.236  0.4207E+01  0.9256E+01
     -1.135  0.2071E+01  0.9465E+01
     -1.034  0.3591E+01  0.9826E+01
     -0.934  0.3118E+01  0.1014E+02
     -0.833  0.4208E+00  0.1018E+02
     -0.733  0.9864E+00  0.1028E+02
     -0.632  0.2001E+01  0.1048E+02
     -0.531  0.1694E+01  0.1065E+02
     -0.431  0.2938E+01  0.1095E+02
     -0.330  0.4969E+01  0.1145E+02
     -0.229  0.3789E+01  0.1183E+02
     -0.129  0.3682E+01  0.1220E+02
     -0.028  0.4236E+01  0.1263E+02
      0.073  0.9241E+01  0.1356E+02
      0.173  0.1446E+02  0.1501E+02
      0.274  0.9871E+01  0.1601E+02
      0.374  0.1068E+02  0.1708E+02
      0.475  0.5865E+01  0.1767E+02
      0.576  0.5045E+01  0.1818E+02
      0.676  0.4718E+01  0.1865E+02
      0.777  0.7425E+01  0.1940E+02
      0.878  0.3588E+01  0.1976E+02
      0.978  0.4911E+01  0.2026E+02
      1.079  0.2543E+01  0.2051E+02
      1.180  0.3486E+01  0.2086E+02
      1.280  0.6946E+00  0.2093E+02
      1.381  0.2033E+01  0.2114E+02
      1.481  0.1620E+01  0.2130E+02
      1.582  0.5639E+00  0.2136E+02
      1.683  0.5689E+00  0.2141E+02
      1.783  0.2774E+00  0.2144E+02
      1.884  0.6127E+00  0.2150E+02
      1.985  0.5501E-01  0.2151E+02
      2.085  0.6067E+00  0.2157E+02
      2.186  0.1126E+00  0.2158E+02
      2.286  0.3192E-01  0.2158E+02
      2.387  0.1490E+00  0.2160E+02
      2.488  0.5391E-02  0.2160E+02
      2.588  0.7911E-02  0.2160E+02
      2.689  0.2584E+00  0.2163E+02
      2.790  0.2913E+00  0.2166E+02
      2.890  0.2517E+00  0.2168E+02
      2.991  0.1471E+00  0.2170E+02
      3.092  0.1339E+01  0.2183E+02
      3.192  0.1612E+01  0.2199E+02
      3.293  0.2422E+01  0.2224E+02
      3.393  0.2859E+01  0.2252E+02
      3.494  0.1726E+01  0.2270E+02
      3.595  0.2730E+01  0.2297E+02
      3.695  0.2490E+01  0.2322E+02
      3.796  0.8924E+01  0.2412E+02
      3.897  0.9309E+01  0.2506E+02
      3.997  0.6969E+01  0.2576E+02
      4.098  0.7590E+01  0.2652E+02
      4.199  0.1396E+02  0.2793E+02
      4.299  0.2193E+02  0.3013E+02
      4.400  0.2047E+02  0.3220E+02
      4.500  0.1367E+02  0.3357E+02
      4.601  0.1876E+02  0.3546E+02
      4.702  0.3606E+02  0.3909E+02
      4.802  0.1186E+02  0.4028E+02
      4.903  0.5886E+01  0.4087E+02
      5.004  0.9451E+01  0.4183E+02
      5.104  0.1502E+01  0.4198E+02
      5.205  0.6718E+01  0.4265E+02
      5.305  0.1062E+02  0.4372E+02
      5.406  0.6719E+01  0.4440E+02
      5.507  0.3970E+01  0.4480E+02
      5.607  0.2558E+01  0.4505E+02
      5.708  0.1105E+01  0.4517E+02
      5.809  0.1680E+01  0.4534E+02
      5.909  0.7688E+01  0.4611E+02
      6.010  0.4909E+01  0.4660E+02
      6.111  0.3882E+01  0.4699E+02
      6.211  0.8488E+01  0.4785E+02
      6.312  0.2805E+01  0.4813E+02
      6.412  0.7044E+00  0.4820E+02
      6.513  0.2723E+01  0.4847E+02
      6.614  0.1230E+01  0.4860E+02
      6.714  0.3083E-01  0.4860E+02
      6.815  0.4394E-01  0.4861E+02
      6.916  0.7285E-03  0.4861E+02
      7.016  0.9889E-08  0.4861E+02
      7.117  0.5516E-16  0.4861E+02
      7.218  0.5089E-08  0.4861E+02
      7.318  0.1248E-02  0.4861E+02
      7.419  0.2051E+00  0.4863E+02
      7.519  0.1658E+00  0.4864E+02
      7.620  0.5350E-03  0.4864E+02
      7.721  0.9275E-07  0.4864E+02
      7.821  0.7695E-02  0.4864E+02
      7.922  0.5160E+00  0.4870E+02
      8.023  0.2213E+00  0.4872E+02
      8.123  0.2724E-03  0.4872E+02
      8.224  0.1582E-01  0.4872E+02
      8.324  0.4012E+00  0.4876E+02
      8.425  0.7978E-01  0.4877E+02
      8.526  0.3079E-04  0.4877E+02
      8.626  0.5756E-11  0.4877E+02
      8.727  0.9919E-14  0.4877E+02
      8.828  0.5412E-06  0.4877E+02
      8.928  0.1250E-01  0.4877E+02
      9.029  0.3024E+00  0.4880E+02
      9.130  0.6198E-01  0.4881E+02
      9.230  0.7891E+00  0.4889E+02
      9.331  0.7089E+00  0.4896E+02
      9.431  0.1021E+01  0.4906E+02
      9.532  0.4576E+00  0.4911E+02
      9.633  0.6033E-03  0.4911E+02
      9.733  0.4320E-09  0.4911E+02
      9.834  0.2734E-07  0.4911E+02
      9.935  0.4316E-02  0.4911E+02
     10.035  0.7418E+00  0.4918E+02
     10.136  0.1453E+01  0.4933E+02
     10.236  0.3972E-01  0.4933E+02
     10.337  0.2997E+00  0.4936E+02
     10.438  0.1942E+00  0.4938E+02
     10.538  0.2521E-01  0.4938E+02
     10.639  0.3157E+00  0.4942E+02
     10.740  0.5944E+00  0.4948E+02
     10.840  0.1592E+01  0.4964E+02
     10.941  0.1063E+01  0.4974E+02
     11.042  0.5805E+00  0.4980E+02
     11.142  0.1098E+01  0.4991E+02
     11.243  0.3388E+01  0.5025E+02
     11.343  0.2349E+01  0.5049E+02
     11.444  0.5149E-01  0.5049E+02
     11.545  0.2314E+00  0.5052E+02
     11.645  0.4439E+00  0.5056E+02
     11.746  0.3072E+00  0.5059E+02
     11.847  0.1278E+01  0.5072E+02
     11.947  0.1956E+01  0.5092E+02
     12.048  0.3816E+01  0.5130E+02
     12.149  0.1237E+01  0.5143E+02
     12.249  0.1616E+01  0.5159E+02
     12.350  0.5906E+00  0.5165E+02
     12.450  0.1035E+01  0.5175E+02
     12.551  0.4596E+00  0.5180E+02
     12.652  0.8622E-02  0.5180E+02
     12.752  0.3709E-06  0.5180E+02
     12.853  0.6916E-14  0.5180E+02
     12.954  0.0000E+00  0.5180E+02
     13.054  0.0000E+00  0.5180E+02
     13.155  0.0000E+00  0.5180E+02
     13.255  0.0000E+00  0.5180E+02
     13.356  0.0000E+00  0.5180E+02
     13.457  0.0000E+00  0.5180E+02
     13.557  0.0000E+00  0.5180E+02
     13.658  0.0000E+00  0.5180E+02
     13.759  0.0000E+00  0.5180E+02
     13.859  0.0000E+00  0.5180E+02
