       N       E                     dE             d eps       ncg     rms          rms(c)
DAV:   1     0.192539925170E+05    0.19254E+05   -0.68827E+05  8400   0.153E+03
DAV:   2     0.181495281304E+04   -0.17439E+05   -0.16820E+05  8288   0.521E+02
DAV:   3    -0.109386351986E+04   -0.29088E+04   -0.26632E+04 11368   0.214E+02
DAV:   4    -0.142247394788E+04   -0.32861E+03   -0.29986E+03 13008   0.720E+01
DAV:   5    -0.143783606678E+04   -0.15362E+02   -0.15100E+02 13008   0.187E+01    0.163E+02
DAV:   6    -0.138030672874E+04    0.57529E+02   -0.24047E+03 11416   0.106E+02    0.188E+02
DAV:   7    -0.119857222525E+04    0.18173E+03   -0.58005E+02  9632   0.888E+01    0.629E+01
DAV:   8    -0.120832169475E+04   -0.97495E+01   -0.14596E+02 11016   0.204E+01    0.348E+01
DAV:   9    -0.120711008897E+04    0.12116E+01   -0.10439E+01  9480   0.547E+00    0.114E+01
DAV:  10    -0.120635790449E+04    0.75218E+00   -0.25215E+00 10632   0.416E+00    0.419E+00
DAV:  11    -0.120633416481E+04    0.23740E-01   -0.49832E-01 12224   0.104E+00    0.216E+00
DAV:  12    -0.120633113550E+04    0.30293E-02   -0.40370E-02 12736   0.420E-01    0.511E-01
DAV:  13    -0.120633114297E+04   -0.74702E-05   -0.15365E-02  9624   0.392E-01    0.234E-01
DAV:  14    -0.120633041769E+04    0.72527E-03   -0.25282E-03  9120   0.171E-01    0.737E-02
DAV:  15    -0.120633044039E+04   -0.22700E-04   -0.41000E-04 12376   0.253E-02    0.242E-02
DAV:  16    -0.120633043544E+04    0.49482E-05   -0.17438E-05 13056   0.937E-03    0.112E-02
DAV:  17    -0.120633043289E+04    0.25589E-05   -0.32152E-06 10048   0.268E-03    0.378E-03
DAV:  18    -0.120633043282E+04    0.67161E-07   -0.12766E-07  5184   0.748E-04
   1 F= -.12624225E+04 E0= -.12621223E+04  d E =-.126242E+04
