 vasp.6.3.1 04May22 (build Jun  1 2022 15:53:57) complex                         
 executed on              LinuxNV date 2022.09.12  13:37:13
 running    1 mpi-ranks, with    1 threads/rank
 distrk:  each k-point on    1 cores,    1 groups
 distr:  one band on NCORE=   1 cores,    1 groups


--------------------------------------------------------------------------------------------------------


 INCAR:
   SYSTEM = NiAl
   ISTART = 0
   EDIFF = 1E-7
   NELMIN = 6
   ISIF = 2
   NSW = 40
   IBRION = 2
   POTIM = 0.2
   IVDW = 12
   PREC = Accurate
   LWAVE = .FALSE.
   LCHARG = .FALSE.
   LREAL = Auto
   NCORE = 1
   LPLANE = .TRUE.
   ENCUT = 360.00 eV
   ISMEAR = 0
   SIGMA = 0.05

 POTCAR:    PAW Ni_GW 31Mar2010                   
 POTCAR:    PAW O_GW 19Mar2012                    
 POTCAR:    PAW Ni_GW 31Mar2010                   
   VRHFIN =Ni:                                                                                      
   LEXCH  = PE                                                                                      
   EATOM  =  1077.6740 eV,   79.2068 Ry                                                             
                                                                                                    
   TITEL  = PAW Ni_GW 31Mar2010                                                                     
   LULTRA =        F    use ultrasoft PP ?                                                          
   IUNSCR =        1    unscreen: 0-lin 1-nonlin 2-no                                               
   RPACOR =    1.800    partial core radius                                                         
   POMASS =   58.690; ZVAL   =   10.000    mass and valenz                                          
   RCORE  =    2.300    outmost cutoff radius                                                       
   RWIGS  =    2.430; RWIGS  =    1.286    wigner-seitz radius (au A)                               
   ENMAX  =  357.323; ENMIN  =  267.992 eV                                                          
   RCLOC  =    1.681    cutoff for local pot                                                        
   LCOR   =        T    correct aug charges                                                         
   LPAW   =        T    paw PP                                                                      
   EAUG   =  802.310                                                                                
   DEXC   =    0.000                                                                                
   RMAX   =    2.357    core radius for proj-oper                                                   
   RAUG   =    1.300    factor for augmentation sphere                                              
   RDEP   =    2.390    radius for radial grids                                                     
   RDEPT  =    1.800    core radius for aug-charge                                                  
                                                                                                    
   Atomic configuration                                                                             
    9 entries                                                                                       
     n  l   j            E        occ.                                                              
     1  0  0.50     -8206.4253   2.0000                                                             
     2  0  0.50      -976.1748   2.0000                                                             
     2  1  1.50      -839.0571   6.0000                                                             
     3  0  0.50      -105.9991   2.0000                                                             
     3  1  1.50       -66.4603   6.0000                                                             
     3  2  2.50        -4.6458   9.0000                                                             
     4  0  0.50        -4.4926   1.0000                                                             
     4  1  1.50        -4.0817   0.0000                                                             
     4  3  2.50        -1.3606   0.0000                                                             
   Description                                                                                      
     l       E           TYP  RCUT    TYP  RCUT                                                     
     2     -4.6457935     23  2.000                                                                 
     2     -6.0063761     23  2.000                                                                 
     0     -4.4925599     23  2.300                                                                 
     0     54.4233040     23  2.300                                                                 
     1     -2.7211652     23  2.300                                                                 
     1     68.0291300     23  2.300                                                                 
     3     27.2116520     23  2.000                                                                 
  local pseudopotential read in
  partial core-charges read in
  partial kinetic energy density read in
  kinetic energy density of atom read in
  atomic valenz-charges read in
  non local Contribution for L=            2  read in
    real space projection operators read in
  non local Contribution for L=            2  read in
    real space projection operators read in
  non local Contribution for L=            0  read in
    real space projection operators read in
  non local Contribution for L=            0  read in
    real space projection operators read in
  non local Contribution for L=            1  read in
    real space projection operators read in
  non local Contribution for L=            1  read in
    real space projection operators read in
  non local Contribution for L=            3  read in
    real space projection operators read in
    PAW grid and wavefunctions read in
 
   number of l-projection  operators is LMAX  =            7
   number of lm-projection operators is LMMAX =           25
 
 POTCAR:    PAW O_GW 19Mar2012                    
   VRHFIN =O: s2p4                                                                                  
   LEXCH  = PE                                                                                      
   EATOM  =   432.3788 eV,   31.7789 Ry                                                             
                                                                                                    
   TITEL  = PAW O_GW 19Mar2012                                                                      
   LULTRA =        F    use ultrasoft PP ?                                                          
   IUNSCR =        1    unscreen: 0-lin 1-nonlin 2-no                                               
   RPACOR =    0.800    partial core radius                                                         
   POMASS =   16.000; ZVAL   =    6.000    mass and valenz                                          
   RCORE  =    1.600    outmost cutoff radius                                                       
   RWIGS  =    1.600; RWIGS  =    0.847    wigner-seitz radius (au A)                               
   ENMAX  =  434.431; ENMIN  =  325.824 eV                                                          
   ICORE  =        3    local potential                                                             
   LCOR   =        T    correct aug charges                                                         
   LPAW   =        T    paw PP                                                                      
   EAUG   = 1139.609                                                                                
   DEXC   =    0.000                                                                                
   RMAX   =    1.629    core radius for proj-oper                                                   
   RAUG   =    1.300    factor for augmentation sphere                                              
   RDEP   =    1.652    radius for radial grids                                                     
   RDEPT  =    1.200    core radius for aug-charge                                                  
                                                                                                    
   Atomic configuration                                                                             
    5 entries                                                                                       
     n  l   j            E        occ.                                                              
     1  0  0.50      -514.6923   2.0000                                                             
     2  0  0.50       -23.9615   2.0000                                                             
     2  1  0.50        -9.0305   4.0000                                                             
     3  2  1.50        -9.5241   0.0000                                                             
     4  3  2.50        -9.5241   0.0000                                                             
   Description                                                                                      
     l       E           TYP  RCUT    TYP  RCUT                                                     
     0    -23.9615316     23  1.150                                                                 
     0    -25.3221142     23  1.150                                                                 
     0    244.9048680     23  1.300                                                                 
     1     -9.0304908     23  1.500                                                                 
     1     -6.9258396     23  1.500                                                                 
     1    122.4524340     23  1.500                                                                 
     2     13.6058260     23  1.500                                                                 
     2    190.4815640     23  1.600                                                                 
     3     54.4233040     23  1.400                                                                 
  local pseudopotential read in
  partial core-charges read in
  partial kinetic energy density read in
  kinetic energy density of atom read in
  atomic valenz-charges read in
  non local Contribution for L=            0  read in
    real space projection operators read in
  non local Contribution for L=            0  read in
    real space projection operators read in
  non local Contribution for L=            0  read in
    real space projection operators read in
  non local Contribution for L=            1  read in
    real space projection operators read in
  non local Contribution for L=            1  read in
    real space projection operators read in
  non local Contribution for L=            1  read in
    real space projection operators read in
  non local Contribution for L=            2  read in
    real space projection operators read in
  non local Contribution for L=            2  read in
    real space projection operators read in
    PAW grid and wavefunctions read in
 
   number of l-projection  operators is LMAX  =            8
   number of lm-projection operators is LMMAX =           22
 
 Optimization of the real space projectors (new method)

 maximal supplied QI-value         = 16.25
 optimisation between [QCUT,QGAM] = [  9.59, 19.34] = [ 25.75,104.73] Ry 
 Optimized for a Real-space Cutoff    1.64 Angstroem

   l    n(q)    QCUT    max X(q) W(low)/X(q) W(high)/X(q)  e(spline) 
   2      9     9.588    94.285    0.11E-03    0.24E-03    0.25E-06
   2      9     9.588    92.549    0.11E-03    0.25E-03    0.25E-06
   0      9     9.588    17.118    0.63E-04    0.22E-04    0.73E-07
   0      9     9.588     8.062    0.52E-04    0.23E-04    0.81E-07
   1      9     9.588     4.910    0.11E-03    0.17E-04    0.12E-06
   1      9     9.588     3.344    0.71E-04    0.11E-04    0.90E-07
   3      8     9.588     5.513    0.79E-05    0.52E-04    0.22E-06
 Optimization of the real space projectors (new method)

 maximal supplied QI-value         = 23.62
 optimisation between [QCUT,QGAM] = [  9.68, 19.37] = [ 26.27,105.06] Ry 
 Optimized for a Real-space Cutoff    2.20 Angstroem

   l    n(q)    QCUT    max X(q) W(low)/X(q) W(high)/X(q)  e(spline) 
   0     13     9.685   116.464    0.16E-03    0.12E-03    0.46E-05
   0     13     9.685   116.329    0.16E-03    0.11E-03    0.44E-05
   0     13     9.685     0.942    0.20E-04    0.45E-04    0.21E-05
   1     12     9.685    29.046    0.16E-03    0.69E-03    0.31E-04
   1     12     9.685    24.247    0.17E-03    0.72E-03    0.32E-04
   1     12     9.685     2.381    0.58E-04    0.24E-03    0.96E-05
   2     12     9.685     2.237    0.71E-05    0.23E-04    0.15E-05
   2     12     9.685     1.850    0.19E-04    0.60E-04    0.25E-05
  PAW Ni_GW 31Mar2010                   :
 energy of atom  1       EATOM=-1077.6740
 kinetic energy error for atom=    0.0556 (will be added to EATOM!!)
  PAW O_GW 19Mar2012                    :
 energy of atom  2       EATOM= -432.3788
 kinetic energy error for atom=    0.3913 (will be added to EATOM!!)
 
 
 POSCAR: Ni4 O4
  positions in direct lattice
  No initial velocities read in
 exchange correlation table for  LEXCH =        8
   RHO(1)=    0.500       N(1)  =     2000
   RHO(2)=  100.500       N(2)  =     4000

 VTST: version 4.2, (08/11/21)

 CHAIN: initializing optimizer
 
 OPT: Using VASP Conjugate-Gradient optimizer
 CHAIN: Read ICHAIN             0
 
 POSCAR: Ni4 O4
  positions in direct lattice
  No initial velocities read in
 


--------------------------------------------------------------------------------------------------------


 ion  position               nearest neighbor table
   1  0.000  0.000  0.000- 109 2.11 163 2.11 190 2.11 165 2.11 127 2.11 196 2.11  28 2.98  55 2.98
                            82 2.98  30 2.98  57 2.98  73 2.98  34 2.98  88 2.98 100 2.98  75 2.98
   2  0.000  0.000  0.333- 164 2.11 163 2.11 110 2.11 191 2.11 128 2.11 197 2.11  29 2.98  56 2.98
                            55 2.98  28 2.98  83 2.98  74 2.98  35 2.98  34 2.98  73 2.98  89 2.98
   3  0.000  0.000  0.667- 165 2.11 111 2.11 192 2.11 129 2.11 164 2.11 198 2.11  30 2.98  57 2.98
                            36 2.98  75 2.98  84 2.98  90 2.98 102 2.98  56 2.98  29 2.98  35 2.98
   4  0.000  0.333  0.000- 193 2.11 190 2.11 112 2.11 166 2.11 130 2.11 168 2.11  31 2.98  85 2.98
                            82 2.98  28 2.98  58 2.98  33 2.98 103 2.98 100 2.98  30 2.98  60 2.98
   5  0.000  0.333  0.333- 167 2.11 194 2.11 191 2.11 166 2.11 113 2.11 131 2.11  32 2.98  31 2.98
                            29 2.98  59 2.98  86 2.98  28 2.98  83 2.98  58 2.98  77 2.98 104 2.98
   6  0.000  0.333  0.667- 168 2.11 195 2.11 192 2.11 114 2.11 167 2.11 132 2.11  33 2.98  30 2.98
                            60 2.98  78 2.98  87 2.98  84 2.98  32 2.98 105 2.98 102 2.98  29 2.98
   7  0.000  0.667  0.000- 196 2.11 169 2.11 115 2.11 171 2.11 193 2.11 133 2.11  34 2.98  88 2.98
                            36 2.98 106 2.98  61 2.98  31 2.98  63 2.98  79 2.98  85 2.98  81 2.98
   8  0.000  0.667  0.333- 197 2.11 170 2.11 169 2.11 116 2.11 194 2.11 134 2.11  35 2.98  34 2.98
                            89 2.98 107 2.98  62 2.98  61 2.98  32 2.98  80 2.98  79 2.98  31 2.98
   9  0.000  0.667  0.667- 171 2.11 198 2.11 117 2.11 135 2.11 195 2.11 170 2.11  36 2.98  63 2.98
                            90 2.98  33 2.98 108 2.98  35 2.98  81 2.98  62 2.98  87 2.98  32 2.98
  10  0.333  0.000  0.000- 118 2.11 109 2.11 172 2.11 199 2.11 174 2.11 205 2.11  64 2.98  91 2.98
                            82 2.98  55 2.98  37 2.98  66 2.98  97 2.98  57 2.98  88 2.98  39 2.98
  11  0.333  0.000  0.333- 119 2.11 173 2.11 172 2.11 110 2.11 200 2.11 206 2.11  65 2.98  64 2.98
                            56 2.98  38 2.98  92 2.98  55 2.98  83 2.98  37 2.98  98 2.98  44 2.98
  12  0.333  0.000  0.667- 174 2.11 120 2.11 111 2.11 201 2.11 173 2.11 207 2.11  66 2.98  57 2.98
                            39 2.98  45 2.98  93 2.98  84 2.98  65 2.98  99 2.98  56 2.98  90 2.98
  13  0.333  0.333  0.000- 121 2.11 202 2.11 199 2.11 112 2.11 175 2.11 177 2.11  94 2.98  91 2.98
                            85 2.98  67 2.98  40 2.98  82 2.98  58 2.98  37 2.98  42 2.98  69 2.98
  14  0.333  0.333  0.333- 122 2.11 176 2.11 203 2.11 113 2.11 200 2.11 175 2.11  41 2.98  68 2.98
                            95 2.98  59 2.98  67 2.98  40 2.98  86 2.98  92 2.98  38 2.98  58 2.98
  15  0.333  0.333  0.667- 177 2.11 123 2.11 204 2.11 201 2.11 114 2.11 176 2.11  42 2.98  69 2.98
                            60 2.98  39 2.98  96 2.98  93 2.98  87 2.98  84 2.98  68 2.98  41 2.98
  16  0.333  0.667  0.000- 205 2.11 124 2.11 115 2.11 178 2.11 202 2.11 180 2.11  97 2.98  88 2.98
                            43 2.98  45 2.98  70 2.98  61 2.98  94 2.98  72 2.98  85 2.98  63 2.98
  17  0.333  0.667  0.333- 206 2.11 179 2.11 125 2.11 116 2.11 178 2.11 203 2.11  44 2.98  98 2.98
                            89 2.98  43 2.98  71 2.98  70 2.98  62 2.98  61 2.98  95 2.98  41 2.98
  18  0.333  0.667  0.667- 180 2.11 207 2.11 126 2.11 117 2.11 204 2.11 179 2.11  45 2.98  72 2.98
                            99 2.98  90 2.98  63 2.98  44 2.98  42 2.98  96 2.98  71 2.98  87 2.98
  19  0.667  0.000  0.000- 127 2.11 181 2.11 208 2.11 183 2.11 118 2.11 214 2.11  73 2.98 100 2.98
                            75 2.98 106 2.98  46 2.98  64 2.98  48 2.98  52 2.98  91 2.98  97 2.98
  20  0.667  0.000  0.333- 128 2.11 182 2.11 181 2.11 209 2.11 119 2.11 215 2.11  74 2.98  73 2.98
                           101 2.98 107 2.98  47 2.98  46 2.98  53 2.98  65 2.98  64 2.98  52 2.98
  21  0.667  0.000  0.667- 129 2.11 183 2.11 210 2.11 120 2.11 182 2.11 216 2.11  75 2.98  48 2.98
                           102 2.98  66 2.98 108 2.98  74 2.98  54 2.98  47 2.98  93 2.98  99 2.98
  22  0.667  0.333  0.000- 130 2.11 211 2.11 208 2.11 184 2.11 121 2.11 186 2.11 103 2.98 100 2.98
                            76 2.98  78 2.98  49 2.98  46 2.98  51 2.98  94 2.98  91 2.98  48 2.98
  23  0.667  0.333  0.333- 131 2.11 185 2.11 212 2.11 209 2.11 184 2.11 122 2.11  77 2.98 104 2.98
                           101 2.98  76 2.98  50 2.98  49 2.98  47 2.98  46 2.98  68 2.98  95 2.98
  24  0.667  0.333  0.667- 132 2.11 186 2.11 213 2.11 210 2.11 185 2.11 123 2.11  78 2.98  51 2.98
                           105 2.98 102 2.98  48 2.98  77 2.98  69 2.98  50 2.98  96 2.98  93 2.98
  25  0.667  0.667  0.000- 133 2.11 214 2.11 187 2.11 189 2.11 211 2.11 124 2.11 106 2.98  79 2.98
                            52 2.98 103 2.98  54 2.98  81 2.98  97 2.98  70 2.98  49 2.98  51 2.98
  26  0.667  0.667  0.333- 134 2.11 215 2.11 188 2.11 187 2.11 212 2.11 125 2.11 107 2.98  80 2.98
                            53 2.98  52 2.98  79 2.98 104 2.98  98 2.98  71 2.98  50 2.98  49 2.98
  27  0.667  0.667  0.667- 135 2.11 189 2.11 216 2.11 126 2.11 213 2.11 188 2.11  54 2.98  81 2.98
                           108 2.98  72 2.98  80 2.98  53 2.98  99 2.98 105 2.98  51 2.98  71 2.98
  28  0.000  0.167  0.167- 166 2.11 191 2.11 136 2.11 190 2.11 163 2.11 154 2.11   5 2.98  58 2.98
                            83 2.98   4 2.98   2 2.98   1 2.98  82 2.98  55 2.98  76 2.98 101 2.98
  29  0.000  0.167  0.500- 191 2.11 167 2.11 137 2.11 164 2.11 155 2.11 192 2.11   5 2.98   2 2.98
                            83 2.98  59 2.98  56 2.98 101 2.98   6 2.98  77 2.98  74 2.98  84 2.98
  30  0.000  0.167  0.833- 192 2.11 168 2.11 138 2.11 165 2.11 190 2.11 156 2.11   6 2.98   3 2.98
                            84 2.98 102 2.98  60 2.98  57 2.98   4 2.98  78 2.98  82 2.98  75 2.98
  31  0.000  0.500  0.167- 166 2.11 194 2.11 193 2.11 139 2.11 157 2.11 169 2.11   5 2.98   4 2.98
                            58 2.98  86 2.98  85 2.98  76 2.98   8 2.98 104 2.98   7 2.98 103 2.98
  32  0.000  0.500  0.500- 167 2.11 194 2.11 140 2.11 170 2.11 158 2.11 195 2.11   5 2.98  59 2.98
                            86 2.98   6 2.98  77 2.98   8 2.98 104 2.98  87 2.98  62 2.98  80 2.98
  33  0.000  0.500  0.833- 195 2.11 168 2.11 141 2.11 171 2.11 193 2.11 159 2.11   6 2.98  87 2.98
                             9 2.98 105 2.98  60 2.98   4 2.98  78 2.98  63 2.98  85 2.98  81 2.98
  34  0.000  0.833  0.167- 169 2.11 197 2.11 196 2.11 142 2.11 163 2.11 160 2.11   8 2.98   7 2.98
                            61 2.98  79 2.98  89 2.98  88 2.98   2 2.98 107 2.98  55 2.98 106 2.98
  35  0.000  0.833  0.500- 170 2.11 197 2.11 143 2.11 161 2.11 164 2.11 198 2.11   8 2.98  62 2.98
                             9 2.98  80 2.98  89 2.98   2 2.98 107 2.98  90 2.98  56 2.98   3 2.98
  36  0.000  0.833  0.833- 171 2.11 198 2.11 144 2.11 162 2.11 196 2.11 165 2.11   9 2.98  63 2.98
                            90 2.98   3 2.98 108 2.98   7 2.98  81 2.98  57 2.98  88 2.98   1 2.98
  37  0.333  0.167  0.167- 145 2.11 136 2.11 175 2.11 200 2.11 199 2.11 172 2.11  67 2.98  92 2.98
                            91 2.98  64 2.98  83 2.98  14 2.98  58 2.98  11 2.98  55 2.98  82 2.98
  38  0.333  0.167  0.500- 146 2.11 200 2.11 176 2.11 137 2.11 173 2.11 201 2.11  92 2.98  68 2.98
                            83 2.98  14 2.98  65 2.98  11 2.98  59 2.98  56 2.98  93 2.98  15 2.98
  39  0.333  0.167  0.833- 201 2.11 147 2.11 177 2.11 138 2.11 174 2.11 199 2.11  93 2.98  84 2.98
                            15 2.98  12 2.98  69 2.98  66 2.98  60 2.98  57 2.98  91 2.98  82 2.98
  40  0.333  0.500  0.167- 148 2.11 175 2.11 139 2.11 203 2.11 202 2.11 178 2.11  67 2.98  58 2.98
                            14 2.98  95 2.98  94 2.98  13 2.98  86 2.98  85 2.98  70 2.98  17 2.98
  41  0.333  0.500  0.500- 149 2.11 176 2.11 203 2.11 140 2.11 179 2.11 204 2.11  14 2.98  68 2.98
                            95 2.98  86 2.98  59 2.98  15 2.98  71 2.98  96 2.98  17 2.98  62 2.98
  42  0.333  0.500  0.833- 204 2.11 177 2.11 150 2.11 141 2.11 202 2.11 180 2.11  15 2.98  96 2.98
                            87 2.98  18 2.98  69 2.98  60 2.98  13 2.98  94 2.98  72 2.98  85 2.98
  43  0.333  0.833  0.167- 178 2.11 151 2.11 142 2.11 206 2.11 205 2.11 172 2.11  70 2.98  61 2.98
                            17 2.98  16 2.98  98 2.98  97 2.98  89 2.98  88 2.98  64 2.98  55 2.98
  44  0.333  0.833  0.500- 179 2.11 152 2.11 206 2.11 143 2.11 173 2.11 207 2.11  17 2.98  71 2.98
                            62 2.98  18 2.98  98 2.98  89 2.98  65 2.98  99 2.98  11 2.98  56 2.98
  45  0.333  0.833  0.833- 180 2.11 207 2.11 153 2.11 144 2.11 205 2.11 174 2.11  18 2.98  72 2.98
                            99 2.98  90 2.98  63 2.98  16 2.98  12 2.98  97 2.98  66 2.98  88 2.98
  46  0.667  0.167  0.167- 154 2.11 184 2.11 209 2.11 208 2.11 181 2.11 145 2.11  76 2.98 101 2.98
                           100 2.98  73 2.98  23 2.98  22 2.98  20 2.98  19 2.98  67 2.98  92 2.98
  47  0.667  0.167  0.500- 155 2.11 209 2.11 185 2.11 182 2.11 146 2.11 210 2.11 101 2.98  77 2.98
                            74 2.98 102 2.98  23 2.98  20 2.98  92 2.98  68 2.98  24 2.98  21 2.98
  48  0.667  0.167  0.833- 156 2.11 210 2.11 186 2.11 183 2.11 208 2.11 147 2.11 102 2.98  78 2.98
                            24 2.98  21 2.98  75 2.98 100 2.98  93 2.98  69 2.98  22 2.98  19 2.98
  49  0.667  0.500  0.167- 157 2.11 184 2.11 212 2.11 211 2.11 148 2.11 187 2.11  76 2.98 104 2.98
                           103 2.98  79 2.98  23 2.98  22 2.98  67 2.98  26 2.98  95 2.98  94 2.98
  50  0.667  0.500  0.500- 158 2.11 185 2.11 212 2.11 188 2.11 149 2.11 213 2.11  77 2.98 104 2.98
                            80 2.98 105 2.98  23 2.98  24 2.98  95 2.98  26 2.98  68 2.98  96 2.98
  51  0.667  0.500  0.833- 159 2.11 213 2.11 186 2.11 189 2.11 211 2.11 150 2.11 105 2.98  78 2.98
                            24 2.98 103 2.98  27 2.98  81 2.98  96 2.98  22 2.98  69 2.98  25 2.98
  52  0.667  0.833  0.167- 160 2.11 187 2.11 215 2.11 214 2.11 181 2.11 151 2.11  79 2.98  26 2.98
                           107 2.98 106 2.98  25 2.98  73 2.98  70 2.98  20 2.98  98 2.98  97 2.98
  53  0.667  0.833  0.500- 161 2.11 188 2.11 215 2.11 152 2.11 182 2.11 216 2.11  80 2.98  26 2.98
                           107 2.98  71 2.98 108 2.98  74 2.98  27 2.98  20 2.98  98 2.98  99 2.98
  54  0.667  0.833  0.833- 162 2.11 189 2.11 216 2.11 153 2.11 214 2.11 183 2.11  27 2.98  81 2.98
                           108 2.98  72 2.98  75 2.98  25 2.98  99 2.98 106 2.98  21 2.98  66 2.98
  55  0.167  0.000  0.167- 110 2.11 172 2.11 136 2.11 163 2.11 109 2.11 142 2.11  11 2.98  37 2.98
                            83 2.98  10 2.98   2 2.98   1 2.98  82 2.98  28 2.98  43 2.98  89 2.98
  56  0.167  0.000  0.500- 110 2.11 173 2.11 164 2.11 137 2.11 111 2.11 143 2.11  11 2.98   2 2.98
                            83 2.98  38 2.98  29 2.98  89 2.98  12 2.98  44 2.98   3 2.98  84 2.98
  57  0.167  0.000  0.833- 111 2.11 174 2.11 165 2.11 138 2.11 109 2.11 144 2.11  12 2.98   3 2.98
                            84 2.98  90 2.98  39 2.98  30 2.98  10 2.98  45 2.98  82 2.98   1 2.98
  58  0.167  0.333  0.167- 139 2.11 136 2.11 113 2.11 175 2.11 166 2.11 112 2.11  40 2.98  86 2.98
                            85 2.98  31 2.98  83 2.98  37 2.98  14 2.98   5 2.98  28 2.98  82 2.98
  59  0.167  0.333  0.500- 113 2.11 140 2.11 137 2.11 176 2.11 167 2.11 114 2.11  86 2.98  41 2.98
                            83 2.98  14 2.98  32 2.98   5 2.98  38 2.98  29 2.98  87 2.98  15 2.98
  60  0.167  0.333  0.833- 114 2.11 141 2.11 138 2.11 177 2.11 168 2.11 112 2.11  87 2.98  84 2.98
                            15 2.98   6 2.98  42 2.98  33 2.98  39 2.98  30 2.98  85 2.98  82 2.98
  61  0.167  0.667  0.167- 142 2.11 116 2.11 178 2.11 169 2.11 115 2.11 139 2.11  43 2.98  89 2.98
                            88 2.98  34 2.98  17 2.98  16 2.98   8 2.98   7 2.98  40 2.98  86 2.98
  62  0.167  0.667  0.500- 143 2.11 116 2.11 179 2.11 170 2.11 140 2.11 117 2.11  89 2.98  44 2.98
                            35 2.98  90 2.98  17 2.98   8 2.98  86 2.98  18 2.98  41 2.98   9 2.98
  63  0.167  0.667  0.833- 117 2.11 144 2.11 180 2.11 171 2.11 141 2.11 115 2.11  90 2.98  45 2.98
                            18 2.98   9 2.98  36 2.98  88 2.98  87 2.98  16 2.98  42 2.98   7 2.98
  64  0.500  0.000  0.167- 172 2.11 119 2.11 145 2.11 118 2.11 151 2.11 181 2.11  11 2.98  10 2.98
                            37 2.98  92 2.98  91 2.98  43 2.98  20 2.98  98 2.98  46 2.98  97 2.98
  65  0.500  0.000  0.500- 119 2.11 173 2.11 146 2.11 152 2.11 120 2.11 182 2.11  11 2.98  38 2.98
                            92 2.98  44 2.98  12 2.98  20 2.98  98 2.98  93 2.98  47 2.98  53 2.98
  66  0.500  0.000  0.833- 120 2.11 174 2.11 147 2.11 153 2.11 118 2.11 183 2.11  12 2.98  93 2.98
                            21 2.98  99 2.98  39 2.98  10 2.98  45 2.98  48 2.98  91 2.98  54 2.98
  67  0.500  0.333  0.167- 148 2.11 175 2.11 122 2.11 145 2.11 121 2.11 184 2.11  40 2.98  37 2.98
                            14 2.98  95 2.98  94 2.98  13 2.98  92 2.98  91 2.98  49 2.98  46 2.98
  68  0.500  0.333  0.500- 122 2.11 149 2.11 176 2.11 146 2.11 123 2.11 185 2.11  14 2.98  41 2.98
                            95 2.98  92 2.98  38 2.98  15 2.98  96 2.98  50 2.98  23 2.98  47 2.98
  69  0.500  0.333  0.833- 123 2.11 150 2.11 177 2.11 147 2.11 121 2.11 186 2.11  15 2.98  96 2.98
                            93 2.98  24 2.98  42 2.98  39 2.98  94 2.98  13 2.98  51 2.98  91 2.98
  70  0.500  0.667  0.167- 151 2.11 178 2.11 125 2.11 124 2.11 148 2.11 187 2.11  43 2.98  98 2.98
                            97 2.98  52 2.98  17 2.98  16 2.98  40 2.98  26 2.98  95 2.98  94 2.98
  71  0.500  0.667  0.500- 152 2.11 125 2.11 179 2.11 126 2.11 149 2.11 188 2.11  44 2.98  98 2.98
                            53 2.98  99 2.98  17 2.98  18 2.98  41 2.98  26 2.98  95 2.98  96 2.98
  72  0.500  0.667  0.833- 126 2.11 153 2.11 180 2.11 124 2.11 150 2.11 189 2.11  99 2.98  45 2.98
                            18 2.98  97 2.98  27 2.98  54 2.98  96 2.98  42 2.98  16 2.98  51 2.98
  73  0.833  0.000  0.167- 181 2.11 128 2.11 154 2.11 127 2.11 163 2.11 160 2.11  20 2.98  19 2.98
                            46 2.98  52 2.98 101 2.98 100 2.98   2 2.98 107 2.98  28 2.98 106 2.98
  74  0.833  0.000  0.500- 182 2.11 128 2.11 155 2.11 161 2.11 164 2.11 129 2.11  20 2.98  47 2.98
                            21 2.98  53 2.98 101 2.98   2 2.98 107 2.98 102 2.98  29 2.98  35 2.98
  75  0.833  0.000  0.833- 129 2.11 183 2.11 156 2.11 162 2.11 165 2.11 127 2.11  21 2.98  48 2.98
                           102 2.98   3 2.98 108 2.98  19 2.98  54 2.98  30 2.98 100 2.98  36 2.98
  76  0.833  0.333  0.167- 184 2.11 157 2.11 131 2.11 154 2.11 130 2.11 166 2.11  49 2.98  46 2.98
                            23 2.98  22 2.98 104 2.98 103 2.98 101 2.98 100 2.98  31 2.98  28 2.98
  77  0.833  0.333  0.500- 185 2.11 158 2.11 131 2.11 155 2.11 167 2.11 132 2.11  23 2.98  50 2.98
                            47 2.98  24 2.98 104 2.98 101 2.98 105 2.98  32 2.98   5 2.98  29 2.98
  78  0.833  0.333  0.833- 132 2.11 186 2.11 159 2.11 156 2.11 168 2.11 130 2.11  24 2.98  51 2.98
                           105 2.98 102 2.98  48 2.98  22 2.98   6 2.98 103 2.98  33 2.98 100 2.98
  79  0.833  0.667  0.167- 160 2.11 187 2.11 134 2.11 133 2.11 169 2.11 157 2.11  52 2.98  26 2.98
                           107 2.98 106 2.98  25 2.98  49 2.98  34 2.98   8 2.98 104 2.98 103 2.98
  80  0.833  0.667  0.500- 161 2.11 188 2.11 134 2.11 135 2.11 170 2.11 158 2.11  53 2.98  26 2.98
                           107 2.98  35 2.98 108 2.98  50 2.98  27 2.98   8 2.98 104 2.98 105 2.98
  81  0.833  0.667  0.833- 135 2.11 162 2.11 189 2.11 133 2.11 171 2.11 159 2.11  27 2.98  54 2.98
                           108 2.98  36 2.98  51 2.98  25 2.98 105 2.98 106 2.98   9 2.98  33 2.98
  82  0.167  0.167  0.000- 112 2.11 199 2.11 136 2.11 190 2.11 109 2.11 138 2.11  13 2.98  37 2.98
                            58 2.98  10 2.98   4 2.98   1 2.98  55 2.98  28 2.98  39 2.98  60 2.98
  83  0.167  0.167  0.333- 137 2.11 136 2.11 113 2.11 200 2.11 191 2.11 110 2.11  38 2.98  59 2.98
                            56 2.98  29 2.98  37 2.98  58 2.98  14 2.98   5 2.98  28 2.98  55 2.98
  84  0.167  0.167  0.667- 138 2.11 114 2.11 201 2.11 192 2.11 111 2.11 137 2.11  39 2.98  60 2.98
                            57 2.98  30 2.98  15 2.98  12 2.98   6 2.98   3 2.98  59 2.98  38 2.98
  85  0.167  0.500  0.000- 112 2.11 202 2.11 193 2.11 139 2.11 115 2.11 141 2.11  13 2.98   4 2.98
                            58 2.98  40 2.98  31 2.98  60 2.98  16 2.98  42 2.98   7 2.98  33 2.98
  86  0.167  0.500  0.333- 113 2.11 140 2.11 139 2.11 203 2.11 194 2.11 116 2.11  59 2.98  41 2.98
                            58 2.98  14 2.98  32 2.98   5 2.98  40 2.98  31 2.98  62 2.98  61 2.98
  87  0.167  0.500  0.667- 141 2.11 114 2.11 204 2.11 195 2.11 140 2.11 117 2.11  60 2.98  42 2.98
                            33 2.98  63 2.98  15 2.98   6 2.98  59 2.98  18 2.98  41 2.98   9 2.98
  88  0.167  0.833  0.000- 115 2.11 205 2.11 196 2.11 142 2.11 109 2.11 144 2.11  16 2.98   7 2.98
                            61 2.98  63 2.98  43 2.98  34 2.98  10 2.98  45 2.98  55 2.98   1 2.98
  89  0.167  0.833  0.333- 116 2.11 143 2.11 142 2.11 206 2.11 197 2.11 110 2.11  62 2.98  61 2.98
                            17 2.98   8 2.98  44 2.98  35 2.98  43 2.98  34 2.98  56 2.98  55 2.98
  90  0.167  0.833  0.667- 117 2.11 144 2.11 207 2.11 198 2.11 143 2.11 111 2.11  63 2.98  45 2.98
                            18 2.98   9 2.98  36 2.98  62 2.98  57 2.98  12 2.98  44 2.98   3 2.98
  91  0.500  0.167  0.000- 199 2.11 121 2.11 145 2.11 118 2.11 147 2.11 208 2.11  13 2.98  10 2.98
                            37 2.98  67 2.98  64 2.98  39 2.98  22 2.98  69 2.98  66 2.98  46 2.98
  92  0.500  0.167  0.333- 146 2.11 200 2.11 122 2.11 145 2.11 119 2.11 209 2.11  38 2.98  37 2.98
                            14 2.98  68 2.98  65 2.98  11 2.98  67 2.98  64 2.98  47 2.98  46 2.98
  93  0.500  0.167  0.667- 147 2.11 201 2.11 123 2.11 120 2.11 146 2.11 210 2.11  39 2.98  69 2.98
                            66 2.98  48 2.98  15 2.98  12 2.98  38 2.98  68 2.98  24 2.98  65 2.98
  94  0.500  0.500  0.000- 121 2.11 202 2.11 148 2.11 150 2.11 124 2.11 211 2.11  13 2.98  40 2.98
                            67 2.98  42 2.98  16 2.98  69 2.98  22 2.98  49 2.98  70 2.98  51 2.98
  95  0.500  0.500  0.333- 122 2.11 149 2.11 203 2.11 148 2.11 125 2.11 212 2.11  14 2.98  41 2.98
                            68 2.98  67 2.98  40 2.98  17 2.98  23 2.98  50 2.98  71 2.98  70 2.98
  96  0.500  0.500  0.667- 150 2.11 123 2.11 204 2.11 126 2.11 149 2.11 213 2.11  42 2.98  69 2.98
                            51 2.98  72 2.98  15 2.98  68 2.98  18 2.98  41 2.98  24 2.98  27 2.98
  97  0.500  0.833  0.000- 124 2.11 205 2.11 151 2.11 153 2.11 118 2.11 214 2.11  16 2.98  70 2.98
                            25 2.98  72 2.98  43 2.98  10 2.98  45 2.98  52 2.98  64 2.98  66 2.98
  98  0.500  0.833  0.333- 125 2.11 152 2.11 206 2.11 151 2.11 119 2.11 215 2.11  17 2.98  71 2.98
                            70 2.98  26 2.98  44 2.98  43 2.98  11 2.98  53 2.98  65 2.98  64 2.98
  99  0.500  0.833  0.667- 126 2.11 153 2.11 207 2.11 120 2.11 152 2.11 216 2.11  72 2.98  45 2.98
                            18 2.98  71 2.98  27 2.98  54 2.98  66 2.98  44 2.98  12 2.98  53 2.98
 100  0.833  0.167  0.000- 208 2.11 130 2.11 154 2.11 127 2.11 190 2.11 156 2.11  22 2.98  19 2.98
                            46 2.98  48 2.98  76 2.98  73 2.98   4 2.98  78 2.98  75 2.98  28 2.98
 101  0.833  0.167  0.333- 209 2.11 155 2.11 131 2.11 154 2.11 128 2.11 191 2.11  47 2.98  46 2.98
                            23 2.98  20 2.98  77 2.98  74 2.98  76 2.98  73 2.98  29 2.98  28 2.98
 102  0.833  0.167  0.667- 156 2.11 210 2.11 132 2.11 129 2.11 192 2.11 155 2.11  48 2.98  24 2.98
                            78 2.98  75 2.98  21 2.98  47 2.98  30 2.98  77 2.98   6 2.98  74 2.98
 103  0.833  0.500  0.000- 211 2.11 130 2.11 157 2.11 159 2.11 193 2.11 133 2.11  22 2.98  49 2.98
                            25 2.98  51 2.98  76 2.98  78 2.98   4 2.98  31 2.98  79 2.98  33 2.98
 104  0.833  0.500  0.333- 212 2.11 158 2.11 131 2.11 157 2.11 194 2.11 134 2.11  23 2.98  50 2.98
                            49 2.98  26 2.98  77 2.98  76 2.98   5 2.98  32 2.98  80 2.98  79 2.98
 105  0.833  0.500  0.667- 159 2.11 213 2.11 132 2.11 135 2.11 195 2.11 158 2.11  51 2.98  24 2.98
                            78 2.98  33 2.98  81 2.98  50 2.98  27 2.98  77 2.98   6 2.98   9 2.98
 106  0.833  0.833  0.000- 133 2.11 214 2.11 160 2.11 162 2.11 196 2.11 127 2.11  25 2.98  52 2.98
                            79 2.98   7 2.98  81 2.98  19 2.98  54 2.98  34 2.98  73 2.98  75 2.98
 107  0.833  0.833  0.333- 134 2.11 215 2.11 161 2.11 160 2.11 197 2.11 128 2.11  26 2.98  53 2.98
                            80 2.98  79 2.98  52 2.98  20 2.98   8 2.98  35 2.98  74 2.98  73 2.98
 108  0.833  0.833  0.667- 135 2.11 162 2.11 216 2.11 129 2.11 198 2.11 161 2.11  27 2.98  54 2.98
                            81 2.98  36 2.98  53 2.98  21 2.98  75 2.98  80 2.98   9 2.98  35 2.98
 109  0.167  0.000  0.000-  10 2.11   1 2.11  55 2.11  82 2.11  57 2.11  88 2.11
 110  0.167  0.000  0.333-  56 2.11  55 2.11  11 2.11   2 2.11  83 2.11  89 2.11
 111  0.167  0.000  0.667-  57 2.11  12 2.11   3 2.11  84 2.11  56 2.11  90 2.11
 112  0.167  0.333  0.000-  85 2.11  82 2.11  13 2.11   4 2.11  58 2.11  60 2.11
 113  0.167  0.333  0.333-  59 2.11  86 2.11  14 2.11  83 2.11  58 2.11   5 2.11
 114  0.167  0.333  0.667-  60 2.11  87 2.11  84 2.11  15 2.11   6 2.11  59 2.11
 115  0.167  0.667  0.000-  88 2.11  16 2.11  61 2.11   7 2.11  85 2.11  63 2.11
 116  0.167  0.667  0.333-  89 2.11  62 2.11  17 2.11  61 2.11   8 2.11  86 2.11
 117  0.167  0.667  0.667-  63 2.11  90 2.11  18 2.11   9 2.11  87 2.11  62 2.11
 118  0.500  0.000  0.000-  10 2.11  64 2.11  91 2.11  66 2.11  19 2.11  97 2.11
 119  0.500  0.000  0.333-  11 2.11  65 2.11  64 2.11  92 2.11  20 2.11  98 2.11
 120  0.500  0.000  0.667-  66 2.11  12 2.11  93 2.11  21 2.11  65 2.11  99 2.11
 121  0.500  0.333  0.000-  13 2.11  94 2.11  91 2.11  67 2.11  22 2.11  69 2.11
 122  0.500  0.333  0.333-  14 2.11  68 2.11  95 2.11  92 2.11  67 2.11  23 2.11
 123  0.500  0.333  0.667-  69 2.11  15 2.11  96 2.11  93 2.11  68 2.11  24 2.11
 124  0.500  0.667  0.000-  97 2.11  16 2.11  70 2.11  72 2.11  94 2.11  25 2.11
 125  0.500  0.667  0.333-  98 2.11  71 2.11  17 2.11  70 2.11  95 2.11  26 2.11
 126  0.500  0.667  0.667-  72 2.11  99 2.11  18 2.11  27 2.11  96 2.11  71 2.11
 127  0.833  0.000  0.000-  19 2.11  73 2.11 100 2.11  75 2.11   1 2.11 106 2.11
 128  0.833  0.000  0.333-  20 2.11  74 2.11  73 2.11 101 2.11   2 2.11 107 2.11
 129  0.833  0.000  0.667-  21 2.11  75 2.11 102 2.11   3 2.11  74 2.11 108 2.11
 130  0.833  0.333  0.000-  22 2.11 103 2.11 100 2.11  76 2.11   4 2.11  78 2.11
 131  0.833  0.333  0.333-  23 2.11  77 2.11 104 2.11 101 2.11  76 2.11   5 2.11
 132  0.833  0.333  0.667-  24 2.11  78 2.11 105 2.11 102 2.11  77 2.11   6 2.11
 133  0.833  0.667  0.000-  25 2.11 106 2.11  79 2.11  81 2.11 103 2.11   7 2.11
 134  0.833  0.667  0.333-  26 2.11 107 2.11  80 2.11  79 2.11 104 2.11   8 2.11
 135  0.833  0.667  0.667-  27 2.11  81 2.11 108 2.11   9 2.11 105 2.11  80 2.11
 136  0.167  0.167  0.167-  37 2.11  58 2.11  83 2.11  28 2.11  82 2.11  55 2.11
 137  0.167  0.167  0.500-  83 2.11  59 2.11  38 2.11  29 2.11  56 2.11  84 2.11
 138  0.167  0.167  0.833-  84 2.11  60 2.11  39 2.11  30 2.11  57 2.11  82 2.11
 139  0.167  0.500  0.167-  58 2.11  40 2.11  86 2.11  85 2.11  31 2.11  61 2.11
 140  0.167  0.500  0.500-  59 2.11  86 2.11  41 2.11  32 2.11  62 2.11  87 2.11
 141  0.167  0.500  0.833-  87 2.11  60 2.11  42 2.11  33 2.11  85 2.11  63 2.11
 142  0.167  0.833  0.167-  61 2.11  43 2.11  89 2.11  88 2.11  34 2.11  55 2.11
 143  0.167  0.833  0.500-  62 2.11  89 2.11  44 2.11  35 2.11  56 2.11  90 2.11
 144  0.167  0.833  0.833-  63 2.11  90 2.11  45 2.11  36 2.11  88 2.11  57 2.11
 145  0.500  0.167  0.167-  37 2.11  67 2.11  92 2.11  91 2.11  64 2.11  46 2.11
 146  0.500  0.167  0.500-  38 2.11  92 2.11  68 2.11  65 2.11  47 2.11  93 2.11
 147  0.500  0.167  0.833-  93 2.11  39 2.11  69 2.11  66 2.11  91 2.11  48 2.11
 148  0.500  0.500  0.167-  40 2.11  67 2.11  95 2.11  94 2.11  49 2.11  70 2.11
 149  0.500  0.500  0.500-  41 2.11  68 2.11  95 2.11  71 2.11  50 2.11  96 2.11
 150  0.500  0.500  0.833-  96 2.11  69 2.11  42 2.11  72 2.11  94 2.11  51 2.11
 151  0.500  0.833  0.167-  70 2.11  43 2.11  98 2.11  97 2.11  64 2.11  52 2.11
 152  0.500  0.833  0.500-  71 2.11  44 2.11  98 2.11  53 2.11  65 2.11  99 2.11
 153  0.500  0.833  0.833-  72 2.11  99 2.11  45 2.11  54 2.11  97 2.11  66 2.11
 154  0.833  0.167  0.167-  46 2.11  76 2.11 101 2.11 100 2.11  73 2.11  28 2.11
 155  0.833  0.167  0.500-  47 2.11 101 2.11  77 2.11  74 2.11  29 2.11 102 2.11
 156  0.833  0.167  0.833-  48 2.11 102 2.11  78 2.11  75 2.11 100 2.11  30 2.11
 157  0.833  0.500  0.167-  49 2.11  76 2.11 104 2.11 103 2.11  31 2.11  79 2.11
 158  0.833  0.500  0.500-  50 2.11  77 2.11 104 2.11  80 2.11  32 2.11 105 2.11
 159  0.833  0.500  0.833-  51 2.11 105 2.11  78 2.11  81 2.11 103 2.11  33 2.11
 160  0.833  0.833  0.167-  52 2.11  79 2.11 107 2.11 106 2.11  73 2.11  34 2.11
 161  0.833  0.833  0.500-  53 2.11  80 2.11 107 2.11  35 2.11  74 2.11 108 2.11
 162  0.833  0.833  0.833-  54 2.11  81 2.11 108 2.11  36 2.11 106 2.11  75 2.11
 163  0.000  0.000  0.167-   2 2.11   1 2.11  28 2.11  55 2.11  34 2.11  73 2.11
 164  0.000  0.000  0.500-   2 2.11  29 2.11  56 2.11  35 2.11   3 2.11  74 2.11
 165  0.000  0.000  0.833-   3 2.11  30 2.11  57 2.11  36 2.11   1 2.11  75 2.11
 166  0.000  0.333  0.167-  31 2.11  28 2.11   5 2.11   4 2.11  58 2.11  76 2.11
 167  0.000  0.333  0.500-   5 2.11  32 2.11  29 2.11  59 2.11   6 2.11  77 2.11
 168  0.000  0.333  0.833-   6 2.11  33 2.11  30 2.11  60 2.11   4 2.11  78 2.11
 169  0.000  0.667  0.167-  34 2.11   8 2.11   7 2.11  61 2.11  31 2.11  79 2.11
 170  0.000  0.667  0.500-  35 2.11   8 2.11  62 2.11   9 2.11  32 2.11  80 2.11
 171  0.000  0.667  0.833-   9 2.11  36 2.11  63 2.11   7 2.11  33 2.11  81 2.11
 172  0.333  0.000  0.167-  64 2.11  55 2.11  11 2.11  10 2.11  37 2.11  43 2.11
 173  0.333  0.000  0.500-  11 2.11  65 2.11  56 2.11  38 2.11  12 2.11  44 2.11
 174  0.333  0.000  0.833-  12 2.11  66 2.11  57 2.11  39 2.11  10 2.11  45 2.11
 175  0.333  0.333  0.167-  40 2.11  67 2.11  14 2.11  58 2.11  37 2.11  13 2.11
 176  0.333  0.333  0.500-  14 2.11  41 2.11  68 2.11  59 2.11  38 2.11  15 2.11
 177  0.333  0.333  0.833-  15 2.11  42 2.11  69 2.11  60 2.11  39 2.11  13 2.11
 178  0.333  0.667  0.167-  43 2.11  70 2.11  61 2.11  17 2.11  16 2.11  40 2.11
 179  0.333  0.667  0.500-  44 2.11  17 2.11  71 2.11  62 2.11  41 2.11  18 2.11
 180  0.333  0.667  0.833-  18 2.11  45 2.11  72 2.11  63 2.11  42 2.11  16 2.11
 181  0.667  0.000  0.167-  73 2.11  20 2.11  46 2.11  19 2.11  64 2.11  52 2.11
 182  0.667  0.000  0.500-  74 2.11  20 2.11  47 2.11  53 2.11  65 2.11  21 2.11
 183  0.667  0.000  0.833-  21 2.11  75 2.11  48 2.11  54 2.11  66 2.11  19 2.11
 184  0.667  0.333  0.167-  76 2.11  49 2.11  23 2.11  46 2.11  22 2.11  67 2.11
 185  0.667  0.333  0.500-  77 2.11  50 2.11  23 2.11  47 2.11  68 2.11  24 2.11
 186  0.667  0.333  0.833-  24 2.11  78 2.11  51 2.11  48 2.11  69 2.11  22 2.11
 187  0.667  0.667  0.167-  52 2.11  79 2.11  26 2.11  25 2.11  70 2.11  49 2.11
 188  0.667  0.667  0.500-  53 2.11  80 2.11  26 2.11  27 2.11  71 2.11  50 2.11
 189  0.667  0.667  0.833-  27 2.11  54 2.11  81 2.11  25 2.11  72 2.11  51 2.11
 190  0.000  0.167  0.000-   4 2.11   1 2.11  28 2.11  82 2.11  30 2.11 100 2.11
 191  0.000  0.167  0.333-  29 2.11  28 2.11   5 2.11   2 2.11  83 2.11 101 2.11
 192  0.000  0.167  0.667-  30 2.11   6 2.11   3 2.11  84 2.11  29 2.11 102 2.11
 193  0.000  0.500  0.000-   4 2.11  31 2.11  85 2.11  33 2.11   7 2.11 103 2.11
 194  0.000  0.500  0.333-   5 2.11  32 2.11  31 2.11  86 2.11   8 2.11 104 2.11
 195  0.000  0.500  0.667-  33 2.11   6 2.11  87 2.11   9 2.11  32 2.11 105 2.11
 196  0.000  0.833  0.000-   7 2.11  34 2.11  88 2.11  36 2.11   1 2.11 106 2.11
 197  0.000  0.833  0.333-   8 2.11  35 2.11  34 2.11  89 2.11   2 2.11 107 2.11
 198  0.000  0.833  0.667-   9 2.11  36 2.11  90 2.11   3 2.11  35 2.11 108 2.11
 199  0.333  0.167  0.000-  91 2.11  82 2.11  13 2.11  10 2.11  37 2.11  39 2.11
 200  0.333  0.167  0.333-  38 2.11  92 2.11  14 2.11  83 2.11  37 2.11  11 2.11
 201  0.333  0.167  0.667-  39 2.11  93 2.11  84 2.11  15 2.11  12 2.11  38 2.11
 202  0.333  0.500  0.000-  13 2.11  94 2.11  85 2.11  40 2.11  16 2.11  42 2.11
 203  0.333  0.500  0.333-  14 2.11  41 2.11  95 2.11  86 2.11  40 2.11  17 2.11
 204  0.333  0.500  0.667-  42 2.11  15 2.11  96 2.11  87 2.11  41 2.11  18 2.11
 205  0.333  0.833  0.000-  16 2.11  97 2.11  88 2.11  43 2.11  10 2.11  45 2.11
 206  0.333  0.833  0.333-  17 2.11  44 2.11  98 2.11  89 2.11  43 2.11  11 2.11
 207  0.333  0.833  0.667-  18 2.11  45 2.11  99 2.11  90 2.11  44 2.11  12 2.11
 208  0.667  0.167  0.000- 100 2.11  22 2.11  46 2.11  19 2.11  91 2.11  48 2.11
 209  0.667  0.167  0.333- 101 2.11  47 2.11  23 2.11  46 2.11  20 2.11  92 2.11
 210  0.667  0.167  0.667-  48 2.11 102 2.11  24 2.11  21 2.11  93 2.11  47 2.11
 211  0.667  0.500  0.000- 103 2.11  22 2.11  49 2.11  51 2.11  94 2.11  25 2.11
 212  0.667  0.500  0.333- 104 2.11  50 2.11  23 2.11  49 2.11  95 2.11  26 2.11
 213  0.667  0.500  0.667-  51 2.11 105 2.11  24 2.11  27 2.11  96 2.11  50 2.11
 214  0.667  0.833  0.000-  25 2.11 106 2.11  52 2.11  54 2.11  97 2.11  19 2.11
 215  0.667  0.833  0.333-  26 2.11 107 2.11  53 2.11  52 2.11  98 2.11  20 2.11
 216  0.667  0.833  0.667-  27 2.11  54 2.11 108 2.11  21 2.11  99 2.11  53 2.11
 
  LATTYP: Found a simple cubic cell.
 ALAT       =    12.6498584747
  
  Lattice vectors:
  
 A1 = (  12.6498584747,   0.0000000000,   0.0000000000)
 A2 = (   0.0000000000,  12.6498584747,   0.0000000000)
 A3 = (   0.0000000000,   0.0000000000,  12.6498584747)


Analysis of symmetry for initial positions (statically):
=====================================================================
 Subroutine PRICEL returns following result:
 
  LATTYP: Found a face centered cubic cell.
 ALAT       =     4.2166196265
  
  Lattice vectors:
  
 A1 = (   2.1083098132,  -2.1083098132,   0.0000000000)
 A2 = (   2.1083098132,   0.0000000000,   2.1083098132)
 A3 = (   0.0000000000,  -2.1083098132,   2.1083098006)
 
 108 primitive cells build up your supercell.
 

 Routine SETGRP: Setting up the symmetry group for a 
 simple cubic supercell.


 Subroutine GETGRP returns: Found 48 space group operations
 (whereof 48 operations were pure point group operations)
 out of a pool of 48 trial point group operations.


The static configuration has the point symmetry O_h .


Analysis of symmetry for dynamics (positions and initial velocities):
=====================================================================
 Subroutine PRICEL returns following result:
 
  LATTYP: Found a face centered cubic cell.
 ALAT       =     4.2166196265
  
  Lattice vectors:
  
 A1 = (   2.1083098132,  -2.1083098132,   0.0000000000)
 A2 = (   2.1083098132,   0.0000000000,   2.1083098132)
 A3 = (   0.0000000000,  -2.1083098132,   2.1083098006)
 
 108 primitive cells build up your supercell.
 

 Routine SETGRP: Setting up the symmetry group for a 
 simple cubic supercell.


 Subroutine GETGRP returns: Found 48 space group operations
 (whereof 48 operations were pure point group operations)
 out of a pool of 48 trial point group operations.


The dynamic configuration has the point symmetry O_h .


 Subroutine INISYM returns: Found 48 space group operations
 (whereof 48 operations are pure point group operations),
 and found   108 'primitive' translations


----------------------------------------------------------------------------------------

                                     Primitive cell                                     

  volume of cell :      18.7427

  direct lattice vectors                    reciprocal lattice vectors
     2.108309813 -2.108309813  0.000000000     0.237156797 -0.237156795 -0.237156797
     2.108309813  0.000000000  2.108309813     0.237156795  0.237156795  0.237156797
     0.000000000 -2.108309813  2.108309801    -0.237156797 -0.237156797  0.237156797

  length of vectors
     2.981600332  2.981600332  2.981600323     0.410767620  0.410767619  0.410767621

  position of ions in fractional coordinates (direct lattice)
     0.000000000  0.000000000  0.000000000
     0.500000002  0.499999999  0.499999998

  ion indices of the primitive-cell ions
   primitive index   ion index
                 1           1
                 2         109

----------------------------------------------------------------------------------------

 
 
 KPOINTS: Automatic generation                    

Automatic generation of k-mesh.
 Grid dimensions read from file:
 generate k-points for:    2    2    2

 Generating k-lattice:

  Cartesian coordinates                     Fractional coordinates (reciprocal lattice)
     0.039526134  0.000000000  0.000000000     0.500000000  0.000000000  0.000000000
     0.000000000  0.039526134  0.000000000     0.000000000  0.500000000  0.000000000
     0.000000000  0.000000000  0.039526134     0.000000000  0.000000000  0.500000000

  Length of vectors
     0.039526134  0.039526134  0.039526134

  Shift w.r.t. Gamma in fractional coordinates (k-lattice)
     0.000000000  0.000000000  0.000000000

 
 Subroutine IBZKPT returns following result:
 ===========================================
 
 Found      4 irreducible k-points:
 
 Following reciprocal coordinates:
            Coordinates               Weight
  0.000000  0.000000  0.000000      1.000000
  0.500000  0.000000  0.000000      3.000000
  0.500000  0.500000  0.000000      3.000000
  0.500000  0.500000  0.500000      1.000000
 
 Following cartesian coordinates:
            Coordinates               Weight
  0.000000  0.000000  0.000000      1.000000
  0.039526  0.000000  0.000000      3.000000
  0.039526  0.039526  0.000000      3.000000
  0.039526  0.039526  0.039526      1.000000
 


--------------------------------------------------------------------------------------------------------




 Dimension of arrays:
   k-points           NKPTS =      4   k-points in BZ     NKDIM =      4   number of bands    NBANDS=   1036
   number of dos      NEDOS =    301   number of ions     NIONS =    216
   non local maximal  LDIM  =      8   non local SUM 2l+1 LMDIM =     25
   total plane-waves  NPLWV = 512000
   max r-space proj   IRMAX =  11349   max aug-charges    IRDMAX=   8397
   dimension x,y,z NGX =    80 NGY =   80 NGZ =   80
   dimension x,y,z NGXF=   160 NGYF=  160 NGZF=  160
   support grid    NGXF=   160 NGYF=  160 NGZF=  160
   ions per type =             108 108
   NGX,Y,Z   is equivalent  to a cutoff of  10.51, 10.51, 10.51 a.u.
   NGXF,Y,Z  is equivalent  to a cutoff of  21.03, 21.03, 21.03 a.u.

 SYSTEM =  NiAl                                    
 POSCAR =  Ni4 O4                                  

 Startparameter for this run:
   NWRITE =      2    write-flag & timer
   PREC   = accura    normal or accurate (medium, high low for compatibility)
   ISTART =      0    job   : 0-new  1-cont  2-samecut
   ICHARG =      2    charge: 1-file 2-atom 10-const
   ISPIN  =      1    spin polarized calculation?
   LNONCOLLINEAR =      F non collinear calculations
   LSORBIT =      F    spin-orbit coupling
   INIWAV =      1    electr: 0-lowe 1-rand  2-diag
   LASPH  =      F    aspherical Exc in radial PAW
 Electronic Relaxation 1
   ENCUT  =  360.0 eV  26.46 Ry    5.14 a.u.  19.57 19.57 19.57*2*pi/ulx,y,z
   ENINI  =  360.0     initial cutoff
   ENAUG  = 1139.6 eV  augmentation charge cutoff
   NELM   =     60;   NELMIN=  6; NELMDL= -5     # of ELM steps 
   EDIFF  = 0.1E-06   stopping-criterion for ELM
   LREAL  =      T    real-space projection
   NLSPLINE    = F    spline interpolate recip. space projectors
   LCOMPAT=      F    compatible to vasp.4.4
   GGA_COMPAT  = T    GGA compatible to vasp.4.4-vasp.4.6
   LMAXPAW     = -100 max onsite density
   LMAXMIX     =    2 max onsite mixed and CHGCAR
   VOSKOWN=      0    Vosko Wilk Nusair interpolation
   ROPT   =   -0.00025  -0.00025
 Ionic relaxation
   EDIFFG = 0.1E-05   stopping-criterion for IOM
   NSW    =     40    number of steps for IOM
   NBLOCK =      1;   KBLOCK =     40    inner block; outer block 
   IBRION =      2    ionic relax: 0-MD 1-quasi-New 2-CG
   NFREE  =      1    steps in history (QN), initial steepest desc. (CG)
   ISIF   =      2    stress and relaxation
   IWAVPR =     11    prediction:  0-non 1-charg 2-wave 3-comb
   ISYM   =      2    0-nonsym 1-usesym 2-fastsym
   LCORR  =      T    Harris-Foulkes like correction to forces

   POTIM  = 0.2000    time-step for ionic-motion
   TEIN   =    0.0    initial temperature
   TEBEG  =    0.0;   TEEND  =   0.0 temperature during run
   SMASS  =  -3.00    Nose mass-parameter (am)
   estimated Nose-frequenzy (Omega)   =  0.10E-29 period in steps = 0.31E+47 mass=  -0.366E-26a.u.
   SCALEE = 1.0000    scale energy and forces
   NPACO  =    256;   APACO  = 10.0  distance and # of slots for P.C.
   PSTRESS=    0.0 pullay stress

  Mass of Ions in am
   POMASS =  58.69 16.00
  Ionic Valenz
   ZVAL   =  10.00  6.00
  Atomic Wigner-Seitz radii
   RWIGS  =  -1.00 -1.00
  virtual crystal weights 
   VCA    =   1.00  1.00
   NELECT =    1728.0000    total number of electrons
   NUPDOWN=      -1.0000    fix difference up-down

 DOS related values:
   EMIN   =  10.00;   EMAX   =-10.00  energy-range for DOS
   EFERMI =   0.00
   ISMEAR =     0;   SIGMA  =   0.05  broadening in eV -4-tet -1-fermi 0-gaus

 Electronic relaxation 2 (details)
   IALGO  =     38    algorithm
   LDIAG  =      T    sub-space diagonalisation (order eigenvalues)
   LSUBROT=      F    optimize rotation matrix (better conditioning)
   TURBO    =      0    0=normal 1=particle mesh
   IRESTART =      0    0=no restart 2=restart with 2 vectors
   NREBOOT  =      0    no. of reboots
   NMIN     =      0    reboot dimension
   EREF     =   0.00    reference energy to select bands
   IMIX   =      4    mixing-type and parameters
     AMIX     =   0.40;   BMIX     =  1.00
     AMIX_MAG =   1.60;   BMIX_MAG =  1.00
     AMIN     =   0.10
     WC   =   100.;   INIMIX=   1;  MIXPRE=   1;  MAXMIX= -45

 Intra band minimization:
   WEIMIN = 0.0010     energy-eigenvalue tresh-hold
   EBREAK =  0.24E-10  absolut break condition
   DEPER  =   0.30     relativ break condition  

   TIME   =   0.40     timestep for ELM

  volume/ion in A,a.u.               =       9.37        63.24
  Fermi-wavevector in a.u.,A,eV,Ry     =   1.552996  2.934737 32.814496  2.411797
  Thomas-Fermi vector in A             =   2.657291
 
 Write flags
   LWAVE        =      F    write WAVECAR
   LDOWNSAMPLE  =      F    k-point downsampling of WAVECAR
   LCHARG       =      F    write CHGCAR
   LVTOT        =      F    write LOCPOT, total local potential
   LVHAR        =      F    write LOCPOT, Hartree potential only
   LELF         =      F    write electronic localiz. function (ELF)
   LORBIT       =      0    0 simple, 1 ext, 2 COOP (PROOUT), +10 PAW based schemes


 Dipole corrections
   LMONO  =      F    monopole corrections only (constant potential shift)
   LDIPOL =      F    correct potential (dipole corrections)
   IDIPOL =      0    1-x, 2-y, 3-z, 4-all directions 
   EPSILON=  1.0000000 bulk dielectric constant

 Exchange correlation treatment:
   GGA     =    --    GGA type
   LEXCH   =     8    internal setting for exchange type
   LIBXC   =     F    Libxc                    
   VOSKOWN =     0    Vosko Wilk Nusair interpolation
   LHFCALC =     F    Hartree Fock is set to
   LHFONE  =     F    Hartree Fock one center treatment
   AEXX    =    0.0000 exact exchange contribution

 Linear response parameters
   LEPSILON=     F    determine dielectric tensor
   LRPA    =     F    only Hartree local field effects (RPA)
   LNABLA  =     F    use nabla operator in PAW spheres
   LVEL    =     F    velocity operator in full k-point grid
   CSHIFT  =0.1000    complex shift for real part using Kramers Kronig
   OMEGAMAX=  -1.0    maximum frequency
   DEG_THRESHOLD= 0.2000000E-02 threshold for treating states as degnerate
   RTIME   =   -0.100 relaxation time in fs
  (WPLASMAI=    0.000 imaginary part of plasma frequency in eV, 0.658/RTIME)
   DFIELD  = 0.0000000 0.0000000 0.0000000 field for delta impulse in time
 
  Optional k-point grid parameters
   LKPOINTS_OPT  =     F    use optional k-point grid
   KPOINTS_OPT_MODE=     1    mode for optional k-point grid
 
 Orbital magnetization related:
   ORBITALMAG=     F  switch on orbital magnetization
   LCHIMAG   =     F  perturbation theory with respect to B field
   DQ        =  0.001000  dq finite difference perturbation B field
   LLRAUG    =     F  two centre corrections for induced B field



--------------------------------------------------------------------------------------------------------


 conjugate gradient relaxation of ions
 charge density and potential will be updated during run
 non-spin polarized calculation
 Variant of blocked Davidson
 Davidson routine will perform the subspace rotation
 perform sub-space diagonalisation
    after iterative eigenvector-optimisation
 modified Broyden-mixing scheme, WC =      100.0
 initial mixing is a Kerker type mixing with AMIX =  0.4000 and BMIX =      1.0000
 Hartree-type preconditioning will be used
 using additional bands           172
 real space projection scheme for non local part
 use partial core corrections
 calculate Harris-corrections to forces 
   (improved forces if not selfconsistent)
 use gradient corrections 
 use of overlap-Matrix (Vanderbilt PP)
 Gauss-broadening in eV      SIGMA  =   0.05


--------------------------------------------------------------------------------------------------------


  energy-cutoff  :      360.00
  volume of cell :     2024.22
      direct lattice vectors                 reciprocal lattice vectors
    12.649858475  0.000000000  0.000000000     0.079052268  0.000000000  0.000000000
     0.000000000 12.649858475  0.000000000     0.000000000  0.079052268  0.000000000
     0.000000000  0.000000000 12.649858475     0.000000000  0.000000000  0.079052268

  length of vectors
    12.649858475 12.649858475 12.649858475     0.079052268  0.079052268  0.079052268


 
 k-points in units of 2pi/SCALE and weight: Automatic generation                    
   0.00000000  0.00000000  0.00000000       0.125
   0.03952613  0.00000000  0.00000000       0.375
   0.03952613  0.03952613  0.00000000       0.375
   0.03952613  0.03952613  0.03952613       0.125
 
 k-points in reciprocal lattice and weights: Automatic generation                    
   0.00000000  0.00000000  0.00000000       0.125
   0.50000000  0.00000000  0.00000000       0.375
   0.50000000  0.50000000  0.00000000       0.375
   0.50000000  0.50000000  0.50000000       0.125
 
 position of ions in fractional coordinates (direct lattice) 
   0.00000000  0.00000000  0.00000000
   0.00000000  0.00000000  0.33333334
   0.00000000  0.00000000  0.66666669
   0.00000000  0.33333334  0.00000000
   0.00000000  0.33333334  0.33333334
   0.00000000  0.33333334  0.66666669
   0.00000000  0.66666669  0.00000000
   0.00000000  0.66666669  0.33333334
   0.00000000  0.66666669  0.66666669
   0.33333334  0.00000000  0.00000000
   0.33333334  0.00000000  0.33333334
   0.33333334  0.00000000  0.66666669
   0.33333334  0.33333334  0.00000000
   0.33333334  0.33333334  0.33333334
   0.33333334  0.33333334  0.66666669
   0.33333334  0.66666669  0.00000000
   0.33333334  0.66666669  0.33333334
   0.33333334  0.66666669  0.66666669
   0.66666669  0.00000000  0.00000000
   0.66666669  0.00000000  0.33333334
   0.66666669  0.00000000  0.66666669
   0.66666669  0.33333334  0.00000000
   0.66666669  0.33333334  0.33333334
   0.66666669  0.33333334  0.66666669
   0.66666669  0.66666669  0.00000000
   0.66666669  0.66666669  0.33333334
   0.66666669  0.66666669  0.66666669
   0.00000000  0.16666667  0.16666667
   0.00000000  0.16666667  0.50000000
   0.00000000  0.16666667  0.83333331
   0.00000000  0.50000000  0.16666667
   0.00000000  0.50000000  0.50000000
   0.00000000  0.50000000  0.83333331
   0.00000000  0.83333331  0.16666667
   0.00000000  0.83333331  0.50000000
   0.00000000  0.83333331  0.83333331
   0.33333334  0.16666667  0.16666667
   0.33333334  0.16666667  0.50000000
   0.33333334  0.16666667  0.83333331
   0.33333334  0.50000000  0.16666667
   0.33333334  0.50000000  0.50000000
   0.33333334  0.50000000  0.83333331
   0.33333334  0.83333331  0.16666667
   0.33333334  0.83333331  0.50000000
   0.33333334  0.83333331  0.83333331
   0.66666669  0.16666667  0.16666667
   0.66666669  0.16666667  0.50000000
   0.66666669  0.16666667  0.83333331
   0.66666669  0.50000000  0.16666667
   0.66666669  0.50000000  0.50000000
   0.66666669  0.50000000  0.83333331
   0.66666669  0.83333331  0.16666667
   0.66666669  0.83333331  0.50000000
   0.66666669  0.83333331  0.83333331
   0.16666667  0.00000000  0.16666667
   0.16666667  0.00000000  0.50000000
   0.16666667  0.00000000  0.83333331
   0.16666667  0.33333334  0.16666667
   0.16666667  0.33333334  0.50000000
   0.16666667  0.33333334  0.83333331
   0.16666667  0.66666669  0.16666667
   0.16666667  0.66666669  0.50000000
   0.16666667  0.66666669  0.83333331
   0.50000000  0.00000000  0.16666667
   0.50000000  0.00000000  0.50000000
   0.50000000  0.00000000  0.83333331
   0.50000000  0.33333334  0.16666667
   0.50000000  0.33333334  0.50000000
   0.50000000  0.33333334  0.83333331
   0.50000000  0.66666669  0.16666667
   0.50000000  0.66666669  0.50000000
   0.50000000  0.66666669  0.83333331
   0.83333331  0.00000000  0.16666667
   0.83333331  0.00000000  0.50000000
   0.83333331  0.00000000  0.83333331
   0.83333331  0.33333334  0.16666667
   0.83333331  0.33333334  0.50000000
   0.83333331  0.33333334  0.83333331
   0.83333331  0.66666669  0.16666667
   0.83333331  0.66666669  0.50000000
   0.83333331  0.66666669  0.83333331
   0.16666667  0.16666667  0.00000000
   0.16666667  0.16666667  0.33333334
   0.16666667  0.16666667  0.66666669
   0.16666667  0.50000000  0.00000000
   0.16666667  0.50000000  0.33333334
   0.16666667  0.50000000  0.66666669
   0.16666667  0.83333331  0.00000000
   0.16666667  0.83333331  0.33333334
   0.16666667  0.83333331  0.66666669
   0.50000000  0.16666667  0.00000000
   0.50000000  0.16666667  0.33333334
   0.50000000  0.16666667  0.66666669
   0.50000000  0.50000000  0.00000000
   0.50000000  0.50000000  0.33333334
   0.50000000  0.50000000  0.66666669
   0.50000000  0.83333331  0.00000000
   0.50000000  0.83333331  0.33333334
   0.50000000  0.83333331  0.66666669
   0.83333331  0.16666667  0.00000000
   0.83333331  0.16666667  0.33333334
   0.83333331  0.16666667  0.66666669
   0.83333331  0.50000000  0.00000000
   0.83333331  0.50000000  0.33333334
   0.83333331  0.50000000  0.66666669
   0.83333331  0.83333331  0.00000000
   0.83333331  0.83333331  0.33333334
   0.83333331  0.83333331  0.66666669
   0.16666667  0.00000000  0.00000000
   0.16666667  0.00000000  0.33333334
   0.16666667  0.00000000  0.66666669
   0.16666667  0.33333334  0.00000000
   0.16666667  0.33333334  0.33333334
   0.16666667  0.33333334  0.66666669
   0.16666667  0.66666669  0.00000000
   0.16666667  0.66666669  0.33333334
   0.16666667  0.66666669  0.66666669
   0.50000000  0.00000000  0.00000000
   0.50000000  0.00000000  0.33333334
   0.50000000  0.00000000  0.66666669
   0.50000000  0.33333334  0.00000000
   0.50000000  0.33333334  0.33333334
   0.50000000  0.33333334  0.66666669
   0.50000000  0.66666669  0.00000000
   0.50000000  0.66666669  0.33333334
   0.50000000  0.66666669  0.66666669
   0.83333331  0.00000000  0.00000000
   0.83333331  0.00000000  0.33333334
   0.83333331  0.00000000  0.66666669
   0.83333331  0.33333334  0.00000000
   0.83333331  0.33333334  0.33333334
   0.83333331  0.33333334  0.66666669
   0.83333331  0.66666669  0.00000000
   0.83333331  0.66666669  0.33333334
   0.83333331  0.66666669  0.66666669
   0.16666667  0.16666667  0.16666667
   0.16666667  0.16666667  0.50000000
   0.16666667  0.16666667  0.83333331
   0.16666667  0.50000000  0.16666667
   0.16666667  0.50000000  0.50000000
   0.16666667  0.50000000  0.83333331
   0.16666667  0.83333331  0.16666667
   0.16666667  0.83333331  0.50000000
   0.16666667  0.83333331  0.83333331
   0.50000000  0.16666667  0.16666667
   0.50000000  0.16666667  0.50000000
   0.50000000  0.16666667  0.83333331
   0.50000000  0.50000000  0.16666667
   0.50000000  0.50000000  0.50000000
   0.50000000  0.50000000  0.83333331
   0.50000000  0.83333331  0.16666667
   0.50000000  0.83333331  0.50000000
   0.50000000  0.83333331  0.83333331
   0.83333331  0.16666667  0.16666667
   0.83333331  0.16666667  0.50000000
   0.83333331  0.16666667  0.83333331
   0.83333331  0.50000000  0.16666667
   0.83333331  0.50000000  0.50000000
   0.83333331  0.50000000  0.83333331
   0.83333331  0.83333331  0.16666667
   0.83333331  0.83333331  0.50000000
   0.83333331  0.83333331  0.83333331
   0.00000000  0.00000000  0.16666667
   0.00000000  0.00000000  0.50000000
   0.00000000  0.00000000  0.83333331
   0.00000000  0.33333334  0.16666667
   0.00000000  0.33333334  0.50000000
   0.00000000  0.33333334  0.83333331
   0.00000000  0.66666669  0.16666667
   0.00000000  0.66666669  0.50000000
   0.00000000  0.66666669  0.83333331
   0.33333334  0.00000000  0.16666667
   0.33333334  0.00000000  0.50000000
   0.33333334  0.00000000  0.83333331
   0.33333334  0.33333334  0.16666667
   0.33333334  0.33333334  0.50000000
   0.33333334  0.33333334  0.83333331
   0.33333334  0.66666669  0.16666667
   0.33333334  0.66666669  0.50000000
   0.33333334  0.66666669  0.83333331
   0.66666669  0.00000000  0.16666667
   0.66666669  0.00000000  0.50000000
   0.66666669  0.00000000  0.83333331
   0.66666669  0.33333334  0.16666667
   0.66666669  0.33333334  0.50000000
   0.66666669  0.33333334  0.83333331
   0.66666669  0.66666669  0.16666667
   0.66666669  0.66666669  0.50000000
   0.66666669  0.66666669  0.83333331
   0.00000000  0.16666667  0.00000000
   0.00000000  0.16666667  0.33333334
   0.00000000  0.16666667  0.66666669
   0.00000000  0.50000000  0.00000000
   0.00000000  0.50000000  0.33333334
   0.00000000  0.50000000  0.66666669
   0.00000000  0.83333331  0.00000000
   0.00000000  0.83333331  0.33333334
   0.00000000  0.83333331  0.66666669
   0.33333334  0.16666667  0.00000000
   0.33333334  0.16666667  0.33333334
   0.33333334  0.16666667  0.66666669
   0.33333334  0.50000000  0.00000000
   0.33333334  0.50000000  0.33333334
   0.33333334  0.50000000  0.66666669
   0.33333334  0.83333331  0.00000000
   0.33333334  0.83333331  0.33333334
   0.33333334  0.83333331  0.66666669
   0.66666669  0.16666667  0.00000000
   0.66666669  0.16666667  0.33333334
   0.66666669  0.16666667  0.66666669
   0.66666669  0.50000000  0.00000000
   0.66666669  0.50000000  0.33333334
   0.66666669  0.50000000  0.66666669
   0.66666669  0.83333331  0.00000000
   0.66666669  0.83333331  0.33333334
   0.66666669  0.83333331  0.66666669
 
 position of ions in cartesian coordinates  (Angst):
   0.00000000  0.00000000  0.00000000
   0.00000000  0.00000000  4.21661961
   0.00000000  0.00000000  8.43323924
   0.00000000  4.21661961  0.00000000
   0.00000000  4.21661961  4.21661961
   0.00000000  4.21661961  8.43323924
   0.00000000  8.43323924  0.00000000
   0.00000000  8.43323924  4.21661961
   0.00000000  8.43323924  8.43323924
   4.21661961  0.00000000  0.00000000
   4.21661961  0.00000000  4.21661961
   4.21661961  0.00000000  8.43323924
   4.21661961  4.21661961  0.00000000
   4.21661961  4.21661961  4.21661961
   4.21661961  4.21661961  8.43323924
   4.21661961  8.43323924  0.00000000
   4.21661961  8.43323924  4.21661961
   4.21661961  8.43323924  8.43323924
   8.43323924  0.00000000  0.00000000
   8.43323924  0.00000000  4.21661961
   8.43323924  0.00000000  8.43323924
   8.43323924  4.21661961  0.00000000
   8.43323924  4.21661961  4.21661961
   8.43323924  4.21661961  8.43323924
   8.43323924  8.43323924  0.00000000
   8.43323924  8.43323924  4.21661961
   8.43323924  8.43323924  8.43323924
   0.00000000  2.10830981  2.10830981
   0.00000000  2.10830981  6.32492924
   0.00000000  2.10830981 10.54154847
   0.00000000  6.32492924  2.10830981
   0.00000000  6.32492924  6.32492924
   0.00000000  6.32492924 10.54154847
   0.00000000 10.54154847  2.10830981
   0.00000000 10.54154847  6.32492924
   0.00000000 10.54154847 10.54154847
   4.21661961  2.10830981  2.10830981
   4.21661961  2.10830981  6.32492924
   4.21661961  2.10830981 10.54154847
   4.21661961  6.32492924  2.10830981
   4.21661961  6.32492924  6.32492924
   4.21661961  6.32492924 10.54154847
   4.21661961 10.54154847  2.10830981
   4.21661961 10.54154847  6.32492924
   4.21661961 10.54154847 10.54154847
   8.43323924  2.10830981  2.10830981
   8.43323924  2.10830981  6.32492924
   8.43323924  2.10830981 10.54154847
   8.43323924  6.32492924  2.10830981
   8.43323924  6.32492924  6.32492924
   8.43323924  6.32492924 10.54154847
   8.43323924 10.54154847  2.10830981
   8.43323924 10.54154847  6.32492924
   8.43323924 10.54154847 10.54154847
   2.10830981  0.00000000  2.10830981
   2.10830981  0.00000000  6.32492924
   2.10830981  0.00000000 10.54154847
   2.10830981  4.21661961  2.10830981
   2.10830981  4.21661961  6.32492924
   2.10830981  4.21661961 10.54154847
   2.10830981  8.43323924  2.10830981
   2.10830981  8.43323924  6.32492924
   2.10830981  8.43323924 10.54154847
   6.32492924  0.00000000  2.10830981
   6.32492924  0.00000000  6.32492924
   6.32492924  0.00000000 10.54154847
   6.32492924  4.21661961  2.10830981
   6.32492924  4.21661961  6.32492924
   6.32492924  4.21661961 10.54154847
   6.32492924  8.43323924  2.10830981
   6.32492924  8.43323924  6.32492924
   6.32492924  8.43323924 10.54154847
  10.54154847  0.00000000  2.10830981
  10.54154847  0.00000000  6.32492924
  10.54154847  0.00000000 10.54154847
  10.54154847  4.21661961  2.10830981
  10.54154847  4.21661961  6.32492924
  10.54154847  4.21661961 10.54154847
  10.54154847  8.43323924  2.10830981
  10.54154847  8.43323924  6.32492924
  10.54154847  8.43323924 10.54154847
   2.10830981  2.10830981  0.00000000
   2.10830981  2.10830981  4.21661961
   2.10830981  2.10830981  8.43323924
   2.10830981  6.32492924  0.00000000
   2.10830981  6.32492924  4.21661961
   2.10830981  6.32492924  8.43323924
   2.10830981 10.54154847  0.00000000
   2.10830981 10.54154847  4.21661961
   2.10830981 10.54154847  8.43323924
   6.32492924  2.10830981  0.00000000
   6.32492924  2.10830981  4.21661961
   6.32492924  2.10830981  8.43323924
   6.32492924  6.32492924  0.00000000
   6.32492924  6.32492924  4.21661961
   6.32492924  6.32492924  8.43323924
   6.32492924 10.54154847  0.00000000
   6.32492924 10.54154847  4.21661961
   6.32492924 10.54154847  8.43323924
  10.54154847  2.10830981  0.00000000
  10.54154847  2.10830981  4.21661961
  10.54154847  2.10830981  8.43323924
  10.54154847  6.32492924  0.00000000
  10.54154847  6.32492924  4.21661961
  10.54154847  6.32492924  8.43323924
  10.54154847 10.54154847  0.00000000
  10.54154847 10.54154847  4.21661961
  10.54154847 10.54154847  8.43323924
   2.10830981  0.00000000  0.00000000
   2.10830981  0.00000000  4.21661961
   2.10830981  0.00000000  8.43323924
   2.10830981  4.21661961  0.00000000
   2.10830981  4.21661961  4.21661961
   2.10830981  4.21661961  8.43323924
   2.10830981  8.43323924  0.00000000
   2.10830981  8.43323924  4.21661961
   2.10830981  8.43323924  8.43323924
   6.32492924  0.00000000  0.00000000
   6.32492924  0.00000000  4.21661961
   6.32492924  0.00000000  8.43323924
   6.32492924  4.21661961  0.00000000
   6.32492924  4.21661961  4.21661961
   6.32492924  4.21661961  8.43323924
   6.32492924  8.43323924  0.00000000
   6.32492924  8.43323924  4.21661961
   6.32492924  8.43323924  8.43323924
  10.54154847  0.00000000  0.00000000
  10.54154847  0.00000000  4.21661961
  10.54154847  0.00000000  8.43323924
  10.54154847  4.21661961  0.00000000
  10.54154847  4.21661961  4.21661961
  10.54154847  4.21661961  8.43323924
  10.54154847  8.43323924  0.00000000
  10.54154847  8.43323924  4.21661961
  10.54154847  8.43323924  8.43323924
   2.10830981  2.10830981  2.10830981
   2.10830981  2.10830981  6.32492924
   2.10830981  2.10830981 10.54154847
   2.10830981  6.32492924  2.10830981
   2.10830981  6.32492924  6.32492924
   2.10830981  6.32492924 10.54154847
   2.10830981 10.54154847  2.10830981
   2.10830981 10.54154847  6.32492924
   2.10830981 10.54154847 10.54154847
   6.32492924  2.10830981  2.10830981
   6.32492924  2.10830981  6.32492924
   6.32492924  2.10830981 10.54154847
   6.32492924  6.32492924  2.10830981
   6.32492924  6.32492924  6.32492924
   6.32492924  6.32492924 10.54154847
   6.32492924 10.54154847  2.10830981
   6.32492924 10.54154847  6.32492924
   6.32492924 10.54154847 10.54154847
  10.54154847  2.10830981  2.10830981
  10.54154847  2.10830981  6.32492924
  10.54154847  2.10830981 10.54154847
  10.54154847  6.32492924  2.10830981
  10.54154847  6.32492924  6.32492924
  10.54154847  6.32492924 10.54154847
  10.54154847 10.54154847  2.10830981
  10.54154847 10.54154847  6.32492924
  10.54154847 10.54154847 10.54154847
   0.00000000  0.00000000  2.10830981
   0.00000000  0.00000000  6.32492924
   0.00000000  0.00000000 10.54154847
   0.00000000  4.21661961  2.10830981
   0.00000000  4.21661961  6.32492924
   0.00000000  4.21661961 10.54154847
   0.00000000  8.43323924  2.10830981
   0.00000000  8.43323924  6.32492924
   0.00000000  8.43323924 10.54154847
   4.21661961  0.00000000  2.10830981
   4.21661961  0.00000000  6.32492924
   4.21661961  0.00000000 10.54154847
   4.21661961  4.21661961  2.10830981
   4.21661961  4.21661961  6.32492924
   4.21661961  4.21661961 10.54154847
   4.21661961  8.43323924  2.10830981
   4.21661961  8.43323924  6.32492924
   4.21661961  8.43323924 10.54154847
   8.43323924  0.00000000  2.10830981
   8.43323924  0.00000000  6.32492924
   8.43323924  0.00000000 10.54154847
   8.43323924  4.21661961  2.10830981
   8.43323924  4.21661961  6.32492924
   8.43323924  4.21661961 10.54154847
   8.43323924  8.43323924  2.10830981
   8.43323924  8.43323924  6.32492924
   8.43323924  8.43323924 10.54154847
   0.00000000  2.10830981  0.00000000
   0.00000000  2.10830981  4.21661961
   0.00000000  2.10830981  8.43323924
   0.00000000  6.32492924  0.00000000
   0.00000000  6.32492924  4.21661961
   0.00000000  6.32492924  8.43323924
   0.00000000 10.54154847  0.00000000
   0.00000000 10.54154847  4.21661961
   0.00000000 10.54154847  8.43323924
   4.21661961  2.10830981  0.00000000
   4.21661961  2.10830981  4.21661961
   4.21661961  2.10830981  8.43323924
   4.21661961  6.32492924  0.00000000
   4.21661961  6.32492924  4.21661961
   4.21661961  6.32492924  8.43323924
   4.21661961 10.54154847  0.00000000
   4.21661961 10.54154847  4.21661961
   4.21661961 10.54154847  8.43323924
   8.43323924  2.10830981  0.00000000
   8.43323924  2.10830981  4.21661961
   8.43323924  2.10830981  8.43323924
   8.43323924  6.32492924  0.00000000
   8.43323924  6.32492924  4.21661961
   8.43323924  6.32492924  8.43323924
   8.43323924 10.54154847  0.00000000
   8.43323924 10.54154847  4.21661961
   8.43323924 10.54154847  8.43323924
 


--------------------------------------------------------------------------------------------------------


 k-point   1 :   0.0000 0.0000 0.0000  plane waves:   31439
 k-point   2 :   0.5000 0.0000 0.0000  plane waves:   31464
 k-point   3 :   0.5000 0.5000 0.0000  plane waves:   31400
 k-point   4 :   0.5000 0.5000 0.5000  plane waves:   31408

 maximum and minimum number of plane-waves per node :     31464    31400

 maximum number of plane-waves:     31464
 maximum index in each direction: 
   IXMAX=   19   IYMAX=   19   IZMAX=   19
   IXMIN=  -20   IYMIN=  -20   IZMIN=  -20


 serial   3D FFT for wavefunctions
 parallel 3D FFT for charge:
    minimum data exchange during FFTs selected (reduces bandwidth)


 total amount of memory used by VASP MPI-rank0  3231208. kBytes
=======================================================================

   base      :      30000. kBytes
   nonlr-proj:     378874. kBytes
   fftplans  :     141100. kBytes
   grid      :     252006. kBytes
   one-center:       6480. kBytes
   wavefun   :    2422748. kBytes
 
     INWAV:  cpu time      0.0001: real time      0.0002
 Broyden mixing: mesh for mixing (old mesh)
   NGX = 39   NGY = 39   NGZ = 39
  (NGX  =160   NGY  =160   NGZ  =160)
  gives a total of  59319 points

 initial charge density was supplied:
 charge density of overlapping atoms calculated
 number of electron    1728.0000000 magnetization 
 keeping initial charge density in first step


--------------------------------------------------------------------------------------------------------


 Maximum index for non-local projection operator         11019
 Maximum index for augmentation-charges          8025 (set IRDMAX)


--------------------------------------------------------------------------------------------------------


 First call to EWALD:  gamma=   0.140
 Maximum number of real-space cells 3x 3x 3
 Maximum number of reciprocal cells 3x 3x 3

    FEWALD:  cpu time      0.2528: real time      0.2536


--------------------------------------- Iteration      1(   1)  ---------------------------------------


    POTLOK:  cpu time      0.0666: real time      0.0672
    SETDIJ:  cpu time      0.3591: real time      0.3607
     EDDAV:  cpu time     17.7148: real time     17.8642
       DOS:  cpu time      0.0030: real time      0.0030
    --------------------------------------------
      LOOP:  cpu time     18.1436: real time     18.2951

 eigenvalue-minimisations  :  8400
 total energy-change (2. order) : 0.1925399E+05  (-0.6882676E+05)
 number of electron    1728.0000000 magnetization 
 augmentation part     1728.0000000 magnetization 

 Free energy of the ion-electron system (eV)
  ---------------------------------------------------
  alpha Z        PSCENC =     11022.90964078
  Ewald energy   TEWEN  =   -139102.51371124
  -Hartree energ DENC   =    -33173.23799414
  -exchange      EXHF   =         0.00000000
  -V(xc)+E(xc)   XCENC  =      4037.82050523
  PAW double counting   =    140542.89823795  -148839.50927836
  entropy T*S    EENTRO =        -0.05608934
  eigenvalues    EBANDS =     21728.24168063
  atomic energy  EATOM  =    163037.43952548
  Solvation  Ediel_sol  =         0.00000000
  ---------------------------------------------------
  free energy    TOTEN  =     19253.99251700 eV

  energy without entropy =    19254.04860634  energy(sigma->0) =    19254.02056167


--------------------------------------------------------------------------------------------------------




--------------------------------------- Iteration      1(   2)  ---------------------------------------


     EDDAV:  cpu time     17.3426: real time     17.4852
       DOS:  cpu time      0.0032: real time      0.0032
    --------------------------------------------
      LOOP:  cpu time     17.3458: real time     17.4884

 eigenvalue-minimisations  :  8288
 total energy-change (2. order) :-0.1743904E+05  (-0.1682048E+05)
 number of electron    1728.0000000 magnetization 
 augmentation part     1728.0000000 magnetization 

 Free energy of the ion-electron system (eV)
  ---------------------------------------------------
  alpha Z        PSCENC =     11022.90964078
  Ewald energy   TEWEN  =   -139102.51371124
  -Hartree energ DENC   =    -33173.23799414
  -exchange      EXHF   =         0.00000000
  -V(xc)+E(xc)   XCENC  =      4037.82050523
  PAW double counting   =    140542.89823795  -148839.50927836
  entropy T*S    EENTRO =        -0.10241021
  eigenvalues    EBANDS =      4289.24829755
  atomic energy  EATOM  =    163037.43952548
  Solvation  Ediel_sol  =         0.00000000
  ---------------------------------------------------
  free energy    TOTEN  =      1814.95281304 eV

  energy without entropy =     1815.05522326  energy(sigma->0) =     1815.00401815


--------------------------------------------------------------------------------------------------------




--------------------------------------- Iteration      1(   3)  ---------------------------------------


     EDDAV:  cpu time     22.4944: real time     22.6647
       DOS:  cpu time      0.0041: real time      0.0068
    --------------------------------------------
      LOOP:  cpu time     22.4985: real time     22.6715

 eigenvalue-minimisations  : 11368
 total energy-change (2. order) :-0.2908816E+04  (-0.2663190E+04)
 number of electron    1728.0000000 magnetization 
 augmentation part     1728.0000000 magnetization 

 Free energy of the ion-electron system (eV)
  ---------------------------------------------------
  alpha Z        PSCENC =     11022.90964078
  Ewald energy   TEWEN  =   -139102.51371124
  -Hartree energ DENC   =    -33173.23799414
  -exchange      EXHF   =         0.00000000
  -V(xc)+E(xc)   XCENC  =      4037.82050523
  PAW double counting   =    140542.89823795  -148839.50927836
  entropy T*S    EENTRO =        -0.32050452
  eigenvalues    EBANDS =      1380.65005895
  atomic energy  EATOM  =    163037.43952548
[...]
      4.21662      0.00000      0.00000         0.000000      0.000000      0.000000
      4.21662      0.00000      4.21662        -0.000000      0.000000      0.000000
      4.21662      0.00000      8.43324         0.000000      0.000000     -0.000000
      4.21662      4.21662      0.00000        -0.000000     -0.000000      0.000000
      4.21662      4.21662      4.21662         0.000000     -0.000000     -0.000000
      4.21662      4.21662      8.43324        -0.000000     -0.000000     -0.000000
      4.21662      8.43324      0.00000        -0.000000      0.000000     -0.000000
      4.21662      8.43324      4.21662        -0.000000      0.000000     -0.000000
      4.21662      8.43324      8.43324        -0.000000      0.000000      0.000000
      8.43324      0.00000      0.00000         0.000000      0.000000     -0.000000
      8.43324      0.00000      4.21662        -0.000000      0.000000      0.000000
      8.43324      0.00000      8.43324        -0.000000      0.000000      0.000000
      8.43324      4.21662      0.00000        -0.000000     -0.000000      0.000000
      8.43324      4.21662      4.21662        -0.000000     -0.000000      0.000000
      8.43324      4.21662      8.43324         0.000000     -0.000000      0.000000
      8.43324      8.43324      0.00000        -0.000000      0.000000      0.000000
      8.43324      8.43324      4.21662        -0.000000      0.000000      0.000000
      8.43324      8.43324      8.43324        -0.000000      0.000000      0.000000
      0.00000      2.10831      2.10831        -0.000000     -0.000000     -0.000000
      0.00000      2.10831      6.32493         0.000000     -0.000000      0.000000
      0.00000      2.10831     10.54155        -0.000000     -0.000000      0.000000
      0.00000      6.32493      2.10831         0.000000      0.000000      0.000000
      0.00000      6.32493      6.32493        -0.000000      0.000000      0.000000
      0.00000      6.32493     10.54155         0.000000     -0.000000     -0.000000
      0.00000     10.54155      2.10831         0.000000     -0.000000      0.000000
      0.00000     10.54155      6.32493         0.000000     -0.000000      0.000000
      0.00000     10.54155     10.54155        -0.000000     -0.000000      0.000000
      4.21662      2.10831      2.10831         0.000000     -0.000000     -0.000000
      4.21662      2.10831      6.32493        -0.000000     -0.000000     -0.000000
      4.21662      2.10831     10.54155        -0.000000     -0.000000     -0.000000
      4.21662      6.32493      2.10831        -0.000000      0.000000     -0.000000
      4.21662      6.32493      6.32493         0.000000      0.000000      0.000000
      4.21662      6.32493     10.54155        -0.000000      0.000000      0.000000
      4.21662     10.54155      2.10831         0.000000     -0.000000      0.000000
      4.21662     10.54155      6.32493        -0.000000      0.000000     -0.000000
      4.21662     10.54155     10.54155         0.000000      0.000000     -0.000000
      8.43324      2.10831      2.10831         0.000000     -0.000000      0.000000
      8.43324      2.10831      6.32493        -0.000000     -0.000000     -0.000000
      8.43324      2.10831     10.54155         0.000000     -0.000000     -0.000000
      8.43324      6.32493      2.10831        -0.000000      0.000000     -0.000000
      8.43324      6.32493      6.32493         0.000000     -0.000000      0.000000
      8.43324      6.32493     10.54155        -0.000000      0.000000      0.000000
      8.43324     10.54155      2.10831        -0.000000     -0.000000      0.000000
      8.43324     10.54155      6.32493         0.000000     -0.000000      0.000000
      8.43324     10.54155     10.54155        -0.000000     -0.000000      0.000000
      2.10831      0.00000      2.10831        -0.000000      0.000000     -0.000000
      2.10831      0.00000      6.32493        -0.000000      0.000000      0.000000
      2.10831      0.00000     10.54155         0.000000      0.000000     -0.000000
      2.10831      4.21662      2.10831         0.000000     -0.000000     -0.000000
      2.10831      4.21662      6.32493         0.000000     -0.000000     -0.000000
      2.10831      4.21662     10.54155        -0.000000      0.000000      0.000000
      2.10831      8.43324      2.10831        -0.000000      0.000000     -0.000000
      2.10831      8.43324      6.32493         0.000000     -0.000000      0.000000
      2.10831      8.43324     10.54155         0.000000      0.000000     -0.000000
      6.32493      0.00000      2.10831         0.000000      0.000000     -0.000000
      6.32493      0.00000      6.32493         0.000000      0.000000      0.000000
      6.32493      0.00000     10.54155         0.000000      0.000000     -0.000000
      6.32493      4.21662      2.10831         0.000000      0.000000      0.000000
      6.32493      4.21662      6.32493         0.000000     -0.000000     -0.000000
      6.32493      4.21662     10.54155         0.000000     -0.000000      0.000000
      6.32493      8.43324      2.10831         0.000000      0.000000      0.000000
      6.32493      8.43324      6.32493        -0.000000      0.000000      0.000000
      6.32493      8.43324     10.54155        -0.000000      0.000000      0.000000
     10.54155      0.00000      2.10831         0.000000     -0.000000      0.000000
     10.54155      0.00000      6.32493        -0.000000      0.000000      0.000000
     10.54155      0.00000     10.54155        -0.000000     -0.000000      0.000000
     10.54155      4.21662      2.10831        -0.000000     -0.000000     -0.000000
     10.54155      4.21662      6.32493         0.000000     -0.000000      0.000000
     10.54155      4.21662     10.54155         0.000000     -0.000000     -0.000000
     10.54155      8.43324      2.10831         0.000000      0.000000      0.000000
     10.54155      8.43324      6.32493        -0.000000      0.000000     -0.000000
     10.54155      8.43324     10.54155         0.000000      0.000000      0.000000
      2.10831      2.10831      0.00000        -0.000000     -0.000000     -0.000000
      2.10831      2.10831      4.21662         0.000000     -0.000000     -0.000000
      2.10831      2.10831      8.43324        -0.000000     -0.000000      0.000000
      2.10831      6.32493      0.00000        -0.000000     -0.000000     -0.000000
      2.10831      6.32493      4.21662         0.000000     -0.000000     -0.000000
      2.10831      6.32493      8.43324         0.000000      0.000000      0.000000
      2.10831     10.54155      0.00000        -0.000000     -0.000000      0.000000
      2.10831     10.54155      4.21662        -0.000000     -0.000000      0.000000
      2.10831     10.54155      8.43324         0.000000     -0.000000     -0.000000
      6.32493      2.10831      0.00000        -0.000000     -0.000000     -0.000000
      6.32493      2.10831      4.21662        -0.000000     -0.000000      0.000000
      6.32493      2.10831      8.43324         0.000000     -0.000000      0.000000
      6.32493      6.32493      0.00000         0.000000      0.000000      0.000000
      6.32493      6.32493      4.21662         0.000000      0.000000      0.000000
      6.32493      6.32493      8.43324         0.000000      0.000000      0.000000
      6.32493     10.54155      0.00000         0.000000     -0.000000      0.000000
      6.32493     10.54155      4.21662         0.000000     -0.000000      0.000000
      6.32493     10.54155      8.43324        -0.000000     -0.000000      0.000000
     10.54155      2.10831      0.00000         0.000000     -0.000000      0.000000
     10.54155      2.10831      4.21662         0.000000     -0.000000      0.000000
     10.54155      2.10831      8.43324         0.000000     -0.000000     -0.000000
     10.54155      6.32493      0.00000         0.000000      0.000000      0.000000
     10.54155      6.32493      4.21662        -0.000000      0.000000      0.000000
     10.54155      6.32493      8.43324         0.000000     -0.000000      0.000000
     10.54155     10.54155      0.00000        -0.000000     -0.000000      0.000000
     10.54155     10.54155      4.21662         0.000000     -0.000000     -0.000000
     10.54155     10.54155      8.43324        -0.000000     -0.000000      0.000000
      2.10831      0.00000      0.00000         0.000000      0.000000     -0.000000
      2.10831      0.00000      4.21662        -0.000000     -0.000000     -0.000000
      2.10831      0.00000      8.43324         0.000000      0.000000     -0.000000
      2.10831      4.21662      0.00000         0.000000      0.000000      0.000000
      2.10831      4.21662      4.21662         0.000000      0.000000     -0.000000
      2.10831      4.21662      8.43324        -0.000000      0.000000     -0.000000
      2.10831      8.43324      0.00000         0.000000     -0.000000      0.000000
      2.10831      8.43324      4.21662        -0.000000      0.000000      0.000000
      2.10831      8.43324      8.43324        -0.000000     -0.000000     -0.000000
      6.32493      0.00000      0.00000         0.000000      0.000000      0.000000
      6.32493      0.00000      4.21662         0.000000      0.000000      0.000000
      6.32493      0.00000      8.43324         0.000000      0.000000     -0.000000
      6.32493      4.21662      0.00000        -0.000000      0.000000      0.000000
      6.32493      4.21662      4.21662         0.000000     -0.000000      0.000000
      6.32493      4.21662      8.43324         0.000000      0.000000     -0.000000
      6.32493      8.43324      0.00000         0.000000     -0.000000     -0.000000
      6.32493      8.43324      4.21662         0.000000     -0.000000      0.000000
      6.32493      8.43324      8.43324         0.000000     -0.000000     -0.000000
     10.54155      0.00000      0.00000        -0.000000      0.000000      0.000000
     10.54155      0.00000      4.21662         0.000000      0.000000      0.000000
     10.54155      0.00000      8.43324        -0.000000      0.000000      0.000000
     10.54155      4.21662      0.00000        -0.000000      0.000000      0.000000
     10.54155      4.21662      4.21662        -0.000000      0.000000     -0.000000
     10.54155      4.21662      8.43324         0.000000     -0.000000     -0.000000
     10.54155      8.43324      0.00000         0.000000      0.000000      0.000000
     10.54155      8.43324      4.21662        -0.000000     -0.000000      0.000000
     10.54155      8.43324      8.43324        -0.000000     -0.000000     -0.000000
      2.10831      2.10831      2.10831         0.000000      0.000000     -0.000000
      2.10831      2.10831      6.32493         0.000000     -0.000000     -0.000000
      2.10831      2.10831     10.54155         0.000000      0.000000     -0.000000
      2.10831      6.32493      2.10831         0.000000     -0.000000     -0.000000
      2.10831      6.32493      6.32493         0.000000     -0.000000      0.000000
      2.10831      6.32493     10.54155        -0.000000     -0.000000      0.000000
      2.10831     10.54155      2.10831        -0.000000     -0.000000      0.000000
      2.10831     10.54155      6.32493        -0.000000     -0.000000     -0.000000
      2.10831     10.54155     10.54155         0.000000     -0.000000      0.000000
      6.32493      2.10831      2.10831         0.000000      0.000000     -0.000000
      6.32493      2.10831      6.32493         0.000000      0.000000      0.000000
      6.32493      2.10831     10.54155        -0.000000     -0.000000      0.000000
      6.32493      6.32493      2.10831        -0.000000      0.000000      0.000000
      6.32493      6.32493      6.32493         0.000000     -0.000000     -0.000000
      6.32493      6.32493     10.54155         0.000000     -0.000000     -0.000000
      6.32493     10.54155      2.10831         0.000000     -0.000000     -0.000000
      6.32493     10.54155      6.32493         0.000000     -0.000000      0.000000
      6.32493     10.54155     10.54155         0.000000      0.000000     -0.000000
     10.54155      2.10831      2.10831         0.000000     -0.000000      0.000000
     10.54155      2.10831      6.32493         0.000000      0.000000     -0.000000
     10.54155      2.10831     10.54155         0.000000      0.000000     -0.000000
     10.54155      6.32493      2.10831        -0.000000     -0.000000     -0.000000
     10.54155      6.32493      6.32493        -0.000000     -0.000000     -0.000000
     10.54155      6.32493     10.54155         0.000000     -0.000000      0.000000
     10.54155     10.54155      2.10831         0.000000      0.000000     -0.000000
     10.54155     10.54155      6.32493         0.000000     -0.000000      0.000000
     10.54155     10.54155     10.54155         0.000000     -0.000000      0.000000
      0.00000      0.00000      2.10831        -0.000000      0.000000     -0.000000
      0.00000      0.00000      6.32493         0.000000      0.000000     -0.000000
      0.00000      0.00000     10.54155        -0.000000      0.000000      0.000000
      0.00000      4.21662      2.10831        -0.000000      0.000000      0.000000
      0.00000      4.21662      6.32493         0.000000      0.000000      0.000000
      0.00000      4.21662     10.54155         0.000000     -0.000000     -0.000000
      0.00000      8.43324      2.10831        -0.000000     -0.000000     -0.000000
      0.00000      8.43324      6.32493        -0.000000     -0.000000      0.000000
      0.00000      8.43324     10.54155        -0.000000     -0.000000      0.000000
      4.21662      0.00000      2.10831         0.000000      0.000000     -0.000000
      4.21662      0.00000      6.32493         0.000000      0.000000      0.000000
      4.21662      0.00000     10.54155         0.000000      0.000000     -0.000000
      4.21662      4.21662      2.10831         0.000000      0.000000     -0.000000
      4.21662      4.21662      6.32493        -0.000000      0.000000     -0.000000
      4.21662      4.21662     10.54155        -0.000000      0.000000      0.000000
      4.21662      8.43324      2.10831        -0.000000     -0.000000      0.000000
      4.21662      8.43324      6.32493        -0.000000      0.000000     -0.000000
      4.21662      8.43324     10.54155        -0.000000     -0.000000     -0.000000
      8.43324      0.00000      2.10831         0.000000      0.000000     -0.000000
      8.43324      0.00000      6.32493        -0.000000      0.000000      0.000000
      8.43324      0.00000     10.54155         0.000000     -0.000000      0.000000
      8.43324      4.21662      2.10831        -0.000000      0.000000      0.000000
      8.43324      4.21662      6.32493         0.000000     -0.000000     -0.000000
      8.43324      4.21662     10.54155        -0.000000     -0.000000     -0.000000
      8.43324      8.43324      2.10831        -0.000000     -0.000000     -0.000000
      8.43324      8.43324      6.32493        -0.000000     -0.000000      0.000000
      8.43324      8.43324     10.54155         0.000000      0.000000     -0.000000
      0.00000      2.10831      0.00000         0.000000      0.000000     -0.000000
      0.00000      2.10831      4.21662         0.000000      0.000000     -0.000000
      0.00000      2.10831      8.43324         0.000000      0.000000     -0.000000
      0.00000      6.32493      0.00000         0.000000     -0.000000      0.000000
      0.00000      6.32493      4.21662        -0.000000     -0.000000      0.000000
      0.00000      6.32493      8.43324         0.000000      0.000000     -0.000000
      0.00000     10.54155      0.00000        -0.000000     -0.000000      0.000000
      0.00000     10.54155      4.21662         0.000000     -0.000000      0.000000
      0.00000     10.54155      8.43324        -0.000000     -0.000000      0.000000
      4.21662      2.10831      0.00000         0.000000      0.000000     -0.000000
      4.21662      2.10831      4.21662         0.000000      0.000000     -0.000000
      4.21662      2.10831      8.43324        -0.000000      0.000000     -0.000000
      4.21662      6.32493      0.00000        -0.000000      0.000000      0.000000
      4.21662      6.32493      4.21662         0.000000      0.000000      0.000000
      4.21662      6.32493      8.43324         0.000000     -0.000000     -0.000000
      4.21662     10.54155      0.00000         0.000000     -0.000000      0.000000
      4.21662     10.54155      4.21662        -0.000000     -0.000000     -0.000000
      4.21662     10.54155      8.43324         0.000000      0.000000     -0.000000
      8.43324      2.10831      0.00000         0.000000      0.000000      0.000000
      8.43324      2.10831      4.21662        -0.000000      0.000000     -0.000000
      8.43324      2.10831      8.43324        -0.000000      0.000000      0.000000
      8.43324      6.32493      0.00000        -0.000000     -0.000000     -0.000000
      8.43324      6.32493      4.21662         0.000000      0.000000     -0.000000
      8.43324      6.32493      8.43324         0.000000     -0.000000      0.000000
      8.43324     10.54155      0.00000         0.000000     -0.000000      0.000000
      8.43324     10.54155      4.21662        -0.000000     -0.000000      0.000000
      8.43324     10.54155      8.43324         0.000000     -0.000000     -0.000000
 -----------------------------------------------------------------------------------
    total drift:                               -0.005302     -0.005302     -0.005302


--------------------------------------------------------------------------------------------------------



  FREE ENERGIE OF THE ION-ELECTRON SYSTEM (eV)
  ---------------------------------------------------
  free  energy   TOTEN  =     -1262.42247110 eV

  energy  without entropy=    -1261.82206123  energy(sigma->0) =    -1262.12226616
 


--------------------------------------------------------------------------------------------------------


    POTLOK:  cpu time      0.4644: real time      0.4684


--------------------------------------------------------------------------------------------------------


 stress matrix after NEB project (eV)
   -496.47314     -0.00000     -0.00000
     -0.00000   -496.47314      0.00000
      0.00000      0.00000   -496.47314
  FORCES: max atom, RMS     0.000000    0.000000
  FORCE total and by dimension    0.000000    0.000000
  Stress total and by dimension  859.916697  496.473136


--------------------------------------------------------------------------------------------------------


  
 reached required accuracy - stopping structural energy minimisation
     LOOP+:  cpu time    462.0472: real time    465.5122
    4ORBIT:  cpu time      0.0000: real time      0.0000

 total amount of memory used by VASP MPI-rank0  3231208. kBytes
=======================================================================

   base      :      30000. kBytes
   nonlr-proj:     378874. kBytes
   fftplans  :     141100. kBytes
   grid      :     252006. kBytes
   one-center:       6480. kBytes
   wavefun   :    2422748. kBytes
 
  
  
 General timing and accounting informations for this job:
 ========================================================
  
                  Total CPU time used (sec):      481.491
                            User time (sec):      473.818
                          System time (sec):        7.672
                         Elapsed time (sec):      485.294
  
                   Maximum memory used (kb):     5616716.
                   Average memory used (kb):          N/A
  
                          Minor page faults:      4483480
                          Major page faults:            0
                 Voluntary context switches:         9877
