 254 254   0   0
  0.3019211E+02  0.1718057E-08  0.1718057E-08  0.3000000E-08  0.2000000E-15
   1.0000000000000000E-004
  CAR 
 NiAl                                    
      5.31949721    -20.65934280  301      1.84631090      1.00000000
    -20.659  0.0000E+00  0.0000E+00
    -20.573  0.0000E+00  0.0000E+00
    -20.486  0.0000E+00  0.0000E+00
    -20.400  0.0000E+00  0.0000E+00
    -20.313  0.0000E+00  0.0000E+00
    -20.226  0.0000E+00  0.0000E+00
    -20.140  0.0000E+00  0.0000E+00
    -20.053  0.0000E+00  0.0000E+00
    -19.967  0.0000E+00  0.0000E+00
    -19.880  0.0000E+00  0.0000E+00
    -19.793  0.0000E+00  0.0000E+00
    -19.707  0.3011E-10  0.2607E-11
    -19.620  0.1743E-04  0.1510E-05
    -19.534  0.3413E-01  0.2957E-02
    -19.447  0.4350E+00  0.4063E-01
    -19.360  0.1080E+00  0.4998E-01
    -19.274  0.2448E-03  0.5000E-01
    -19.187  0.2082E-08  0.5000E-01
    -19.101  0.6410E-16  0.5000E-01
    -19.014  0.0000E+00  0.5000E-01
    -18.927  0.0000E+00  0.5000E-01
    -18.841  0.0000E+00  0.5000E-01
    -18.754  0.0000E+00  0.5000E-01
    -18.668  0.0000E+00  0.5000E-01
    -18.581  0.5947E-13  0.5000E-01
    -18.494  0.2830E-06  0.5000E-01
    -18.408  0.4167E-02  0.5036E-01
    -18.321  0.2852E+00  0.7506E-01
    -18.235  0.2839E+00  0.9965E-01
    -18.148  0.4097E-02  0.1000E+00
    -18.061  0.2744E-06  0.1000E+00
    -17.975  0.5680E-13  0.1000E+00
    -17.888  0.0000E+00  0.1000E+00
    -17.802  0.0000E+00  0.1000E+00
    -17.715  0.0000E+00  0.1000E+00
    -17.628  0.0000E+00  0.1000E+00
    -17.542  0.0000E+00  0.1000E+00
    -17.455  0.0000E+00  0.1000E+00
    -17.369  0.0000E+00  0.1000E+00
    -17.282  0.0000E+00  0.1000E+00
    -17.195  0.0000E+00  0.1000E+00
    -17.109  0.0000E+00  0.1000E+00
    -17.022  0.0000E+00  0.1000E+00
    -16.936  0.0000E+00  0.1000E+00
    -16.849  0.0000E+00  0.1000E+00
    -16.763  0.0000E+00  0.1000E+00
    -16.676  0.0000E+00  0.1000E+00
    -16.589  0.0000E+00  0.1000E+00
    -16.503  0.0000E+00  0.1000E+00
    -16.416  0.0000E+00  0.1000E+00
    -16.330  0.0000E+00  0.1000E+00
    -16.243  0.0000E+00  0.1000E+00
    -16.156  0.0000E+00  0.1000E+00
    -16.070  0.0000E+00  0.1000E+00
    -15.983  0.0000E+00  0.1000E+00
    -15.897  0.0000E+00  0.1000E+00
    -15.810  0.0000E+00  0.1000E+00
    -15.723  0.0000E+00  0.1000E+00
    -15.637  0.0000E+00  0.1000E+00
    -15.550  0.0000E+00  0.1000E+00
    -15.464  0.0000E+00  0.1000E+00
    -15.377  0.0000E+00  0.1000E+00
    -15.290  0.0000E+00  0.1000E+00
    -15.204  0.0000E+00  0.1000E+00
    -15.117  0.0000E+00  0.1000E+00
    -15.031  0.0000E+00  0.1000E+00
    -14.944  0.0000E+00  0.1000E+00
    -14.857  0.0000E+00  0.1000E+00
    -14.771  0.0000E+00  0.1000E+00
    -14.684  0.0000E+00  0.1000E+00
    -14.598  0.0000E+00  0.1000E+00
    -14.511  0.0000E+00  0.1000E+00
    -14.424  0.0000E+00  0.1000E+00
    -14.338  0.0000E+00  0.1000E+00
    -14.251  0.0000E+00  0.1000E+00
    -14.165  0.0000E+00  0.1000E+00
    -14.078  0.0000E+00  0.1000E+00
    -13.991  0.0000E+00  0.1000E+00
    -13.905  0.0000E+00  0.1000E+00
    -13.818  0.0000E+00  0.1000E+00
    -13.732  0.0000E+00  0.1000E+00
    -13.645  0.0000E+00  0.1000E+00
    -13.558  0.0000E+00  0.1000E+00
    -13.472  0.0000E+00  0.1000E+00
    -13.385  0.0000E+00  0.1000E+00
    -13.299  0.0000E+00  0.1000E+00
    -13.212  0.0000E+00  0.1000E+00
    -13.125  0.0000E+00  0.1000E+00
    -13.039  0.0000E+00  0.1000E+00
    -12.952  0.0000E+00  0.1000E+00
    -12.866  0.0000E+00  0.1000E+00
    -12.779  0.0000E+00  0.1000E+00
    -12.692  0.0000E+00  0.1000E+00
    -12.606  0.0000E+00  0.1000E+00
    -12.519  0.0000E+00  0.1000E+00
    -12.433  0.0000E+00  0.1000E+00
    -12.346  0.0000E+00  0.1000E+00
    -12.260  0.0000E+00  0.1000E+00
    -12.173  0.0000E+00  0.1000E+00
    -12.086  0.0000E+00  0.1000E+00
    -12.000  0.0000E+00  0.1000E+00
    -11.913  0.0000E+00  0.1000E+00
    -11.827  0.0000E+00  0.1000E+00
    -11.740  0.0000E+00  0.1000E+00
    -11.653  0.0000E+00  0.1000E+00
    -11.567  0.0000E+00  0.1000E+00
    -11.480  0.0000E+00  0.1000E+00
    -11.394  0.0000E+00  0.1000E+00
    -11.307  0.0000E+00  0.1000E+00
    -11.220  0.0000E+00  0.1000E+00
    -11.134  0.0000E+00  0.1000E+00
    -11.047  0.0000E+00  0.1000E+00
    -10.961  0.0000E+00  0.1000E+00
    -10.874  0.0000E+00  0.1000E+00
    -10.787  0.0000E+00  0.1000E+00
    -10.701  0.0000E+00  0.1000E+00
    -10.614  0.0000E+00  0.1000E+00
    -10.528  0.0000E+00  0.1000E+00
    -10.441  0.0000E+00  0.1000E+00
    -10.354  0.0000E+00  0.1000E+00
    -10.268  0.0000E+00  0.1000E+00
    -10.181  0.0000E+00  0.1000E+00
    -10.095  0.0000E+00  0.1000E+00
    -10.008  0.0000E+00  0.1000E+00
     -9.921  0.0000E+00  0.1000E+00
     -9.835  0.0000E+00  0.1000E+00
     -9.748  0.0000E+00  0.1000E+00
     -9.662  0.0000E+00  0.1000E+00
     -9.575  0.0000E+00  0.1000E+00
     -9.488  0.3739E-12  0.1000E+00
     -9.402  0.6162E-06  0.1000E+00
     -9.315  0.3268E-02  0.1003E+00
     -9.229  0.9386E-01  0.1084E+00
     -9.142  0.9096E-01  0.1163E+00
     -9.055  0.5975E+00  0.1680E+00
     -8.969  0.2236E+00  0.1874E+00
     -8.882  0.2686E-01  0.1897E+00
     -8.796  0.2256E+00  0.2093E+00
     -8.709  0.8928E+00  0.2866E+00
     -8.622  0.7619E+00  0.3525E+00
     -8.536  0.7234E+00  0.4152E+00
     -8.449  0.1222E+00  0.4258E+00
     -8.363  0.3453E+00  0.4557E+00
     -8.276  0.5083E+00  0.4997E+00
     -8.189  0.6371E+00  0.5548E+00
     -8.103  0.9895E+00  0.6405E+00
     -8.016  0.1419E+01  0.7634E+00
     -7.930  0.5483E+00  0.8109E+00
     -7.843  0.6045E-01  0.8161E+00
     -7.757  0.9113E+00  0.8951E+00
     -7.670  0.1844E+01  0.1055E+01
     -7.583  0.4589E+00  0.1094E+01
     -7.497  0.9396E+00  0.1176E+01
     -7.410  0.4098E+00  0.1211E+01
     -7.324  0.6379E+00  0.1267E+01
     -7.237  0.9292E+00  0.1347E+01
     -7.150  0.1322E+01  0.1462E+01
     -7.064  0.1644E+01  0.1604E+01
     -6.977  0.1334E+01  0.1719E+01
     -6.891  0.7996E+00  0.1789E+01
     -6.804  0.1404E+01  0.1910E+01
     -6.717  0.1478E+01  0.2038E+01
     -6.631  0.1503E+01  0.2168E+01
     -6.544  0.6546E+00  0.2225E+01
     -6.458  0.3409E+00  0.2255E+01
     -6.371  0.7881E+00  0.2323E+01
     -6.284  0.5860E+00  0.2374E+01
     -6.198  0.2075E+01  0.2553E+01
     -6.111  0.1963E+01  0.2723E+01
     -6.025  0.2026E+01  0.2899E+01
     -5.938  0.1339E+01  0.3015E+01
     -5.851  0.1008E+01  0.3102E+01
     -5.765  0.2089E+01  0.3283E+01
     -5.678  0.1398E+01  0.3404E+01
     -5.592  0.1190E+01  0.3507E+01
     -5.505  0.1433E+01  0.3631E+01
     -5.418  0.1310E+01  0.3745E+01
     -5.332  0.1367E+01  0.3863E+01
     -5.245  0.9542E+00  0.3946E+01
     -5.159  0.1669E+01  0.4090E+01
     -5.072  0.2021E+01  0.4265E+01
     -4.985  0.1546E+01  0.4399E+01
     -4.899  0.1089E+01  0.4493E+01
     -4.812  0.1137E+01  0.4592E+01
     -4.726  0.2417E+01  0.4801E+01
     -4.639  0.2196E+01  0.4991E+01
     -4.552  0.1792E+01  0.5146E+01
     -4.466  0.6111E+00  0.5199E+01
     -4.379  0.1249E+01  0.5308E+01
     -4.293  0.1962E+01  0.5477E+01
     -4.206  0.2495E+01  0.5693E+01
     -4.119  0.2826E+01  0.5938E+01
     -4.033  0.1587E+01  0.6076E+01
     -3.946  0.1291E+01  0.6187E+01
     -3.860  0.1150E+01  0.6287E+01
     -3.773  0.2213E+01  0.6479E+01
     -3.687  0.1973E+01  0.6649E+01
     -3.600  0.1897E+01  0.6814E+01
     -3.513  0.9208E+00  0.6893E+01
     -3.427  0.1189E+01  0.6996E+01
     -3.340  0.7750E+00  0.7064E+01
     -3.254  0.1288E+01  0.7175E+01
     -3.167  0.3043E+01  0.7439E+01
     -3.080  0.2382E+01  0.7645E+01
     -2.994  0.1669E+01  0.7789E+01
     -2.907  0.2264E+01  0.7986E+01
     -2.821  0.4282E+01  0.8356E+01
     -2.734  0.2874E+01  0.8605E+01
     -2.647  0.1921E+01  0.8772E+01
     -2.561  0.8965E+00  0.8849E+01
     -2.474  0.9788E+00  0.8934E+01
     -2.388  0.1197E+01  0.9038E+01
     -2.301  0.2127E+01  0.9222E+01
     -2.214  0.2869E+01  0.9470E+01
     -2.128  0.2865E+01  0.9718E+01
     -2.041  0.1197E+01  0.9822E+01
     -1.955  0.6030E+00  0.9874E+01
     -1.868  0.3206E+01  0.1015E+02
     -1.781  0.2877E+01  0.1040E+02
     -1.695  0.1907E+01  0.1057E+02
     -1.608  0.1399E+01  0.1069E+02
     -1.522  0.1836E+01  0.1085E+02
     -1.435  0.2063E+01  0.1102E+02
     -1.348  0.3378E+01  0.1132E+02
     -1.262  0.4370E+01  0.1170E+02
     -1.175  0.2387E+01  0.1190E+02
     -1.089  0.2294E+01  0.1210E+02
     -1.002  0.1765E+01  0.1225E+02
     -0.915  0.1837E+01  0.1241E+02
     -0.829  0.2685E+01  0.1265E+02
     -0.742  0.2268E+01  0.1284E+02
     -0.656  0.1444E+01  0.1297E+02
     -0.569  0.1360E+01  0.1308E+02
     -0.482  0.3636E+01  0.1340E+02
     -0.396  0.3211E+01  0.1368E+02
     -0.309  0.2990E+01  0.1394E+02
     -0.223  0.2650E+01  0.1417E+02
     -0.136  0.1722E+01  0.1432E+02
     -0.049  0.1486E+01  0.1444E+02
      0.037  0.1933E+01  0.1461E+02
      0.124  0.1799E+01  0.1477E+02
      0.210  0.2753E+01  0.1501E+02
      0.297  0.2096E+01  0.1519E+02
      0.384  0.1860E+01  0.1535E+02
      0.470  0.2829E+01  0.1559E+02
      0.557  0.3027E+01  0.1586E+02
      0.643  0.2209E+01  0.1605E+02
      0.730  0.1179E+01  0.1615E+02
      0.816  0.1074E+01  0.1624E+02
      0.903  0.3246E+01  0.1652E+02
      0.990  0.4157E+01  0.1688E+02
      1.076  0.4406E+01  0.1726E+02
      1.163  0.3034E+01  0.1753E+02
      1.249  0.1557E+01  0.1766E+02
      1.336  0.1121E+01  0.1776E+02
      1.423  0.2460E+01  0.1797E+02
      1.509  0.3835E+01  0.1830E+02
      1.596  0.3230E+01  0.1858E+02
      1.682  0.2438E+01  0.1879E+02
      1.769  0.2134E+01  0.1898E+02
      1.856  0.2867E+01  0.1923E+02
      1.942  0.3238E+01  0.1951E+02
      2.029  0.2247E+01  0.1970E+02
      2.115  0.2732E+01  0.1994E+02
      2.202  0.2229E+01  0.2013E+02
      2.289  0.1106E+01  0.2023E+02
      2.375  0.1575E+01  0.2036E+02
      2.462  0.3206E+01  0.2064E+02
      2.548  0.3368E+01  0.2093E+02
      2.635  0.3019E+01  0.2120E+02
      2.722  0.2028E+01  0.2137E+02
      2.808  0.1801E+01  0.2153E+02
      2.895  0.3937E+01  0.2187E+02
      2.981  0.6236E+01  0.2241E+02
      3.068  0.3464E+01  0.2271E+02
      3.155  0.2594E+01  0.2293E+02
      3.241  0.2232E+01  0.2313E+02
      3.328  0.2434E+01  0.2334E+02
      3.414  0.4016E+01  0.2368E+02
      3.501  0.3033E+01  0.2395E+02
      3.588  0.2521E+01  0.2417E+02
      3.674  0.1919E+01  0.2433E+02
      3.761  0.1761E+01  0.2448E+02
      3.847  0.2109E+01  0.2467E+02
      3.934  0.2539E+01  0.2489E+02
      4.021  0.4944E+01  0.2531E+02
      4.107  0.2796E+01  0.2556E+02
      4.194  0.4885E+00  0.2560E+02
      4.280  0.1279E-01  0.2560E+02
      4.367  0.4720E-05  0.2560E+02
      4.454  0.7764E-11  0.2560E+02
      4.540  0.0000E+00  0.2560E+02
      4.627  0.0000E+00  0.2560E+02
      4.713  0.0000E+00  0.2560E+02
      4.800  0.0000E+00  0.2560E+02
      4.887  0.0000E+00  0.2560E+02
      4.973  0.0000E+00  0.2560E+02
      5.060  0.0000E+00  0.2560E+02
      5.146  0.0000E+00  0.2560E+02
      5.233  0.0000E+00  0.2560E+02
      5.319  0.0000E+00  0.2560E+02
