         262
 Energy:  -994.76586999999995      en  -921.80525000000000      edisp  -72.960620000000006     
 X   0.00000000       0.00000000       0.00000000    
 X   0.00000000      -17.1805725       0.00000000    
 X   0.00000000      -8.59028625      -14.8788128    
 X   30.0000000       0.00000000       0.00000000    
 X   0.00000000      -25.7708588      -14.8788128    
 X   30.0000000      -17.1805725       0.00000000    
 X   30.0000000      -8.59028625      -14.8788128    
 X   30.0000000      -25.7708588      -14.8788128    
 Al   16.4439507      -12.9376402      -9.12275028    
 Al   16.2822094      -14.3899899      -6.57075024    
 Al   16.3373108      -15.7641802      -4.11330986    
 Al   16.3367100      -17.1810398      -1.65347004    
 Al   16.3318901      -18.6155605      -4.13111019    
 Al   16.3367100      -20.0440006      -6.61226988    
 Al   16.3431492      -18.6112709      -9.09716988    
 Al   16.3515396      -17.1690807      -11.5657701    
 Al   16.3431492      -15.7523003      -14.0490503    
 Al   16.3271103      -18.6119003      -14.0524397    
 Al   16.3271103      -21.4761105      -14.0524397    
 Al   16.3515396      -22.9189301      -11.5657701    
 Al   16.3431492      -21.4767399      -9.09716988    
 Al   13.9885502      -20.0440006      -9.91751957    
 Al   13.9873304      -18.6103497      -12.3978901    
 Al   11.6967001      -20.0440006      -13.2256098    
 Al   11.6911297      -21.4792805      -10.7430801    
 Al   9.35289001      -22.9064407      -11.5729799    
 Al   9.35383034      -21.4744492      -14.0514803    
 Al   9.35109997      -24.3428993      -14.0538397    
 Al   11.6911297      -22.9115696      -13.2238903    
 Al   13.9873304      -21.4776497      -12.3978901    
 Al   16.3271103      -20.0440006      -11.5719604    
 Al   16.3373108      -17.2052898      -6.60937977    
 Al   13.9794598      -15.7666998      -7.43983984    
 Al   13.9853201      -17.1907597      -4.95372009    
 Al   11.6883602      -18.6108704      -5.78883982    
 Al   11.6867304      -17.1757698      -8.26881981    
 Al   9.35109997      -18.6118202      -9.08854961    
 Al   9.35289001      -17.1815701      -11.5729799    
 Al   7.01515007      -18.6151505      -12.4006596    
 Al   7.01658010      -20.0440006      -9.92591953    
 Al   4.71038008      -21.4766293      -10.7481604    
 Al   4.70238018      -20.0440006      -13.2256098    
 Al   2.35502005      -21.4790592      -14.0541401    
 Al   2.36761999      -22.9097805      -11.5710497    
 Al   2.37217999      -24.3370609      -14.0507698    
 Al   4.71038008      -22.9058495      -13.2236404    
 Al   7.01515007      -21.4728508      -12.4006596    
 Al   9.35383034      -20.0440006      -11.5738697    
 Al   11.6911297      -18.6087208      -10.7430801    
 Al   13.9984198      -17.1803207      -9.92306995    
 Al   11.6980696      -15.7425098      -10.7421398    
 Al   13.9984198      -15.7520800      -12.3968601    
 Al   13.9794598      -12.8947296      -12.4142504    
 Al   16.2822094      -11.4537201      -11.6565304    
 Al   16.3373108      -10.0126104      -14.0753298    
 Al   16.3373108      -12.8948202      -14.0753298    
 Al   16.3567696      -14.3030796      -11.5800600    
 Al   14.0103703      -14.3057699      -9.91263962    
 Al   16.3567696      -15.7484503      -9.07660007    
 Al   9.35383034      -18.6135502      -14.0514803    
 Al   9.35109997      -15.7451096      -14.0538397    
 Al   11.6867304      -14.3171797      -13.2200403    
 Al   11.6997299      -12.8813400      -10.7392101    
 Al   11.6997299      -10.0260897      -10.7392101    
 Al   11.6867304      -8.59025002      -13.2200403    
 Al   13.9984198      -24.3359203      -12.3968601    
 Al   14.0103703      -8.60165977      -9.91263962    
 Al   16.4439507      -9.96979046      -9.12275028    
 Al   16.3567696      -7.15897989      -9.07660007    
 Al   16.2822094      -8.51743984      -6.57075024    
 Al   16.3567696      -10.0083504      -4.14135981    
 Al   16.3515396      -11.4537201      -1.66647995    
 Al   13.9984198      -12.8819599      -2.47809005    
 Al   13.9885502      -14.3186102      -8.50000011E-04
 Al   11.6878796      -15.7479897     -0.826099992    
 Al   11.6867304      -14.3122997      -3.30914998    
 Al   9.35138035      -15.7456102      -4.13579988    
 Al   9.35929012      -14.3099699      -6.61695004    
 Al   7.01747990      -15.7408199      -7.44076014    
 Al   7.01268005      -14.3104696      -9.91534996    
 Al   4.71907997      -15.7468700      -10.7446604    
 Al   4.71726990      -14.3157101      -13.2254295    
 Al   7.01747990      -12.8825798      -12.3913698    
 Al   9.35929012      -11.4537201      -11.5641203    
 Al   9.35138035      -10.0228004      -14.0480003    
 Al   9.35138035      -12.8846302      -14.0480003    
 Al   11.6863604      -11.4537201      -13.2257996    
 Al   13.9794598      -10.0127001      -12.4142504    
 Al   16.3567696      -8.60435009      -11.5800600    
 Al   9.35109997      -21.4761791      -9.08854961    
 Al   9.35517025      -20.0440006      -6.60957003    
 Al   9.35816956      -18.6119804      -4.13318014    
 Al   9.35517025      -17.1833706      -1.65481997    
 Al   7.01823997      -15.7497196      -2.48123002    
 Al   7.02108002      -12.8839197      -2.47949004    
 Al   7.01268005      -11.4537201      -4.96730995    
 Al   4.71093988      -12.8825598      -5.79212999    
 Al   4.70695019      -11.4537201      -8.26601028    
 Al   2.35477996      -12.8813896      -9.09027958    
 Al   2.35466003      -14.3178701      -6.61239004    
 Al   2.36887002      -15.7508698      -4.13240004    
 Al   4.71726990      -14.3177099      -3.30773997    
 Al   4.71038008      -12.8829403     -0.826219976    
 Al   4.71707010      -15.7511396     -0.827920020    
 Al   7.01658010      -22.9016209      -14.8754501    
 Al   9.35109997      -14.3204298      -1.65564001    
 Al   9.35289001      -11.4537201      -1.65205002    
 Al   11.6911297      -10.0214195     -0.831049979    
 Al   13.9885397      -8.58882046      -8.50000011E-04
 Al   13.9934797      -7.16161013      -2.47666001    
 Al   13.9853096      -5.71667004      -4.95372009    
 Al   13.9934797      -21.4745102      -7.44361019    
 Al   11.6867199      -5.73165989      -8.26881981    
 Al   11.6863499      -7.15841007      -5.78610992    
 Al   9.35929012      -8.59745979      -6.61695004    
 Al   9.35268021      -7.16559982      -9.09202003    
 Al   7.01267004      -8.59696007      -9.91534996    
 Al   7.02107000      -24.3381195      -12.3978596    
 Al   4.71725988      -8.59171963      -13.2254295    
 Al   4.71093988      -10.0256996      -10.7403603    
 Al   2.35465002      -11.4537201      -11.5732498    
 Al   2.36886001      -10.0224895      -14.0542603    
 Al   2.36886001      -12.8849401      -14.0542603    
 Al   2.37217999      -15.7509403      -14.0507698    
 Al   2.36761999      -17.1782303      -11.5710497    
 Al   2.37217999      -18.6120796      -9.09512997    
 Al   4.71726990      -17.1797009      -8.26484966    
 Al   7.01823997      -18.6114807      -7.43795013    
 Al   4.71341991      -18.6116104      -5.78355980    
 Al   7.01683998      -17.1808109      -4.95946980    
 Al   4.71456003      -15.7461004      -5.78779984    
 Al   7.01747990      -14.3119497      -4.96588993    
 Al   9.35268974      -12.8824301      -4.13938999    
 Al   11.6980600      -11.4537201      -3.31374002    
 Al   9.35268021      -10.0249996      -4.13938999    
 Al   11.6997204      -10.0256701      -5.79304981    
 Al   14.0103598      -11.4537096      -4.97273016    
 Al   13.9966698      -10.0158005      -7.43582010    
 Al   11.6742401      -11.4537096      -8.26601028    
 Al   9.36065960      -12.8851900      -9.09247971    
 Al   9.36065006      -10.0222197      -9.09247971    
 Al   7.01771021      -10.0253496      -7.44133997    
 Al   7.01746988      -7.16660976      -7.44075012    
 Al   7.01822996      -4.29594994      -7.43794012    
 Al   7.01682997      -5.72662020      -4.95945978    
 Al   4.71455002      -7.16133022      -5.78779984    
 Al   4.71725988      -8.58971977      -3.30773997    
 Al   4.71037006      -10.0244999     -0.826219976    
 Al   7.01657009      -17.1863899      -14.8754501    
 Al   7.01822996      -7.15772009      -2.48123002    
 Al   9.35136986      -7.16181993      -4.13578987    
 Al   9.35816002      -4.29545021      -4.13317013    
 Al   11.6849804      -2.86342001      -3.30639005    
 Al   13.9863997      -1.43262994      -2.48032999    
 Al   13.9853096      -2.86342001      -1.17499996E-02
 Al   11.6883497      -4.29671001     -0.824039996    
 Al   9.35515976      -5.72406006      -1.65480995    
 Al   11.6878700      -7.15944004     -0.826089978    
 Al   11.6867199      -8.59512043      -3.30913997    
 Al   13.9984102      -10.0254602      -2.47809005    
 Al   16.3431396      -8.59473991      -1.65179002    
 Al   16.3367004      -5.72637987      -1.65346003    
 Al   16.3318806      -4.29186010      -4.13110018    
 Al   16.3372993      -7.14323997      -4.11329985    
 Al   16.3372993      -5.70212984      -6.60937023    
 Al   13.9794502      -7.14071989      -7.43982983    
 Al   13.9794502      -8.58172989      -4.94393015    
 Al   7.01772022      -12.8820801      -7.44133997    
 Al   9.36065960      -11.4537201      -6.61307001    
 Al   11.6911297      -12.8860102     -0.831049979    
 Al   13.9873304      -11.4537201      -2.24000006E-03
 Al   13.9934902      -18.6134892      -7.44361019    
 Al   11.6878796      -20.0440006      -8.26700974    
 Al   2.37468004      -14.3126297      -11.5728397    
 Al   4.71093988      -12.8817396      -10.7403603    
 Al   7.01772022      -11.4537096      -9.91534042    
 Al   7.01746988      -10.0248404      -12.3913698    
 Al   9.35268021      -8.59430027      -11.5666199    
 Al   11.6980600      -7.16490984      -10.7421398    
 Al   13.9984102      -22.9076691      -9.92306995    
 Al   2.37468004      -15.7469702      -9.08848953    
 Al   4.71093988      -14.3105803      -8.26552963    
 Al   4.71455002      -11.4537201      -13.2224197    
 Al   2.36888003      -17.1821003      -6.61136007    
 Al   2.36664009      -20.0440006      -6.61328983    
 Al   2.37219000      -21.4759197      -9.09512997    
 Al   4.71708012      -20.0439892      -8.26336956    
 Al   4.71038008      -18.6113701      -10.7481604    
 Al   7.02108002      -17.1800804      -9.92066956    
 Al   9.35268974      -15.7418203      -9.09202003    
 Al   11.6997299      -14.3093700      -8.26576042    
 Al   13.9966803      -12.8915997      -7.43583012    
 Al   11.6997299      -12.8817501      -5.79304981    
 Al   11.6863604      -15.7490196      -5.78610992    
 Al   13.9794598      -14.3256702      -4.94393015    
 Al   16.3567696      -12.8990698      -4.14136982    
 Al   16.3431606      -14.3126602      -1.65181005    
 Al   13.9934998      -15.7458000      -2.47666001    
 Al   11.6883698      -17.1775703      -3.30631995    
 Al   2.35909009      -18.6111698      -4.13364983    
 Al   2.36664009      -17.1801605      -1.65295994    
 Al   4.71342993      -17.1825294      -3.30831003    
 Al   7.02108002      -15.7498798      -12.3978596    
 Al   9.35268974      -14.3131104      -11.5666199    
 Al   2.35503006      -20.0440006      -11.5685396    
 Al   2.35502005      -18.6089401      -14.0541401    
 Al   4.71038008      -17.1821404      -13.2236404    
 Al   2.37217999      -14.3148699      -1.65211999    
 Al   2.36760998      -11.4537296      -1.65591002    
 Al   2.37466002      -10.0193901      -4.13670015    
 Al   2.35462999      -8.58957005      -6.61239004    
 Al   2.37463999      -7.16047001      -9.08848953    
 Al   4.71722984      -5.72772980      -8.26484966    
 Al   4.71903992      -7.16056013      -10.7446604    
 Al   7.02103996      -22.9078999      -9.92066956    
 Al   2.37467003      -12.8880596      -4.13670015    
 Al   4.71906996      -11.4537201      -3.30870008    
 Al   7.02105999      -10.0235004      -2.47949004    
 Al   9.35107994      -8.58699036      -1.65565002    
 Al   4.71091986      -10.0248699      -5.79212999    
 Al   7.01745987      -8.59547043      -4.96588993    
 Al   2.35475993      -11.4537296      -6.61746979    
 Al   2.35474992      -10.0260496      -9.09027958    
 Al   4.71090984      -8.59685040      -8.26552963    
 Al   2.37465000      -8.59480953      -11.5728397    
 Al   7.01514006      -20.0440006      -14.8755198    
 Al   9.35136986      -17.1765099      -6.61422014    
 Al   9.35138035      -5.73090982      -6.61422014    
 Al   11.6883602      -4.29657984      -5.78883982    
 Al   13.9864197      -2.86345005      -4.95852995    
 Al   13.9869099      -4.29483986      -2.48069000    
 Al   16.3323994      -2.86405993      -1.65734005    
 Al   11.6911297      -17.1764297      -13.2238903    
 Al   11.6997204      -8.59805012      -8.26574993    
 Al   11.6883602      -5.72984982      -3.30631995    
 Al   13.9966898      -11.4537201      -9.92636013    
 Al   13.9934902      -14.3213902      -14.8777399    
 Al   16.4439507      -11.4537001      -6.55251980    
 Al   2.36882997      -5.72533989      -6.61135006    
 Al   2.35904002      -4.29626989      -4.13364983    
 Al   4.70754004      -2.86343002      -3.30640006    
 Al   7.01859999      -1.43467999      -2.48151994    
 Al   7.01679993      -2.86342001      -2.69999990E-04
 Al   4.71338987      -4.29251003     -0.827340007    
 Al   2.36660004      -5.72728014      -1.65295994    
 Al   4.71705008      -7.15629005     -0.827920020    
 Al   7.01820993      -5.72518015      -2.99999992E-05
 Al   7.01859999      -4.29216003      -2.48151994    
 Al   9.35813046      -2.86342001      -1.65285003    
 Al   11.6883202      -1.43011999     -0.824060023    
 Al   13.9934397      -25.7665901      -14.8777704    
 Al   2.36883998      -7.15656996      -4.13240004    
 Al   4.71338987      -5.72489977      -3.30831003    
 Al   4.71337986      -4.29582024      -5.78355980    
 Al   7.01859999      -2.86342001      -4.95617008    
 Al   2.37215996      -8.59257984      -1.65211999    
 Al   2.35904002      -2.86344004      -1.65190995    
 Al   4.71337986      -1.43434000     -0.827340007    
 Al   7.01819992      -1.67000003E-03  -2.99999992E-05
 Al   16.3431492      -24.3356991      -14.0490503    
 O    14.5000000      -11.4537201      -8.26601028    
 O    15.5000000      -11.2140903      -7.87874985    
         262
 Energy:  -1004.7647563999999      en  -931.80161639999994      edisp  -72.963139999999996     
 X   0.00000000       0.00000000       0.00000000    
 X   0.00000000      -17.1805725       0.00000000    
 X   0.00000000      -8.59028625      -14.8788128    
 X   30.0000000       0.00000000       0.00000000    
 X   0.00000000      -25.7708588      -14.8788128    
 X   30.0000000      -17.1805725       0.00000000    
 X   30.0000000      -8.59028625      -14.8788128    
 X   30.0000000      -25.7708588      -14.8788128    
 Al   16.4656105      -12.9650898      -9.14070034    
 Al   16.2814007      -14.3822899      -6.57518005    
 Al   16.3361702      -15.7641697      -4.11339998    
 Al   16.3348103      -17.1810207      -1.65333998    
 Al   16.3302307      -18.6161804      -4.13070011    
 Al   16.3348694      -20.0440102      -6.61211014    
 Al   16.3413391      -18.6108799      -9.09704971    
 Al   16.3491707      -17.1701603      -11.5663500    
 Al   16.3416004      -15.7519197      -14.0487404    
 Al   16.3252506      -18.6118393      -14.0522804    
 Al   16.3251991      -21.4760094      -14.0521297    
 Al   16.3496609      -22.9178200      -11.5663605    
 Al   16.3416004      -21.4767303      -9.09724998    
 Al   13.9882202      -20.0438404      -9.91777992    
 Al   13.9868898      -18.6105309      -12.3977804    
 Al   11.6963596      -20.0439491      -13.2252998    
 Al   11.6907797      -21.4795208      -10.7436304    
 Al   9.35324955      -22.9062595      -11.5729399    
 Al   9.35394955      -21.4752293      -14.0517302    
 Al   9.35111046      -24.3425407      -14.0537996    
 Al   11.6906004      -22.9115105      -13.2235603    
 Al   13.9867601      -21.4768200      -12.3982601    
 Al   16.3251705      -20.0438595      -11.5717096    
 Al   16.3362293      -17.2056694      -6.60917997    
 Al   13.9784603      -15.7670603      -7.43980980    
 Al   13.9844704      -17.1900997      -4.95397997    
 Al   11.6878796      -18.6110401      -5.78890991    
 Al   11.6865597      -17.1760197      -8.26885033    
 Al   9.35116005      -18.6118603      -9.08882046    
 Al   9.35328007      -17.1814709      -11.5729303    
 Al   7.01482010      -18.6152802      -12.4006500    
 Al   7.01642990      -20.0440407      -9.92564964    
 Al   4.71182013      -21.4766293      -10.7483301    
 Al   4.70404005      -20.0441608      -13.2256403    
 Al   2.35716009      -21.4788094      -14.0537796    
 Al   2.36926007      -22.9099293      -11.5710001    
 Al   2.37390995      -24.3375607      -14.0507298    
 Al   4.71176004      -22.9057198      -13.2234402    
 Al   7.01492977      -21.4726505      -12.4006100    
 Al   9.35393047      -20.0442505      -11.5732002    
 Al   11.6909599      -18.6083908      -10.7436104    
 Al   13.9973698      -17.1799793      -9.92276001    
 Al   11.6977301      -15.7423601      -10.7420301    
 Al   13.9974499      -15.7513199      -12.3964596    
 Al   13.9785299      -12.8948898      -12.4140396    
 Al   16.2817307      -11.4536400      -11.6474104    
 Al   16.3362103      -10.0125198      -14.0760603    
 Al   16.3360691      -12.8949203      -14.0761499    
 Al   16.3548393      -14.3047895      -11.5817204    
 Al   14.0110102      -14.3063898      -9.91304016    
 Al   16.3545494      -15.7516003      -9.07779980    
 Al   9.35396957      -18.6129093      -14.0520401    
 Al   9.35126972      -15.7452202      -14.0537004    
 Al   11.6863203      -14.3174200      -13.2203798    
 Al   11.6994400      -12.8821402      -10.7392702    
 Al   11.6995201      -10.0254498      -10.7391701    
 Al   11.6866503      -8.58987999      -13.2203398    
 Al   13.9970503      -24.3365993      -12.3967505    
 Al   14.0120001      -8.60286999      -9.91166019    
 Al   16.4671593      -9.94659996      -9.14299965    
 Al   16.3542500      -7.15667009      -9.07761955    
 Al   16.2853107      -8.51706982      -6.57120991    
 Al   16.3536797      -10.0082903      -4.13985014    
 Al   16.3496895      -11.4536600      -1.66593003    
 Al   13.9972296      -12.8822002      -2.47878003    
 Al   13.9879799      -14.3184700      -6.79999997E-04
 Al   11.6876297      -15.7481604     -0.826340020    
 Al   11.6866598      -14.3124399      -3.30858994    
 Al   9.35109997      -15.7457705      -4.13576984    
 Al   9.35931969      -14.3098097      -6.61694002    
 Al   7.01738977      -15.7413502      -7.44048977    
 Al   7.01269007      -14.3104897      -9.91537952    
 Al   4.72019005      -15.7472000      -10.7449198    
 Al   4.71835995      -14.3156300      -13.2253504    
 Al   7.01752996      -12.8826704      -12.3919897    
 Al   9.35904026      -11.4537497      -11.5641699    
 Al   9.35109043      -10.0228300      -14.0481300    
 Al   9.35103989      -12.8847103      -14.0481005    
 Al   11.6863604      -11.4538202      -13.2254696    
 Al   13.9782600      -10.0123796      -12.4143496    
 Al   16.3548298      -8.60214043      -11.5818796    
 Al   9.35105038      -21.4760895      -9.08917999    
 Al   9.35464954      -20.0438595      -6.60945988    
 Al   9.35801983      -18.6117802      -4.13352013    
 Al   9.35505009      -17.1831303      -1.65472996    
 Al   7.01820993      -15.7493696      -2.48142004    
 Al   7.02098989      -12.8844299      -2.47943997    
 Al   7.01282978      -11.4537296      -4.96743011    
 Al   4.71153021      -12.8828402      -5.79222012    
 Al   4.70804024      -11.4538498      -8.26613998    
 Al   2.35619998      -12.8813801      -9.09020996    
 Al   2.35671997      -14.3176403      -6.61230993    
 Al   2.37084007      -15.7504597      -4.13231993    
 Al   4.71826982      -14.3176899      -3.30778003    
 Al   4.71180010      -12.8827696     -0.826189995    
 Al   4.71796989      -15.7512503     -0.827910006    
 Al   7.01672983      -22.9018803      -14.8756199    
 Al   9.35112000      -14.3203201      -1.65530002    
 Al   9.35317993      -11.4535999      -1.65200996    
 Al   11.6907902      -10.0218601     -0.830810010    
 Al   13.9879799      -8.58905029      -5.90000011E-04
 Al   13.9917202      -7.16122007      -2.47652006    
 Al   13.9842501      -5.71725988      -4.95401001    
 Al   13.9919100      -21.4743900      -7.44341993    
 Al   11.6866598      -5.73099995      -8.26867008    
 Al   11.6863403      -7.15857983      -5.78624010    
 Al   9.35956001      -8.59766006      -6.61690998    
 Al   9.35303974      -7.16532993      -9.09214020    
 Al   7.01275015      -8.59714031      -9.91530991    
 Al   7.02102995      -24.3383694      -12.3982000    
 Al   4.71836996      -8.59183979      -13.2253304    
 Al   4.71156979      -10.0257902      -10.7405996    
 Al   2.35679007      -11.4536304      -11.5732403    
 Al   2.37085009      -10.0221901      -14.0540600    
 Al   2.37088990      -12.8852797      -14.0541096    
 Al   2.37388992      -15.7504702      -14.0507603    
 Al   2.36917996      -17.1782303      -11.5710697    
 Al   2.37380004      -18.6117401      -9.09463978    
 Al   4.71833992      -17.1796093      -8.26469994    
 Al   7.01828003      -18.6112309      -7.43797016    
 Al   4.71443987      -18.6116409      -5.78351021    
 Al   7.01677990      -17.1807995      -4.95959997    
 Al   4.71541023      -15.7462502      -5.78783989    
 Al   7.01749992      -14.3122196      -4.96560001    
 Al   9.35291958      -12.8824902      -4.13910007    
 Al   11.6976700      -11.4536304      -3.31402993    
 Al   9.35301971      -10.0249100      -4.13922024    
 Al   11.6986799      -10.0257902      -5.79269981    
 Al   14.0099096      -11.4540796      -4.97238016    
 Al   13.9375200      -9.91802979      -7.38584995    
 Al   11.6576996      -11.4543200      -8.26696014    
 Al   9.36106968      -12.8850002      -9.09230042    
 Al   9.36085987      -10.0222597      -9.09230042    
 Al   7.01832008      -10.0256300      -7.44152021    
 Al   7.01729012      -7.16631985      -7.44052982    
 Al   7.01837015      -4.29613018      -7.43789005    
 Al   7.01693010      -5.72653008      -4.95952988    
 Al   4.71541977      -7.16137981      -5.78787994    
 Al   4.71819019      -8.58961964      -3.30782008    
 Al   4.71177006      -10.0245504     -0.826070011    
 Al   7.01650000      -17.1862698      -14.8756504    
 Al   7.01840019      -7.15780020      -2.48130012    
 Al   9.35103989      -7.16175985      -4.13582993    
 Al   9.35778999      -4.29567003      -4.13332987    
 Al   11.6851501      -2.86330009      -3.30609012    
 Al   13.9857502      -1.43243003      -2.48027992    
 Al   13.9845800      -2.86346006      -1.10400002E-02
 Al   11.6881399      -4.29671001     -0.824370027    
 Al   9.35476971      -5.72397995      -1.65481997    
 Al   11.6876001      -7.15927982     -0.826420009    
 Al   11.6866503      -8.59477043      -3.30849004    
 Al   13.9972696      -10.0251503      -2.47901011    
 Al   16.3416805      -8.59463978      -1.65132999    
 Al   16.3347607      -5.72631979      -1.65347004    
 Al   16.3300800      -4.29168987      -4.13106012    
 Al   16.3358707      -7.14359999      -4.11367989    
 Al   16.3359604      -5.70242023      -6.60947990    
 Al   13.9786901      -7.14002991      -7.43997002    
 Al   13.9789896      -8.58189011      -4.94367981    
 Al   7.01824999      -12.8818102      -7.44150019    
 Al   9.36042976      -11.4536304      -6.61316013    
 Al   11.6907797      -12.8857403     -0.830900013    
 Al   13.9867897      -11.4538403      -1.33999996E-03
 Al   13.9922705      -18.6135292      -7.44334984    
 Al   11.6876402      -20.0442295      -8.26696968    
 Al   2.37664008      -14.3126001      -11.5728703    
 Al   4.71165991      -12.8814602      -10.7406998    
 Al   7.01808023      -11.4536695      -9.91493988    
 Al   7.01749992      -10.0247402      -12.3919001    
 Al   9.35270977      -8.59397984      -11.5670099    
 Al   11.6976004      -7.16493988      -10.7420902    
 Al   13.9971504      -22.9080296      -9.92263031    
 Al   2.37648010      -15.7470903      -9.08837986    
 Al   4.71162987      -14.3105803      -8.26502037    
 Al   4.71545982      -11.4537897      -13.2225199    
 Al   2.37092996      -17.1820908      -6.61183977    
 Al   2.36859012      -20.0438805      -6.61341000    
 Al   2.37402010      -21.4764194      -9.09455967    
 Al   4.71818018      -20.0439301      -8.26344013    
 Al   4.71180010      -18.6112804      -10.7481604    
 Al   7.02080011      -17.1803398      -9.92053032    
 Al   9.35293961      -15.7423000      -9.09204006    
 Al   11.6999102      -14.3093796      -8.26605034    
 Al   13.9523096      -12.9830503      -7.39218998    
 Al   11.6990995      -12.8818398      -5.79266024    
 Al   11.6861801      -15.7489100      -5.78632021    
 Al   13.9783401      -14.3261995      -4.94324017    
 Al   16.3541508      -12.8990202      -4.13959980    
 Al   16.3416100      -14.3128595      -1.65166998    
 Al   13.9920998      -15.7461205      -2.47678995    
 Al   11.6882696      -17.1777706      -3.30607009    
 Al   2.36117005      -18.6113300      -4.13339996    
 Al   2.36854005      -17.1800404      -1.65279996    
 Al   4.71436977      -17.1825809      -3.30849004    
 Al   7.02083015      -15.7497797      -12.3980398    
 Al   9.35276031      -14.3133097      -11.5671902    
 Al   2.35702991      -20.0439892      -11.5689402    
 Al   2.35705996      -18.6091499      -14.0538902    
 Al   4.71176004      -17.1821499      -13.2235603    
 Al   2.37390995      -14.3150997      -1.65277004    
 Al   2.36915994      -11.4537001      -1.65620995    
 Al   2.37631989      -10.0192099      -4.13670015    
 Al   2.35659003      -8.58973980      -6.61246014    
 Al   2.37624002      -7.16037989      -9.08825016    
 Al   4.71822977      -5.72777987      -8.26455021    
 Al   4.71995020      -7.16050005      -10.7449598    
 Al   7.02100992      -22.9074898      -9.92055988    
 Al   2.37646008      -12.8882599      -4.13672018    
 Al   4.72003984      -11.4539204      -3.30858994    
 Al   7.02103996      -10.0230999      -2.47929001    
 Al   9.35095978      -8.58738995      -1.65520000    
 Al   4.71158981      -10.0244398      -5.79206991    
 Al   7.01735020      -8.59525967      -4.96573019    
 Al   2.35596991      -11.4537296      -6.61729002    
 Al   2.35609007      -10.0258398      -9.09041023    
 Al   4.71159983      -8.59669018      -8.26515007    
 Al   2.37654996      -8.59496021      -11.5728598    
 Al   7.01499987      -20.0439396      -14.8752899    
 Al   9.35105991      -17.1769199      -6.61420012    
 Al   9.35105991      -5.73067999      -6.61410999    
 Al   11.6882000      -4.29642010      -5.78906012    
 Al   13.9857903      -2.86351991      -4.95899010    
 Al   13.9861002      -4.29511976      -2.48048997    
 Al   16.3305397      -2.86396003      -1.65843999    
 Al   11.6907597      -17.1767292      -13.2233400    
 Al   11.6991796      -8.59803963      -8.26616001    
 Al   11.6883001      -5.72975016      -3.30601001    
 Al   13.9706001      -11.4544897      -10.0160704    
 Al   13.9921303      -14.3209801      -14.8784304    
 Al   16.5107708      -11.4736996      -6.45726013    
 Al   2.37079000      -5.72556019      -6.61197996    
 Al   2.36118007      -4.29603004      -4.13331985    
 Al   4.70878983      -2.86351991      -3.30661011    
 Al   7.01856995      -1.43515003      -2.48181009    
 Al   7.01681995      -2.86343002      -5.99999985E-05
 Al   4.71436024      -4.29254007     -0.827430010    
 Al   2.36852002      -5.72726011      -1.65278006    
 Al   4.71810007      -7.15628004     -0.827809989    
 Al   7.01820993      -5.72512007       2.20000002E-04
 Al   7.01868010      -4.29184008      -2.48163009    
 Al   9.35820007      -2.86356997      -1.65253997    
 Al   11.6883602      -1.43001997     -0.824329972    
 Al   13.9920797      -25.7669792      -14.8782597    
 Al   2.37080002      -7.15713978      -4.13237000    
 Al   4.71436977      -5.72472000      -3.30830002    
 Al   4.71442986      -4.29574013      -5.78347015    
 Al   7.01865005      -2.86336994      -4.95585012    
 Al   2.37406993      -8.59237957      -1.65277004    
 Al   2.36106992      -2.86345005      -1.65208995    
 Al   4.71431017      -1.43435001     -0.827289999    
 Al   7.01812983      -1.73000002E-03   3.90000001E-04
 Al   16.3416004      -24.3360195      -14.0488300    
 O    14.0218296      -11.5827799      -8.43632984    
 O    15.9968700      -11.0708199      -7.77120018    
         262
 Energy:  -1004.8159074000000      en  -931.85282740000002      edisp  -72.963080000000005     
 X   0.00000000       0.00000000       0.00000000    
 X   0.00000000      -17.1805725       0.00000000    
 X   0.00000000      -8.59028625      -14.8788128    
 X   30.0000000       0.00000000       0.00000000    
 X   0.00000000      -25.7708588      -14.8788128    
 X   30.0000000      -17.1805725       0.00000000    
 X   30.0000000      -8.59028625      -14.8788128    
 X   30.0000000      -25.7708588      -14.8788128    
 Al   16.4665699      -12.9663200      -9.14151001    
 Al   16.2813702      -14.3819399      -6.57537985    
 Al   16.3361206      -15.7641697      -4.11339998    
 Al   16.3347206      -17.1810207      -1.65332997    
 Al   16.3301506      -18.6161995      -4.13068008    
 Al   16.3347893      -20.0440102      -6.61211014    
 Al   16.3412609      -18.6108608      -9.09704018    