NiAl                                    
            1
     0.000000  -17.180573    0.000000
     0.000000   -8.590287  -14.878813
    30.000000    0.000000    0.000000
   Al   O 
   252     2
Direct configuration=     1
   0.44647042  0.61313695  0.54813167
   0.61676438  0.44161789  0.54274033
   0.77933134  0.27645418  0.54457700
   0.94446263  0.11112916  0.54455700
   0.94469853  0.27765051  0.54439633
   0.94446231  0.44440843  0.54455703
   0.77756522  0.61141772  0.54477170
   0.61066527  0.77733149  0.54505137
   0.44475100  0.94423190  0.54477170
   0.61108088  0.94445975  0.54423703
   0.77779301  0.94445975  0.54423703
   0.94533687  0.77733149  0.54505140
   0.94435069  0.61141772  0.54477170
   0.83338994  0.66655317  0.46628503
   0.66659154  0.83325800  0.46624437
   0.72222214  0.88888878  0.38989003
   0.88918804  0.72203871  0.38970437
   0.94436763  0.77781601  0.31176303
   0.77772874  0.94439516  0.31179437
   0.94460836  0.94455377  0.31170337
   0.88918767  0.88877311  0.38970437
   0.83348356  0.83325793  0.46624437
   0.77779271  0.77774752  0.54423703
   0.77933153  0.44421420  0.54457700
   0.66769054  0.50002913  0.46598200
   0.83412399  0.33293785  0.46617733
   0.88871778  0.38906605  0.38961200
   0.72184811  0.55574460  0.38955770
   0.77788688  0.61083844  0.31170337
   0.61114991  0.77781608  0.31176303
   0.66677775  0.83344424  0.23383837
   0.83310763  0.66711780  0.23388603
   0.88886298  0.72238034  0.15701270
   0.72222205  0.88888885  0.15674603
   0.77790746  0.94457414  0.07850070
   0.94462679  0.77768650  0.07892070
   0.94437139  0.94434764  0.07907270
   0.88886298  0.88875651  0.15701270
   0.83311096  0.83344424  0.23383837
   0.77772849  0.77787596  0.31179433
   0.72210616  0.72203878  0.38970433
   0.66652204  0.66692618  0.46661397
   0.55530926  0.72197560  0.38993563
   0.50025968  0.83318871  0.46661397
   0.33336245  0.83435748  0.46598197
   0.27495109  0.78343131  0.54274027
   0.10978752  0.94599804  0.54457697
   0.27754735  0.94599804  0.54457697
   0.44336860  0.77829185  0.54522563
   0.49955860  0.66622512  0.46701230
   0.61162511  0.61003515  0.54522563
   0.61120903  0.94439529  0.31179433
   0.44417142  0.94455384  0.31170333
   0.38907810  0.88851436  0.38955763
   0.38887251  0.72177861  0.38999097
   0.22268194  0.72177854  0.38999097
   0.05574060  0.88851429  0.38955763
   0.99988468  0.83318864  0.46661397
   0.16754934  0.66622505  0.46701230
   0.27372584  0.61313681  0.54813163
   0.11167277  0.61003502  0.54522560
   0.27495100  0.44161775  0.54274027
   0.44336913  0.27833927  0.54522560
   0.61066523  0.11200349  0.54505127
   0.66652232  0.16655152  0.46661393
   0.83339018  0.00005713  0.46628493
   0.88885516  0.05552197  0.38959593
   0.72184793  0.22240685  0.38955760
   0.77749466  0.27796579  0.31171260
   0.61055419  0.44472297  0.31197627
   0.66615318  0.50009103  0.23391593
   0.49974106  0.66640732  0.23375593
   0.55547826  0.72214504  0.15730260
   0.38881138  0.88887668  0.15724227
   0.33342410  0.83281979  0.23391593
   0.27805654  0.77722053  0.31197627
   0.11129902  0.94416127  0.31171260
   0.27787259  0.94416133  0.31171260
   0.22221603  0.88890155  0.38954527
   0.16561310  0.83435748  0.46598193
   0.11167251  0.77829185  0.54522560
   0.94460768  0.61083844  0.31170333
   0.94455295  0.44422703  0.31183900
   0.94442060  0.27778963  0.31193897
   0.94455283  0.11121989  0.31183893
   0.83333552  0.16676263  0.23394127
   0.66658932  0.16664569  0.23403587
   0.49974140  0.33385116  0.23375590
   0.55518945  0.38928710  0.15703123
   0.38888911  0.55555574  0.15689827
   0.44428755  0.61095472  0.07849263
   0.61116739  0.44441657  0.07848860
   0.77791516  0.27773734  0.07896227
   0.72221023  0.22231216  0.15724223
   0.72209020  0.05552997  0.15701253
   0.88897740  0.05564429  0.15723557
   0.83310787  0.99977418  0.23388587
   0.77788709  0.11127494  0.31170323
   0.61115009  0.11103366  0.31176287
   0.55537222  0.05585446  0.38970417
   0.49988611  0.00005693  0.46628480
   0.33361572  0.16645528  0.46644947
   0.16627138  0.33293758  0.46617713
   0.99978866  0.50028224  0.46644947
   0.05574051  0.55574433  0.38955747
   0.22221596  0.38888230  0.38954517
   0.27805602  0.44472277  0.31197617
   0.11153985  0.61107139  0.31175613
   0.16718468  0.66640712  0.23375580
   0.99997910  0.83325578  0.23403580
   0.05564501  0.88887648  0.15724213
   0.22262062  0.72185577  0.15703117
   0.27774979  0.77783402  0.07848850
   0.11107074  0.94458187  0.07896217
   0.27768042  0.94458187  0.07896217
   0.44461397  0.94434730  0.07907253
   0.61102037  0.77768623  0.07892053
   0.77768087  0.61128048  0.07907257
   0.72221020  0.55547757  0.15724220
   0.83333518  0.49990191  0.23394123
   0.88893830  0.38871091  0.15711390
   0.83335154  0.33332410  0.23389453
   0.72200796  0.38899588  0.15715187
   0.66615301  0.33375559  0.23391587
   0.61072178  0.27820673  0.31175617
   0.55530915  0.22271508  0.38993547
   0.44440428  0.27820673  0.31175613
   0.38887225  0.38934866  0.38999080
   0.49955895  0.33421523  0.46701213
   0.33309298  0.49975929  0.46655580
   0.38888884  0.55555547  0.38914117
   0.44443520  0.61110224  0.31202187
   0.27779524  0.61110224  0.31202180
   0.33346324  0.50012968  0.23392380
   0.16708902  0.50009063  0.23391577
   0.00009589  0.49990177  0.23394103
   0.16665739  0.33332397  0.23389437
   0.22232922  0.38899581  0.15715173
   0.38881110  0.22231182  0.15724210
   0.55571389  0.05552977  0.15701243
   0.50045135  0.99977391  0.23388573
   0.33323580  0.16676229  0.23394107
   0.27787278  0.27796538  0.31171240
   0.11112300  0.27778923  0.31193867
   0.05555560  0.22222156  0.38949930
   0.00003566  0.16670228  0.46621327
   0.16627146  0.00078985  0.46617693
   0.22239965  0.05538365  0.38961167
   0.27756057  0.11121949  0.31183870
   0.38895613  0.05552150  0.38959573
   0.38907830  0.22240652  0.38955743
   0.50025917  0.16655132  0.46661380
   0.44475103  0.11101658  0.54477143
   0.27774129  0.11112869  0.54455670
   0.11098393  0.27765004  0.54439600
   0.27754742  0.27645377  0.54457673
   0.10978712  0.44421373  0.54457673
   0.16561323  0.50002880  0.46598177
   0.33336230  0.33227953  0.46598177
   0.49974012  0.50012988  0.23392397
   0.44443589  0.44446207  0.31202193
   0.72210653  0.05585446  0.38970420
   0.66659178  0.00015028  0.46624420
   0.83326199  0.50028251  0.46644963
   0.88885496  0.55562302  0.38959600
   0.44416718  0.77780653  0.07915597
   0.38885698  0.72185590  0.15703123
   0.33346313  0.66640665  0.23392387
   0.16708879  0.83281979  0.23391573
   0.11153913  0.77738869  0.31175600
   0.05604740  0.72197573  0.38993530
   0.99988377  0.66692638  0.46661357
   0.61113950  0.61083421  0.07915607
   0.55518924  0.55552341  0.15703137
   0.22232947  0.88867431  0.15715180
   0.77791523  0.44434714  0.07896253
   0.94442801  0.44447692  0.07888800
   0.94437144  0.61128055  0.07907300
   0.88897708  0.55537831  0.15723597
   0.72208951  0.72238020  0.15701283
   0.66658892  0.66676495  0.23403613
   0.61072104  0.61107173  0.31175643
   0.55511101  0.55553914  0.38999103
   0.50047935  0.49975989  0.46655600
   0.55511109  0.38934907  0.38999103
   0.72223451  0.38888270  0.38954550
   0.66768973  0.33228013  0.46598210
   0.61162410  0.27833974  0.54522573
   0.77756380  0.11101726  0.54477187
   0.83326097  0.16645575  0.46644990
   0.88871658  0.22221685  0.38961227
   0.94435766  0.27782109  0.07863630
   0.94442850  0.11109475  0.07888793
   0.88893848  0.22235033  0.15711423
   0.50009816  0.83325598  0.23403603
   0.44440404  0.77738869  0.31175633
   0.77790761  0.77751760  0.07850090
   0.61085136  0.94457387  0.07850077
   0.55571326  0.88875631  0.15701273
   0.77768183  0.11103823  0.07907267
   0.61102103  0.11129295  0.07892033
   0.44416832  0.27802594  0.07915537
   0.27775011  0.44441623  0.07848777
   0.11135997  0.61083407  0.07915480
   0.05564524  0.55547771  0.15724100
   0.05570985  0.72214490  0.15730137
   0.99997833  0.66676508  0.23403457
   0.61114001  0.27802601  0.07915570
   0.55547867  0.22237661  0.15730227
   0.50009777  0.16664595  0.23403547
   0.44417008  0.11127548  0.31170267
   0.38885682  0.38928710  0.15703063
   0.33342384  0.33375606  0.23391517
   0.44428858  0.44475772  0.07849207
   0.27809169  0.61095438  0.07849180
   0.22262034  0.55552348  0.15703033
   0.11135996  0.77780640  0.07915483
   0.66677737  0.99977841  0.23383807
   0.77749393  0.44453922  0.31171240
   0.11129962  0.44453949  0.31171260
   0.05555034  0.38906632  0.38961210
   0.00003705  0.33326146  0.46621397
   0.16661913  0.16672654  0.46623047
   0.11100844  0.11138933  0.54441333
   0.55537212  0.88877318  0.38970433
   0.22268253  0.55553820  0.38999077
   0.22239932  0.22221658  0.38961190
   0.33309350  0.66714730  0.46655623
   0.33361674  0.99992795  0.46644957
   0.44646926  0.44039299  0.54813160
   0.11107146  0.44434694  0.07896110
   0.11115508  0.27782088  0.07863473
   0.05555587  0.22222196  0.15691797
   0.00011505  0.16678226  0.23395320
   0.16665724  0.00001828  0.23389347
   0.22204425  0.05560517  0.15711293
   0.27781057  0.11109455  0.07888670
   0.38871183  0.05564422  0.15723490
   0.33323480  0.00000222  0.23394047
   0.16643546  0.16678226  0.23395350
   0.11112230  0.11108722  0.31193773
   0.05554805  0.05538473  0.38961060
   0.99978668  0.99992956  0.46644813
   0.27768160  0.27773694  0.07896140
   0.22204433  0.22235033  0.15711293
   0.05568395  0.38871098  0.15711267
   0.00011506  0.33310265  0.23395323
   0.44461440  0.11103816  0.07907200
   0.11115527  0.11102398  0.07863473
   0.05568368  0.05560517  0.15711263
   0.00009584  0.00000215  0.23393987
   0.94435015  0.94423190  0.54477173
   0.38888905  0.55555574  0.48333333
   0.38795474  0.52952833  0.51666667
Direct configuration=     2
   0.44746469  0.61434369  0.54885353
   0.61616701  0.44191577  0.54271345
   0.77932772  0.27646015  0.54453898
   0.94446581  0.11112021  0.54449365
   0.94474836  0.27762263  0.54434087
   0.94446809  0.44439786  0.54449569
   0.77754669  0.61140960  0.54471126
   0.61070857  0.77737025  0.54497249
   0.44473947  0.94421087  0.54471998
   0.61108272  0.94444923  0.54417484
   0.77779773  0.94443858  0.54417320
   0.94525222  0.77737143  0.54498862
   0.94434756  0.61142297  0.54472005
   0.83337227  0.66657034  0.46627390
   0.66660578  0.83325065  0.46622969
   0.72222936  0.88886817  0.38987880
   0.88918368  0.72207563  0.38969280
   0.94435850  0.77781329  0.31177492
   0.77776569  0.94441207  0.31179817
   0.94458856  0.94455114  0.31170369
   0.88919502  0.88875113  0.38968678
   0.83342260  0.83328285  0.46622522
   0.77779282  0.77773078  0.54417223
   0.77936017  0.44420106  0.54454088
   0.66771217  0.50002731  0.46594866
   0.83407681  0.33295558  0.46614916
   0.88872552  0.38907047  0.38959594
   0.72186135  0.55574686  0.38955213
   0.77788023  0.61085650  0.31170524
   0.61114602  0.77781290  0.31177614
   0.66678591  0.83344326  0.23382733
   0.83311927  0.66709938  0.23388115
   0.88885756  0.72239162  0.15706075
   0.72223041  0.88889085  0.15680142
   0.77790492  0.94455006  0.07857210
   0.94463709  0.77768299  0.07897549
   0.94440219  0.94434467  0.07913043
   0.88886204  0.88874318  0.15705883
   0.83310128  0.83344066  0.23383087
   0.77776548  0.77783065  0.31179763
   0.72206910  0.72207460  0.38969883
   0.66651261  0.66690520  0.46657916
   0.55530460  0.72196797  0.38992422
   0.50022921  0.83316176  0.46658173
   0.33337903  0.83434334  0.46595094
   0.27525287  0.78281838  0.54272434
   0.10975800  0.94604733  0.54454035
   0.27752582  0.94605313  0.54453556
   0.44341215  0.77840362  0.54516121
   0.49958124  0.66625224  0.46703357
   0.61176846  0.61011569  0.54515176
   0.61115292  0.94443272  0.31179913
   0.44418279  0.94454458  0.31170915
   0.38908076  0.88853721  0.38954397
   0.38891725  0.72178256  0.38998128
   0.22264569  0.72177631  0.38998398
   0.05570898  0.88853468  0.38955506
   0.99992792  0.83318169  0.46656824
   0.16765284  0.66615908  0.46706670
   0.27169578  0.61449787  0.54890527
   0.11150386  0.61010373  0.54514179
   0.27491411  0.44164893  0.54284355
   0.44341612  0.27823823  0.54512283
   0.61068030  0.11196648  0.54498966
   0.66651323  0.16659778  0.46657430
   0.83338732  0.00004585  0.46626599
   0.88885706  0.05553821  0.38958750
   0.72187483  0.22236952  0.38955522
   0.77750475  0.27796377  0.31170321
   0.61054525  0.44472247  0.31197747
   0.66619305  0.50007285  0.23391304
   0.49974148  0.66640953  0.23375632
   0.55548864  0.72216255  0.15733960
   0.38880943  0.88887104  0.15727857
   0.33340879  0.83286134  0.23391768
   0.27805658  0.77722369  0.31196812
   0.11129673  0.94416988  0.31170284
   0.27787375  0.94416838  0.31170117
   0.22223347  0.88887907  0.38954545
   0.16559114  0.83436434  0.46594185
   0.11148245  0.77841439  0.54516103
   0.94458147  0.61088046  0.31170153
   0.94454893  0.44421926  0.31182156
   0.94439756  0.27781278  0.31193413
   0.94454207  0.11121363  0.31183487
   0.83330860  0.16677560  0.23394043
   0.66662085  0.16664220  0.23403293
   0.49973798  0.33385950  0.23376096
   0.55520287  0.38929297  0.15705095
   0.38889220  0.55556459  0.15693470
   0.44428887  0.61095027  0.07853988
   0.61115673  0.44441110  0.07855717
   0.77789423  0.27773156  0.07902814
   0.72220761  0.22231497  0.15727553
   0.72208115  0.05552779  0.15705997
   0.88898377  0.05564378  0.15726576
   0.83311787  0.99978524  0.23389115
   0.77789231  0.11125188  0.31170392
   0.61114413  0.11103108  0.31177269
   0.55540603  0.05583834  0.38969295
   0.49990832  0.00003982  0.46626610
   0.33359730  0.16644639  0.46639078
   0.16629634  0.33295711  0.46614155
   0.99978817  0.50026974  0.46639692
   0.05570756  0.55573426  0.38955543
   0.22222164  0.38889148  0.38954483
   0.27806902  0.44472041  0.31198523
   0.11152000  0.61107959  0.31176812
   0.16719664  0.66640445  0.23375820
   0.99998213  0.83327901  0.23403420
   0.05565520  0.88886996  0.15727913
   0.22261778  0.72187200  0.15705221
   0.27774478  0.77783364  0.07855967
   0.11105980  0.94456885  0.07902822
   0.27770541  0.94457212  0.07902966
   0.44458737  0.94434663  0.07912961
   0.61101991  0.77768764  0.07897255
   0.77767728  0.61124797  0.07912677
   0.72221024  0.55546770  0.15727788
   0.83332015  0.49990376  0.23394260
   0.88894164  0.38870758  0.15714814
   0.83334688  0.33333282  0.23389264
   0.72201545  0.38899890  0.15718023
   0.66617873  0.33373619  0.23391662
   0.61073543  0.27818729  0.31176392
   0.55529412  0.22273477  0.38992244
   0.44440495  0.27819542  0.31176745
   0.38889118  0.38932558  0.38995591
   0.49959184  0.33419204  0.46699706
   0.32908150  0.49640055  0.46458402
   0.38889214  0.55561971  0.38859009
   0.44442964  0.61109047  0.31203576
   0.27780313  0.61109029  0.31202856
   0.33347354  0.50014208  0.23394395
   0.16708021  0.50007524  0.23390977
   0.00010846  0.49989783  0.23394583
   0.16665017  0.33332827  0.23389769
   0.22232924  0.38900130  0.15718073
   0.38880234  0.22231740  0.15727291
   0.55572192  0.05552010  0.15705915
   0.50043761  0.99978757  0.23388333
   0.33323801  0.16676751  0.23394650
   0.27786822  0.27796805  0.31170124
   0.11113089  0.27779989  0.31192638
   0.05555869  0.22220111  0.38950507
   0.00002546  0.16669891  0.46619162
   0.16629755  0.00074213  0.46615275
   0.22238816  0.05540594  0.38960453
   0.27755601  0.11122006  0.31182572
   0.38893621  0.05554372  0.38958672
   0.38907960  0.22236265  0.38955513
   0.50021034  0.16661311  0.46657560
   0.44476042  0.11098535  0.54472260
   0.27773736  0.11112884  0.54449215
   0.11097552  0.27764716  0.54433594
   0.27755596  0.27647906  0.54452892
   0.10980050  0.44422101  0.54453193
   0.16556834  0.50003819  0.46595620
   0.33338001  0.33226287  0.46596634
   0.49971874  0.50014060  0.23394159
   0.44442746  0.44446809  0.31201445
   0.72209557  0.05584468  0.38969261
   0.66662885  0.00009021  0.46622627
   0.83327330  0.50026476  0.46640887
   0.88887011  0.55562002  0.38958793
   0.44416461  0.77780877  0.07922145
   0.38882975  0.72187851  0.15705541
   0.33347420  0.66637951  0.23393588
   0.16706475  0.83285561  0.23391671
   0.11150796  0.77741452  0.31175691
   0.05605094  0.72197242  0.38991994
   0.99992028  0.66689638  0.46657156
   0.61115031  0.61082669  0.07921613
   0.55520658  0.55548938  0.15705431
   0.22233052  0.88868085  0.15718200
   0.77789866  0.44437955  0.07903086
   0.94441715  0.44448499  0.07895290
   0.94441949  0.61124237  0.07913397
   0.88897081  0.55538278  0.15727254
   0.72208443  0.72238049  0.15706009
   0.66660876  0.66675522  0.23402661
   0.61074860  0.61107299  0.31176461
   0.55510212  0.55555833  0.38999714
   0.50726844  0.49682668  0.46507693
   0.55512938  0.38932283  0.38996995
   0.72222121  0.38889684  0.38953923
   0.66774375  0.33223319  0.46594480
   0.61168087  0.27822080  0.54513843
   0.77757953  0.11100840  0.54472046
   0.83327540  0.16646393  0.46640322
   0.88873716  0.22219982  0.38960890
   0.94437551  0.27780461  0.07870563
   0.94442714  0.11108402  0.07895120
   0.88893565  0.22236261  0.15714582
   0.50008604  0.83326814  0.23402781
   0.44439701  0.77742681  0.31175875
   0.77789378  0.77754478  0.07856775
   0.61087207  0.94455702  0.07856882
   0.55571605  0.88875133  0.15705873
   0.77767288  0.11108236  0.07913027
   0.61100908  0.11131316  0.07897198
   0.44415821  0.27802589  0.07921057
   0.27775795  0.44442094  0.07855311
   0.11136287  0.61081817  0.07920785
   0.05565788  0.55545771  0.15727441
   0.05569642  0.72216545  0.15733162
   0.99995807  0.66675716  0.23403383
   0.61115096  0.27802771  0.07921546
   0.55549395  0.22236942  0.15733479
   0.50008083  0.16663247  0.23403476
   0.44420862  0.11124528  0.31169881
   0.38883366  0.38928288  0.15705285
   0.33341692  0.33374535  0.23391170
   0.44429436  0.44474573  0.07853218
   0.27807529  0.61096347  0.07853639
   0.22262387  0.55549788  0.15705325
   0.11136772  0.77780819  0.07921822
   0.66678131  0.99976290  0.23383348
   0.77751814  0.44453790  0.31170198
   0.11128964  0.44453180  0.31170199
   0.05553396  0.38908075  0.38960672
   0.00002600  0.33329187  0.46619289
   0.16664219  0.16671303  0.46620344
   0.11096609  0.11146328  0.54435132
   0.55540840  0.88873599  0.38969210
   0.22266815  0.55556581  0.38997273
   0.22240377  0.22219554  0.38960994
   0.33012377  0.67317640  0.46568653
   0.33356924  0.99997423  0.46640430
   0.45083453  0.43399011  0.55035899
   0.11106348  0.44438917  0.07902630
   0.11115199  0.27779937  0.07870602
   0.05555414  0.22223582  0.15695976
   0.00013219  0.16680172  0.23395233
   0.16666447  0.00000401  0.23389394
   0.22204325  0.05561099  0.15714523
   0.27781532  0.11108284  0.07895068
   0.38871492  0.05563682  0.15726985
   0.33323949 -0.00001450  0.23394020
   0.16641275  0.16678982  0.23395603
   0.11114157  0.11106658  0.31194001
   0.05553307  0.05540299  0.38961204
   0.99979238  0.99996314  0.46640278
   0.27771555  0.27773549  0.07902664
   0.22203371  0.22234987  0.15714566
   0.05568226  0.38870535  0.15714753
   0.00012274  0.33308075  0.23395504
   0.44458088  0.11108216  0.07913558
   0.11114955  0.11103624  0.07870220
   0.05568563  0.05560174  0.15714365
   0.00011388 -0.00002599  0.23393768
   0.94437594  0.94421736  0.54471996
   0.39067735  0.56700265  0.46739433
   0.38323033  0.52229967  0.53322907
Direct configuration=     3
   0.44750914  0.61439764  0.54888580
   0.61614030  0.44192908  0.54271225
   0.77932755  0.27646041  0.54453728
   0.94446595  0.11111981  0.54449082
   0.94475058  0.27762138  0.54433840
   0.94446835  0.44439738  0.54449295
   0.77754587  0.61140924  0.54470856
   0.61071051  0.77737199  0.54496896
   0.44473895  0.94420993  0.54471767
   0.61108280  0.94444876  0.54417206
   0.77779794  0.94443763  0.54417035
   0.94524844  0.77737322  0.54498582
   0.94434742  0.61142321  0.54471774
   0.83337148  0.66657111  0.46627340
   0.66660642  0.83325032  0.46622904
   0.72222968  0.88886724  0.38987829
   0.88918348  0.72207728  0.38969228
   0.94435809  0.77781317  0.31177545
   0.77776734  0.94441282  0.31179834
   0.94458768  0.94455102  0.31170370
   0.88919535  0.88875015  0.38968600
   0.83341988  0.83328396  0.46622437
   0.77779282  0.77773003  0.54416933
   0.77936145  0.44420047  0.54453927
   0.66771314  0.50002723  0.46594716
   0.83407470  0.33295638  0.46614790
   0.88872587  0.38907066  0.38959522
   0.72186194  0.55574696  0.38955188
   0.77787993  0.61085731  0.31170532
   0.61114585  0.77781276  0.31177672
   0.66678627  0.83344321  0.23382683
   0.83311979  0.66709856  0.23388093
   0.88885731  0.72239213  0.15706289
   0.72223078  0.88889094  0.15680390
   0.77790480  0.94454898  0.07857529
   0.94463755  0.77768283  0.07897794
   0.94440357  0.94434453  0.07913301
   0.88886199  0.88874258  0.15706089
   0.83310084  0.83344050  0.23383053
   0.77776713  0.77782863  0.31179778
   0.72206744  0.72207620  0.38969858
   0.66651219  0.66690427  0.46657760
   0.55530440  0.72196763  0.38992371
   0.50022785  0.83316055  0.46658028
   0.33337977  0.83434270  0.46594955
   0.27526636  0.78279098  0.54272363
   0.10975668  0.94604953  0.54453871
   0.27752486  0.94605559  0.54453371
   0.44341410  0.77840861  0.54515833
   0.49958225  0.66625345  0.46703452
   0.61177486  0.61011929  0.54514846
   0.61115041  0.94443439  0.31179935
   0.44418330  0.94454417  0.31170941
   0.38908088  0.88853824  0.38954336
   0.38891925  0.72178274  0.38998085
   0.22264407  0.72177621  0.38998367
   0.05570757  0.88853560  0.38955495
   0.99992986  0.83318138  0.46656620
   0.16765747  0.66615613  0.46706914
   0.27160503  0.61455872  0.54893985
   0.11149631  0.61010680  0.54513805
   0.27491246  0.44165032  0.54284817
   0.44341822  0.27823371  0.54511824
   0.61068097  0.11196483  0.54498690
   0.66651282  0.16659985  0.46657253
   0.83338720  0.00004534  0.46626514
   0.88885714  0.05553893  0.38958712
   0.72187604  0.22236785  0.38955511
   0.77750521  0.27796368  0.31170279
   0.61054485  0.44472245  0.31197752
   0.66619483  0.50007204  0.23391291
   0.49974150  0.66640963  0.23375634
   0.55548910  0.72216333  0.15734126
   0.38880934  0.88887079  0.15728019
   0.33340811  0.83286320  0.23391776
   0.27805658  0.77722383  0.31196776
   0.11129663  0.94417026  0.31170240
   0.27787380  0.94416870  0.31170066
   0.22223424  0.88887807  0.38954546
   0.16559016  0.83436465  0.46594006
   0.11147396  0.77841986  0.54515814
   0.94458030  0.61088234  0.31170145
   0.94454875  0.44421891  0.31182079
   0.94439653  0.27781381  0.31193391
   0.94454159  0.11121336  0.31183468
   0.83330739  0.16677618  0.23394039
   0.66662226  0.16664205  0.23403280
   0.49973782  0.33385988  0.23376118
   0.55520347  0.38929323  0.15705183
   0.38889234  0.55556499  0.15693633
   0.44428893  0.61095008  0.07854199
   0.61115626  0.44441085  0.07856024
   0.77789330  0.27773130  0.07903109
   0.72220749  0.22231509  0.15727702
   0.72208074  0.05552769  0.15706209
   0.88898405  0.05564375  0.15726711
   0.83311832  0.99978573  0.23389138
   0.77789254  0.11125085  0.31170395
   0.61114386  0.11103097  0.31177313
   0.55540754  0.05583762  0.38969244
   0.49990931  0.00003905  0.46626527
   0.33359647  0.16644600  0.46638816
   0.16629746  0.33295798  0.46613996
   0.99978815  0.50026918  0.46639457
   0.05570608  0.55573381  0.38955534
   0.22222189  0.38889189  0.38954482
   0.27806961  0.44472030  0.31198564
   0.11151911  0.61107996  0.31176865
   0.16719717  0.66640433  0.23375831
   0.99998226  0.83328005  0.23403413
   0.05565566  0.88886966  0.15728078
   0.22261765  0.72187272  0.15705315
   0.27774456  0.77783362  0.07856285
   0.11105931  0.94456827  0.07903117
   0.27770653  0.94457168  0.07903268
   0.44458618  0.94434660  0.07913216
   0.61101989  0.77768770  0.07897488
   0.77767711  0.61124652  0.07912919
   0.72221024  0.55546726  0.15727947
   0.83331948  0.49990385  0.23394266
   0.88894179  0.38870743  0.15714967
   0.83334667  0.33333321  0.23389255
   0.72201579  0.38899903  0.15718149
   0.66617988  0.33373532  0.23391666
   0.61073604  0.27818642  0.31176427
   0.55529345  0.22273565  0.38992185
   0.44440498  0.27819492  0.31176796
   0.38889202  0.38932454  0.38995435
   0.49959331  0.33419101  0.46699639
   0.32890217  0.49625040  0.46449588
   0.38889229  0.55562258  0.38856546
   0.44442939  0.61108995  0.31203639
   0.27780349  0.61108975  0.31202886
   0.33347401  0.50014263  0.23394485
   0.16707982  0.50007455  0.23390950
   0.00010902  0.49989765  0.23394604
   0.16664985  0.33332846  0.23389784
   0.22232924  0.38900155  0.15718202
   0.38880195  0.22231765  0.15727428
   0.55572228  0.05551966  0.15706123
   0.50043700  0.99978818  0.23388322
   0.33323811  0.16676774  0.23394675
   0.27786802  0.27796817  0.31170074
   0.11113124  0.27780036  0.31192583
   0.05555883  0.22220020  0.38950533
   0.00002501  0.16669876  0.46619065
   0.16629871  0.00074000  0.46615167
   0.22238765  0.05540694  0.38960421
   0.27755580  0.11122008  0.31182514
   0.38893532  0.05554471  0.38958632
   0.38907965  0.22236069  0.38955503
   0.50020816  0.16661587  0.46657389
   0.44476084  0.11098395  0.54472041
   0.27773719  0.11112885  0.54448926
   0.11097514  0.27764703  0.54433325
   0.27755634  0.27648019  0.54452678
   0.10980110  0.44422134  0.54452993
   0.16556633  0.50003861  0.46595506
   0.33338080  0.33226213  0.46596565
   0.49971778  0.50014107  0.23394237
   0.44442708  0.44446836  0.31201412
   0.72209508  0.05584424  0.38969209
   0.66663051  0.00008752  0.46622547
   0.83327381  0.50026397  0.46640704
   0.88887079  0.55561988  0.38958757
   0.44416449  0.77780887  0.07922438
   0.38882853  0.72187952  0.15705649
   0.33347470  0.66637829  0.23393642
   0.16706367  0.83285722  0.23391675
   0.11150656  0.77741568  0.31175695
   0.05605110  0.72197227  0.38991925
   0.99992191  0.66689503  0.46656968
   0.61115080  0.61082635  0.07921881
   0.55520735  0.55548786  0.15705534
   0.22233056  0.88868114  0.15718335
   0.77789792  0.44438099  0.07903392
   0.94441666  0.44448535  0.07895580
   0.94442163  0.61124067  0.07913669
   0.88897053  0.55538298  0.15727418
   0.72208421  0.72238050  0.15706221
   0.66660964  0.66675478  0.23402618
   0.61074983  0.61107305  0.31176497
   0.55510172  0.55555919  0.38999741
   0.50757193  0.49669556  0.46501081
   0.55513020  0.38932166  0.38996900
   0.72222061  0.38889747  0.38953895
   0.66774616  0.33223110  0.46594313
   0.61168341  0.27821548  0.54513453
   0.77758023  0.11100800  0.54471817
   0.83327605  0.16646430  0.46640114
   0.88873808  0.22219906  0.38960875
   0.94437631  0.27780387  0.07870873
   0.94442708  0.11108354  0.07895403
   0.88893553  0.22236316  0.15714724
   0.50008549  0.83326868  0.23402744
   0.44439669  0.77742851  0.31175886
   0.77789317  0.77754599  0.07857074
   0.61087300  0.94455626  0.07857186
   0.55571618  0.88875111  0.15706079
   0.77767248  0.11108433  0.07913285
   0.61100855  0.11131406  0.07897429
   0.44415776  0.27802589  0.07921304
   0.27775830  0.44442115  0.07855603
   0.11136300  0.61081746  0.07921022
   0.05565844  0.55545681  0.15727590
   0.05569582  0.72216637  0.15733297
   0.99995716  0.66675680  0.23403380
   0.61115145  0.27802778  0.07921813
   0.55549464  0.22236910  0.15733624
   0.50008007  0.16663187  0.23403473
   0.44421034  0.11124393  0.31169863
   0.38883263  0.38928269  0.15705384
   0.33341661  0.33374487  0.23391154
   0.44429462  0.44474520  0.07853397
   0.27807456  0.61096387  0.07853839
   0.22262402  0.55549673  0.15705427
   0.11136807  0.77780827  0.07922105
   0.66678149  0.99976220  0.23383328
   0.77751923  0.44453784  0.31170151
   0.11128920  0.44453145  0.31170152
   0.05553323  0.38908139  0.38960648
   0.00002551  0.33329323  0.46619194
   0.16664322  0.16671242  0.46620223
   0.11096420  0.11146659  0.54434855
   0.55541002  0.88873433  0.38969155
   0.22266751  0.55556704  0.38997193
   0.22240397  0.22219460  0.38960985
   0.32999102  0.67344591  0.46564766
   0.33356711  0.99997630  0.46640228
   0.45102967  0.43370388  0.55045856
   0.11106313  0.44439106  0.07902922
   0.11115186  0.27779841  0.07870921
   0.05555406  0.22223644  0.15696162
   0.00013296  0.16680259  0.23395229
   0.16666480  0.00000337  0.23389396
   0.22204321  0.05561125  0.15714667
   0.27781553  0.11108232  0.07895354
   0.38871506  0.05563649  0.15727141
   0.33323970 -0.00001525  0.23394019
   0.16641174  0.16679016  0.23395614
   0.11114244  0.11106565  0.31194012
   0.05553240  0.05540380  0.38961210
   0.99979263  0.99996464  0.46640075
   0.27771707  0.27773543  0.07902956
   0.22203324  0.22234985  0.15714712
   0.05568218  0.38870510  0.15714909
   0.00012308  0.33307977  0.23395512
   0.44457938  0.11108413  0.07913842
   0.11114929  0.11103679  0.07870522
   0.05568571  0.05560159  0.15714504
   0.00011468 -0.00002725  0.23393759
   0.94437709  0.94421671  0.54471765
   0.39075729  0.56751435  0.46668182
   0.38301914  0.52197653  0.53396945
Direct configuration=     4
   0.44803099  0.61496776  0.54901889
   0.61558048  0.44224822  0.54274193
   0.77930250  0.27647578  0.54446883
   0.94446897  0.11111549  0.54441045
   0.94479034  0.27760504  0.54427569
   0.94449875  0.44437064  0.54441362
   0.77752586  0.61141450  0.54463629
   0.61079838  0.77744843  0.54487213
   0.44474530  0.94418213  0.54465075
   0.61107999  0.94444436  0.54410144
   0.77779530  0.94442011  0.54409244
   0.94516470  0.77740882  0.54491073
   0.94433385  0.61144192  0.54466318
   0.83332145  0.66661071  0.46624806
   0.66659886  0.83323027  0.46619355
   0.72223598  0.88884465  0.38985271
   0.88918689  0.72212888  0.38967591
   0.94433164  0.77781059  0.31179368
   0.77779246  0.94442368  0.31181413