<?xml version="1.0" encoding="ISO-8859-1"?>
<modeling>
 <generator>
  <i name="program" type="string">vasp </i>
  <i name="version" type="string">6.2.1  </i>
  <i name="subversion" type="string">16May21 (build May 12 2022 08:28:04) complex                          parallel </i>
  <i name="platform" type="string">LinuxPGI </i>
  <i name="date" type="string">2022 07 12 </i>
  <i name="time" type="string">04:30:53 </i>
 </generator>
 <incar>
  <i type="string" name="SYSTEM">NiAl</i>
  <i type="int" name="ISTART">     0</i>
  <i type="int" name="NELMIN">     6</i>
  <i type="int" name="IBRION">     2</i>
  <i name="EDIFF">      0.00000500</i>
  <i type="int" name="NSW">    40</i>
  <i type="int" name="ISIF">     0</i>
  <i name="ENCUT">    360.00000000</i>
  <i name="POTIM">      0.20000000</i>
  <i type="string" name="LREAL">Auto</i>
  <i type="logical" name="LPLANE"> T  </i>
  <i type="int" name="ISMEAR">     0</i>
  <i name="SIGMA">      0.05000000</i>
  <i type="logical" name="LWAVE"> F  </i>
  <i type="logical" name="LCHARG"> F  </i>
  <i type="int" name="IVDW">    12</i>
 </incar>
 <primitive_cell>
  <structure name="primitive_cell" >
   <crystal>
    <varray name="basis" >
     <v>      14.41508400       0.00000000       0.00000000 </v>
     <v>      -7.20754200      12.48382800       0.00000000 </v>
     <v>       0.00000000       0.00000000      31.11625400 </v>
    </varray>
    <i name="volume">   5599.53884558 </i>
    <varray name="rec_basis" >
     <v>       0.06937178       0.04005182      -0.00000000 </v>
     <v>       0.00000000       0.08010363       0.00000000 </v>
     <v>       0.00000000      -0.00000000       0.03213754 </v>
    </varray>
   </crystal>
   <varray name="positions" >
    <v>       0.00000000       0.00000000       0.06234511 </v>
    <v>       0.11111100       0.22222233       0.00790906 </v>
    <v>       0.11111100       0.22222233       0.13259929 </v>
    <v>       0.22222233       0.11111100       0.07816281 </v>
    <v>       0.22222233       0.11111100       0.20285304 </v>
    <v>       0.00000000       0.00000000       0.14841698 </v>
    <v>       0.00000000       0.00000000       0.27310721 </v>
    <v>       0.11111100       0.22222233       0.21867116 </v>
    <v>       0.11111100       0.22222233       0.34336139 </v>
    <v>       0.22222233       0.11111100       0.28892491 </v>
    <v>       0.22222233       0.11111100       0.41361514 </v>
    <v>       0.00000000       0.00000000       0.35917908 </v>
    <v>       1.00000000       0.33333333       0.06234511 </v>
    <v>       0.11111100       0.55555567       0.00790906 </v>
    <v>       0.11111100       0.55555567       0.13259929 </v>
    <v>       0.22222233       0.44444433       0.07816281 </v>
    <v>       0.22222233       0.44444433       0.20285304 </v>
    <v>       1.00000000       0.33333333       0.14841698 </v>
    <v>       1.00000000       0.33333333       0.27310721 </v>
    <v>       0.11111100       0.55555567       0.21867116 </v>
    <v>       0.11111100       0.55555567       0.34336139 </v>
    <v>       0.22222233       0.44444433       0.28892491 </v>
    <v>       0.22222233       0.44444433       0.41361514 </v>
    <v>       1.00000000       0.33333333       0.35917908 </v>
    <v>       1.00000000       0.66666667       0.06234511 </v>
    <v>       0.11111100       0.88888900       0.00790906 </v>
    <v>       0.11111100       0.88888900       0.13259929 </v>
    <v>       0.22222233       0.77777767       0.07816281 </v>
    <v>       0.22222233       0.77777767       0.20285304 </v>
    <v>       1.00000000       0.66666667       0.14841698 </v>
    <v>       1.00000000       0.66666667       0.27310721 </v>
    <v>       0.11111100       0.88888900       0.21867116 </v>
    <v>       0.11111100       0.88888900       0.34336139 </v>
    <v>       0.22222233       0.77777767       0.28892491 </v>
    <v>       0.22222233       0.77777767       0.41361514 </v>
    <v>       1.00000000       0.66666667       0.35917908 </v>
    <v>       0.33333333       0.00000000       0.06234511 </v>
    <v>       0.44444433       0.22222233       0.00790906 </v>
    <v>       0.44444433       0.22222233       0.13259929 </v>
    <v>       0.55555567       0.11111100       0.07816281 </v>
    <v>       0.55555567       0.11111100       0.20285304 </v>
    <v>       0.33333333       0.00000000       0.14841698 </v>
    <v>       0.33333333       0.00000000       0.27310721 </v>
    <v>       0.44444433       0.22222233       0.21867116 </v>
    <v>       0.44444433       0.22222233       0.34336139 </v>
    <v>       0.55555567       0.11111100       0.28892491 </v>
    <v>       0.55555567       0.11111100       0.41361514 </v>
    <v>       0.33333333       0.00000000       0.35917908 </v>
    <v>       0.33333333       0.33333333       0.06234511 </v>
    <v>       0.44444433       0.55555567       0.00790906 </v>
    <v>       0.44444433       0.55555567       0.13259929 </v>
    <v>       0.55555567       0.44444433       0.07816281 </v>
    <v>       0.55555567       0.44444433       0.20285304 </v>
    <v>       0.33333333       0.33333333       0.14841698 </v>
    <v>       0.33333333       0.33333333       0.27310721 </v>
    <v>       0.44444433       0.55555567       0.21867116 </v>
    <v>       0.44444433       0.55555567       0.34336139 </v>
    <v>       0.55555567       0.44444433       0.28892491 </v>
    <v>       0.55555567       0.44444433       0.41361514 </v>
    <v>       0.33333333       0.33333333       0.35917908 </v>
    <v>       0.33333333       0.66666667       0.06234511 </v>
    <v>       0.44444433       0.88888900       0.00790906 </v>
    <v>       0.44444433       0.88888900       0.13259929 </v>
    <v>       0.55555567       0.77777767       0.07816281 </v>
    <v>       0.55555567       0.77777767       0.20285304 </v>
    <v>       0.33333333       0.66666667       0.14841698 </v>
    <v>       0.33333333       0.66666667       0.27310721 </v>
    <v>       0.44444433       0.88888900       0.21867116 </v>
    <v>       0.44444433       0.88888900       0.34336139 </v>
    <v>       0.55555567       0.77777767       0.28892491 </v>
    <v>       0.55555567       0.77777767       0.41361514 </v>
    <v>       0.33333333       0.66666667       0.35917908 </v>
    <v>       0.66666667       0.00000000       0.06234511 </v>
    <v>       0.77777767       0.22222233       0.00790906 </v>
    <v>       0.77777767       0.22222233       0.13259929 </v>
    <v>       0.88888900       0.11111100       0.07816281 </v>
    <v>       0.88888900       0.11111100       0.20285304 </v>
    <v>       0.66666667       0.00000000       0.14841698 </v>
    <v>       0.66666667       0.00000000       0.27310721 </v>
    <v>       0.77777767       0.22222233       0.21867116 </v>
    <v>       0.77777767       0.22222233       0.34336139 </v>
    <v>       0.88888900       0.11111100       0.28892491 </v>
    <v>       0.88888900       0.11111100       0.41361514 </v>
    <v>       0.66666667       0.00000000       0.35917908 </v>
    <v>       0.66666667       0.33333333       0.06234511 </v>
    <v>       0.77777767       0.55555567       0.00790906 </v>
    <v>       0.77777767       0.55555567       0.13259929 </v>
    <v>       0.88888900       0.44444433       0.07816281 </v>
    <v>       0.88888900       0.44444433       0.20285304 </v>
    <v>       0.66666667       0.33333333       0.14841698 </v>
    <v>       0.66666667       0.33333333       0.27310721 </v>
    <v>       0.77777767       0.55555567       0.21867116 </v>
    <v>       0.77777767       0.55555567       0.34336139 </v>
    <v>       0.88888900       0.44444433       0.28892491 </v>
    <v>       0.88888900       0.44444433       0.41361514 </v>
    <v>       0.66666667       0.33333333       0.35917908 </v>
    <v>       0.66666667       0.66666667       0.06234511 </v>
    <v>       0.77777767       0.88888900       0.00790906 </v>
    <v>       0.77777767       0.88888900       0.13259929 </v>
    <v>       0.88888900       0.77777767       0.07816281 </v>
    <v>       0.88888900       0.77777767       0.20285304 </v>
    <v>       0.66666667       0.66666667       0.14841698 </v>
    <v>       0.66666667       0.66666667       0.27310721 </v>
    <v>       0.77777767       0.88888900       0.21867116 </v>
    <v>       0.77777767       0.88888900       0.34336139 </v>
    <v>       0.88888900       0.77777767       0.28892491 </v>
    <v>       0.88888900       0.77777767       0.41361514 </v>
    <v>       0.66666667       0.66666667       0.35917908 </v>
    <v>       0.10204867       0.00000000       0.10538105 </v>
    <v>       0.22222233       0.00906233       0.03512688 </v>
    <v>       1.00000000       0.10204867       0.10538105 </v>
    <v>       0.23128467       0.23128467       0.10538105 </v>
    <v>       0.32427100       0.21315967       0.03512688 </v>
    <v>       0.12017367       0.11111100       0.03512688 </v>
    <v>       0.32427100       0.11111100       0.24588897 </v>
    <v>       0.11111100       0.12017367       0.17563522 </v>
    <v>       0.22222233       0.21315967       0.24588897 </v>
    <v>       0.12017367       0.00906233       0.24588897 </v>
    <v>       0.21315967       0.32427100       0.17563522 </v>
    <v>       0.00906233       0.22222233       0.17563522 </v>
    <v>       0.21315967       0.22222233       0.38639732 </v>
    <v>       1.00000000       0.23128467       0.31614315 </v>
    <v>       0.11111100       0.32427100       0.38639732 </v>
    <v>       0.00906233       0.12017367       0.38639732 </v>
    <v>       0.10204867       0.10204867       0.31614315 </v>
    <v>       0.23128467       0.00000000       0.31614315 </v>
    <v>       0.10204867       0.33333333       0.10538105 </v>
    <v>       0.22222233       0.34239567       0.03512688 </v>
    <v>       1.00000000       0.43538200       0.10538105 </v>
    <v>       0.23128467       0.56461800       0.10538105 </v>
    <v>       0.32427100       0.54649300       0.03512688 </v>
    <v>       0.12017367       0.44444433       0.03512688 </v>
    <v>       0.32427100       0.44444433       0.24588897 </v>
    <v>       0.11111100       0.45350700       0.17563522 </v>
    <v>       0.22222233       0.54649300       0.24588897 </v>
    <v>       0.12017367       0.34239567       0.24588897 </v>
    <v>       0.21315967       0.65760433       0.17563522 </v>
    <v>       0.00906233       0.55555567       0.17563522 </v>
    <v>       0.21315967       0.55555567       0.38639732 </v>
    <v>       1.00000000       0.56461800       0.31614315 </v>
    <v>       0.11111100       0.65760433       0.38639732 </v>
    <v>       0.00906233       0.45350700       0.38639732 </v>
    <v>       0.10204867       0.43538200       0.31614315 </v>
    <v>       0.23128467       0.33333333       0.31614315 </v>
    <v>       0.10204867       0.66666667       0.10538105 </v>
    <v>       0.22222233       0.67572900       0.03512688 </v>
    <v>       1.00000000       0.76871533       0.10538105 </v>
    <v>       0.23128467       0.89795133       0.10538105 </v>
    <v>       0.32427100       0.87982633       0.03512688 </v>
    <v>       0.12017367       0.77777767       0.03512688 </v>
    <v>       0.32427100       0.77777767       0.24588897 </v>
    <v>       0.11111100       0.78684033       0.17563522 </v>
    <v>       0.22222233       0.87982633       0.24588897 </v>
    <v>       0.12017367       0.67572900       0.24588897 </v>
    <v>       0.21315967       0.99093767       0.17563522 </v>
    <v>       0.00906233       0.88888900       0.17563522 </v>
    <v>       0.21315967       0.88888900       0.38639732 </v>
    <v>       1.00000000       0.89795133       0.31614315 </v>
    <v>       0.11111100       0.99093767       0.38639732 </v>
    <v>       0.00906233       0.78684033       0.38639732 </v>
    <v>       0.10204867       0.76871533       0.31614315 </v>
    <v>       0.23128467       0.66666667       0.31614315 </v>
    <v>       0.43538200       0.00000000       0.10538105 </v>
    <v>       0.55555567       0.00906233       0.03512688 </v>
    <v>       0.33333333       0.10204867       0.10538105 </v>
    <v>       0.56461800       0.23128467       0.10538105 </v>
    <v>       0.65760433       0.21315967       0.03512688 </v>
    <v>       0.45350700       0.11111100       0.03512688 </v>
    <v>       0.65760433       0.11111100       0.24588897 </v>
    <v>       0.44444433       0.12017367       0.17563522 </v>
    <v>       0.55555567       0.21315967       0.24588897 </v>
    <v>       0.45350700       0.00906233       0.24588897 </v>
    <v>       0.54649300       0.32427100       0.17563522 </v>
    <v>       0.34239567       0.22222233       0.17563522 </v>
    <v>       0.54649300       0.22222233       0.38639732 </v>
    <v>       0.33333333       0.23128467       0.31614315 </v>
    <v>       0.44444433       0.32427100       0.38639732 </v>
    <v>       0.34239567       0.12017367       0.38639732 </v>
    <v>       0.43538200       0.10204867       0.31614315 </v>
    <v>       0.56461800       0.00000000       0.31614315 </v>
    <v>       0.43538200       0.33333333       0.10538105 </v>
    <v>       0.55555567       0.34239567       0.03512688 </v>
    <v>       0.33333333       0.43538200       0.10538105 </v>
    <v>       0.56461800       0.56461800       0.10538105 </v>
    <v>       0.65760433       0.54649300       0.03512688 </v>
    <v>       0.45350700       0.44444433       0.03512688 </v>
    <v>       0.65760433       0.44444433       0.24588897 </v>
    <v>       0.44444433       0.45350700       0.17563522 </v>
    <v>       0.55555567       0.54649300       0.24588897 </v>
    <v>       0.45350700       0.34239567       0.24588897 </v>
    <v>       0.54649300       0.65760433       0.17563522 </v>
    <v>       0.34239567       0.55555567       0.17563522 </v>
    <v>       0.54649300       0.55555567       0.38639732 </v>
    <v>       0.33333333       0.56461800       0.31614315 </v>
    <v>       0.44444433       0.65760433       0.38639732 </v>
    <v>       0.34239567       0.45350700       0.38639732 </v>
    <v>       0.43538200       0.43538200       0.31614315 </v>
    <v>       0.56461800       0.33333333       0.31614315 </v>
    <v>       0.43538200       0.66666667       0.10538105 </v>
    <v>       0.55555567       0.67572900       0.03512688 </v>
    <v>       0.33333333       0.76871533       0.10538105 </v>
    <v>       0.56461800       0.89795133       0.10538105 </v>
    <v>       0.65760433       0.87982633       0.03512688 </v>
    <v>       0.45350700       0.77777767       0.03512688 </v>
    <v>       0.65760433       0.77777767       0.24588897 </v>
    <v>       0.44444433       0.78684033       0.17563522 </v>
    <v>       0.55555567       0.87982633       0.24588897 </v>
    <v>       0.45350700       0.67572900       0.24588897 </v>
    <v>       0.54649300       0.99093767       0.17563522 </v>
    <v>       0.34239567       0.88888900       0.17563522 </v>
    <v>       0.54649300       0.88888900       0.38639732 </v>
    <v>       0.33333333       0.89795133       0.31614315 </v>
    <v>       0.44444433       0.99093767       0.38639732 </v>
    <v>       0.34239567       0.78684033       0.38639732 </v>
    <v>       0.43538200       0.76871533       0.31614315 </v>
    <v>       0.56461800       0.66666667       0.31614315 </v>
    <v>       0.76871533       0.00000000       0.10538105 </v>
    <v>       0.88888900       0.00906233       0.03512688 </v>
    <v>       0.66666667       0.10204867       0.10538105 </v>
    <v>       0.89795133       0.23128467       0.10538105 </v>
    <v>       0.99093767       0.21315967       0.03512688 </v>
    <v>       0.78684033       0.11111100       0.03512688 </v>
    <v>       0.99093767       0.11111100       0.24588897 </v>
    <v>       0.77777767       0.12017367       0.17563522 </v>
    <v>       0.88888900       0.21315967       0.24588897 </v>
    <v>       0.78684033       0.00906233       0.24588897 </v>
    <v>       0.87982633       0.32427100       0.17563522 </v>
    <v>       0.67572900       0.22222233       0.17563522 </v>
    <v>       0.87982633       0.22222233       0.38639732 </v>
    <v>       0.66666667       0.23128467       0.31614315 </v>
    <v>       0.77777767       0.32427100       0.38639732 </v>
    <v>       0.67572900       0.12017367       0.38639732 </v>
    <v>       0.76871533       0.10204867       0.31614315 </v>
    <v>       0.89795133       0.00000000       0.31614315 </v>
    <v>       0.76871533       0.33333333       0.10538105 </v>
    <v>       0.88888900       0.34239567       0.03512688 </v>
    <v>       0.66666667       0.43538200       0.10538105 </v>
    <v>       0.89795133       0.56461800       0.10538105 </v>
    <v>       0.99093767       0.54649300       0.03512688 </v>
    <v>       0.78684033       0.44444433       0.03512688 </v>
    <v>       0.99093767       0.44444433       0.24588897 </v>
    <v>       0.77777767       0.45350700       0.17563522 </v>
    <v>       0.88888900       0.54649300       0.24588897 </v>
    <v>       0.78684033       0.34239567       0.24588897 </v>
    <v>       0.87982633       0.65760433       0.17563522 </v>
    <v>       0.67572900       0.55555567       0.17563522 </v>
    <v>       0.87982633       0.55555567       0.38639732 </v>
    <v>       0.66666667       0.56461800       0.31614315 </v>
    <v>       0.77777767       0.65760433       0.38639732 </v>
    <v>       0.67572900       0.45350700       0.38639732 </v>
    <v>       0.76871533       0.43538200       0.31614315 </v>
    <v>       0.89795133       0.33333333       0.31614315 </v>
    <v>       0.76871533       0.66666667       0.10538105 </v>
    <v>       0.88888900       0.67572900       0.03512688 </v>
    <v>       0.66666667       0.76871533       0.10538105 </v>
    <v>       0.89795133       0.89795133       0.10538105 </v>
    <v>       0.99093767       0.87982633       0.03512688 </v>
    <v>       0.78684033       0.77777767       0.03512688 </v>
    <v>       0.99093767       0.77777767       0.24588897 </v>
    <v>       0.77777767       0.78684033       0.17563522 </v>
    <v>       0.88888900       0.87982633       0.24588897 </v>
    <v>       0.78684033       0.67572900       0.24588897 </v>
    <v>       0.87982633       0.99093767       0.17563522 </v>
    <v>       0.67572900       0.88888900       0.17563522 </v>
    <v>       0.87982633       0.88888900       0.38639732 </v>
    <v>       0.66666667       0.89795133       0.31614315 </v>
    <v>       0.77777767       0.99093767       0.38639732 </v>
    <v>       0.67572900       0.78684033       0.38639732 </v>
    <v>       0.76871533       0.76871533       0.31614315 </v>
    <v>       0.89795133       0.66666667       0.31614315 </v>
    <v>       0.46187937       0.46187937       0.44575268 </v>
    <v>       0.50994155       0.55800373       0.44575268 </v>
   </varray>
  </structure>
  <varray name="primitive_index" >
   <v type="int" >        1 </v>
   <v type="int" >        2 </v>
   <v type="int" >        3 </v>
   <v type="int" >        4 </v>
   <v type="int" >        5 </v>
   <v type="int" >        6 </v>
   <v type="int" >        7 </v>
   <v type="int" >        8 </v>
   <v type="int" >        9 </v>
   <v type="int" >       10 </v>
   <v type="int" >       11 </v>
   <v type="int" >       12 </v>
   <v type="int" >       13 </v>
   <v type="int" >       14 </v>
   <v type="int" >       15 </v>
   <v type="int" >       16 </v>
   <v type="int" >       17 </v>
   <v type="int" >       18 </v>
   <v type="int" >       19 </v>
   <v type="int" >       20 </v>
   <v type="int" >       21 </v>
   <v type="int" >       22 </v>
   <v type="int" >       23 </v>
   <v type="int" >       24 </v>
   <v type="int" >       25 </v>
   <v type="int" >       26 </v>
   <v type="int" >       27 </v>
   <v type="int" >       28 </v>
   <v type="int" >       29 </v>
   <v type="int" >       30 </v>
   <v type="int" >       31 </v>
   <v type="int" >       32 </v>
   <v type="int" >       33 </v>
   <v type="int" >       34 </v>
   <v type="int" >       35 </v>
   <v type="int" >       36 </v>
   <v type="int" >       37 </v>
   <v type="int" >       38 </v>
   <v type="int" >       39 </v>
   <v type="int" >       40 </v>
   <v type="int" >       41 </v>
   <v type="int" >       42 </v>
   <v type="int" >       43 </v>
   <v type="int" >       44 </v>
   <v type="int" >       45 </v>
   <v type="int" >       46 </v>
   <v type="int" >       47 </v>
   <v type="int" >       48 </v>
   <v type="int" >       49 </v>
   <v type="int" >       50 </v>
   <v type="int" >       51 </v>
   <v type="int" >       52 </v>
   <v type="int" >       53 </v>
   <v type="int" >       54 </v>
   <v type="int" >       55 </v>
   <v type="int" >       56 </v>
   <v type="int" >       57 </v>
   <v type="int" >       58 </v>
   <v type="int" >       59 </v>
   <v type="int" >       60 </v>
   <v type="int" >       61 </v>
   <v type="int" >       62 </v>
   <v type="int" >       63 </v>
   <v type="int" >       64 </v>
   <v type="int" >       65 </v>
   <v type="int" >       66 </v>
   <v type="int" >       67 </v>
   <v type="int" >       68 </v>
   <v type="int" >       69 </v>
   <v type="int" >       70 </v>
   <v type="int" >       71 </v>
   <v type="int" >       72 </v>
   <v type="int" >       73 </v>
   <v type="int" >       74 </v>
   <v type="int" >       75 </v>
   <v type="int" >       76 </v>
   <v type="int" >       77 </v>
   <v type="int" >       78 </v>
   <v type="int" >       79 </v>
   <v type="int" >       80 </v>
   <v type="int" >       81 </v>
   <v type="int" >       82 </v>
   <v type="int" >       83 </v>
   <v type="int" >       84 </v>
   <v type="int" >       85 </v>
   <v type="int" >       86 </v>
   <v type="int" >       87 </v>
   <v type="int" >       88 </v>
   <v type="int" >       89 </v>
   <v type="int" >       90 </v>
   <v type="int" >       91 </v>
   <v type="int" >       92 </v>
   <v type="int" >       93 </v>
   <v type="int" >       94 </v>
   <v type="int" >       95 </v>
   <v type="int" >       96 </v>
   <v type="int" >       97 </v>
   <v type="int" >       98 </v>
   <v type="int" >       99 </v>
   <v type="int" >      100 </v>
   <v type="int" >      101 </v>
   <v type="int" >      102 </v>
   <v type="int" >      103 </v>
   <v type="int" >      104 </v>
   <v type="int" >      105 </v>
   <v type="int" >      106 </v>
   <v type="int" >      107 </v>
   <v type="int" >      108 </v>
   <v type="int" >      109 </v>
   <v type="int" >      110 </v>
   <v type="int" >      111 </v>
   <v type="int" >      112 </v>
   <v type="int" >      113 </v>
   <v type="int" >      114 </v>
   <v type="int" >      115 </v>
   <v type="int" >      116 </v>
   <v type="int" >      117 </v>
   <v type="int" >      118 </v>
   <v type="int" >      119 </v>
   <v type="int" >      120 </v>
   <v type="int" >      121 </v>
   <v type="int" >      122 </v>
   <v type="int" >      123 </v>
   <v type="int" >      124 </v>
   <v type="int" >      125 </v>
   <v type="int" >      126 </v>
   <v type="int" >      127 </v>
   <v type="int" >      128 </v>
   <v type="int" >      129 </v>
   <v type="int" >      130 </v>
   <v type="int" >      131 </v>
   <v type="int" >      132 </v>
   <v type="int" >      133 </v>
   <v type="int" >      134 </v>
   <v type="int" >      135 </v>
   <v type="int" >      136 </v>
   <v type="int" >      137 </v>
   <v type="int" >      138 </v>
   <v type="int" >      139 </v>
   <v type="int" >      140 </v>
   <v type="int" >      141 </v>
   <v type="int" >      142 </v>
   <v type="int" >      143 </v>
   <v type="int" >      144 </v>
   <v type="int" >      145 </v>
   <v type="int" >      146 </v>
   <v type="int" >      147 </v>
   <v type="int" >      148 </v>
   <v type="int" >      149 </v>
   <v type="int" >      150 </v>
   <v type="int" >      151 </v>
   <v type="int" >      152 </v>
   <v type="int" >      153 </v>
   <v type="int" >      154 </v>
   <v type="int" >      155 </v>
   <v type="int" >      156 </v>
   <v type="int" >      157 </v>
   <v type="int" >      158 </v>
   <v type="int" >      159 </v>
   <v type="int" >      160 </v>
   <v type="int" >      161 </v>
   <v type="int" >      162 </v>
   <v type="int" >      163 </v>
   <v type="int" >      164 </v>
   <v type="int" >      165 </v>
   <v type="int" >      166 </v>
   <v type="int" >      167 </v>
   <v type="int" >      168 </v>
   <v type="int" >      169 </v>
   <v type="int" >      170 </v>
   <v type="int" >      171 </v>
   <v type="int" >      172 </v>
   <v type="int" >      173 </v>
   <v type="int" >      174 </v>
   <v type="int" >      175 </v>
   <v type="int" >      176 </v>
   <v type="int" >      177 </v>
   <v type="int" >      178 </v>
   <v type="int" >      179 </v>
   <v type="int" >      180 </v>
   <v type="int" >      181 </v>
   <v type="int" >      182 </v>
   <v type="int" >      183 </v>
   <v type="int" >      184 </v>
   <v type="int" >      185 </v>
   <v type="int" >      186 </v>
   <v type="int" >      187 </v>
   <v type="int" >      188 </v>
   <v type="int" >      189 </v>
   <v type="int" >      190 </v>
   <v type="int" >      191 </v>
   <v type="int" >      192 </v>
   <v type="int" >      193 </v>
   <v type="int" >      194 </v>
   <v type="int" >      195 </v>
   <v type="int" >      196 </v>
   <v type="int" >      197 </v>
   <v type="int" >      198 </v>
   <v type="int" >      199 </v>
   <v type="int" >      200 </v>
   <v type="int" >      201 </v>
   <v type="int" >      202 </v>
   <v type="int" >      203 </v>
   <v type="int" >      204 </v>
   <v type="int" >      205 </v>
   <v type="int" >      206 </v>
   <v type="int" >      207 </v>
   <v type="int" >      208 </v>
   <v type="int" >      209 </v>
   <v type="int" >      210 </v>
   <v type="int" >      211 </v>
   <v type="int" >      212 </v>
   <v type="int" >      213 </v>
   <v type="int" >      214 </v>
   <v type="int" >      215 </v>
   <v type="int" >      216 </v>
   <v type="int" >      217 </v>
   <v type="int" >      218 </v>
   <v type="int" >      219 </v>
   <v type="int" >      220 </v>
   <v type="int" >      221 </v>
   <v type="int" >      222 </v>
   <v type="int" >      223 </v>
   <v type="int" >      224 </v>
   <v type="int" >      225 </v>
   <v type="int" >      226 </v>
   <v type="int" >      227 </v>
   <v type="int" >      228 </v>
   <v type="int" >      229 </v>
   <v type="int" >      230 </v>
   <v type="int" >      231 </v>
   <v type="int" >      232 </v>
   <v type="int" >      233 </v>
   <v type="int" >      234 </v>
   <v type="int" >      235 </v>
   <v type="int" >      236 </v>
   <v type="int" >      237 </v>
   <v type="int" >      238 </v>
   <v type="int" >      239 </v>
   <v type="int" >      240 </v>
   <v type="int" >      241 </v>
   <v type="int" >      242 </v>
   <v type="int" >      243 </v>
   <v type="int" >      244 </v>
   <v type="int" >      245 </v>
   <v type="int" >      246 </v>
   <v type="int" >      247 </v>
   <v type="int" >      248 </v>
   <v type="int" >      249 </v>
   <v type="int" >      250 </v>
   <v type="int" >      251 </v>
   <v type="int" >      252 </v>
   <v type="int" >      253 </v>
   <v type="int" >      254 </v>
   <v type="int" >      255 </v>
   <v type="int" >      256 </v>
   <v type="int" >      257 </v>
   <v type="int" >      258 </v>
   <v type="int" >      259 </v>
   <v type="int" >      260 </v>
   <v type="int" >      261 </v>
   <v type="int" >      262 </v>
   <v type="int" >      263 </v>
   <v type="int" >      264 </v>
   <v type="int" >      265 </v>
   <v type="int" >      266 </v>
   <v type="int" >      267 </v>
   <v type="int" >      268 </v>
   <v type="int" >      269 </v>
   <v type="int" >      270 </v>
   <v type="int" >      271 </v>
   <v type="int" >      272 </v>
  </varray>
 </primitive_cell>
 <kpoints>
  <generation param="Gamma">
   <v type="int" name="divisions">       2        2        1 </v>
   <v name="usershift">      0.00000000       0.00000000       0.00000000 </v>
   <v name="genvec1">      0.50000000      -0.00000000       0.00000000 </v>
   <v name="genvec2">      0.00000000       0.50000000       0.00000000 </v>
   <v name="genvec3">      0.00000000       0.00000000       1.00000000 </v>
   <v name="shift">      0.00000000       0.00000000       0.00000000 </v>
  </generation>
  <varray name="kpointlist" >
   <v>       0.00000000       0.00000000       0.00000000 </v>
   <v>       0.50000000       0.00000000       0.00000000 </v>
   <v>       0.00000000       0.50000000       0.00000000 </v>
   <v>       0.50000000       0.50000000       0.00000000 </v>
  </varray>
  <varray name="weights" >
   <v>       0.25000000 </v>
   <v>       0.25000000 </v>
   <v>       0.25000000 </v>
   <v>       0.25000000 </v>
  </varray>
 </kpoints>
 <parameters>
  <separator name="general" >
   <i type="string" name="SYSTEM">NiAl</i>
   <i type="logical" name="LCOMPAT"> F  </i>
  </separator>
  <separator name="electronic" >
   <i type="string" name="PREC">normal</i>
   <i name="ENMAX">    360.00000000</i>
   <i name="ENAUG">   1139.60900000</i>
   <i name="EDIFF">      0.00000500</i>
   <i type="int" name="IALGO">    38</i>
   <i type="int" name="IWAVPR">    11</i>
   <i type="int" name="NBANDS">   791</i>
   <i type="int" name="NBANDSLOW">    -1</i>
   <i type="int" name="NBANDSHIGH">    -1</i>
   <i name="NELECT">   1308.00000000</i>
   <i type="int" name="TURBO">     0</i>
   <i type="int" name="IRESTART">     0</i>
   <i type="int" name="NREBOOT">     0</i>
   <i type="int" name="NMIN">     0</i>
   <i name="EREF">      0.00000000</i>
   <separator name="electronic smearing" >
    <i type="int" name="ISMEAR">     0</i>
    <i name="SIGMA">      0.05000000</i>
    <i name="KSPACING">      0.50000000</i>
    <i type="logical" name="KGAMMA"> T  </i>
    <i type="logical" name="KBLOWUP"> T  </i>
   </separator>
   <separator name="electronic projectors" >
    <i type="logical" name="LREAL"> T  </i>
    <v name="ROPT">     -0.00050000     -0.00050000</v>
    <i type="int" name="LMAXPAW">  -100</i>
    <i type="int" name="LMAXMIX">     2</i>
    <i type="logical" name="NLSPLINE"> F  </i>
   </separator>
   <separator name="electronic startup" >
    <i type="int" name="ISTART">     0</i>
    <i type="int" name="ICHARG">     2</i>
    <i type="int" name="INIWAV">     1</i>
   </separator>
   <separator name="electronic spin" >
    <i type="int" name="ISPIN">     1</i>
    <i type="logical" name="LNONCOLLINEAR"> F  </i>
    <v name="MAGMOM">      1.00000000      1.00000000      1.00000000      1.00000000      1.00000000      1.00000000      1.00000000      1.00000000      1.00000000      1.00000000      1.00000000      1.00000000      1.00000000      1.00000000      1.00000000      1.00000000      1.00000000      1.00000000      1.00000000      1.00000000
      1.00000000      1.00000000      1.00000000      1.00000000      1.00000000      1.00000000      1.00000000      1.00000000      1.00000000      1.00000000      1.00000000      1.00000000      1.00000000      1.00000000      1.00000000      1.00000000      1.00000000      1.00000000      1.00000000      1.00000000
      1.00000000      1.00000000      1.00000000      1.00000000      1.00000000      1.00000000      1.00000000      1.00000000      1.00000000      1.00000000      1.00000000      1.00000000      1.00000000      1.00000000      1.00000000      1.00000000      1.00000000      1.00000000      1.00000000      1.00000000
      1.00000000      1.00000000      1.00000000      1.00000000      1.00000000      1.00000000      1.00000000      1.00000000      1.00000000      1.00000000      1.00000000      1.00000000      1.00000000      1.00000000      1.00000000      1.00000000      1.00000000      1.00000000      1.00000000      1.00000000
      1.00000000      1.00000000      1.00000000      1.00000000      1.00000000      1.00000000      1.00000000      1.00000000      1.00000000      1.00000000      1.00000000      1.00000000      1.00000000      1.00000000      1.00000000      1.00000000      1.00000000      1.00000000      1.00000000      1.00000000
      1.00000000      1.00000000      1.00000000      1.00000000      1.00000000      1.00000000      1.00000000      1.00000000      1.00000000      1.00000000      1.00000000      1.00000000      1.00000000      1.00000000      1.00000000      1.00000000      1.00000000      1.00000000      1.00000000      1.00000000
      1.00000000      1.00000000      1.00000000      1.00000000      1.00000000      1.00000000      1.00000000      1.00000000      1.00000000      1.00000000      1.00000000      1.00000000      1.00000000      1.00000000      1.00000000      1.00000000      1.00000000      1.00000000      1.00000000      1.00000000
      1.00000000      1.00000000      1.00000000      1.00000000      1.00000000      1.00000000      1.00000000      1.00000000      1.00000000      1.00000000      1.00000000      1.00000000      1.00000000      1.00000000      1.00000000      1.00000000      1.00000000      1.00000000      1.00000000      1.00000000
      1.00000000      1.00000000      1.00000000      1.00000000      1.00000000      1.00000000      1.00000000      1.00000000      1.00000000      1.00000000      1.00000000      1.00000000      1.00000000      1.00000000      1.00000000      1.00000000      1.00000000      1.00000000      1.00000000      1.00000000
      1.00000000      1.00000000      1.00000000      1.00000000      1.00000000      1.00000000      1.00000000      1.00000000      1.00000000      1.00000000      1.00000000      1.00000000      1.00000000      1.00000000      1.00000000      1.00000000      1.00000000      1.00000000      1.00000000      1.00000000
      1.00000000      1.00000000      1.00000000      1.00000000      1.00000000      1.00000000      1.00000000      1.00000000      1.00000000      1.00000000      1.00000000      1.00000000      1.00000000      1.00000000      1.00000000      1.00000000      1.00000000      1.00000000      1.00000000      1.00000000
      1.00000000      1.00000000      1.00000000      1.00000000      1.00000000      1.00000000      1.00000000      1.00000000      1.00000000      1.00000000      1.00000000      1.00000000      1.00000000      1.00000000      1.00000000      1.00000000      1.00000000      1.00000000      1.00000000      1.00000000
      1.00000000      1.00000000      1.00000000      1.00000000      1.00000000      1.00000000      1.00000000      1.00000000      1.00000000      1.00000000      1.00000000      1.00000000      1.00000000      1.00000000      1.00000000      1.00000000      1.00000000      1.00000000      1.00000000      1.00000000
      1.00000000      1.00000000      1.00000000      1.00000000      1.00000000      1.00000000      1.00000000      1.00000000      1.00000000      1.00000000      1.00000000      1.00000000</v>
    <i name="NUPDOWN">     -1.00000000</i>
    <i type="logical" name="LSORBIT"> F  </i>
    <v name="SAXIS">      0.00000000      0.00000000      1.00000000</v>
    <i type="logical" name="LSPIRAL"> F  </i>
    <v name="QSPIRAL">      0.00000000      0.00000000      0.00000000</v>
    <i type="logical" name="LZEROZ"> F  </i>
   </separator>
   <separator name="electronic exchange-correlation" >
    <i type="logical" name="LASPH"> F  </i>
    <i type="logical" name="LMETAGGA"> F  </i>
   </separator>
   <separator name="electronic convergence" >
    <i type="int" name="NELM">    60</i>
    <i type="int" name="NELMDL">    -5</i>
    <i type="int" name="NELMIN">     6</i>
    <i name="ENINI">    360.00000000</i>
    <separator name="electronic convergence detail" >
     <i type="logical" name="LDIAG"> T  </i>
     <i type="logical" name="LSUBROT"> F  </i>
     <i name="WEIMIN">      0.00100000</i>
     <i name="EBREAK">      0.00000000</i>
     <i name="DEPER">      0.30000000</i>
     <i type="int" name="NRMM">     4</i>
     <i name="TIME">      0.40000000</i>
    </separator>
   </separator>
   <separator name="electronic mixer" >
    <i name="AMIX">      0.40000000</i>
    <i name="BMIX">      1.00000000</i>
    <i name="AMIN">      0.10000000</i>
    <i name="AMIX_MAG">      1.60000000</i>
    <i name="BMIX_MAG">      1.00000000</i>
    <separator name="electronic mixer details" >
     <i type="int" name="IMIX">     4</i>
     <i type="logical" name="MIXFIRST"> F  </i>
     <i type="int" name="MAXMIX">   -45</i>
     <i name="WC">    100.00000000</i>
     <i type="int" name="INIMIX">     1</i>
     <i type="int" name="MIXPRE">     1</i>
     <i type="int" name="MREMOVE">     5</i>
    </separator>
   </separator>
   <separator name="electronic dipolcorrection" >
    <i type="logical" name="LDIPOL"> F  </i>
    <i type="logical" name="LMONO"> F  </i>
    <i type="int" name="IDIPOL">     0</i>
    <i name="EPSILON">      1.00000000</i>
    <v name="DIPOL">   -100.00000000   -100.00000000   -100.00000000</v>
    <i name="EFIELD">      0.00000000</i>
   </separator>
  </separator>
  <separator name="grids" >
   <i type="int" name="NGX">    70</i>
   <i type="int" name="NGY">    70</i>
   <i type="int" name="NGZ">   144</i>
   <i type="int" name="NGXF">   140</i>
   <i type="int" name="NGYF">   140</i>
   <i type="int" name="NGZF">   288</i>
   <i type="logical" name="ADDGRID"> F  </i>
  </separator>
  <separator name="ionic" >
   <i type="int" name="NSW">    40</i>
   <i type="int" name="IBRION">     2</i>
   <i type="int" name="MDALGO">     0</i>
   <i type="int" name="ISIF">     0</i>
   <i name="PSTRESS">      0.00000000</i>
   <i name="EDIFFG">      0.00005000</i>
   <i type="int" name="NFREE">     1</i>
   <i name="POTIM">      0.20000000</i>
   <i name="SMASS">     -3.00000000</i>
   <i name="SCALEE">      1.00000000</i>
  </separator>
  <separator name="ionic md" >
   <i name="TEBEG">      0.00010000</i>
   <i name="TEEND">      0.00010000</i>
   <i type="int" name="NBLOCK">     1</i>
   <i type="int" name="KBLOCK">    40</i>
   <i type="int" name="NPACO">   256</i>
   <i name="APACO">     16.00000000</i>
  </separator>
  <separator name="symmetry" >
   <i type="int" name="ISYM">     2</i>
   <i name="SYMPREC">      0.00001000</i>
  </separator>
  <separator name="dos" >
   <i type="int" name="LORBIT">     0</i>
   <v name="RWIGS">     -1.00000000     -1.00000000</v>
   <i type="int" name="NEDOS">   301</i>
   <i name="EMIN">     10.00000000</i>
   <i name="EMAX">    -10.00000000</i>
   <i name="EFERMI">      0.00000000</i>
  </separator>
  <separator name="writing" >
   <i type="int" name="NWRITE">     2</i>
   <i type="logical" name="LWAVE"> F  </i>
   <i type="logical" name="LDOWNSAMPLE"> F  </i>
   <i type="logical" name="LCHARG"> F  </i>
   <i type="logical" name="LPARD"> F  </i>
   <i type="logical" name="LVTOT"> F  </i>
   <i type="logical" name="LVHAR"> F  </i>
   <i type="logical" name="LELF"> F  </i>
   <i type="logical" name="LOPTICS"> F  </i>
   <v name="STM">      0.00000000      0.00000000      0.00000000      0.00000000      0.00000000      0.00000000      0.00000000</v>
  </separator>
  <separator name="performance" >
   <i type="int" name="NPAR">     1</i>
   <i type="int" name="NSIM">     4</i>
   <i type="int" name="NBLK">    -1</i>
   <i type="logical" name="LPLANE"> T  </i>
   <i type="logical" name="LSCALAPACK"> T  </i>
   <i type="logical" name="LSCAAWARE"> F  </i>
   <i type="logical" name="LSCALU"> F  </i>
   <i type="logical" name="LASYNC"> F  </i>
   <i type="logical" name="LORBITALREAL"> F  </i>
  </separator>
  <separator name="miscellaneous" >
   <i type="int" name="IDIOT">     3</i>
   <i type="int" name="PHON_NSTRUCT">    -1</i>
   <i type="logical" name="LMUSIC"> F  </i>
   <v name="POMASS">     26.98200000     16.00000000</v>
   <v name="DARWINR">      0.00000000      0.00000000</v>
   <v name="DARWINV">      1.00000000      1.00000000</v>
   <i type="logical" name="LCORR"> T  </i>
  </separator>
  <i type="logical" name="GGA_COMPAT"> T  </i>
  <i type="logical" name="LBERRY"> F  </i>
  <i type="int" name="ICORELEVEL">     0</i>
  <i type="logical" name="LDAU"> F  </i>
  <i type="int" name="I_CONSTRAINED_M">     0</i>
  <separator name="electronic exchange-correlation" >
   <i type="string" name="GGA">--</i>
   <i type="int" name="VOSKOWN">     0</i>
   <i type="logical" name="LHFCALC"> F  </i>
   <i type="string" name="PRECFOCK"></i>
   <i type="logical" name="LSYMGRAD"> F  </i>
   <i type="logical" name="LHFONE"> F  </i>
   <i type="logical" name="LRHFCALC"> F  </i>
   <i type="logical" name="LTHOMAS"> F  </i>
   <i type="logical" name="LMODELHF"> F  </i>
   <i type="logical" name="LFOCKACE"> F  </i>
   <i name="ENCUT4O">     -1.00000000</i>
   <i type="int" name="EXXOEP">     0</i>
   <i type="int" name="FOURORBIT">     0</i>
   <i name="AEXX">      0.00000000</i>
   <i name="HFALPHA">      0.00000000</i>
   <i name="MCALPHA">      0.00000000</i>
   <i name="ALDAX">      1.00000000</i>
   <i name="AGGAX">      1.00000000</i>
   <i name="ALDAC">      1.00000000</i>
   <i name="AGGAC">      1.00000000</i>
   <i type="int" name="NKREDX">     1</i>
   <i type="int" name="NKREDY">     1</i>
   <i type="int" name="NKREDZ">     1</i>
   <i type="logical" name="SHIFTRED"> F  </i>
   <i type="logical" name="ODDONLY"> F  </i>
   <i type="logical" name="EVENONLY"> F  </i>
   <i type="int" name="LMAXFOCK">     0</i>
   <i type="int" name="NMAXFOCKAE">     0</i>
   <i type="logical" name="LFOCKAEDFT"> F  </i>
   <i name="HFSCREEN">      0.00000000</i>
   <i name="HFSCREENC">      0.00000000</i>
   <i type="int" name="NBANDSGWLOW">     0</i>
  </separator>
  <separator name="vdW DFT" >
   <i type="logical" name="LUSE_VDW"> F  </i>
   <i name="Zab_VDW">     -0.84910000</i>
   <i name="PARAM1">      0.12340000</i>
   <i name="PARAM2">      1.00000000</i>
   <i name="PARAM3">      0.00000000</i>
  </separator>
  <separator name="model GW" >
   <i type="int" name="MODEL_GW">     0</i>
   <i name="MODEL_EPS0">     12.35192392</i>
   <i name="MODEL_ALPHA">      1.00000000</i>
  </separator>
  <separator name="linear response parameters" >
   <i type="logical" name="LEPSILON"> F  </i>
   <i type="logical" name="LRPA"> F  </i>
   <i type="logical" name="LNABLA"> F  </i>
   <i type="logical" name="LVEL"> F  </i>
   <i type="int" name="KINTER">     0</i>
   <i name="CSHIFT">      0.10000000</i>
   <i name="OMEGAMAX">     -1.00000000</i>
   <i name="DEG_THRESHOLD">      0.00200000</i>
   <i name="RTIME">     -0.10000000</i>
   <i name="WPLASMAI">      0.00000000</i>
   <v name="DFIELD">      0.00000000      0.00000000      0.00000000</v>
   <v name="WPLASMA">      0.00000000      0.00000000      0.00000000      0.00000000      0.00000000      0.00000000      0.00000000      0.00000000      0.00000000</v>
  </separator>
  <separator name="orbital magnetization" >
   <i type="logical" name="NUCIND"> F  </i>
   <v name="MAGPOS">      0.00000000      0.00000000      0.00000000</v>
   <i type="logical" name="LNICSALL"> T  </i>
   <i type="logical" name="ORBITALMAG"> F  </i>
   <i type="logical" name="LMAGBLOCH"> F  </i>
   <i type="logical" name="LCHIMAG"> F  </i>
   <i type="logical" name="LGAUGE"> T  </i>
   <i type="int" name="MAGATOM">     0</i>
   <v name="MAGDIPOL">      0.00000000      0.00000000      0.00000000</v>
   <v name="AVECCONST">      0.00000000      0.00000000      0.00000000</v>
  </separator>
  <separator name="response functions" >
   <i type="logical" name="LFINITE_TEMPERATURE"> F  </i>
   <i type="logical" name="LADDER"> F  </i>
   <i type="logical" name="LRPAFORCE"> F  </i>
   <i type="logical" name="LFXC"> F  </i>
   <i type="logical" name="LHARTREE"> T  </i>
   <i type="int" name="IBSE">     0</i>
   <v type="int" name="KPOINT">    -1     0     0     0</v>
   <i type="logical" name="LTCTC"> F  </i>
   <i type="logical" name="LTCTE"> F  </i>
   <i type="logical" name="LTETE"> F  </i>
   <i type="logical" name="LTRIPLET"> F  </i>
   <i type="logical" name="LFXCEPS"> F  </i>
   <i type="logical" name="LFXHEG"> F  </i>
   <i type="int" name="NATURALO">     2</i>
   <i type="logical" name="LHOLEGF"> F  </i>
   <i type="logical" name="L2ORDER"> F  </i>
   <i type="logical" name="LDMP1"> F  </i>
   <i type="logical" name="LMP2LT"> F  </i>
   <i type="logical" name="LSMP2LT"> F  </i>
   <i type="logical" name="LGWLF"> F  </i>
   <i name="ENCUTGW">     -2.00000000</i>
   <i name="ENCUTGWSOFT">     -2.00000000</i>
   <i name="ENCUTLF">     -1.00000000</i>
   <i type="logical" name="LESF_SPLINES"> F  </i>
   <i type="int" name="LMAXMP2">    -1</i>
   <i name="SCISSOR">      0.00000000</i>
   <i type="int" name="NOMEGA">     0</i>
   <i type="int" name="NOMEGAR">     0</i>
   <i type="int" name="NBANDSGW">    -1</i>
   <i type="int" name="NBANDSO">    -1</i>
   <i type="int" name="NBANDSV">    -1</i>
   <i type="int" name="NELM">     1</i>
   <i type="int" name="NELMHF">     1</i>
   <i type="int" name="DIM">     3</i>
   <i type="int" name="IESPILON">     4</i>
   <i type="int" name="ANTIRES">     0</i>
   <i name="OMEGAMAX">    -30.00000000</i>
   <i name="OMEGAMIN">    -30.00000000</i>
   <i name="OMEGATL">   -200.00000000</i>
   <i type="int" name="OMEGAGRID">     0</i>
   <i name="CSHIFT">     -0.10000000</i>
   <i type="logical" name="LSELFENERGY"> F  </i>
   <i type="logical" name="LSPECTRAL"> F  </i>
   <i type="logical" name="LSPECTRALGW"> F  </i>
   <i type="logical" name="LSINGLES"> F  </i>
   <i type="logical" name="LFERMIGW"> F  </i>
   <i type="logical" name="ODDONLYGW"> F  </i>
   <i type="logical" name="EVENONLYGW"> F  </i>
   <i type="int" name="NKREDLFX">     1</i>
   <i type="int" name="NKREDLFY">     1</i>
   <i type="int" name="NKREDLFZ">     1</i>
   <i type="int" name="MAXMEM">  2800</i>
   <i type="int" name="TELESCOPE">     0</i>
   <i type="int" name="NTAUPAR">    -1</i>
   <i type="int" name="NOMEGAPAR">    -1</i>
   <i name="DAMP_NEWTON">      0.80000001</i>
   <i name="LAMBDA">      1.00000000</i>
  </separator>
  <separator name="External order field" >
   <i name="OFIELD_KAPPA">      0.00000000</i>
   <v name="OFIELD_K">      0.00000000      0.00000000      0.00000000</v>
   <i name="OFIELD_Q6_NEAR">      0.00000000</i>
   <i name="OFIELD_Q6_FAR">      0.00000000</i>
   <i name="OFIELD_A">      0.00000000</i>
  </separator>
 </parameters>
 <atominfo>
  <atoms>     272 </atoms>
  <types>       2 </types>
  <array name="atoms" >
   <dimension dim="1">ion</dimension>
   <field type="string">element</field>
   <field type="int">atomtype</field>
   <set>
    <rc><c>Al</c><c>   1</c></rc>
    <rc><c>Al</c><c>   1</c></rc>
    <rc><c>Al</c><c>   1</c></rc>
    <rc><c>Al</c><c>   1</c></rc>
    <rc><c>Al</c><c>   1</c></rc>
    <rc><c>Al</c><c>   1</c></rc>
    <rc><c>Al</c><c>   1</c></rc>
    <rc><c>Al</c><c>   1</c></rc>
    <rc><c>Al</c><c>   1</c></rc>
    <rc><c>Al</c><c>   1</c></rc>
    <rc><c>Al</c><c>   1</c></rc>
    <rc><c>Al</c><c>   1</c></rc>
    <rc><c>Al</c><c>   1</c></rc>
    <rc><c>Al</c><c>   1</c></rc>
    <rc><c>Al</c><c>   1</c></rc>
    <rc><c>Al</c><c>   1</c></rc>
    <rc><c>Al</c><c>   1</c></rc>
    <rc><c>Al</c><c>   1</c></rc>
    <rc><c>Al</c><c>   1</c></rc>
    <rc><c>Al</c><c>   1</c></rc>
    <rc><c>Al</c><c>   1</c></rc>
    <rc><c>Al</c><c>   1</c></rc>
    <rc><c>Al</c><c>   1</c></rc>
    <rc><c>Al</c><c>   1</c></rc>
    <rc><c>Al</c><c>   1</c></rc>
    <rc><c>Al</c><c>   1</c></rc>
    <rc><c>Al</c><c>   1</c></rc>
    <rc><c>Al</c><c>   1</c></rc>
    <rc><c>Al</c><c>   1</c></rc>
    <rc><c>Al</c><c>   1</c></rc>
    <rc><c>Al</c><c>   1</c></rc>
    <rc><c>Al</c><c>   1</c></rc>
    <rc><c>Al</c><c>   1</c></rc>
    <rc><c>Al</c><c>   1</c></rc>
    <rc><c>Al</c><c>   1</c></rc>
    <rc><c>Al</c><c>   1</c></rc>
    <rc><c>Al</c><c>   1</c></rc>
    <rc><c>Al</c><c>   1</c></rc>
    <rc><c>Al</c><c>   1</c></rc>
    <rc><c>Al</c><c>   1</c></rc>
    <rc><c>Al</c><c>   1</c></rc>
    <rc><c>Al</c><c>   1</c></rc>
    <rc><c>Al</c><c>   1</c></rc>
    <rc><c>Al</c><c>   1</c></rc>
    <rc><c>Al</c><c>   1</c></rc>
    <rc><c>Al</c><c>   1</c></rc>
    <rc><c>Al</c><c>   1</c></rc>
    <rc><c>Al</c><c>   1</c></rc>
    <rc><c>Al</c><c>   1</c></rc>
    <rc><c>Al</c><c>   1</c></rc>
    <rc><c>Al</c><c>   1</c></rc>
    <rc><c>Al</c><c>   1</c></rc>
    <rc><c>Al</c><c>   1</c></rc>
    <rc><c>Al</c><c>   1</c></rc>
    <rc><c>Al</c><c>   1</c></rc>
    <rc><c>Al</c><c>   1</c></rc>
    <rc><c>Al</c><c>   1</c></rc>
    <rc><c>Al</c><c>   1</c></rc>
    <rc><c>Al</c><c>   1</c></rc>
    <rc><c>Al</c><c>   1</c></rc>
    <rc><c>Al</c><c>   1</c></rc>
    <rc><c>Al</c><c>   1</c></rc>
    <rc><c>Al</c><c>   1</c></rc>
    <rc><c>Al</c><c>   1</c></rc>
    <rc><c>Al</c><c>   1</c></rc>
    <rc><c>Al</c><c>   1</c></rc>
    <rc><c>Al</c><c>   1</c></rc>
    <rc><c>Al</c><c>   1</c></rc>
    <rc><c>Al</c><c>   1</c></rc>
    <rc><c>Al</c><c>   1</c></rc>
    <rc><c>Al</c><c>   1</c></rc>
    <rc><c>Al</c><c>   1</c></rc>
    <rc><c>Al</c><c>   1</c></rc>
    <rc><c>Al</c><c>   1</c></rc>
    <rc><c>Al</c><c>   1</c></rc>
    <rc><c>Al</c><c>   1</c></rc>
    <rc><c>Al</c><c>   1</c></rc>
    <rc><c>Al</c><c>   1</c></rc>
    <rc><c>Al</c><c>   1</c></rc>
    <rc><c>Al</c><c>   1</c></rc>
    <rc><c>Al</c><c>   1</c></rc>
    <rc><c>Al</c><c>   1</c></rc>
    <rc><c>Al</c><c>   1</c></rc>
    <rc><c>Al</c><c>   1</c></rc>
    <rc><c>Al</c><c>   1</c></rc>
    <rc><c>Al</c><c>   1</c></rc>
    <rc><c>Al</c><c>   1</c></rc>
    <rc><c>Al</c><c>   1</c></rc>
    <rc><c>Al</c><c>   1</c></rc>
    <rc><c>Al</c><c>   1</c></rc>
    <rc><c>Al</c><c>   1</c></rc>
    <rc><c>Al</c><c>   1</c></rc>
    <rc><c>Al</c><c>   1</c></rc>
    <rc><c>Al</c><c>   1</c></rc>
    <rc><c>Al</c><c>   1</c></rc>
    <rc><c>Al</c><c>   1</c></rc>
    <rc><c>Al</c><c>   1</c></rc>
    <rc><c>Al</c><c>   1</c></rc>
    <rc><c>Al</c><c>   1</c></rc>
    <rc><c>Al</c><c>   1</c></rc>
    <rc><c>Al</c><c>   1</c></rc>
    <rc><c>Al</c><c>   1</c></rc>
    <rc><c>Al</c><c>   1</c></rc>
    <rc><c>Al</c><c>   1</c></rc>
    <rc><c>Al</c><c>   1</c></rc>
    <rc><c>Al</c><c>   1</c></rc>
    <rc><c>Al</c><c>   1</c></rc>
    <rc><c>Al</c><c>   1</c></rc>
    <rc><c>O </c><c>   2</c></rc>
    <rc><c>O </c><c>   2</c></rc>
    <rc><c>O </c><c>   2</c></rc>
    <rc><c>O </c><c>   2</c></rc>
    <rc><c>O </c><c>   2</c></rc>
    <rc><c>O </c><c>   2</c></rc>
    <rc><c>O </c><c>   2</c></rc>
    <rc><c>O </c><c>   2</c></rc>
    <rc><c>O </c><c>   2</c></rc>
    <rc><c>O </c><c>   2</c></rc>
    <rc><c>O </c><c>   2</c></rc>
    <rc><c>O </c><c>   2</c></rc>
    <rc><c>O </c><c>   2</c></rc>
    <rc><c>O </c><c>   2</c></rc>
    <rc><c>O </c><c>   2</c></rc>
    <rc><c>O </c><c>   2</c></rc>
    <rc><c>O </c><c>   2</c></rc>
    <rc><c>O </c><c>   2</c></rc>
    <rc><c>O </c><c>   2</c></rc>
    <rc><c>O </c><c>   2</c></rc>
    <rc><c>O </c><c>   2</c></rc>
    <rc><c>O </c><c>   2</c></rc>
    <rc><c>O </c><c>   2</c></rc>
    <rc><c>O </c><c>   2</c></rc>
    <rc><c>O </c><c>   2</c></rc>
    <rc><c>O </c><c>   2</c></rc>
    <rc><c>O </c><c>   2</c></rc>
    <rc><c>O </c><c>   2</c></rc>
    <rc><c>O </c><c>   2</c></rc>
    <rc><c>O </c><c>   2</c></rc>
    <rc><c>O </c><c>   2</c></rc>
    <rc><c>O </c><c>   2</c></rc>
    <rc><c>O </c><c>   2</c></rc>
    <rc><c>O </c><c>   2</c></rc>
    <rc><c>O </c><c>   2</c></rc>
    <rc><c>O </c><c>   2</c></rc>
    <rc><c>O </c><c>   2</c></rc>
    <rc><c>O </c><c>   2</c></rc>
    <rc><c>O </c><c>   2</c></rc>
    <rc><c>O </c><c>   2</c></rc>
    <rc><c>O </c><c>   2</c></rc>
    <rc><c>O </c><c>   2</c></rc>
    <rc><c>O </c><c>   2</c></rc>
    <rc><c>O </c><c>   2</c></rc>
    <rc><c>O </c><c>   2</c></rc>
    <rc><c>O </c><c>   2</c></rc>
    <rc><c>O </c><c>   2</c></rc>
    <rc><c>O </c><c>   2</c></rc>
    <rc><c>O </c><c>   2</c></rc>
    <rc><c>O </c><c>   2</c></rc>
    <rc><c>O </c><c>   2</c></rc>
    <rc><c>O </c><c>   2</c></rc>
    <rc><c>O </c><c>   2</c></rc>
    <rc><c>O </c><c>   2</c></rc>
    <rc><c>O </c><c>   2</c></rc>
    <rc><c>O </c><c>   2</c></rc>
    <rc><c>O </c><c>   2</c></rc>
    <rc><c>O </c><c>   2</c></rc>
    <rc><c>O </c><c>   2</c></rc>
    <rc><c>O </c><c>   2</c></rc>
    <rc><c>O </c><c>   2</c></rc>
    <rc><c>O </c><c>   2</c></rc>
    <rc><c>O </c><c>   2</c></rc>
    <rc><c>O </c><c>   2</c></rc>
    <rc><c>O </c><c>   2</c></rc>
    <rc><c>O </c><c>   2</c></rc>
    <rc><c>O </c><c>   2</c></rc>
    <rc><c>O </c><c>   2</c></rc>
    <rc><c>O </c><c>   2</c></rc>
    <rc><c>O </c><c>   2</c></rc>
    <rc><c>O </c><c>   2</c></rc>
    <rc><c>O </c><c>   2</c></rc>
    <rc><c>O </c><c>   2</c></rc>
    <rc><c>O </c><c>   2</c></rc>
    <rc><c>O </c><c>   2</c></rc>
    <rc><c>O </c><c>   2</c></rc>
    <rc><c>O </c><c>   2</c></rc>
    <rc><c>O </c><c>   2</c></rc>
    <rc><c>O </c><c>   2</c></rc>
    <rc><c>O </c><c>   2</c></rc>
    <rc><c>O </c><c>   2</c></rc>
    <rc><c>O </c><c>   2</c></rc>
    <rc><c>O </c><c>   2</c></rc>
    <rc><c>O </c><c>   2</c></rc>
    <rc><c>O </c><c>   2</c></rc>
    <rc><c>O </c><c>   2</c></rc>
    <rc><c>O </c><c>   2</c></rc>
    <rc><c>O </c><c>   2</c></rc>
    <rc><c>O </c><c>   2</c></rc>
    <rc><c>O </c><c>   2</c></rc>
    <rc><c>O </c><c>   2</c></rc>
    <rc><c>O </c><c>   2</c></rc>
    <rc><c>O </c><c>   2</c></rc>
    <rc><c>O </c><c>   2</c></rc>
    <rc><c>O </c><c>   2</c></rc>
    <rc><c>O </c><c>   2</c></rc>
    <rc><c>O </c><c>   2</c></rc>
    <rc><c>O </c><c>   2</c></rc>
    <rc><c>O </c><c>   2</c></rc>
    <rc><c>O </c><c>   2</c></rc>
    <rc><c>O </c><c>   2</c></rc>
    <rc><c>O </c><c>   2</c></rc>
    <rc><c>O </c><c>   2</c></rc>
    <rc><c>O </c><c>   2</c></rc>
    <rc><c>O </c><c>   2</c></rc>
    <rc><c>O </c><c>   2</c></rc>
    <rc><c>O </c><c>   2</c></rc>
    <rc><c>O </c><c>   2</c></rc>
    <rc><c>O </c><c>   2</c></rc>
    <rc><c>O </c><c>   2</c></rc>
    <rc><c>O </c><c>   2</c></rc>
    <rc><c>O </c><c>   2</c></rc>
    <rc><c>O </c><c>   2</c></rc>
    <rc><c>O </c><c>   2</c></rc>
    <rc><c>O </c><c>   2</c></rc>
    <rc><c>O </c><c>   2</c></rc>
    <rc><c>O </c><c>   2</c></rc>
    <rc><c>O </c><c>   2</c></rc>
    <rc><c>O </c><c>   2</c></rc>
    <rc><c>O </c><c>   2</c></rc>
    <rc><c>O </c><c>   2</c></rc>
    <rc><c>O </c><c>   2</c></rc>
    <rc><c>O </c><c>   2</c></rc>
    <rc><c>O </c><c>   2</c></rc>
    <rc><c>O </c><c>   2</c></rc>
    <rc><c>O </c><c>   2</c></rc>
    <rc><c>O </c><c>   2</c></rc>
    <rc><c>O </c><c>   2</c></rc>
    <rc><c>O </c><c>   2</c></rc>
    <rc><c>O </c><c>   2</c></rc>
    <rc><c>O </c><c>   2</c></rc>
    <rc><c>O </c><c>   2</c></rc>
    <rc><c>O </c><c>   2</c></rc>
    <rc><c>O </c><c>   2</c></rc>
    <rc><c>O </c><c>   2</c></rc>
    <rc><c>O </c><c>   2</c></rc>
    <rc><c>O </c><c>   2</c></rc>
    <rc><c>O </c><c>   2</c></rc>
    <rc><c>O </c><c>   2</c></rc>
    <rc><c>O </c><c>   2</c></rc>
    <rc><c>O </c><c>   2</c></rc>
    <rc><c>O </c><c>   2</c></rc>
    <rc><c>O </c><c>   2</c></rc>
    <rc><c>O </c><c>   2</c></rc>
    <rc><c>O </c><c>   2</c></rc>
    <rc><c>O </c><c>   2</c></rc>
    <rc><c>O </c><c>   2</c></rc>
    <rc><c>O </c><c>   2</c></rc>
    <rc><c>O </c><c>   2</c></rc>
    <rc><c>O </c><c>   2</c></rc>
    <rc><c>O </c><c>   2</c></rc>
    <rc><c>O </c><c>   2</c></rc>
    <rc><c>O </c><c>   2</c></rc>
    <rc><c>O </c><c>   2</c></rc>
    <rc><c>O </c><c>   2</c></rc>
    <rc><c>O </c><c>   2</c></rc>
    <rc><c>O </c><c>   2</c></rc>
    <rc><c>O </c><c>   2</c></rc>
    <rc><c>O </c><c>   2</c></rc>
    <rc><c>O </c><c>   2</c></rc>
    <rc><c>O </c><c>   2</c></rc>
    <rc><c>O </c><c>   2</c></rc>
    <rc><c>O </c><c>   2</c></rc>
    <rc><c>O </c><c>   2</c></rc>
   </set>
  </array>
  <array name="atomtypes" >
   <dimension dim="1">type</dimension>
   <field type="int">atomspertype</field>
   <field type="string">element</field>
   <field>mass</field>
   <field>valence</field>
   <field type="string">pseudopotential</field>
   <set>
    <rc><c> 108</c><c>Al</c><c>     26.98200000</c><c>      3.00000000</c><c>  PAW Al_GW 19Mar2012                   </c></rc>
    <rc><c> 164</c><c>O </c><c>     16.00000000</c><c>      6.00000000</c><c>  PAW O_GW 19Mar2012                    </c></rc>
   </set>
  </array>
 </atominfo>
 <structure name="initialpos" >
  <crystal>
   <varray name="basis" >
    <v>      14.41508400       0.00000000       0.00000000 </v>
    <v>      -7.20754200      12.48382800       0.00000000 </v>
    <v>       0.00000000       0.00000000      31.11625400 </v>
   </varray>
   <i name="volume">   5599.53884558 </i>
   <varray name="rec_basis" >
    <v>       0.06937178       0.04005182      -0.00000000 </v>
    <v>       0.00000000       0.08010363       0.00000000 </v>
    <v>       0.00000000      -0.00000000       0.03213754 </v>
   </varray>
  </crystal>
  <varray name="positions" >
   <v>       0.00000000       0.00000000       0.06234511 </v>
   <v>       0.11111100       0.22222233       0.00790906 </v>
   <v>       0.11111100       0.22222233       0.13259929 </v>
   <v>       0.22222233       0.11111100       0.07816281 </v>
   <v>       0.22222233       0.11111100       0.20285304 </v>
   <v>       0.00000000       0.00000000       0.14841698 </v>
   <v>       0.00000000       0.00000000       0.27310721 </v>
   <v>       0.11111100       0.22222233       0.21867116 </v>
   <v>       0.11111100       0.22222233       0.34336139 </v>
   <v>       0.22222233       0.11111100       0.28892491 </v>
   <v>       0.22222233       0.11111100       0.41361514 </v>
   <v>       0.00000000       0.00000000       0.35917908 </v>
   <v>       0.00000000       0.33333333       0.06234511 </v>
   <v>       0.11111100       0.55555567       0.00790906 </v>
   <v>       0.11111100       0.55555567       0.13259929 </v>
   <v>       0.22222233       0.44444433       0.07816281 </v>
   <v>       0.22222233       0.44444433       0.20285304 </v>
   <v>       0.00000000       0.33333333       0.14841698 </v>
   <v>       0.00000000       0.33333333       0.27310721 </v>
   <v>       0.11111100       0.55555567       0.21867116 </v>
   <v>       0.11111100       0.55555567       0.34336139 </v>
   <v>       0.22222233       0.44444433       0.28892491 </v>
   <v>       0.22222233       0.44444433       0.41361514 </v>
   <v>       0.00000000       0.33333333       0.35917908 </v>
   <v>       0.00000000       0.66666667       0.06234511 </v>
   <v>       0.11111100       0.88888900       0.00790906 </v>
   <v>       0.11111100       0.88888900       0.13259929 </v>
   <v>       0.22222233       0.77777767       0.07816281 </v>
   <v>       0.22222233       0.77777767       0.20285304 </v>
   <v>       0.00000000       0.66666667       0.14841698 </v>
   <v>       0.00000000       0.66666667       0.27310721 </v>
   <v>       0.11111100       0.88888900       0.21867116 </v>
   <v>       0.11111100       0.88888900       0.34336139 </v>
   <v>       0.22222233       0.77777767       0.28892491 </v>
   <v>       0.22222233       0.77777767       0.41361514 </v>
   <v>       0.00000000       0.66666667       0.35917908 </v>
   <v>       0.33333333       0.00000000       0.06234511 </v>
   <v>       0.44444433       0.22222233       0.00790906 </v>
   <v>       0.44444433       0.22222233       0.13259929 </v>
   <v>       0.55555567       0.11111100       0.07816281 </v>
   <v>       0.55555567       0.11111100       0.20285304 </v>
   <v>       0.33333333       0.00000000       0.14841698 </v>
   <v>       0.33333333       0.00000000       0.27310721 </v>
   <v>       0.44444433       0.22222233       0.21867116 </v>
   <v>       0.44444433       0.22222233       0.34336139 </v>
   <v>       0.55555567       0.11111100       0.28892491 </v>
   <v>       0.55555567       0.11111100       0.41361514 </v>
   <v>       0.33333333       0.00000000       0.35917908 </v>
   <v>       0.33333333       0.33333333       0.06234511 </v>
   <v>       0.44444433       0.55555567       0.00790906 </v>
   <v>       0.44444433       0.55555567       0.13259929 </v>
   <v>       0.55555567       0.44444433       0.07816281 </v>
   <v>       0.55555567       0.44444433       0.20285304 </v>
   <v>       0.33333333       0.33333333       0.14841698 </v>
   <v>       0.33333333       0.33333333       0.27310721 </v>
   <v>       0.44444433       0.55555567       0.21867116 </v>
   <v>       0.44444433       0.55555567       0.34336139 </v>
   <v>       0.55555567       0.44444433       0.28892491 </v>
   <v>       0.55555567       0.44444433       0.41361514 </v>
   <v>       0.33333333       0.33333333       0.35917908 </v>
   <v>       0.33333333       0.66666667       0.06234511 </v>
   <v>       0.44444433       0.88888900       0.00790906 </v>
   <v>       0.44444433       0.88888900       0.13259929 </v>
   <v>       0.55555567       0.77777767       0.07816281 </v>
   <v>       0.55555567       0.77777767       0.20285304 </v>
   <v>       0.33333333       0.66666667       0.14841698 </v>
   <v>       0.33333333       0.66666667       0.27310721 </v>
   <v>       0.44444433       0.88888900       0.21867116 </v>
   <v>       0.44444433       0.88888900       0.34336139 </v>
   <v>       0.55555567       0.77777767       0.28892491 </v>
   <v>       0.55555567       0.77777767       0.41361514 </v>
   <v>       0.33333333       0.66666667       0.35917908 </v>
   <v>       0.66666667       0.00000000       0.06234511 </v>
   <v>       0.77777767       0.22222233       0.00790906 </v>
   <v>       0.77777767       0.22222233       0.13259929 </v>
   <v>       0.88888900       0.11111100       0.07816281 </v>
   <v>       0.88888900       0.11111100       0.20285304 </v>
   <v>       0.66666667       0.00000000       0.14841698 </v>
   <v>       0.66666667       0.00000000       0.27310721 </v>
   <v>       0.77777767       0.22222233       0.21867116 </v>
   <v>       0.77777767       0.22222233       0.34336139 </v>
   <v>       0.88888900       0.11111100       0.28892491 </v>
   <v>       0.88888900       0.11111100       0.41361514 </v>
   <v>       0.66666667       0.00000000       0.35917908 </v>
   <v>       0.66666667       0.33333333       0.06234511 </v>
   <v>       0.77777767       0.55555567       0.00790906 </v>
   <v>       0.77777767       0.55555567       0.13259929 </v>
   <v>       0.88888900       0.44444433       0.07816281 </v>
   <v>       0.88888900       0.44444433       0.20285304 </v>
   <v>       0.66666667       0.33333333       0.14841698 </v>
   <v>       0.66666667       0.33333333       0.27310721 </v>
   <v>       0.77777767       0.55555567       0.21867116 </v>
   <v>       0.77777767       0.55555567       0.34336139 </v>
   <v>       0.88888900       0.44444433       0.28892491 </v>
   <v>       0.88888900       0.44444433       0.41361514 </v>
   <v>       0.66666667       0.33333333       0.35917908 </v>
   <v>       0.66666667       0.66666667       0.06234511 </v>
   <v>       0.77777767       0.88888900       0.00790906 </v>
   <v>       0.77777767       0.88888900       0.13259929 </v>
   <v>       0.88888900       0.77777767       0.07816281 </v>
   <v>       0.88888900       0.77777767       0.20285304 </v>
   <v>       0.66666667       0.66666667       0.14841698 </v>
   <v>       0.66666667       0.66666667       0.27310721 </v>
   <v>       0.77777767       0.88888900       0.21867116 </v>
   <v>       0.77777767       0.88888900       0.34336139 </v>
   <v>       0.88888900       0.77777767       0.28892491 </v>
   <v>       0.88888900       0.77777767       0.41361514 </v>
   <v>       0.66666667       0.66666667       0.35917908 </v>
   <v>       0.10204867       0.00000000       0.10538105 </v>
   <v>       0.22222233       0.00906233       0.03512688 </v>
   <v>       0.00000000       0.10204867       0.10538105 </v>
   <v>       0.23128467       0.23128467       0.10538105 </v>
   <v>       0.32427100       0.21315967       0.03512688 </v>
   <v>       0.12017367       0.11111100       0.03512688 </v>
   <v>       0.32427100       0.11111100       0.24588897 </v>
   <v>       0.11111100       0.12017367       0.17563522 </v>
   <v>       0.22222233       0.21315967       0.24588897 </v>
   <v>       0.12017367       0.00906233       0.24588897 </v>
   <v>       0.21315967       0.32427100       0.17563522 </v>
   <v>       0.00906233       0.22222233       0.17563522 </v>
   <v>       0.21315967       0.22222233       0.38639732 </v>
   <v>       0.00000000       0.23128467       0.31614315 </v>
   <v>       0.11111100       0.32427100       0.38639732 </v>
   <v>       0.00906233       0.12017367       0.38639732 </v>
   <v>       0.10204867       0.10204867       0.31614315 </v>
   <v>       0.23128467       0.00000000       0.31614315 </v>
   <v>       0.10204867       0.33333333       0.10538105 </v>
   <v>       0.22222233       0.34239567       0.03512688 </v>
   <v>       0.00000000       0.43538200       0.10538105 </v>
   <v>       0.23128467       0.56461800       0.10538105 </v>
   <v>       0.32427100       0.54649300       0.03512688 </v>
   <v>       0.12017367       0.44444433       0.03512688 </v>
   <v>       0.32427100       0.44444433       0.24588897 </v>
   <v>       0.11111100       0.45350700       0.17563522 </v>
   <v>       0.22222233       0.54649300       0.24588897 </v>
   <v>       0.12017367       0.34239567       0.24588897 </v>
   <v>       0.21315967       0.65760433       0.17563522 </v>
   <v>       0.00906233       0.55555567       0.17563522 </v>
   <v>       0.21315967       0.55555567       0.38639732 </v>
   <v>       0.00000000       0.56461800       0.31614315 </v>
   <v>       0.11111100       0.65760433       0.38639732 </v>
   <v>       0.00906233       0.45350700       0.38639732 </v>
   <v>       0.10204867       0.43538200       0.31614315 </v>
   <v>       0.23128467       0.33333333       0.31614315 </v>
   <v>       0.10204867       0.66666667       0.10538105 </v>
   <v>       0.22222233       0.67572900       0.03512688 </v>
   <v>       0.00000000       0.76871533       0.10538105 </v>
   <v>       0.23128467       0.89795133       0.10538105 </v>
   <v>       0.32427100       0.87982633       0.03512688 </v>
   <v>       0.12017367       0.77777767       0.03512688 </v>
   <v>       0.32427100       0.77777767       0.24588897 </v>
   <v>       0.11111100       0.78684033       0.17563522 </v>
   <v>       0.22222233       0.87982633       0.24588897 </v>
   <v>       0.12017367       0.67572900       0.24588897 </v>
   <v>       0.21315967       0.99093767       0.17563522 </v>
   <v>       0.00906233       0.88888900       0.17563522 </v>
   <v>       0.21315967       0.88888900       0.38639732 </v>
   <v>       0.00000000       0.89795133       0.31614315 </v>
   <v>       0.11111100       0.99093767       0.38639732 </v>
   <v>       0.00906233       0.78684033       0.38639732 </v>
   <v>       0.10204867       0.76871533       0.31614315 </v>
   <v>       0.23128467       0.66666667       0.31614315 </v>
   <v>       0.43538200       0.00000000       0.10538105 </v>
   <v>       0.55555567       0.00906233       0.03512688 </v>
   <v>       0.33333333       0.10204867       0.10538105 </v>
   <v>       0.56461800       0.23128467       0.10538105 </v>
   <v>       0.65760433       0.21315967       0.03512688 </v>
   <v>       0.45350700       0.11111100       0.03512688 </v>
   <v>       0.65760433       0.11111100       0.24588897 </v>
   <v>       0.44444433       0.12017367       0.17563522 </v>
   <v>       0.55555567       0.21315967       0.24588897 </v>
   <v>       0.45350700       0.00906233       0.24588897 </v>
   <v>       0.54649300       0.32427100       0.17563522 </v>
   <v>       0.34239567       0.22222233       0.17563522 </v>
   <v>       0.54649300       0.22222233       0.38639732 </v>
   <v>       0.33333333       0.23128467       0.31614315 </v>
   <v>       0.44444433       0.32427100       0.38639732 </v>
   <v>       0.34239567       0.12017367       0.38639732 </v>
   <v>       0.43538200       0.10204867       0.31614315 </v>
   <v>       0.56461800       0.00000000       0.31614315 </v>
   <v>       0.43538200       0.33333333       0.10538105 </v>
   <v>       0.55555567       0.34239567       0.03512688 </v>
   <v>       0.33333333       0.43538200       0.10538105 </v>
   <v>       0.56461800       0.56461800       0.10538105 </v>
   <v>       0.65760433       0.54649300       0.03512688 </v>
   <v>       0.45350700       0.44444433       0.03512688 </v>
   <v>       0.65760433       0.44444433       0.24588897 </v>
   <v>       0.44444433       0.45350700       0.17563522 </v>
   <v>       0.55555567       0.54649300       0.24588897 </v>
   <v>       0.45350700       0.34239567       0.24588897 </v>
   <v>       0.54649300       0.65760433       0.17563522 </v>
   <v>       0.34239567       0.55555567       0.17563522 </v>
   <v>       0.54649300       0.55555567       0.38639732 </v>
   <v>       0.33333333       0.56461800       0.31614315 </v>
   <v>       0.44444433       0.65760433       0.38639732 </v>
   <v>       0.34239567       0.45350700       0.38639732 </v>
   <v>       0.43538200       0.43538200       0.31614315 </v>
   <v>       0.56461800       0.33333333       0.31614315 </v>
   <v>       0.43538200       0.66666667       0.10538105 </v>
   <v>       0.55555567       0.67572900       0.03512688 </v>
   <v>       0.33333333       0.76871533       0.10538105 </v>
   <v>       0.56461800       0.89795133       0.10538105 </v>
   <v>       0.65760433       0.87982633       0.03512688 </v>
   <v>       0.45350700       0.77777767       0.03512688 </v>
   <v>       0.65760433       0.77777767       0.24588897 </v>
   <v>       0.44444433       0.78684033       0.17563522 </v>
   <v>       0.55555567       0.87982633       0.24588897 </v>
   <v>       0.45350700       0.67572900       0.24588897 </v>
   <v>       0.54649300       0.99093767       0.17563522 </v>
   <v>       0.34239567       0.88888900       0.17563522 </v>
   <v>       0.54649300       0.88888900       0.38639732 </v>
   <v>       0.33333333       0.89795133       0.31614315 </v>
   <v>       0.44444433       0.99093767       0.38639732 </v>
   <v>       0.34239567       0.78684033       0.38639732 </v>
   <v>       0.43538200       0.76871533       0.31614315 </v>
   <v>       0.56461800       0.66666667       0.31614315 </v>
   <v>       0.76871533       0.00000000       0.10538105 </v>
   <v>       0.88888900       0.00906233       0.03512688 </v>
   <v>       0.66666667       0.10204867       0.10538105 </v>
   <v>       0.89795133       0.23128467       0.10538105 </v>
   <v>       0.99093767       0.21315967       0.03512688 </v>
   <v>       0.78684033       0.11111100       0.03512688 </v>
   <v>       0.99093767       0.11111100       0.24588897 </v>
   <v>       0.77777767       0.12017367       0.17563522 </v>
   <v>       0.88888900       0.21315967       0.24588897 </v>
   <v>       0.78684033       0.00906233       0.24588897 </v>
   <v>       0.87982633       0.32427100       0.17563522 </v>
   <v>       0.67572900       0.22222233       0.17563522 </v>
   <v>       0.87982633       0.22222233       0.38639732 </v>
   <v>       0.66666667       0.23128467       0.31614315 </v>
   <v>       0.77777767       0.32427100       0.38639732 </v>
   <v>       0.67572900       0.12017367       0.38639732 </v>
   <v>       0.76871533       0.10204867       0.31614315 </v>
   <v>       0.89795133       0.00000000       0.31614315 </v>
   <v>       0.76871533       0.33333333       0.10538105 </v>
   <v>       0.88888900       0.34239567       0.03512688 </v>
   <v>       0.66666667       0.43538200       0.10538105 </v>
   <v>       0.89795133       0.56461800       0.10538105 </v>
   <v>       0.99093767       0.54649300       0.03512688 </v>
   <v>       0.78684033       0.44444433       0.03512688 </v>
   <v>       0.99093767       0.44444433       0.24588897 </v>
   <v>       0.77777767       0.45350700       0.17563522 </v>
   <v>       0.88888900       0.54649300       0.24588897 </v>
   <v>       0.78684033       0.34239567       0.24588897 </v>
   <v>       0.87982633       0.65760433       0.17563522 </v>
   <v>       0.67572900       0.55555567       0.17563522 </v>
   <v>       0.87982633       0.55555567       0.38639732 </v>
   <v>       0.66666667       0.56461800       0.31614315 </v>
   <v>       0.77777767       0.65760433       0.38639732 </v>
   <v>       0.67572900       0.45350700       0.38639732 </v>
   <v>       0.76871533       0.43538200       0.31614315 </v>
   <v>       0.89795133       0.33333333       0.31614315 </v>
   <v>       0.76871533       0.66666667       0.10538105 </v>
   <v>       0.88888900       0.67572900       0.03512688 </v>
   <v>       0.66666667       0.76871533       0.10538105 </v>
   <v>       0.89795133       0.89795133       0.10538105 </v>
   <v>       0.99093767       0.87982633       0.03512688 </v>
   <v>       0.78684033       0.77777767       0.03512688 </v>
   <v>       0.99093767       0.77777767       0.24588897 </v>
   <v>       0.77777767       0.78684033       0.17563522 </v>
   <v>       0.88888900       0.87982633       0.24588897 </v>
   <v>       0.78684033       0.67572900       0.24588897 </v>
   <v>       0.87982633       0.99093767       0.17563522 </v>
   <v>       0.67572900       0.88888900       0.17563522 </v>
   <v>       0.87982633       0.88888900       0.38639732 </v>
   <v>       0.66666667       0.89795133       0.31614315 </v>
   <v>       0.77777767       0.99093767       0.38639732 </v>
   <v>       0.67572900       0.78684033       0.38639732 </v>
   <v>       0.76871533       0.76871533       0.31614315 </v>
   <v>       0.89795133       0.66666667       0.31614315 </v>
   <v>       0.46187937       0.46187937       0.44575268 </v>
   <v>       0.50994155       0.55800373       0.44575268 </v>
  </varray>
 </structure>
 <calculation>
  <scstep>
   <time name="dav">   15.27   15.29</time>
   <time name="total">   15.74   15.86</time>
   <energy>
    <i name="alphaZ">    938.32475383 </i>
    <i name="ewald"> 677667.41007420 </i>
    <i name="hartreedc">-747030.44285324 </i>
    <i name="XCdc">   1523.22178259 </i>
    <i name="pawpsdc">  64410.46440882 </i>
    <i name="pawaedc"> -60827.62296754 </i>
    <i name="eentropy">     -0.07096342 </i>
    <i name="bandstr">  -1575.73150208 </i>
    <i name="atom">  76628.06701709 </i>
    <i name="e_fr_energy">  11733.61975025 </i>
    <i name="e_wo_entrp">  11733.69071367 </i>
    <i name="e_0_energy">  11733.65523196 </i>
   </energy>
  </scstep>
  <scstep>
   <time name="dav">   18.95   18.95</time>
   <time name="total">   18.95   18.96</time>
   <energy>
    <i name="e_fr_energy">   -133.49727543 </i>
    <i name="e_wo_entrp">   -133.47955289 </i>
    <i name="e_0_energy">   -133.48841416 </i>
   </energy>
  </scstep>
  <scstep>
   <time name="dav">   18.33   18.33</time>
   <time name="total">   18.33   18.33</time>
   <energy>
    <i name="e_fr_energy">  -2119.35488780 </i>
    <i name="e_wo_entrp">  -2119.35488780 </i>
    <i name="e_0_energy">  -2119.35488780 </i>
   </energy>
  </scstep>
  <scstep>
   <time name="dav">   18.49   18.50</time>
   <time name="total">   18.49   18.50</time>
   <energy>
    <i name="e_fr_energy">  -2201.32908900 </i>
    <i name="e_wo_entrp">  -2201.32908900 </i>
    <i name="e_0_energy">  -2201.32908900 </i>
   </energy>
  </scstep>
  <scstep>
   <time name="dav">   18.91   18.91</time>
   <time name="total">   19.91   19.92</time>
   <energy>
    <i name="e_fr_energy">  -2203.24929154 </i>
    <i name="e_wo_entrp">  -2203.24929154 </i>
    <i name="e_0_energy">  -2203.24929154 </i>
   </energy>
  </scstep>
  <scstep>
   <time name="dav">   19.65   19.65</time>
   <time name="total">   21.07   21.08</time>
   <energy>
    <i name="e_fr_energy">  -1946.71649706 </i>
    <i name="e_wo_entrp">  -1946.71649706 </i>
    <i name="e_0_energy">  -1946.71649706 </i>
   </energy>
  </scstep>
  <scstep>
   <time name="dav">   18.56   18.57</time>
   <time name="total">   19.99   19.99</time>
   <energy>
    <i name="e_fr_energy">  -1937.63339384 </i>
    <i name="e_wo_entrp">  -1937.63339384 </i>
    <i name="e_0_energy">  -1937.63339384 </i>
   </energy>
  </scstep>
  <scstep>
   <time name="dav">   20.29   20.30</time>
   <time name="total">   21.74   21.75</time>
   <energy>
    <i name="e_fr_energy">  -1940.21550402 </i>
    <i name="e_wo_entrp">  -1940.16934387 </i>
    <i name="e_0_energy">  -1940.19242394 </i>
   </energy>
  </scstep>
  <scstep>
   <time name="dav">   19.04   19.05</time>
   <time name="total">   20.48   20.48</time>
   <energy>
    <i name="e_fr_energy">  -1930.27234380 </i>
    <i name="e_wo_entrp">  -1930.22660724 </i>
    <i name="e_0_energy">  -1930.24947552 </i>
   </energy>
  </scstep>
  <scstep>
   <time name="dav">   18.06   18.06</time>
   <time name="total">   19.52   19.53</time>
   <energy>
    <i name="e_fr_energy">  -1929.12592691 </i>
    <i name="e_wo_entrp">  -1929.08261191 </i>
    <i name="e_0_energy">  -1929.10426941 </i>
   </energy>
  </scstep>
  <scstep>
   <time name="dav">   16.44   16.44</time>
   <time name="total">   17.90   17.90</time>
   <energy>
    <i name="e_fr_energy">  -1928.20938437 </i>
    <i name="e_wo_entrp">  -1928.14142772 </i>
    <i name="e_0_energy">  -1928.17540604 </i>
   </energy>
  </scstep>
  <scstep>
   <time name="dav">   22.50   22.50</time>
   <time name="total">   23.97   23.98</time>
   <energy>
    <i name="e_fr_energy">  -1928.21120154 </i>
    <i name="e_wo_entrp">  -1928.21070543 </i>
    <i name="e_0_energy">  -1928.21095349 </i>
   </energy>
  </scstep>
  <scstep>
   <time name="dav">   16.20   16.21</time>
   <time name="total">   17.68   17.68</time>
   <energy>
    <i name="e_fr_energy">  -1928.06216678 </i>
    <i name="e_wo_entrp">  -1928.06216166 </i>
    <i name="e_0_energy">  -1928.06216422 </i>
   </energy>
  </scstep>
  <scstep>
   <time name="dav">   19.21   19.22</time>
   <time name="total">   20.70   20.70</time>
   <energy>
    <i name="e_fr_energy">  -1927.93189272 </i>
    <i name="e_wo_entrp">  -1927.93189272 </i>
    <i name="e_0_energy">  -1927.93189272 </i>
   </energy>
  </scstep>
  <scstep>
   <time name="dav">   22.01   22.01</time>
   <time name="total">   23.48   23.49</time>
   <energy>
    <i name="e_fr_energy">  -1927.84499472 </i>
    <i name="e_wo_entrp">  -1927.84168548 </i>
    <i name="e_0_energy">  -1927.84334010 </i>
   </energy>
  </scstep>
  <scstep>
   <time name="dav">   15.77   15.77</time>
   <time name="total">   17.27   17.27</time>
   <energy>
    <i name="e_fr_energy">  -1927.83576126 </i>
    <i name="e_wo_entrp">  -1927.83118892 </i>
    <i name="e_0_energy">  -1927.83347509 </i>
   </energy>
  </scstep>
  <scstep>
   <time name="dav">   18.10   18.10</time>
   <time name="total">   19.60   19.60</time>
   <energy>
    <i name="e_fr_energy">  -1927.81461166 </i>
    <i name="e_wo_entrp">  -1927.81275738 </i>
    <i name="e_0_energy">  -1927.81368452 </i>
   </energy>
  </scstep>
  <scstep>
   <time name="dav">   20.29   20.30</time>
   <time name="total">   21.83   21.84</time>
   <energy>
    <i name="e_fr_energy">  -1927.79618230 </i>
    <i name="e_wo_entrp">  -1927.79612029 </i>
    <i name="e_0_energy">  -1927.79615129 </i>
   </energy>
  </scstep>
  <scstep>
   <time name="dav">   15.71   15.71</time>
[...]
       <r>     4.7078    51.8733  1343.4841 </r>
       <r>     4.8296     8.3309  1344.4987 </r>
       <r>     4.9513     2.3243  1344.7818 </r>
       <r>     5.0731    26.9432  1348.0632 </r>
       <r>     5.1949    18.8446  1350.3583 </r>
       <r>     5.3167    20.0584  1352.8012 </r>
       <r>     5.4385    25.9427  1355.9608 </r>
       <r>     5.5603    15.2084  1357.8130 </r>
       <r>     5.6821    15.5025  1359.7010 </r>
       <r>     5.8039    19.1956  1362.0388 </r>
       <r>     5.9257    70.7671  1370.6575 </r>
       <r>     6.0475    31.4539  1374.4883 </r>
       <r>     6.1692    64.4100  1382.3328 </r>
       <r>     6.2910    35.9081  1386.7060 </r>
       <r>     6.4128    78.6344  1396.2829 </r>
       <r>     6.5346   142.2342  1413.6056 </r>
       <r>     6.6564    92.4217  1424.8616 </r>
       <r>     6.7782    47.9163  1430.6973 </r>
       <r>     6.9000    55.6293  1437.4724 </r>
       <r>     7.0218    63.2468  1445.1752 </r>
       <r>     7.1436    73.8171  1454.1654 </r>
       <r>     7.2654    79.4820  1463.8455 </r>
       <r>     7.3871    67.2729  1472.0386 </r>
       <r>     7.5089    38.8777  1476.7735 </r>
       <r>     7.6307    96.6481  1488.5443 </r>
       <r>     7.7525   152.2955  1507.0923 </r>
       <r>     7.8743   130.0660  1522.9330 </r>
       <r>     7.9961   140.9891  1540.1040 </r>
       <r>     8.1179   152.5641  1558.6848 </r>
       <r>     8.2397   130.2114  1574.5432 </r>
       <r>     8.3615    60.9057  1581.9609 </r>
       <r>     8.4833     0.3212  1582.0000 </r>
       <r>     8.6050     0.0000  1582.0000 </r>
       <r>     8.7268     0.0000  1582.0000 </r>
       <r>     8.8486     0.0000  1582.0000 </r>
       <r>     8.9704     0.0000  1582.0000 </r>
       <r>     9.0922     0.0000  1582.0000 </r>
       <r>     9.2140     0.0000  1582.0000 </r>
       <r>     9.3358     0.0000  1582.0000 </r>
       <r>     9.4576     0.0000  1582.0000 </r>
       <r>     9.5794     0.0000  1582.0000 </r>
       <r>     9.7011     0.0000  1582.0000 </r>
       <r>     9.8229     0.0000  1582.0000 </r>
       <r>     9.9447     0.0000  1582.0000 </r>
      </set>
     </set>
    </array>
   </total>
  </dos>
 </calculation>
 <structure name="finalpos" >
  <crystal>
   <varray name="basis" >
    <v>      14.41508400       0.00000000       0.00000000 </v>
    <v>      -7.20754200      12.48382800       0.00000000 </v>
    <v>       0.00000000       0.00000000      31.11625400 </v>
   </varray>
   <i name="volume">   5599.53884558 </i>
   <varray name="rec_basis" >
    <v>       0.06937178       0.04005182      -0.00000000 </v>
    <v>       0.00000000       0.08010363       0.00000000 </v>
    <v>       0.00000000      -0.00000000       0.03213754 </v>
   </varray>
  </crystal>
  <varray name="positions" >
   <v>      -0.00012270      -0.00007016       0.06356656 </v>
   <v>       0.11087070       0.22206838       0.03253178 </v>
   <v>       0.11078601       0.22208731       0.13346439 </v>
   <v>       0.22216206       0.11109132       0.07218181 </v>
   <v>       0.22171758       0.11102641       0.20176360 </v>
   <v>      -0.00041872      -0.00023145       0.14801423 </v>
   <v>      -0.00028998       0.00020663       0.27347083 </v>
   <v>       0.11009237       0.22200325       0.21885399 </v>
   <v>       0.11084127       0.22235271       0.34849405 </v>
   <v>       0.22176876       0.11101891       0.28736991 </v>
   <v>       0.22210343       0.11205285       0.38900658 </v>
   <v>      -0.00057108      -0.00006491       0.35831114 </v>
   <v>      -0.00010493       0.33330020       0.06348705 </v>
   <v>       0.11102155       0.55551668       0.03258264 </v>
   <v>       0.11079136       0.55551765       0.13365799 </v>
   <v>       0.22211843       0.44441007       0.07213927 </v>
   <v>       0.22157127       0.44451778       0.20155360 </v>
   <v>      -0.00064766       0.33315430       0.14798043 </v>
   <v>      -0.00114505       0.33314564       0.27350430 </v>
   <v>       0.10985085       0.55554206       0.21918638 </v>
   <v>       0.11056297       0.55558819       0.34944990 </v>
   <v>       0.22047392       0.44380349       0.28697672 </v>
   <v>       0.22240506       0.44397580       0.38920178 </v>
   <v>      -0.00066519       0.33312236       0.35826998 </v>
   <v>      -0.00004309       0.66659438       0.06366055 </v>
   <v>       0.11094799       0.88881732       0.03260409 </v>
   <v>       0.11090378       0.88888654       0.13370290 </v>
   <v>       0.22208530       0.77779617       0.07227939 </v>
   <v>       0.22185220       0.77779579       0.20222471 </v>
   <v>      -0.00042762       0.66658355       0.14817389 </v>
   <v>      -0.00063984       0.66651032       0.27419784 </v>
   <v>       0.11055023       0.88859997       0.21931358 </v>
   <v>       0.11080619       0.88898295       0.34972276 </v>
   <v>       0.22135104       0.77784436       0.28802859 </v>
   <v>       0.22223571       0.77830306       0.38972403 </v>
   <v>      -0.00090752       0.66651248       0.35902187 </v>
   <v>       0.33326835       0.00007677       0.06342688 </v>
   <v>       0.44461181       0.22231290       0.03242735 </v>
   <v>       0.44426026       0.22219765       0.13351035 </v>
   <v>       0.55557887       0.11115833       0.07226597 </v>
   <v>       0.55512342       0.11108744       0.20226084 </v>
   <v>       0.33302339      -0.00014954       0.14793329 </v>
   <v>       0.33277178      -0.00002676       0.27327025 </v>
   <v>       0.44416834       0.22194182       0.21895887 </v>
   <v>       0.44470997       0.22341137       0.34823002 </v>
   <v>       0.55529311       0.11120141       0.28801986 </v>
   <v>       0.55468261       0.11145891       0.38978990 </v>
   <v>       0.33298539       0.00064726       0.35785590 </v>
   <v>       0.33337053       0.33339341       0.06320419 </v>
   <v>       0.44451236       0.55575634       0.03239425 </v>
   <v>       0.44425125       0.55557667       0.13322783 </v>
   <v>       0.55555412       0.44439888       0.07225206 </v>
   <v>       0.55495844       0.44427921       0.20215558 </v>
   <v>       0.33297576       0.33317344       0.14765271 </v>
   <v>       0.33250604       0.33346264       0.27191852 </v>
   <v>       0.44382113       0.55526446       0.21845556 </v>
   <v>       0.44195680       0.55480482       0.34578717 </v>
   <v>       0.55527315       0.44364831       0.28827575 </v>
   <v>       0.55377898       0.43890728       0.40191822 </v>
   <v>       0.33460958       0.33451035       0.35603226 </v>
   <v>       0.33332440       0.66681356       0.06327990 </v>
   <v>       0.44432401       0.88903241       0.03250837 </v>
   <v>       0.44432390       0.88901327       0.13355003 </v>
   <v>       0.55553249       0.77793573       0.07219796 </v>
   <v>       0.55526640       0.77772233       0.20164348 </v>
   <v>       0.33279835       0.66677577       0.14772730 </v>
   <v>       0.33256815       0.66640850       0.27238320 </v>
   <v>       0.44406046       0.88911101       0.21903040 </v>
   <v>       0.44375251       0.88901354       0.34903859 </v>
   <v>       0.55519829       0.77826476       0.28726724 </v>
   <v>       0.55431420       0.77738292       0.38840971 </v>
   <v>       0.33273812       0.66678479       0.35691278 </v>
   <v>       0.66659867      -0.00004483       0.06351030 </v>
   <v>       0.77781454       0.22226419       0.03249315 </v>
   <v>       0.77757751       0.22224838       0.13380780 </v>
   <v>       0.88871987       0.11101260       0.07232346 </v>
   <v>       0.88840995       0.11117462       0.20237391 </v>
   <v>       0.66650634       0.00026134       0.14797156 </v>
   <v>       0.66611432       0.00015686       0.27378153 </v>
   <v>       0.77723074       0.22244926       0.21942015 </v>
   <v>       0.77701850       0.22233611       0.35000734 </v>
   <v>       0.88800183       0.11092922       0.28817615 </v>
   <v>       0.88844348       0.11080659       0.38978217 </v>
   <v>       0.66606823      -0.00016989       0.35861894 </v>
   <v>       0.66672771       0.33334532       0.06354508 </v>
   <v>       0.77785933       0.55546683       0.03261106 </v>
   <v>       0.77754343       0.55555286       0.13377397 </v>
   <v>       0.88878867       0.44442405       0.07244406 </v>
   <v>       0.88850003       0.44436417       0.20269334 </v>
   <v>       0.66653682       0.33336596       0.14807993 </v>
   <v>       0.66553221       0.33266299       0.27366874 </v>
   <v>       0.77751613       0.55532332       0.21933239 </v>
   <v>       0.77600335       0.55459350       0.35075433 </v>
   <v>       0.88797324       0.44442684       0.28860424 </v>
   <v>       0.88828623       0.44399905       0.39047199 </v>
   <v>       0.66533886       0.33365870       0.35860160 </v>
   <v>       0.66664869       0.66661122       0.06341823 </v>
   <v>       0.77773986       0.88874340       0.03252962 </v>
   <v>       0.77770376       0.88902689       0.13366237 </v>
   <v>       0.88886158       0.77767453       0.07239163 </v>
   <v>       0.88854337       0.77771449       0.20246107 </v>
   <v>       0.66668637       0.66673153       0.14792277 </v>
   <v>       0.66570790       0.66656519       0.27249120 </v>
   <v>       0.77779430       0.88931916       0.21917319 </v>
   <v>       0.77740392       0.88888542       0.34942844 </v>
   <v>       0.88859445       0.77778003       0.28837013 </v>
   <v>       0.88873714       0.77785862       0.39040057 </v>
   <v>       0.66834040       0.66776642       0.35658462 </v>
   <v>       0.10350700      -0.00030080       0.10495184 </v>
   <v>       0.22720167       0.00844232       0.03523734 </v>
   <v>      -0.00011811       0.10379763       0.10493277 </v>
   <v>       0.22924558       0.22964026       0.10473548 </v>
   <v>       0.32487872       0.21874658       0.03513839 </v>
   <v>       0.11430676       0.10581487       0.03527977 </v>
   <v>       0.32348518       0.11026977       0.24529757 </v>
   <v>       0.11016557       0.11974645       0.17528169 </v>
   <v>       0.22172206       0.21289309       0.24486621 </v>
   <v>       0.11925498       0.00901132       0.24560331 </v>
   <v>       0.21269892       0.32403412       0.17506199 </v>
   <v>       0.00853476       0.22234726       0.17550567 </v>
   <v>       0.21966269       0.22836586       0.38434320 </v>
   <v>      -0.00102483       0.22933013       0.31663408 </v>
   <v>       0.10629764       0.32484393       0.38596163 </v>
   <v>       0.00852992       0.11502958       0.38639797 </v>
   <v>       0.10288277       0.10321207       0.31607902 </v>
   <v>       0.22914187       0.00041806       0.31647755 </v>
   <v>       0.10338867       0.33300146       0.10484121 </v>
   <v>       0.22713311       0.34174163       0.03510255 </v>
   <v>      -0.00010256       0.43722741       0.10501553 </v>
   <v>       0.22915609       0.56303710       0.10480489 </v>
   <v>       0.32481796       0.55222108       0.03511551 </v>
   <v>       0.11439172       0.43931186       0.03527661 </v>
   <v>       0.32269718       0.44374598       0.24444122 </v>
   <v>       0.11000185       0.45318402       0.17522057 </v>
   <v>       0.22154640       0.54672435       0.24506905 </v>
   <v>       0.11844439       0.34232186       0.24532521 </v>
   <v>       0.21276121       0.65754230       0.17539507 </v>
   <v>       0.00867509       0.55587524       0.17582544 </v>
   <v>       0.21935198       0.56042422       0.38541037 </v>
   <v>      -0.00096932       0.56282309       0.31738030 </v>
   <v>       0.10603347       0.65831543       0.38694192 </v>
   <v>       0.00812834       0.44771798       0.38682147 </v>
   <v>       0.10280738       0.43665942       0.31635692 </v>
   <v>       0.22883390       0.33315219       0.31499970 </v>
   <v>       0.10347579       0.66643402       0.10503720 </v>
   <v>       0.22715509       0.67522448       0.03521520 </v>
   <v>      -0.00000751       0.77049180       0.10515414 </v>
   <v>       0.22914527       0.89624236       0.10494556 </v>
   <v>       0.32464845       0.88547825       0.03526866 </v>
   <v>       0.11426778       0.77257141       0.03538479 </v>
   <v>       0.32339958       0.77744640       0.24537917 </v>
   <v>       0.11036436       0.78654069       0.17573868 </v>
   <v>       0.22189654       0.87990685       0.24583947 </v>
   <v>       0.11901150       0.67575737       0.24613365 </v>
   <v>       0.21296218       0.99065910       0.17536314 </v>
   <v>       0.00874857       0.88892399       0.17575186 </v>
   <v>       0.21929239       0.89501183       0.38665444 </v>
   <v>      -0.00067037       0.89617141       0.31706706 </v>
   <v>       0.10587654       0.99210440       0.38662741 </v>
   <v>       0.00849030       0.78155420       0.38747563 </v>
   <v>       0.10321245       0.77033404       0.31719064 </v>
   <v>       0.22888334       0.66689193       0.31634543 </v>
   <v>       0.43690659      -0.00020466       0.10489345 </v>
   <v>       0.56062876       0.00858945       0.03526060 </v>
   <v>       0.33343064       0.10370402       0.10484378 </v>
   <v>       0.56273575       0.22963665       0.10494796 </v>
   <v>       0.65819314       0.21883956       0.03532087 </v>
   <v>       0.44789586       0.10604314       0.03521739 </v>
   <v>       0.65715077       0.11086513       0.24610646 </v>
   <v>       0.44379807       0.11989804       0.17539056 </v>
   <v>       0.55574925       0.21297379       0.24551758 </v>
   <v>       0.45281079       0.00896270       0.24572632 </v>
   <v>       0.54661813       0.32423790       0.17538472 </v>
   <v>       0.34203159       0.22228426       0.17514921 </v>
   <v>       0.55094291       0.22757914       0.38683698 </v>
   <v>       0.33340271       0.23024371       0.31486243 </v>
   <v>       0.44084365       0.32676160       0.38345711 </v>
   <v>       0.34162452       0.11589411       0.38549219 </v>
   <v>       0.43672473       0.10372258       0.31626218 </v>
   <v>       0.56258132       0.00013512       0.31676336 </v>
   <v>       0.43681880       0.33295928       0.10473060 </v>
   <v>       0.56086854       0.34194624       0.03525363 </v>
   <v>       0.33341051       0.43723197       0.10468817 </v>
   <v>       0.56277455       0.56303715       0.10479470 </v>
   <v>       0.65829388       0.55214008       0.03524981 </v>
   <v>       0.44802820       0.43955263       0.03514658 </v>
   <v>       0.65761293       0.44432254       0.24608969 </v>
   <v>       0.44366660       0.45318583       0.17508889 </v>
   <v>       0.55569872       0.54669743       0.24497332 </v>
   <v>       0.45302508       0.34244595       0.24500402 </v>
   <v>       0.54645864       0.65765575       0.17506375 </v>
   <v>       0.34204264       0.55608546       0.17501806 </v>
   <v>       0.55184136       0.55608703       0.38297357 </v>
   <v>       0.33215056       0.56331224       0.31440647 </v>
   <v>       0.43967588       0.65678778       0.38368765 </v>
   <v>       0.34213300       0.44872971       0.38386717 </v>
   <v>       0.43562328       0.43763462       0.31422819 </v>
   <v>       0.56332282       0.33208445       0.31543495 </v>
   <v>       0.43685808       0.66656944       0.10469386 </v>
   <v>       0.56075287       0.67534653       0.03520121 </v>
   <v>       0.33339816       0.77061228       0.10485750 </v>
   <v>       0.56270071       0.89639415       0.10490587 </v>
   <v>       0.65821748       0.88558286       0.03525128 </v>
   <v>       0.44785698       0.77289318       0.03514115 </v>
   <v>       0.65727109       0.77789642       0.24526877 </v>
   <v>       0.44388975       0.78677027       0.17529548 </v>
   <v>       0.55590722       0.88039878       0.24556042 </v>
   <v>       0.45308840       0.67621431       0.24489023 </v>
   <v>       0.54649303       0.99098929       0.17552310 </v>
   <v>       0.34211214       0.88919092       0.17544762 </v>
   <v>       0.55105379       0.89361390       0.38652197 </v>
   <v>       0.33243320       0.89619010       0.31649356 </v>
   <v>       0.43882504       0.99157978       0.38611109 </v>
   <v>       0.34154098       0.78049326       0.38612137 </v>
   <v>       0.43633613       0.77072591       0.31564855 </v>
   <v>       0.56251145       0.66618162       0.31511243 </v>
   <v>       0.77033044      -0.00002175       0.10503119 </v>
   <v>       0.89391534       0.00844203       0.03532319 </v>
   <v>       0.66684094       0.10386028       0.10500985 </v>
   <v>       0.89594405       0.22976120       0.10506201 </v>
   <v>       0.99124820       0.21873084       0.03530586 </v>
   <v>       0.78113330       0.10600932       0.03529623 </v>
   <v>       0.99000256       0.11065933       0.24579901 </v>
   <v>       0.77707450       0.11993973       0.17571329 </v>
   <v>       0.88833614       0.21315540       0.24602119 </v>
   <v>       0.78597065       0.00907221       0.24612966 </v>
   <v>       0.87966416       0.32408079       0.17581044 </v>
   <v>       0.67560481       0.22250789       0.17564720 </v>
   <v>       0.88510591       0.22733943       0.38691375 </v>
   <v>       0.66586731       0.22913139       0.31726378 </v>
   <v>       0.77165825       0.32477242       0.38727547 </v>
   <v>       0.67416093       0.11409064       0.38714294 </v>
   <v>       0.76973378       0.10331057       0.31721179 </v>
   <v>       0.89572616       0.00029233       0.31700104 </v>
   <v>       0.77015019       0.33305057       0.10508442 </v>
   <v>       0.89393970       0.34190640       0.03532075 </v>
   <v>       0.66695907       0.43729174       0.10495021 </v>
   <v>       0.89608510       0.56315949       0.10515412 </v>
   <v>       0.99137195       0.55207268       0.03539378 </v>
   <v>       0.78133894       0.43929991       0.03537350 </v>
   <v>       0.98976898       0.44399617       0.24601908 </v>
   <v>       0.77740208       0.45323352       0.17580555 </v>
   <v>       0.88852538       0.54672078       0.24661893 </v>
   <v>       0.78594103       0.34250977       0.24640490 </v>
   <v>       0.87983624       0.65751280       0.17592956 </v>
   <v>       0.67563141       0.55579746       0.17547660 </v>
   <v>       0.88479486       0.56056370       0.38788348 </v>
   <v>       0.66578761       0.56314502       0.31664736 </v>
   <v>       0.77171292       0.65860443       0.38695342 </v>
   <v>       0.67199829       0.44693759       0.38704152 </v>
   <v>       0.77003531       0.43728688       0.31768249 </v>
   <v>       0.89551680       0.33326825       0.31706641 </v>
   <v>       0.77026156       0.66657332       0.10503335 </v>
   <v>       0.89402470       0.67510024       0.03540957 </v>
   <v>       0.66706401       0.77077516       0.10488472 </v>
   <v>       0.89606551       0.89635708       0.10506964 </v>
   <v>       0.99126974       0.88532035       0.03538955 </v>
   <v>       0.78129232       0.77260528       0.03529873 </v>
   <v>       0.99026117       0.77730284       0.24634762 </v>
   <v>       0.77735275       0.78662363       0.17563722 </v>
   <v>       0.88893741       0.88012513       0.24598710 </v>
   <v>       0.78634315       0.67572893       0.24593648 </v>
   <v>       0.87969900       0.99082323       0.17572451 </v>
   <v>       0.67568059       0.88938450       0.17543753 </v>
   <v>       0.88494149       0.89405768       0.38683569 </v>
   <v>       0.66545984       0.89564488       0.31685184 </v>
   <v>       0.77186176       0.99073040       0.38700681 </v>
   <v>       0.67332314       0.77903083       0.38572059 </v>
   <v>       0.77012521       0.77065502       0.31639515 </v>
   <v>       0.89555475       0.66699834       0.31773258 </v>
   <v>       0.51685042       0.46454303       0.45812306 </v>
   <v>       0.55595012       0.56749377       0.44928072 </v>
  </varray>
 </structure>
</modeling>
