NiAl                                    
            1
    14.415084    0.000000    0.000000
    -7.207542   12.483828    0.000000
     0.000000    0.000000   31.116254
   Al   O 
   108   164
Direct configuration=     1
   0.00000000  0.00000000  0.06234511
   0.11111100  0.22222233  0.00790906
   0.11111100  0.22222233  0.13259929
   0.22222233  0.11111100  0.07816281
   0.22222233  0.11111100  0.20285304
   0.00000000  0.00000000  0.14841698
   0.00000000  0.00000000  0.27310721
   0.11111100  0.22222233  0.21867116
   0.11111100  0.22222233  0.34336139
   0.22222233  0.11111100  0.28892491
   0.22222233  0.11111100  0.41361514
   0.00000000  0.00000000  0.35917908
   0.00000000  0.33333333  0.06234511
   0.11111100  0.55555567  0.00790906
   0.11111100  0.55555567  0.13259929
   0.22222233  0.44444433  0.07816281
   0.22222233  0.44444433  0.20285304
   0.00000000  0.33333333  0.14841698
   0.00000000  0.33333333  0.27310721
   0.11111100  0.55555567  0.21867116
   0.11111100  0.55555567  0.34336139
   0.22222233  0.44444433  0.28892491
   0.22222233  0.44444433  0.41361514
   0.00000000  0.33333333  0.35917908
   0.00000000  0.66666667  0.06234511
   0.11111100  0.88888900  0.00790906
   0.11111100  0.88888900  0.13259929
   0.22222233  0.77777767  0.07816281
   0.22222233  0.77777767  0.20285304
   0.00000000  0.66666667  0.14841698
   0.00000000  0.66666667  0.27310721
   0.11111100  0.88888900  0.21867116
   0.11111100  0.88888900  0.34336139
   0.22222233  0.77777767  0.28892491
   0.22222233  0.77777767  0.41361514
   0.00000000  0.66666667  0.35917908
   0.33333333  0.00000000  0.06234511
   0.44444433  0.22222233  0.00790906
   0.44444433  0.22222233  0.13259929
   0.55555567  0.11111100  0.07816281
   0.55555567  0.11111100  0.20285304
   0.33333333  0.00000000  0.14841698
   0.33333333  0.00000000  0.27310721
   0.44444433  0.22222233  0.21867116
   0.44444433  0.22222233  0.34336139
   0.55555567  0.11111100  0.28892491
   0.55555567  0.11111100  0.41361514
   0.33333333  0.00000000  0.35917908
   0.33333333  0.33333333  0.06234511
   0.44444433  0.55555567  0.00790906
   0.44444433  0.55555567  0.13259929
   0.55555567  0.44444433  0.07816281
   0.55555567  0.44444433  0.20285304
   0.33333333  0.33333333  0.14841698
   0.33333333  0.33333333  0.27310721
   0.44444433  0.55555567  0.21867116
   0.44444433  0.55555567  0.34336139
   0.55555567  0.44444433  0.28892491
   0.55555567  0.44444433  0.41361514
   0.33333333  0.33333333  0.35917908
   0.33333333  0.66666667  0.06234511
   0.44444433  0.88888900  0.00790906
   0.44444433  0.88888900  0.13259929
   0.55555567  0.77777767  0.07816281
   0.55555567  0.77777767  0.20285304
   0.33333333  0.66666667  0.14841698
   0.33333333  0.66666667  0.27310721
   0.44444433  0.88888900  0.21867116
   0.44444433  0.88888900  0.34336139
   0.55555567  0.77777767  0.28892491
   0.55555567  0.77777767  0.41361514
   0.33333333  0.66666667  0.35917908
   0.66666667  0.00000000  0.06234511
   0.77777767  0.22222233  0.00790906
   0.77777767  0.22222233  0.13259929
   0.88888900  0.11111100  0.07816281
   0.88888900  0.11111100  0.20285304
   0.66666667  0.00000000  0.14841698
   0.66666667  0.00000000  0.27310721
   0.77777767  0.22222233  0.21867116
   0.77777767  0.22222233  0.34336139
   0.88888900  0.11111100  0.28892491
   0.88888900  0.11111100  0.41361514
   0.66666667  0.00000000  0.35917908
   0.66666667  0.33333333  0.06234511
   0.77777767  0.55555567  0.00790906
   0.77777767  0.55555567  0.13259929
   0.88888900  0.44444433  0.07816281
   0.88888900  0.44444433  0.20285304
   0.66666667  0.33333333  0.14841698
   0.66666667  0.33333333  0.27310721
   0.77777767  0.55555567  0.21867116
   0.77777767  0.55555567  0.34336139
   0.88888900  0.44444433  0.28892491
   0.88888900  0.44444433  0.41361514
   0.66666667  0.33333333  0.35917908
   0.66666667  0.66666667  0.06234511
   0.77777767  0.88888900  0.00790906
   0.77777767  0.88888900  0.13259929
   0.88888900  0.77777767  0.07816281
   0.88888900  0.77777767  0.20285304
   0.66666667  0.66666667  0.14841698
   0.66666667  0.66666667  0.27310721
   0.77777767  0.88888900  0.21867116
   0.77777767  0.88888900  0.34336139
   0.88888900  0.77777767  0.28892491
   0.88888900  0.77777767  0.41361514
   0.66666667  0.66666667  0.35917908
   0.10204867  0.00000000  0.10538105
   0.22222233  0.00906233  0.03512688
   0.00000000  0.10204867  0.10538105
   0.23128467  0.23128467  0.10538105
   0.32427100  0.21315967  0.03512688
   0.12017367  0.11111100  0.03512688
   0.32427100  0.11111100  0.24588897
   0.11111100  0.12017367  0.17563522
   0.22222233  0.21315967  0.24588897
   0.12017367  0.00906233  0.24588897
   0.21315967  0.32427100  0.17563522
   0.00906233  0.22222233  0.17563522
   0.21315967  0.22222233  0.38639732
   0.00000000  0.23128467  0.31614315
   0.11111100  0.32427100  0.38639732
   0.00906233  0.12017367  0.38639732
   0.10204867  0.10204867  0.31614315
   0.23128467  0.00000000  0.31614315
   0.10204867  0.33333333  0.10538105
   0.22222233  0.34239567  0.03512688
   0.00000000  0.43538200  0.10538105
   0.23128467  0.56461800  0.10538105
   0.32427100  0.54649300  0.03512688
   0.12017367  0.44444433  0.03512688
   0.32427100  0.44444433  0.24588897
   0.11111100  0.45350700  0.17563522
   0.22222233  0.54649300  0.24588897
   0.12017367  0.34239567  0.24588897
   0.21315967  0.65760433  0.17563522
   0.00906233  0.55555567  0.17563522
   0.21315967  0.55555567  0.38639732
   0.00000000  0.56461800  0.31614315
   0.11111100  0.65760433  0.38639732
   0.00906233  0.45350700  0.38639732
   0.10204867  0.43538200  0.31614315
   0.23128467  0.33333333  0.31614315
   0.10204867  0.66666667  0.10538105
   0.22222233  0.67572900  0.03512688
   0.00000000  0.76871533  0.10538105
   0.23128467  0.89795133  0.10538105
   0.32427100  0.87982633  0.03512688
   0.12017367  0.77777767  0.03512688
   0.32427100  0.77777767  0.24588897
   0.11111100  0.78684033  0.17563522
   0.22222233  0.87982633  0.24588897
   0.12017367  0.67572900  0.24588897
   0.21315967  0.99093767  0.17563522
   0.00906233  0.88888900  0.17563522
   0.21315967  0.88888900  0.38639732
   0.00000000  0.89795133  0.31614315
   0.11111100  0.99093767  0.38639732
   0.00906233  0.78684033  0.38639732
   0.10204867  0.76871533  0.31614315
   0.23128467  0.66666667  0.31614315
   0.43538200  0.00000000  0.10538105
   0.55555567  0.00906233  0.03512688
   0.33333333  0.10204867  0.10538105
   0.56461800  0.23128467  0.10538105
   0.65760433  0.21315967  0.03512688
   0.45350700  0.11111100  0.03512688
   0.65760433  0.11111100  0.24588897
   0.44444433  0.12017367  0.17563522
   0.55555567  0.21315967  0.24588897
   0.45350700  0.00906233  0.24588897
   0.54649300  0.32427100  0.17563522
   0.34239567  0.22222233  0.17563522
   0.54649300  0.22222233  0.38639732
   0.33333333  0.23128467  0.31614315
   0.44444433  0.32427100  0.38639732
   0.34239567  0.12017367  0.38639732
   0.43538200  0.10204867  0.31614315
   0.56461800  0.00000000  0.31614315
   0.43538200  0.33333333  0.10538105
   0.55555567  0.34239567  0.03512688
   0.33333333  0.43538200  0.10538105
   0.56461800  0.56461800  0.10538105
   0.65760433  0.54649300  0.03512688
   0.45350700  0.44444433  0.03512688
   0.65760433  0.44444433  0.24588897
   0.44444433  0.45350700  0.17563522
   0.55555567  0.54649300  0.24588897
   0.45350700  0.34239567  0.24588897
   0.54649300  0.65760433  0.17563522
   0.34239567  0.55555567  0.17563522
   0.54649300  0.55555567  0.38639732
   0.33333333  0.56461800  0.31614315
   0.44444433  0.65760433  0.38639732
   0.34239567  0.45350700  0.38639732
   0.43538200  0.43538200  0.31614315
   0.56461800  0.33333333  0.31614315
   0.43538200  0.66666667  0.10538105
   0.55555567  0.67572900  0.03512688
   0.33333333  0.76871533  0.10538105
   0.56461800  0.89795133  0.10538105
   0.65760433  0.87982633  0.03512688
   0.45350700  0.77777767  0.03512688
   0.65760433  0.77777767  0.24588897
   0.44444433  0.78684033  0.17563522
   0.55555567  0.87982633  0.24588897
   0.45350700  0.67572900  0.24588897
   0.54649300  0.99093767  0.17563522
   0.34239567  0.88888900  0.17563522
   0.54649300  0.88888900  0.38639732
   0.33333333  0.89795133  0.31614315
   0.44444433  0.99093767  0.38639732
   0.34239567  0.78684033  0.38639732
   0.43538200  0.76871533  0.31614315
   0.56461800  0.66666667  0.31614315
   0.76871533  0.00000000  0.10538105
   0.88888900  0.00906233  0.03512688
   0.66666667  0.10204867  0.10538105
   0.89795133  0.23128467  0.10538105
   0.99093767  0.21315967  0.03512688
   0.78684033  0.11111100  0.03512688
   0.99093767  0.11111100  0.24588897
   0.77777767  0.12017367  0.17563522
   0.88888900  0.21315967  0.24588897
   0.78684033  0.00906233  0.24588897
   0.87982633  0.32427100  0.17563522
   0.67572900  0.22222233  0.17563522
   0.87982633  0.22222233  0.38639732
   0.66666667  0.23128467  0.31614315
   0.77777767  0.32427100  0.38639732
   0.67572900  0.12017367  0.38639732
   0.76871533  0.10204867  0.31614315
   0.89795133  0.00000000  0.31614315
   0.76871533  0.33333333  0.10538105
   0.88888900  0.34239567  0.03512688
   0.66666667  0.43538200  0.10538105
   0.89795133  0.56461800  0.10538105
   0.99093767  0.54649300  0.03512688
   0.78684033  0.44444433  0.03512688
   0.99093767  0.44444433  0.24588897
   0.77777767  0.45350700  0.17563522
   0.88888900  0.54649300  0.24588897
   0.78684033  0.34239567  0.24588897
   0.87982633  0.65760433  0.17563522
   0.67572900  0.55555567  0.17563522
   0.87982633  0.55555567  0.38639732
   0.66666667  0.56461800  0.31614315
   0.77777767  0.65760433  0.38639732
   0.67572900  0.45350700  0.38639732
   0.76871533  0.43538200  0.31614315
   0.89795133  0.33333333  0.31614315
   0.76871533  0.66666667  0.10538105
   0.88888900  0.67572900  0.03512688
   0.66666667  0.76871533  0.10538105
   0.89795133  0.89795133  0.10538105
   0.99093767  0.87982633  0.03512688
   0.78684033  0.77777767  0.03512688
   0.99093767  0.77777767  0.24588897
   0.77777767  0.78684033  0.17563522
   0.88888900  0.87982633  0.24588897
   0.78684033  0.67572900  0.24588897
   0.87982633  0.99093767  0.17563522
   0.67572900  0.88888900  0.17563522
   0.87982633  0.88888900  0.38639732
   0.66666667  0.89795133  0.31614315
   0.77777767  0.99093767  0.38639732
   0.67572900  0.78684033  0.38639732
   0.76871533  0.76871533  0.31614315
   0.89795133  0.66666667  0.31614315
   0.46187937  0.46187937  0.44575268
   0.50994155  0.55800373  0.44575268
Direct configuration=     2
   0.00000234  0.00000158  0.06186488
   0.11111156  0.22222399  0.01209802
   0.11111050  0.22221970  0.13251686
   0.22222631  0.11111280  0.07699079
   0.22223753  0.11111901  0.20286212
   0.00000932  0.00000843  0.14840021
   0.00004965  0.00003801  0.27314581
   0.11112719  0.22220631  0.21869623
   0.11117557  0.22215416  0.34456878
   0.22234424  0.11123055  0.28906017
   0.22243177  0.11130353  0.40946692
   0.00009565  0.00005743  0.35967875
  -0.00000033  0.33333334  0.06186462
   0.11110948  0.55555672  0.01209948
   0.11111314  0.55555839  0.13251729
   0.22222180  0.44444158  0.07698954
   0.22220583  0.44443305  0.20284271
  -0.00000361  0.33332795  0.14840185
  -0.00001387  0.33332423  0.27313960
   0.11110581  0.55555528  0.21869140
   0.11106484  0.55555167  0.34453738
   0.22219666  0.44442831  0.28901551
   0.22208199  0.44436372  0.40952251
  -0.00003910  0.33332316  0.35967117
   0.00000193  0.66667081  0.06186297
   0.11111334  0.88888972  0.01209799
   0.11112022  0.88889609  0.13251654
   0.22221994  0.77777764  0.07699012
   0.22222512  0.77778974  0.20284960
   0.00000777  0.66666992  0.14839945
   0.00002231  0.66666620  0.27313407
   0.11113041  0.88891416  0.21869461
   0.11118105  0.88897717  0.34455959
   0.22224071  0.77780969  0.28902458
   0.22222709  0.77782737  0.40946408
   0.00002613  0.66666501  0.35967874
   0.33333484  0.00000123  0.06186549
   0.44443895  0.22221843  0.01209943
   0.44443460  0.22221072  0.13251929
   0.55555319  0.11110733  0.07698995
   0.55555050  0.11112466  0.20285676
   0.33333270  0.00000705  0.14840552
   0.33334680  0.00004760  0.27315666
   0.44442903  0.22219226  0.21870886
   0.44436309  0.22276517  0.34471971
   0.55552795  0.11114173  0.28903997
   0.55551868  0.11118668  0.40946327
   0.33336657  0.00011942  0.35969777
   0.33332895  0.33332784  0.06186351
   0.44444251  0.55555237  0.01209941
   0.44443613  0.55555191  0.13251347
   0.55555134  0.44444167  0.07698783
   0.55554021  0.44440289  0.20283827
   0.33332517  0.33331792  0.14840129
   0.33322741  0.33309798  0.27313851
   0.44441918  0.55555551  0.21867778
   0.44374703  0.55570243  0.34421020
   0.55541965  0.44406784  0.28895585
   0.55577609  0.44110477  0.41004278
   0.33365606  0.33276970  0.35976690
   0.33333298  0.66666761  0.06186478
   0.44444688  0.88889135  0.01209934
   0.44444386  0.88889101  0.13251837
   0.55555514  0.77778186  0.07698854
   0.55554975  0.77779109  0.20284132
   0.33333061  0.66667026  0.14839861
   0.33332535  0.66667957  0.27313914
   0.44444104  0.88890710  0.21869465
   0.44441852  0.88895056  0.34454828
   0.55552675  0.77782250  0.28900442
   0.55546313  0.77797341  0.40951505
   0.33336319  0.66673815  0.35964270
   0.66666971  0.00000127  0.06186339
   0.77778081  0.22222035  0.01209948
   0.77777776  0.22222136  0.13251818
   0.88888783  0.11111372  0.07698971
   0.88889545  0.11111992  0.20284922
   0.66666637  0.00000721  0.14840062
   0.66666556  0.00003028  0.27313761
   0.77776635  0.22222670  0.21869630
   0.77773296  0.22221989  0.34455476
   0.88889239  0.11112148  0.28902419
   0.88891682  0.11113493  0.40946729
   0.66666905  0.00008150  0.35967473
   0.66666583  0.33333112  0.06186539
   0.77777959  0.55556027  0.01209961
   0.77777982  0.55555326  0.13251269
   0.88889188  0.44444453  0.07698884
   0.88887746  0.44442908  0.20285085
   0.66666459  0.33332424  0.14840153
   0.66660752  0.33329516  0.27318256
   0.77779524  0.55552135  0.21867551
   0.77782591  0.55526471  0.34463109
   0.88883291  0.44441840  0.28903137
   0.88884534  0.44441633  0.40946974
   0.66651002  0.33338420  0.35968811
   0.66666625  0.66666601  0.06186268
   0.77777653  0.88888857  0.01209811
   0.77778020  0.88889506  0.13251221
   0.88889022  0.77777628  0.07698823
   0.88892351  0.77780707  0.20283632
   0.66666977  0.66666986  0.14839442
   0.66667059  0.66681133  0.27306703
   0.77779464  0.88891707  0.21868541
   0.77788348  0.88901319  0.34452446
   0.88898202  0.77784676  0.28901693
   0.88898146  0.77785328  0.40947134
   0.66775699  0.66793147  0.35936723
   0.10220151  0.00021606  0.10543515
   0.22133306  0.00612223  0.03428452
  -0.00021870  0.10198573  0.10543568
   0.23134165  0.23112625  0.10543451
   0.32722138  0.21521467  0.03428374
   0.11811758  0.11199696  0.03428701
   0.32425704  0.11109237  0.24584032
   0.11109924  0.12017798  0.17560323
   0.22219511  0.21316495  0.24583630
   0.12015491  0.00906004  0.24585381
   0.21316217  0.32427630  0.17560771
   0.00907017  0.22222979  0.17560490
   0.21506566  0.22133645  0.38725537
   0.00022290  0.23136389  0.31605904
   0.11210055  0.32730858  0.38730316
   0.00607675  0.11811518  0.38729179
   0.10193223  0.10217672  0.31604862
   0.23110177 -0.00026986  0.31604602
   0.10220315  0.33355091  0.10543487
   0.22133491  0.33944723  0.03428453
  -0.00021568  0.43532491  0.10544054
   0.23134470  0.56446222  0.10543574
   0.32721750  0.54854585  0.03428396
   0.11811602  0.44533988  0.03428331
   0.32429550  0.44444735  0.24587270
   0.11111093  0.45351043  0.17560772
   0.22224254  0.54649274  0.24586882
   0.12018094  0.34241888  0.24586071
   0.21314869  0.65757853  0.17560785
   0.00907711  0.55556073  0.17560848
   0.21526800  0.55463328  0.38730799
   0.00022100  0.56469857  0.31605576
   0.11200636  0.66051752  0.38728534
   0.00615978  0.45147800  0.38728538
   0.10201210  0.43555149  0.31605937
   0.23117107  0.33321653  0.31606520
   0.10220470  0.66688228  0.10543482
   0.22133029  0.67278389  0.03428343
  -0.00021761  0.76865534  0.10543614
   0.23134473  0.89779514  0.10543432
   0.32722659  0.88188521  0.03428301
   0.11811252  0.77866491  0.03428498
   0.32425974  0.77775426  0.24586585
   0.11109905  0.78683831  0.17560754
   0.22222037  0.87980242  0.24585486
   0.12016998  0.67573312  0.24585983
   0.21315196  0.99092036  0.17560030
   0.00906190  0.88888183  0.17560963
   0.21517939  0.88793840  0.38728921
   0.00016612  0.89796023  0.31605476
   0.11193438  0.99382610  0.38727816
   0.00606810  0.78474968  0.38729402
   0.10195496  0.76885497  0.31605892
   0.23113152  0.66643191  0.31606226
   0.43554114  0.00021636  0.10543892
   0.55465750  0.00611617  0.03428211
   0.33311451  0.10198535  0.10543358
   0.56468014  0.23112933  0.10543428
   0.66054763  0.21521307  0.03428478
   0.45144826  0.11199994  0.03428330
   0.65759335  0.11109349  0.24585746
   0.44443695  0.12017705  0.17559906
   0.55556554  0.21314551  0.24584241
   0.45352072  0.00906091  0.24585367
   0.54649955  0.32428132  0.17560980
   0.34240783  0.22223766  0.17560274
   0.54860871  0.22127592  0.38729452
   0.33329513  0.23122904  0.31592614
   0.44514119  0.32653917  0.38671339
   0.33936736  0.11794036  0.38729377
   0.43532943  0.10215604  0.31603261
   0.56448286 -0.00024926  0.31605450
   0.43554138  0.33355607  0.10543466
   0.55466548  0.33945311  0.03428464
   0.33312085  0.43532533  0.10543648
   0.56467727  0.56446071  0.10544387
   0.66054996  0.54855114  0.03428399
   0.45145663  0.44533815  0.03428387
   0.65761684  0.44453404  0.24586570
   0.44444638  0.45353048  0.17562303
   0.55561101  0.54650991  0.24589224
   0.45354316  0.34249427  0.24586062
   0.54649342  0.65759728  0.17561544
   0.34242309  0.55556577  0.17561125
   0.54929461  0.55698682  0.38575280
   0.33356760  0.56467972  0.31605737
   0.44542855  0.66038278  0.38714720
   0.33953572  0.45186710  0.38692933
   0.43565727  0.43601591  0.31615535
   0.56463801  0.33322028  0.31595913
   0.43553770  0.66688140  0.10543662
   0.55466031  0.67277652  0.03428353
   0.33311922  0.76865373  0.10543559
   0.56467806  0.89779407  0.10543505
   0.66055296  0.88188742  0.03428507
   0.45145404  0.77866914  0.03428426
   0.65758859  0.77774149  0.24587222
   0.44443326  0.78684578  0.17560868
   0.55557440  0.87980974  0.24586154
   0.45352191  0.67573349  0.24587230
   0.54648264  0.99091491  0.17560613
   0.34239852  0.88888558  0.17560585
   0.54855959  0.88792102  0.38731054
   0.33353030  0.89796215  0.31604966
   0.44533838  0.99381419  0.38727745
   0.33947758  0.78473564  0.38728997
   0.43533383  0.76885834  0.31605452
   0.56450787  0.66638917  0.31609084
   0.76887304  0.00021560  0.10543581
   0.88800225  0.00611948  0.03428657
   0.66644955  0.10198712  0.10543446
   0.89801484  0.23112857  0.10543481
   0.99387759  0.21521138  0.03428521
   0.78478650  0.11200542  0.03428410
   0.99090338  0.11109191  0.24585804
   0.77777422  0.12017162  0.17560691
   0.88890010  0.21315404  0.24586104
   0.78684053  0.00906498  0.24585937
   0.87982934  0.32426487  0.17560358
   0.67574011  0.22222925  0.17560484
   0.88188678  0.22133430  0.38729018
   0.66691740  0.23133633  0.31604816
   0.77871052  0.32723925  0.38729314
   0.67281578  0.11809117  0.38727937
   0.76867429  0.10218418  0.31605648
   0.89775094 -0.00025138  0.31606277
   0.76887326  0.33355473  0.10543427
   0.88799985  0.33944809  0.03428298
   0.66645095  0.43532389  0.10543651
   0.89801211  0.56446254  0.10543621
   0.99388247  0.54853968  0.03428287
   0.78478622  0.44533342  0.03428506
   0.99092975  0.44444166  0.24586123
   0.77777047  0.45351594  0.17560884
   0.88890150  0.54650518  0.24585776
   0.78685985  0.34240954  0.24584957
   0.87981487  0.65760232  0.17561353
   0.67573731  0.55556757  0.17561180
   0.88187296  0.55468510  0.38728422
   0.66653318  0.56468572  0.31622285
   0.77834242  0.66041882  0.38727300
   0.67293855  0.45191753  0.38723847
   0.76873720  0.43559013  0.31602605
   0.89781043  0.33311412  0.31605325
   0.76886946  0.66688491  0.10543737
   0.88799181  0.67278039  0.03428379
   0.66645340  0.76865319  0.10543792
   0.89801163  0.89779552  0.10543724
   0.99387909  0.88188280  0.03428731
   0.78478799  0.77866528  0.03428589
   0.99089356  0.77775198  0.24586068
   0.77776814  0.78683107  0.17561129
   0.88887936  0.87979394  0.24586258
   0.78677696  0.67569339  0.24589528
   0.87981314  0.99091934  0.17560913
   0.67573688  0.88888264  0.17561160
   0.88180243  0.88793441  0.38728574
   0.66689444  0.89796570  0.31606970
   0.77861423  0.99378011  0.38727612
   0.67257348  0.78440991  0.38734337
   0.76856284  0.76876734  0.31606853
   0.89772207  0.66644879  0.31605938
   0.45317986  0.44610941  0.44775228
   0.51771037  0.57379791  0.44598266
Direct configuration=     3
   0.00000443  0.00000300  0.06143513
   0.11111205  0.22222547  0.01584660
   0.11111006  0.22221733  0.13244310
   0.22222986  0.11111441  0.07594199
   0.22225114  0.11112618  0.20287025
   0.00001766  0.00001598  0.14838520
   0.00009407  0.00007202  0.27318036
   0.11114167  0.22219197  0.21871867
   0.11123335  0.22209316  0.34564925
   0.22245333  0.11133754  0.28918122
   0.22261918  0.11147582  0.40575479
   0.00018124  0.00010882  0.36012590
  -0.00000062  0.33333334  0.06143463
   0.11110812  0.55555767  0.01584937
   0.11111506  0.55556082  0.13244392
   0.22222132  0.44443912  0.07593962
   0.22219105  0.44442295  0.20283347
  -0.00000685  0.33332314  0.14838832
  -0.00002629  0.33331609  0.27316858
   0.11110116  0.55555493  0.21870951
   0.11102352  0.55554809  0.34558975
   0.22217369  0.44441397  0.28909659
   0.22195639  0.44429158  0.40586013
  -0.00007409  0.33331407  0.36011153
   0.00000365  0.66667452  0.06143151
   0.11111544  0.88889036  0.01584654
   0.11112848  0.88890244  0.13244248
   0.22221780  0.77777762  0.07594072
   0.22222761  0.77780054  0.20284651
   0.00001471  0.66667283  0.14838376
   0.00004228  0.66666578  0.27315810
   0.11114777  0.88893667  0.21871560
   0.11124373  0.88905608  0.34563183
   0.22225715  0.77783835  0.28911376
   0.22223134  0.77787184  0.40574942
   0.00004952  0.66666352  0.36012587
   0.33333620  0.00000233  0.06143629
   0.44443414  0.22221493  0.01584927
   0.44442588  0.22220033  0.13244770
   0.55555098  0.11110405  0.07594039
   0.55554588  0.11113689  0.20286008
   0.33333214  0.00001336  0.14839526
   0.33335884  0.00009020  0.27320090
   0.44441534  0.22216535  0.21874259
   0.44429039  0.22325093  0.34593524
   0.55550315  0.11116922  0.28914293
   0.55548558  0.11125441  0.40574789
   0.33339630  0.00022629  0.36016193
   0.33332503  0.33332293  0.06143254
   0.44444088  0.55554942  0.01584924
   0.44442878  0.55554854  0.13243667
   0.55554746  0.44443928  0.07593636
   0.55552639  0.44436581  0.20282504
   0.33331786  0.33330412  0.14838725
   0.33313262  0.33288736  0.27316652
   0.44439668  0.55555538  0.21868370
   0.44312303  0.55583376  0.34496979
   0.55529793  0.44373092  0.28898354
   0.55597334  0.43811629  0.40684597
   0.33394486  0.33226532  0.36029293
   0.33333266  0.66666846  0.06143494
   0.44444916  0.88889345  0.01584910
   0.44444343  0.88889280  0.13244596
   0.55555467  0.77778562  0.07593773
   0.55554445  0.77780309  0.20283083
   0.33332817  0.66667347  0.14838217
   0.33331820  0.66669111  0.27316770
   0.44443809  0.88892329  0.21871566
   0.44439541  0.88900565  0.34561040
   0.55550088  0.77786261  0.28907558
   0.55538033  0.77814858  0.40584600
   0.33338992  0.66680212  0.36005758
   0.66667244  0.00000241  0.06143231
   0.77778361  0.22221857  0.01584937
   0.77777784  0.22222049  0.13244560
   0.88888679  0.11111616  0.07593993
   0.88890122  0.11112791  0.20284581
   0.66666610  0.00001365  0.14838598
   0.66666457  0.00005737  0.27316480
   0.77775622  0.22223062  0.21871879
   0.77769295  0.22221771  0.34562268
   0.88889542  0.11113085  0.28911303
   0.88894172  0.11115634  0.40575549
   0.66667118  0.00015444  0.36011827
   0.66666508  0.33332915  0.06143610
   0.77778131  0.55556439  0.01584961
   0.77778174  0.55555112  0.13243520
   0.88889445  0.44444470  0.07593828
   0.88886713  0.44441543  0.20284889
   0.66666274  0.33331610  0.14838770
   0.66655460  0.33326099  0.27324999
   0.77781097  0.55549065  0.21867940
   0.77786907  0.55500435  0.34576731
   0.88878271  0.44439519  0.28912664
   0.88880626  0.44439127  0.40576014
   0.66636984  0.33342972  0.36014363
   0.66666588  0.66666541  0.06143096
   0.77777551  0.88888819  0.01584678
   0.77778246  0.88890048  0.13243429
   0.88889131  0.77777503  0.07593713
   0.88895439  0.77783339  0.20282136
   0.66667254  0.66667271  0.14837423
   0.66667410  0.66694078  0.27303108
   0.77780983  0.88894219  0.21869816
   0.77797817  0.88912431  0.34556526
   0.88906527  0.77790859  0.28909928
   0.88906420  0.77792094  0.40576317
   0.66873269  0.66906331  0.35953560
   0.10233829  0.00040940  0.10548356
   0.22053728  0.00349122  0.03353072
  -0.00041440  0.10192941  0.10548457
   0.23139264  0.23098448  0.10548235
   0.32986159  0.21705363  0.03352923
   0.11627764  0.11278979  0.03353544
   0.32424455  0.11107570  0.24579678
   0.11108871  0.12018184  0.17557460
   0.22217075  0.21316967  0.24578916
   0.12013813  0.00905799  0.24582235
   0.21316441  0.32428105  0.17558309
   0.00907718  0.22223647  0.17557777
   0.21677128  0.22054371  0.38802322
   0.00042237  0.23143479  0.31598378
   0.11298608  0.33002683  0.38811377
   0.00340504  0.11627310  0.38809222
   0.10182803  0.10229132  0.31596402
   0.23093810 -0.00051134  0.31595910
   0.10234140  0.33374561  0.10548303
   0.22054078  0.33680875  0.03353074
  -0.00040869  0.43527383  0.10549379
   0.23139842  0.56432281  0.10548468
   0.32985424  0.55038288  0.03352966
   0.11627468  0.44614128  0.03352842
   0.32431742  0.44445006  0.24585813
   0.11111086  0.45351349  0.17558312
   0.22226062  0.54649252  0.24585079
   0.12018745  0.34243966  0.24583541
   0.21313886  0.65755544  0.17558335
   0.00909033  0.55556526  0.17558454
   0.21715470  0.55380786  0.38812292
   0.00041877  0.56477067  0.31597757
   0.11280759  0.66312445  0.38808000
   0.00356236  0.44966230  0.38808008
   0.10197938  0.43570317  0.31598440
   0.23106941  0.33311200  0.31599545
   0.10234434  0.66707523  0.10548294
   0.22053203  0.67014840  0.03352866
  -0.00041235  0.76860165  0.10548543
   0.23139848  0.89765537  0.10548198
   0.32987147  0.88372763  0.03352786
   0.11626805  0.77945887  0.03353160
   0.32424965  0.77773331  0.24584516
   0.11108835  0.78683650  0.17558277
   0.22221861  0.87978102  0.24582433
   0.12016667  0.67573681  0.24583375
   0.21314507  0.99090487  0.17556905
   0.00906151  0.88887542  0.17558673
   0.21698678  0.88708773  0.38808733
   0.00031477  0.89796820  0.31597567
   0.11267120  0.99641088  0.38806640
   0.00338865  0.78287882  0.38809645
   0.10187110  0.76897992  0.31598354
   0.23099447  0.66622184  0.31598988
   0.43568355  0.00040997  0.10549071
   0.55385375  0.00347972  0.03352615
   0.33291868  0.10192870  0.10548059
   0.56473574  0.23099032  0.10548192
   0.66318151  0.21705060  0.03353121
   0.44960595  0.11279543  0.03352841
   0.65758352  0.11107783  0.24582926
   0.44443035  0.12018007  0.17556669
   0.55557437  0.21313284  0.24580075
   0.45353299  0.00905964  0.24582207
   0.54650541  0.32429056  0.17558705
   0.34241871  0.22225138  0.17557366
   0.55050199  0.22042900  0.38809741
   0.33326095  0.23117927  0.31573194
   0.44576479  0.32856889  0.38699623
   0.33665741  0.11594183  0.38809598
   0.43528239  0.10225213  0.31593370
   0.56436193 -0.00047231  0.31597517
   0.43568401  0.33375539  0.10548263
   0.55386888  0.33681989  0.03353095
   0.33293070  0.43527462  0.10548609
   0.56473031  0.56431996  0.10550009
   0.66318591  0.55039291  0.03352972
   0.44962180  0.44613800  0.03352948
   0.65762802  0.44461432  0.24584488
   0.44444822  0.45355150  0.17561213
   0.55566053  0.54652503  0.24589516
   0.45357552  0.34258250  0.24583525
   0.54649380  0.65759096  0.17559773
   0.34244762  0.55557482  0.17558979
   0.55180169  0.55826752  0.38517603
   0.33377723  0.56473496  0.31598061
   0.44630931  0.66286914  0.38781824
   0.33697643  0.45039961  0.38740541
   0.43590361  0.43658319  0.31616627
   0.56465591  0.33311911  0.31579446
   0.43567704  0.66707355  0.10548634
   0.55385907  0.67013443  0.03352884
   0.33292761  0.76859860  0.10548439
   0.56473181  0.89765333  0.10548337
   0.66319160  0.88373183  0.03353176
   0.44961690  0.77946689  0.03353023
   0.65757450  0.77770912  0.24585722
   0.44442335  0.78685065  0.17558492
   0.55559116  0.87979489  0.24583700
   0.45353526  0.67573751  0.24585739
   0.54647337  0.99089455  0.17558009
   0.34240107  0.88888252  0.17557957
   0.55040893  0.88705480  0.38812776
   0.33370655  0.89797182  0.31596600
   0.44613844  0.99638831  0.38806505
   0.33686626  0.78285221  0.38808878
   0.43529072  0.76898631  0.31597521
   0.56440932  0.66614084  0.31604404
   0.76901417  0.00040853  0.10548482
   0.88720873  0.00348600  0.03353460
   0.66625527  0.10193205  0.10548226
   0.89807167  0.23098889  0.10548292
   0.99650845  0.21704740  0.03353203
   0.78294859  0.11280581  0.03352992
   0.99087270  0.11107483  0.24583036
   0.77777114  0.12016979  0.17558157
   0.88891003  0.21314901  0.24583603
   0.78684070  0.00906736  0.24583287
   0.87983203  0.32425939  0.17557526
   0.67575005  0.22223544  0.17557765
   0.88373061  0.22053962  0.38808918
   0.66714177  0.23138256  0.31596316
   0.77954531  0.32989546  0.38809478
   0.67020882  0.11622761  0.38806869
   0.76863757  0.10230545  0.31597893
   0.89757161 -0.00047633  0.31599084
   0.76901458  0.33375285  0.10548189
   0.88720417  0.33681039  0.03352779
   0.66625792  0.43527189  0.10548615
   0.89806650  0.56432342  0.10548558