 254 254   0   0
  0.2268316E+02  0.1514622E-08  0.1514622E-08  0.2900000E-08  0.5000000E-15
   1.0000000000000000E-004
  CAR 
 NiAl                                    
      6.23869074    -27.54809385  301     -0.50360053      1.00000000
    -27.548  0.0000E+00  0.0000E+00
    -27.435  0.0000E+00  0.0000E+00
    -27.323  0.0000E+00  0.0000E+00
    -27.210  0.0000E+00  0.0000E+00
    -27.098  0.0000E+00  0.0000E+00
    -26.985  0.0000E+00  0.0000E+00
    -26.872  0.0000E+00  0.0000E+00
    -26.760  0.0000E+00  0.0000E+00
    -26.647  0.0000E+00  0.0000E+00
    -26.534  0.0000E+00  0.0000E+00
    -26.422  0.0000E+00  0.0000E+00
    -26.309  0.0000E+00  0.0000E+00
    -26.197  0.1616E-05  0.1820E-06
    -26.084  0.3748E+00  0.4221E-01
    -25.971  0.1518E+02  0.1752E+01
    -25.859  0.2206E+01  0.2000E+01
    -25.746  0.1268E-03  0.2000E+01
    -25.634  0.4683E-12  0.2000E+01
    -25.521  0.0000E+00  0.2000E+01
    -25.408  0.0000E+00  0.2000E+01
    -25.296  0.0000E+00  0.2000E+01
    -25.183  0.0000E+00  0.2000E+01
    -25.070  0.0000E+00  0.2000E+01
    -24.958  0.0000E+00  0.2000E+01
    -24.845  0.0000E+00  0.2000E+01
    -24.733  0.0000E+00  0.2000E+01
    -24.620  0.0000E+00  0.2000E+01
    -24.507  0.0000E+00  0.2000E+01
    -24.395  0.0000E+00  0.2000E+01
    -24.282  0.0000E+00  0.2000E+01
    -24.169  0.0000E+00  0.2000E+01
    -24.057  0.0000E+00  0.2000E+01
    -23.944  0.0000E+00  0.2000E+01
    -23.832  0.0000E+00  0.2000E+01
    -23.719  0.0000E+00  0.2000E+01
    -23.606  0.0000E+00  0.2000E+01
    -23.494  0.0000E+00  0.2000E+01
    -23.381  0.0000E+00  0.2000E+01
    -23.268  0.0000E+00  0.2000E+01
    -23.156  0.0000E+00  0.2000E+01
    -23.043  0.0000E+00  0.2000E+01
    -22.931  0.0000E+00  0.2000E+01
    -22.818  0.0000E+00  0.2000E+01
    -22.705  0.0000E+00  0.2000E+01
    -22.593  0.0000E+00  0.2000E+01
    -22.480  0.0000E+00  0.2000E+01
    -22.367  0.0000E+00  0.2000E+01
    -22.255  0.0000E+00  0.2000E+01
    -22.142  0.0000E+00  0.2000E+01
    -22.030  0.0000E+00  0.2000E+01
    -21.917  0.0000E+00  0.2000E+01
    -21.804  0.0000E+00  0.2000E+01
    -21.692  0.0000E+00  0.2000E+01
    -21.579  0.0000E+00  0.2000E+01
    -21.466  0.0000E+00  0.2000E+01
    -21.354  0.0000E+00  0.2000E+01
    -21.241  0.0000E+00  0.2000E+01
    -21.129  0.0000E+00  0.2000E+01
    -21.016  0.0000E+00  0.2000E+01
    -20.903  0.0000E+00  0.2000E+01
    -20.791  0.0000E+00  0.2000E+01
    -20.678  0.0000E+00  0.2000E+01
    -20.565  0.0000E+00  0.2000E+01
    -20.453  0.0000E+00  0.2000E+01
    -20.340  0.0000E+00  0.2000E+01
    -20.228  0.0000E+00  0.2000E+01
    -20.115  0.0000E+00  0.2000E+01
    -20.002  0.0000E+00  0.2000E+01
    -19.890  0.0000E+00  0.2000E+01
    -19.777  0.1495E-07  0.2000E+01
    -19.665  0.4002E-01  0.2005E+01
    -19.552  0.1124E+02  0.3270E+01
    -19.439  0.6478E+01  0.4000E+01
    -19.327  0.3681E-02  0.4000E+01
    -19.214  0.1658E-09  0.4000E+01
    -19.101  0.0000E+00  0.4000E+01
    -18.989  0.0000E+00  0.4000E+01
    -18.876  0.0000E+00  0.4000E+01
    -18.764  0.0000E+00  0.4000E+01
    -18.651  0.0000E+00  0.4000E+01
    -18.538  0.0000E+00  0.4000E+01
    -18.426  0.0000E+00  0.4000E+01
    -18.313  0.0000E+00  0.4000E+01
    -18.200  0.0000E+00  0.4000E+01
    -18.088  0.0000E+00  0.4000E+01
    -17.975  0.0000E+00  0.4000E+01
    -17.863  0.0000E+00  0.4000E+01
    -17.750  0.0000E+00  0.4000E+01
    -17.637  0.0000E+00  0.4000E+01
    -17.525  0.0000E+00  0.4000E+01
    -17.412  0.0000E+00  0.4000E+01
    -17.299  0.0000E+00  0.4000E+01
    -17.187  0.0000E+00  0.4000E+01
    -17.074  0.0000E+00  0.4000E+01
    -16.962  0.0000E+00  0.4000E+01
    -16.849  0.0000E+00  0.4000E+01
    -16.736  0.0000E+00  0.4000E+01
    -16.624  0.0000E+00  0.4000E+01
    -16.511  0.0000E+00  0.4000E+01
    -16.398  0.0000E+00  0.4000E+01
    -16.286  0.0000E+00  0.4000E+01
    -16.173  0.0000E+00  0.4000E+01
    -16.061  0.0000E+00  0.4000E+01
    -15.948  0.0000E+00  0.4000E+01
    -15.835  0.0000E+00  0.4000E+01
    -15.723  0.0000E+00  0.4000E+01
    -15.610  0.0000E+00  0.4000E+01
    -15.497  0.0000E+00  0.4000E+01
    -15.385  0.0000E+00  0.4000E+01
    -15.272  0.0000E+00  0.4000E+01
    -15.160  0.0000E+00  0.4000E+01
    -15.047  0.0000E+00  0.4000E+01
    -14.934  0.0000E+00  0.4000E+01
    -14.822  0.0000E+00  0.4000E+01
    -14.709  0.0000E+00  0.4000E+01
    -14.596  0.0000E+00  0.4000E+01
    -14.484  0.0000E+00  0.4000E+01
    -14.371  0.0000E+00  0.4000E+01
    -14.259  0.0000E+00  0.4000E+01
    -14.146  0.0000E+00  0.4000E+01
    -14.033  0.0000E+00  0.4000E+01
    -13.921  0.0000E+00  0.4000E+01
    -13.808  0.0000E+00  0.4000E+01
    -13.696  0.0000E+00  0.4000E+01
    -13.583  0.0000E+00  0.4000E+01
    -13.470  0.0000E+00  0.4000E+01
    -13.358  0.0000E+00  0.4000E+01
    -13.245  0.0000E+00  0.4000E+01
    -13.132  0.0000E+00  0.4000E+01
    -13.020  0.0000E+00  0.4000E+01
    -12.907  0.0000E+00  0.4000E+01
    -12.795  0.0000E+00  0.4000E+01
    -12.682  0.0000E+00  0.4000E+01
    -12.569  0.0000E+00  0.4000E+01
    -12.457  0.0000E+00  0.4000E+01
    -12.344  0.0000E+00  0.4000E+01
    -12.231  0.0000E+00  0.4000E+01
    -12.119  0.0000E+00  0.4000E+01
    -12.006  0.0000E+00  0.4000E+01
    -11.894  0.0000E+00  0.4000E+01
    -11.781  0.0000E+00  0.4000E+01
    -11.668  0.0000E+00  0.4000E+01
    -11.556  0.0000E+00  0.4000E+01
    -11.443  0.0000E+00  0.4000E+01
    -11.330  0.0000E+00  0.4000E+01
    -11.218  0.0000E+00  0.4000E+01
    -11.105  0.4901E-07  0.4000E+01
    -10.993  0.7248E-01  0.4008E+01
    -10.880  0.1246E+02  0.5411E+01
    -10.767  0.5229E+01  0.6000E+01
    -10.655  0.1730E-02  0.6000E+01
    -10.542  0.4274E-10  0.6000E+01
    -10.429  0.0000E+00  0.6000E+01
    -10.317  0.0000E+00  0.6000E+01
    -10.204  0.0000E+00  0.6000E+01
    -10.092  0.0000E+00  0.6000E+01
     -9.979  0.0000E+00  0.6000E+01
     -9.866  0.1271E-08  0.6000E+01
     -9.754  0.1106E-01  0.6001E+01
     -9.641  0.8558E+01  0.6965E+01
     -9.528  0.9174E+01  0.7998E+01
     -9.416  0.1497E-01  0.8000E+01
     -9.303  0.9063E-02  0.8001E+01
     -9.191  0.8056E+01  0.8908E+01
     -9.078  0.1049E+02  0.1009E+02
     -8.965  0.3597E+01  0.1049E+02
     -8.853  0.5760E+01  0.1114E+02
     -8.740  0.2067E+02  0.1347E+02
     -8.627  0.2607E+00  0.1350E+02
     -8.515  0.2334E+01  0.1376E+02
     -8.402  0.7876E+01  0.1465E+02
     -8.290  0.3489E+02  0.1858E+02
     -8.177  0.1922E+02  0.2074E+02
     -8.064  0.1984E+02  0.2298E+02
     -7.952  0.2831E+00  0.2301E+02
     -7.839  0.1788E+02  0.2503E+02
     -7.727  0.9793E+01  0.2613E+02
     -7.614  0.2351E+02  0.2878E+02
     -7.501  0.4370E+02  0.3370E+02
     -7.389  0.4209E+02  0.3844E+02
     -7.276  0.5465E+00  0.3850E+02
     -7.163  0.1650E+01  0.3869E+02
     -7.051  0.5077E+02  0.4440E+02
     -6.938  0.5386E+02  0.5047E+02
     -6.826  0.2827E+02  0.5365E+02
     -6.713  0.1757E+02  0.5563E+02
     -6.600  0.2764E+02  0.5874E+02
     -6.488  0.2782E+02  0.6188E+02
     -6.375  0.4098E+02  0.6649E+02
     -6.262  0.7709E+02  0.7517E+02
     -6.150  0.2070E+02  0.7751E+02
     -6.037  0.5443E+02  0.8364E+02
     -5.925  0.7680E+02  0.9229E+02
     -5.812  0.6584E+02  0.9970E+02
     -5.699  0.2771E+01  0.1000E+03
     -5.587  0.7761E+01  0.1009E+03
     -5.474  0.3838E+02  0.1052E+03
     -5.361  0.1249E+03  0.1193E+03
     -5.249  0.8030E+02  0.1283E+03
     -5.136  0.6392E+02  0.1355E+03
     -5.024  0.1127E+03  0.1482E+03
     -4.911  0.1010E+03  0.1596E+03
     -4.798  0.3583E+02  0.1636E+03
     -4.686  0.1950E+03  0.1856E+03
     -4.573  0.1873E+03  0.2067E+03
     -4.460  0.2194E+03  0.2314E+03
     -4.348  0.2390E+03  0.2583E+03
     -4.235  0.2980E+03  0.2919E+03
     -4.123  0.2493E+03  0.3199E+03
     -4.010  0.2063E+03  0.3432E+03
     -3.897  0.4069E+03  0.3890E+03
     -3.785  0.4558E+03  0.4403E+03
     -3.672  0.4802E+03  0.4944E+03
     -3.559  0.4196E+03  0.5417E+03
     -3.447  0.4538E+03  0.5928E+03
     -3.334  0.3645E+03  0.6338E+03
     -3.222  0.3460E+03  0.6728E+03
     -3.109  0.4654E+03  0.7252E+03
     -2.996  0.4906E+03  0.7805E+03
     -2.884  0.3610E+03  0.8211E+03
     -2.771  0.6001E+03  0.8887E+03
     -2.658  0.5054E+03  0.9456E+03
     -2.546  0.5538E+03  0.1008E+04
     -2.433  0.5780E+03  0.1073E+04
     -2.321  0.7045E+03  0.1152E+04
     -2.208  0.8191E+03  0.1245E+04
     -2.095  0.8587E+03  0.1341E+04
     -1.983  0.8370E+03  0.1436E+04
     -1.870  0.8748E+03  0.1534E+04
     -1.758  0.5840E+03  0.1600E+04
     -1.645  0.5921E+03  0.1667E+04
     -1.532  0.5423E+03  0.1728E+04
     -1.420  0.5664E+03  0.1791E+04
     -1.307  0.8091E+03  0.1883E+04
     -1.194  0.6819E+03  0.1959E+04
     -1.082  0.5415E+03  0.2020E+04
     -0.969  0.7674E+03  0.2107E+04
     -0.857  0.8541E+03  0.2203E+04
     -0.744  0.6558E+03  0.2277E+04
     -0.631  0.8670E+03  0.2375E+04
     -0.519  0.1235E+04  0.2514E+04
     -0.406  0.9337E+03  0.2619E+04
     -0.293  0.3550E+03  0.2659E+04
     -0.181  0.1304E+03  0.2673E+04
     -0.068  0.1496E+03  0.2690E+04
      0.044  0.1536E+03  0.2708E+04
      0.157  0.8632E+02  0.2717E+04
      0.270  0.6895E+02  0.2725E+04
      0.382  0.3706E+02  0.2729E+04
      0.495  0.1037E+03  0.2741E+04
      0.608  0.8687E+02  0.2751E+04
      0.720  0.9021E+02  0.2761E+04
      0.833  0.8170E+02  0.2770E+04
      0.945  0.1237E+03  0.2784E+04
      1.058  0.1311E+03  0.2799E+04
      1.171  0.3611E+02  0.2803E+04
      1.283  0.4770E+02  0.2808E+04
      1.396  0.1095E+03  0.2821E+04
      1.509  0.4642E+02  0.2826E+04
      1.621  0.5999E+02  0.2833E+04
      1.734  0.1010E+03  0.2844E+04
      1.846  0.8280E+02  0.2853E+04
      1.959  0.9527E+02  0.2864E+04
      2.072  0.6753E+02  0.2872E+04
      2.184  0.6353E+02  0.2879E+04
      2.297  0.8804E+02  0.2889E+04
      2.410  0.1152E+03  0.2902E+04
      2.522  0.3478E+02  0.2906E+04
      2.635  0.6909E+02  0.2913E+04
      2.747  0.3475E+02  0.2917E+04
      2.860  0.2923E+02  0.2921E+04
      2.973  0.5065E+02  0.2926E+04
      3.085  0.1535E+03  0.2944E+04
      3.198  0.1469E+03  0.2960E+04
      3.311  0.4370E+02  0.2965E+04
      3.423  0.3475E+02  0.2969E+04
      3.536  0.9336E+02  0.2979E+04
      3.648  0.3552E+02  0.2983E+04
      3.761  0.7233E+02  0.2992E+04
      3.874  0.2605E+02  0.2995E+04
      3.986  0.1968E+02  0.2997E+04
      4.099  0.2191E+02  0.2999E+04
      4.211  0.5737E+02  0.3006E+04
      4.324  0.3522E+02  0.3010E+04
      4.437  0.7594E+02  0.3018E+04
      4.549  0.7474E+02  0.3027E+04
      4.662  0.5657E+02  0.3033E+04
      4.775  0.4434E+02  0.3038E+04
      4.887  0.2892E+00  0.3038E+04
      5.000  0.6512E-06  0.3038E+04
      5.112  0.0000E+00  0.3038E+04
      5.225  0.0000E+00  0.3038E+04
      5.338  0.0000E+00  0.3038E+04
      5.450  0.0000E+00  0.3038E+04
      5.563  0.0000E+00  0.3038E+04
      5.676  0.0000E+00  0.3038E+04
      5.788  0.0000E+00  0.3038E+04
      5.901  0.0000E+00  0.3038E+04
      6.013  0.0000E+00  0.3038E+04
      6.126  0.0000E+00  0.3038E+04
      6.239  0.0000E+00  0.3038E+04
