LAMMPS (24 Mar 2022)
OMP_NUM_THREADS environment is not set. Defaulting to 1 thread. (src/comm.cpp:98)
  using 1 OpenMP thread(s) per MPI task
Reading data file ...
  triclinic box = (0 0 0) to (17.180573 14.878813 30) with tilt (8.5902867 0 0)
  1 by 1 by 1 MPI processor grid
  reading atoms ...
  252 atoms
  read_data CPU = 0.001 seconds
WARNING: Using 'neigh_modify every 1 delay 0 check yes' setting during minimization (src/min.cpp:187)
Neighbor list info ...
  update every 1 steps, delay 0 steps, check yes
  max neighbors/atom: 2000, page size: 100000
  master list distance cutoff = 8.28721
  ghost atom cutoff = 8.28721
  binsize = 4.143605, bins = 7 4 8
  1 neighbor lists, perpetual/occasional/extra = 1 0 0
  (1) pair eam/alloy, perpetual
      attributes: half, newton on
      pair build: half/bin/newton/tri
      stencil: half/bin/3d/tri
      bin: standard
Setting up cg style minimization ...
  Unit style    : metal
  Current step  : 0
Per MPI rank memory allocation (min/avg/max) = 4.505 | 4.505 | 4.505 Mbytes
   Step          Temp          E_pair         E_mol          TotEng         Press     
         0   0             -818.08952      0             -818.08952      2506.7398    
Loop time of 3.484e-06 on 1 procs for 0 steps with 252 atoms

114.8% CPU use with 1 MPI tasks x 1 OpenMP threads

Minimization stats:
  Stopping criterion = max iterations
  Energy initial, next-to-last, final = 
     -818.089519419671                  0  -818.089519419671
  Force two-norm initial, final = 2.1119339 2.1119339
  Force max component initial, final = 1.0232283 1.0232283
  Final line search alpha, max atom move = 0 0
  Iterations, force evaluations = 0 0

MPI task timing breakdown:
Section |  min time  |  avg time  |  max time  |%varavg| %total
---------------------------------------------------------------
Pair    | 0          | 0          | 0          |   0.0 |  0.00
Neigh   | 0          | 0          | 0          |   0.0 |  0.00
Comm    | 0          | 0          | 0          |   0.0 |  0.00
Output  | 0          | 0          | 0          |   0.0 |  0.00
Modify  | 0          | 0          | 0          |   0.0 |  0.00
Other   |            | 3.484e-06  |            |       |100.00

Nlocal:            252 ave         252 max         252 min
Histogram: 1 0 0 0 0 0 0 0 0 0
Nghost:           1430 ave        1430 max        1430 min
Histogram: 1 0 0 0 0 0 0 0 0 0
Neighs:          14400 ave       14400 max       14400 min
Histogram: 1 0 0 0 0 0 0 0 0 0

Total # of neighbors = 14400
Ave neighs/atom = 57.142857
Neighbor list builds = 0
Dangerous builds = 0
Setting up Verlet run ...
  Unit style    : metal
  Current step  : 0
  Time step     : 0.01
Per MPI rank memory allocation (min/avg/max) = 4.39 | 4.39 | 4.39 Mbytes
   Step          Temp          E_pair         E_mol          TotEng         Press     
         0   300           -818.08952      0             -808.35623      3862.4021    
       100   160.73266     -813.36549      0             -808.15063      5163.3249    
       200   168.35329     -813.61321      0             -808.1511       1922.8944    
       300   178.00667     -813.93056      0             -808.15526     -2680.6415    
       400   166.91422     -813.56099      0             -808.14558     -6769.5513    
       500   161.093       -813.37265      0             -808.1461      -9292.2659    
       600   142.2816      -812.74289      0             -808.12666     -10416.456    
       700   154.31057     -813.15258      0             -808.14608     -9588.5487    
       800   164.2754      -813.47978      0             -808.14999     -6711.3944    
       900   175.39006     -813.85288      0             -808.16248     -3293.3583    
      1000   166.69662     -813.55954      0             -808.15118      187.98965    
      1100   159.46256     -813.33387      0             -808.16022      2772.4128    
      1200   161.34426     -813.3931       0             -808.15839      3377.0343    
      1300   160.80072     -813.38022      0             -808.16315      1859.5271    
      1400   172.62295     -813.76171      0             -808.16108     -631.52       
      1500   167.59229     -813.59269      0             -808.15528     -3562.3286    
      1600   166.83156     -813.5722       0             -808.15946     -6030.8648    
      1700   161.25058     -813.38519      0             -808.15352     -8093.7315    
      1800   157.3598      -813.26382      0             -808.1584      -8554.6704    
      1900   161.10633     -813.37999      0             -808.15301     -7209.1345    
      2000   167.23625     -813.58401      0             -808.15815     -4841.0583    
      2100   168.56999     -813.62626      0             -808.15712     -2399.1056    
      2200   160.10928     -813.35083      0             -808.1562       721.01819    
      2300   169.48518     -813.66474      0             -808.16591      1368.9525    
      2400   158.3293      -813.29202      0             -808.15514      1347.2067    
      2500   161.41461     -813.37594      0             -808.13896      67.695726    
      2600   161.05196     -813.36916      0             -808.14394     -2548.6215    
      2700   165.23682     -813.51714      0             -808.15615     -5427.0468    
      2800   153.33994     -813.10132      0             -808.12631     -6834.6008    
      2900   158.45803     -813.28952      0             -808.14846     -7584.452     
      3000   160.3277      -813.35076      0             -808.14904     -6891.2197    
      3100   170.51984     -813.69786      0             -808.16546     -5632.2892    
      3200   164.52934     -813.48462      0             -808.14658     -3432.7807    
      3300   173.15516     -813.77276      0             -808.15486     -1066.8193    
      3400   168.59782     -813.63289      0             -808.16285      395.70379    
      3500   169.8814      -813.6638       0             -808.15211      1053.0157    
      3600   171.01712     -813.70215      0             -808.15362     -28.532428    
      3700   166.95337     -813.56         0             -808.14332     -1878.9975    
      3800   175.57633     -813.87154      0             -808.17509     -4358.3058    
      3900   169.80226     -813.66393      0             -808.15482     -6402.6552    
      4000   156.86563     -813.22975      0             -808.14035     -8006.5425    
      4100   163.83829     -813.479        0             -808.16338     -7586.4881    
      4200   150.2476      -813.01095      0             -808.13627     -5421.0884    
      4300   161.03048     -813.37012      0             -808.1456      -3695.1038    
      4400   167.19806     -813.57993      0             -808.1553      -1609.6034    
      4500   165.79742     -813.53714      0             -808.15796      247.99303    
      4600   174.87113     -813.83383      0             -808.16026      160.59753    
      4700   164.0015      -813.46596      0             -808.14505     -429.29258    
      4800   168.9034      -813.63972      0             -808.15977     -1533.8039    
      4900   170.67056     -813.6996       0             -808.16231     -3354.2168    
      5000   170.90264     -813.71038      0             -808.16556     -4658.057     
      5100   153.75551     -813.13515      0             -808.14666     -5592.9071    
      5200   166.09596     -813.54538      0             -808.15652     -5986.9473    
      5300   157.46116     -813.25172      0             -808.14301     -5062.6075    
      5400   171.9425      -813.74741      0             -808.16885     -3952.4903    
      5500   166.5638      -813.55047      0             -808.14642     -2639.1025    
      5600   170.93211     -813.70981      0             -808.16404     -2054.0197    
      5700   165.86773     -813.54416      0             -808.1627      -1590.5691    
      5800   155.77238     -813.20225      0             -808.14832     -1406.6516    
      5900   165.34083     -813.52054      0             -808.15618     -1553.4649    
      6000   151.95288     -813.0647       0             -808.1347      -2120.9724    
      6100   164.26933     -813.48027      0             -808.15067     -3704.2433    
      6200   166.93709     -813.5806       0             -808.16445     -4822.3356    
      6300   166.74201     -813.56517      0             -808.15534     -5406.369     
      6400   168.74745     -813.6358       0             -808.16091     -5589.8345    
      6500   174.55648     -813.83642      0             -808.17305     -4464.5479    
      6600   156.67261     -813.22849      0             -808.14536     -3733.0266    
      6700   160.45356     -813.3552       0             -808.1494      -2554.0079    
      6800   156.38534     -813.22575      0             -808.15193     -2037.3817    
      6900   164.38416     -813.48952      0             -808.15619     -1585.1573    
      7000   176.60529     -813.90204      0             -808.1722      -1390.8115    
      7100   172.48356     -813.75177      0             -808.15567     -1542.6711    
      7200   164.09978     -813.47661      0             -808.1525      -2247.7617    
      7300   166.51253     -813.55513      0             -808.15274     -3474.0944    
      7400   168.67531     -813.62887      0             -808.15632     -4049.1567    
      7500   165.61542     -813.53161      0             -808.15833     -4518.9563    
      7600   163.31668     -813.44723      0             -808.14854     -3951.6969    
      7700   159.60097     -813.3292       0             -808.15106     -3890.4146    
      7800   172.16731     -813.74862      0             -808.16278     -2795.3286    
      7900   179.35651     -813.99437      0             -808.17528     -2167.8612    
      8000   164.71589     -813.50043      0             -808.15634     -1493.7916    
      8100   160.17029     -813.34936      0             -808.15275     -2013.4507    
      8200   162.67546     -813.43039      0             -808.1525      -2121.8617    
      8300   167.50557     -813.59229      0             -808.15769     -2995.6436    
      8400   156.86798     -813.23636      0             -808.14689     -3290.7717    
      8500   156.09504     -813.21101      0             -808.14662     -3652.9699    
      8600   156.3761      -813.21857      0             -808.14505     -4147.5877    
      8700   162.15439     -813.40624      0             -808.14525     -3454.2615    
      8800   165.2815      -813.52584      0             -808.1634      -3641.3909    
      8900   167.13231     -813.58384      0             -808.16135     -3261.2225    
      9000   162.15345     -813.41515      0             -808.1542      -2471.9311    
      9100   161.8125      -813.40886      0             -808.15897     -2390.7046    
      9200   164.9883      -813.51294      0             -808.16001     -2296.7767    
      9300   174.3431      -813.82273      0             -808.16629     -2415.4004    
      9400   165.21587     -813.5261       0             -808.16579     -2429.1419    
      9500   170.73254     -813.70314      0             -808.16384     -3346.9834    
      9600   167.46543     -813.59684      0             -808.16354     -3263.7075    
      9700   166.70636     -813.56382      0             -808.15515     -3977.2579    
      9800   165.78141     -813.54351      0             -808.16485     -4241.6171    
      9900   169.00167     -813.64321      0             -808.16007     -4451.0939    
     10000   168.39955     -813.63028      0             -808.16668     -4338.4896    
Loop time of 4.78811 on 1 procs for 10000 steps with 252 atoms

Performance: 1804.470 ns/day, 0.013 hours/ns, 2088.507 timesteps/s
99.7% CPU use with 1 MPI tasks x 1 OpenMP threads

MPI task timing breakdown:
Section |  min time  |  avg time  |  max time  |%varavg| %total
---------------------------------------------------------------
Pair    | 4.5144     | 4.5144     | 4.5144     |   0.0 | 94.28
Neigh   | 0          | 0          | 0          |   0.0 |  0.00
Comm    | 0.057107   | 0.057107   | 0.057107   |   0.0 |  1.19
Output  | 0.17664    | 0.17664    | 0.17664    |   0.0 |  3.69
Modify  | 0.021799   | 0.021799   | 0.021799   |   0.0 |  0.46
Other   |            | 0.01812    |            |       |  0.38

Nlocal:            252 ave         252 max         252 min
Histogram: 1 0 0 0 0 0 0 0 0 0
Nghost:           1430 ave        1430 max        1430 min
Histogram: 1 0 0 0 0 0 0 0 0 0
Neighs:          14400 ave       14400 max       14400 min
Histogram: 1 0 0 0 0 0 0 0 0 0

Total # of neighbors = 14400
Ave neighs/atom = 57.142857
Neighbor list builds = 0
Dangerous builds = 0
System init for write_restart ...
Total wall time: 0:00:04
