 253 253   0   0
  0.2277282E+02  0.1514622E-08  0.1514622E-08  0.2900000E-08  0.2000000E-15
   1.0000000000000000E-004
  CAR 
 NiAl                                    
      5.98478753    -21.25256132  301     -0.53776162      1.00000000
    -21.253  0.0000E+00  0.0000E+00
    -21.162  0.0000E+00  0.0000E+00
    -21.071  0.0000E+00  0.0000E+00
    -20.980  0.0000E+00  0.0000E+00
    -20.889  0.0000E+00  0.0000E+00
    -20.799  0.0000E+00  0.0000E+00
    -20.708  0.0000E+00  0.0000E+00
    -20.617  0.0000E+00  0.0000E+00
    -20.526  0.0000E+00  0.0000E+00
    -20.435  0.0000E+00  0.0000E+00
    -20.345  0.0000E+00  0.0000E+00
    -20.254  0.3466E-11  0.3147E-12
    -20.163  0.7178E-05  0.6517E-06
    -20.072  0.2795E-01  0.2539E-02
    -19.981  0.4258E+00  0.4120E-01
    -19.891  0.9682E-01  0.4999E-01
    -19.800  0.1288E-03  0.5000E-01
    -19.709  0.3600E-09  0.5000E-01
    -19.618  0.0000E+00  0.5000E-01
    -19.528  0.0000E+00  0.5000E-01
    -19.437  0.0000E+00  0.5000E-01
    -19.346  0.0000E+00  0.5000E-01
    -19.255  0.0000E+00  0.5000E-01
    -19.164  0.0000E+00  0.5000E-01
    -19.074  0.0000E+00  0.5000E-01
    -18.983  0.0000E+00  0.5000E-01
    -18.892  0.0000E+00  0.5000E-01
    -18.801  0.0000E+00  0.5000E-01
    -18.710  0.0000E+00  0.5000E-01
    -18.620  0.0000E+00  0.5000E-01
    -18.529  0.0000E+00  0.5000E-01
    -18.438  0.0000E+00  0.5000E-01
    -18.347  0.0000E+00  0.5000E-01
    -18.256  0.0000E+00  0.5000E-01
    -18.166  0.0000E+00  0.5000E-01
    -18.075  0.0000E+00  0.5000E-01
    -17.984  0.0000E+00  0.5000E-01
    -17.893  0.0000E+00  0.5000E-01
    -17.802  0.0000E+00  0.5000E-01
    -17.712  0.0000E+00  0.5000E-01
    -17.621  0.0000E+00  0.5000E-01
    -17.530  0.0000E+00  0.5000E-01
    -17.439  0.0000E+00  0.5000E-01
    -17.349  0.0000E+00  0.5000E-01
    -17.258  0.0000E+00  0.5000E-01
    -17.167  0.0000E+00  0.5000E-01
    -17.076  0.0000E+00  0.5000E-01
    -16.985  0.0000E+00  0.5000E-01
    -16.895  0.0000E+00  0.5000E-01
    -16.804  0.0000E+00  0.5000E-01
    -16.713  0.0000E+00  0.5000E-01
    -16.622  0.0000E+00  0.5000E-01
    -16.531  0.0000E+00  0.5000E-01
    -16.441  0.0000E+00  0.5000E-01
    -16.350  0.0000E+00  0.5000E-01
    -16.259  0.0000E+00  0.5000E-01
    -16.168  0.0000E+00  0.5000E-01
    -16.077  0.0000E+00  0.5000E-01
    -15.987  0.0000E+00  0.5000E-01
    -15.896  0.0000E+00  0.5000E-01
    -15.805  0.0000E+00  0.5000E-01
    -15.714  0.0000E+00  0.5000E-01
    -15.624  0.0000E+00  0.5000E-01
    -15.533  0.0000E+00  0.5000E-01
    -15.442  0.0000E+00  0.5000E-01
    -15.351  0.0000E+00  0.5000E-01
    -15.260  0.0000E+00  0.5000E-01
    -15.170  0.0000E+00  0.5000E-01
    -15.079  0.0000E+00  0.5000E-01
    -14.988  0.0000E+00  0.5000E-01
    -14.897  0.0000E+00  0.5000E-01
    -14.806  0.0000E+00  0.5000E-01
    -14.716  0.0000E+00  0.5000E-01
    -14.625  0.0000E+00  0.5000E-01
    -14.534  0.0000E+00  0.5000E-01
    -14.443  0.0000E+00  0.5000E-01
    -14.352  0.0000E+00  0.5000E-01
    -14.262  0.0000E+00  0.5000E-01
    -14.171  0.0000E+00  0.5000E-01
    -14.080  0.0000E+00  0.5000E-01
    -13.989  0.0000E+00  0.5000E-01
    -13.898  0.0000E+00  0.5000E-01
    -13.808  0.0000E+00  0.5000E-01
    -13.717  0.0000E+00  0.5000E-01
    -13.626  0.0000E+00  0.5000E-01
    -13.535  0.0000E+00  0.5000E-01
    -13.445  0.0000E+00  0.5000E-01
    -13.354  0.0000E+00  0.5000E-01
    -13.263  0.0000E+00  0.5000E-01
    -13.172  0.0000E+00  0.5000E-01
    -13.081  0.0000E+00  0.5000E-01
    -12.991  0.0000E+00  0.5000E-01
    -12.900  0.0000E+00  0.5000E-01
    -12.809  0.0000E+00  0.5000E-01
    -12.718  0.0000E+00  0.5000E-01
    -12.627  0.0000E+00  0.5000E-01
    -12.537  0.0000E+00  0.5000E-01
    -12.446  0.0000E+00  0.5000E-01
    -12.355  0.0000E+00  0.5000E-01
    -12.264  0.0000E+00  0.5000E-01
    -12.173  0.0000E+00  0.5000E-01
    -12.083  0.0000E+00  0.5000E-01
    -11.992  0.0000E+00  0.5000E-01
    -11.901  0.0000E+00  0.5000E-01
    -11.810  0.0000E+00  0.5000E-01
    -11.719  0.0000E+00  0.5000E-01
    -11.629  0.0000E+00  0.5000E-01
    -11.538  0.0000E+00  0.5000E-01
    -11.447  0.0000E+00  0.5000E-01
    -11.356  0.0000E+00  0.5000E-01
    -11.266  0.0000E+00  0.5000E-01
    -11.175  0.0000E+00  0.5000E-01
    -11.084  0.0000E+00  0.5000E-01
    -10.993  0.0000E+00  0.5000E-01
    -10.902  0.0000E+00  0.5000E-01
    -10.812  0.0000E+00  0.5000E-01
    -10.721  0.0000E+00  0.5000E-01
    -10.630  0.0000E+00  0.5000E-01
    -10.539  0.0000E+00  0.5000E-01
    -10.448  0.0000E+00  0.5000E-01
    -10.358  0.0000E+00  0.5000E-01
    -10.267  0.0000E+00  0.5000E-01
    -10.176  0.0000E+00  0.5000E-01
    -10.085  0.0000E+00  0.5000E-01
     -9.994  0.0000E+00  0.5000E-01
     -9.904  0.0000E+00  0.5000E-01
     -9.813  0.0000E+00  0.5000E-01
     -9.722  0.0000E+00  0.5000E-01
     -9.631  0.0000E+00  0.5000E-01
     -9.541  0.0000E+00  0.5000E-01
     -9.450  0.1677E-09  0.5000E-01
     -9.359  0.4677E-04  0.5000E-01
     -9.268  0.2795E-01  0.5254E-01
     -9.177  0.1040E+00  0.6199E-01
     -9.087  0.1595E-01  0.6343E-01
     -8.996  0.5063E+00  0.1094E+00
     -8.905  0.3079E+00  0.1374E+00
     -8.814  0.1637E-02  0.1375E+00
     -8.723  0.7020E-02  0.1381E+00
     -8.633  0.1167E+00  0.1487E+00
     -8.542  0.5323E+00  0.1971E+00
     -8.451  0.6157E+00  0.2530E+00
     -8.360  0.6824E+00  0.3149E+00
     -8.269  0.6289E+00  0.3720E+00
     -8.179  0.3287E-01  0.3750E+00
     -8.088  0.5389E-02  0.3755E+00
     -7.997  0.4291E+00  0.4144E+00
     -7.906  0.3884E+00  0.4497E+00
     -7.815  0.2196E+00  0.4696E+00
     -7.725  0.9544E+00  0.5563E+00
     -7.634  0.1397E+01  0.6832E+00
     -7.543  0.7520E+00  0.7514E+00
     -7.452  0.1217E+00  0.7625E+00
     -7.362  0.1499E-01  0.7638E+00
     -7.271  0.5554E+00  0.8143E+00
     -7.180  0.1243E+01  0.9272E+00
     -7.089  0.1458E+01  0.1060E+01
     -6.998  0.2284E+00  0.1080E+01
     -6.908  0.5904E+00  0.1134E+01
     -6.817  0.3591E+00  0.1166E+01
     -6.726  0.7704E+00  0.1236E+01
     -6.635  0.7462E+00  0.1304E+01
     -6.544  0.1378E+01  0.1429E+01
     -6.454  0.1989E+01  0.1610E+01
     -6.363  0.9161E+00  0.1693E+01
     -6.272  0.8742E+00  0.1772E+01
     -6.181  0.9680E+00  0.1860E+01
     -6.090  0.1759E+01  0.2020E+01
     -6.000  0.2194E+01  0.2219E+01
     -5.909  0.7975E+00  0.2292E+01
     -5.818  0.4488E+00  0.2332E+01
     -5.727  0.3302E+00  0.2362E+01
     -5.636  0.7466E+00  0.2430E+01
     -5.546  0.1404E+01  0.2558E+01
     -5.455  0.3694E+01  0.2893E+01
     -5.364  0.2586E+01  0.3128E+01
     -5.273  0.8007E+00  0.3200E+01
     -5.183  0.2680E+01  0.3444E+01
     -5.092  0.3139E+01  0.3729E+01
     -5.001  0.1193E+01  0.3837E+01
     -4.910  0.1152E+01  0.3942E+01
     -4.819  0.5405E+01  0.4432E+01
     -4.729  0.5841E+01  0.4963E+01
     -4.638  0.4013E+01  0.5327E+01
     -4.547  0.5931E+01  0.5866E+01
     -4.456  0.7306E+01  0.6529E+01
     -4.365  0.6390E+01  0.7109E+01
     -4.275  0.4845E+01  0.7549E+01
     -4.184  0.7108E+01  0.8194E+01
     -4.093  0.7030E+01  0.8832E+01
     -4.002  0.9352E+01  0.9682E+01
     -3.911  0.1220E+02  0.1079E+02
     -3.821  0.1102E+02  0.1179E+02
     -3.730  0.1177E+02  0.1286E+02
     -3.639  0.1081E+02  0.1384E+02
     -3.548  0.1017E+02  0.1476E+02
     -3.457  0.8389E+01  0.1552E+02
     -3.367  0.8750E+01  0.1632E+02
     -3.276  0.9089E+01  0.1714E+02
     -3.185  0.1273E+02  0.1830E+02
     -3.094  0.1217E+02  0.1941E+02
     -3.004  0.8270E+01  0.2016E+02
     -2.913  0.1441E+02  0.2146E+02
     -2.822  0.1324E+02  0.2267E+02
     -2.731  0.1149E+02  0.2371E+02
     -2.640  0.1556E+02  0.2512E+02
     -2.550  0.1259E+02  0.2627E+02
     -2.459  0.1724E+02  0.2783E+02
     -2.368  0.1702E+02  0.2938E+02
     -2.277  0.1979E+02  0.3117E+02
     -2.186  0.1934E+02  0.3293E+02
     -2.096  0.1771E+02  0.3454E+02
     -2.005  0.2124E+02  0.3647E+02
     -1.914  0.1995E+02  0.3828E+02
     -1.823  0.1769E+02  0.3988E+02
     -1.732  0.1451E+02  0.4120E+02
     -1.642  0.1194E+02  0.4228E+02
     -1.551  0.1258E+02  0.4343E+02
     -1.460  0.1652E+02  0.4493E+02
     -1.369  0.1954E+02  0.4670E+02
     -1.279  0.1848E+02  0.4838E+02
     -1.188  0.1231E+02  0.4950E+02
     -1.097  0.1663E+02  0.5101E+02
     -1.006  0.1834E+02  0.5267E+02
     -0.915  0.2073E+02  0.5455E+02
     -0.825  0.1808E+02  0.5620E+02
     -0.734  0.1727E+02  0.5776E+02
     -0.643  0.2409E+02  0.5995E+02
     -0.552  0.3073E+02  0.6274E+02
     -0.461  0.2371E+02  0.6489E+02
     -0.371  0.1255E+02  0.6603E+02
     -0.280  0.4892E+01  0.6648E+02
     -0.189  0.3152E+01  0.6676E+02
     -0.098  0.4505E+01  0.6717E+02
     -0.007  0.3632E+01  0.6750E+02
      0.083  0.2423E+01  0.6772E+02
      0.174  0.1094E+01  0.6782E+02
      0.265  0.1685E+01  0.6797E+02
      0.356  0.1288E+01  0.6809E+02
      0.447  0.2037E+01  0.6828E+02
      0.537  0.2535E+01  0.6851E+02
      0.628  0.1842E+01  0.6867E+02
      0.719  0.2602E+01  0.6891E+02
      0.810  0.2584E+01  0.6914E+02
      0.900  0.2400E+01  0.6936E+02
      0.991  0.3526E+01  0.6968E+02
      1.082  0.1499E+01  0.6982E+02
      1.173  0.9028E+00  0.6990E+02
      1.264  0.1774E+01  0.7006E+02
      1.354  0.2788E+01  0.7031E+02
      1.445  0.1058E+01  0.7041E+02
      1.536  0.7822E+00  0.7048E+02
      1.627  0.1650E+01  0.7063E+02
      1.718  0.3658E+01  0.7096E+02
      1.808  0.1337E+01  0.7108E+02
      1.899  0.1568E+01  0.7123E+02
      1.990  0.2434E+01  0.7145E+02
      2.081  0.2068E+01  0.7164E+02
      2.172  0.1603E+01  0.7178E+02
      2.262  0.2028E+01  0.7196E+02
      2.353  0.3096E+01  0.7225E+02
      2.444  0.2013E+01  0.7243E+02
      2.535  0.1758E+01  0.7259E+02
      2.626  0.9810E+00  0.7268E+02
      2.716  0.3790E+00  0.7271E+02
      2.807  0.9405E+00  0.7280E+02
      2.898  0.8235E+00  0.7287E+02
      2.989  0.1445E+01  0.7300E+02
      3.079  0.3042E+01  0.7328E+02
      3.170  0.4547E+01  0.7369E+02
      3.261  0.1627E+01  0.7384E+02
      3.352  0.1197E+01  0.7395E+02
      3.443  0.1061E+01  0.7404E+02
      3.533  0.2310E+01  0.7425E+02
      3.624  0.1332E+01  0.7438E+02
      3.715  0.1555E+01  0.7452E+02
      3.806  0.1345E+01  0.7464E+02
      3.897  0.6430E+00  0.7470E+02
      3.987  0.5220E-01  0.7470E+02
      4.078  0.5804E+00  0.7475E+02
      4.169  0.1096E+01  0.7485E+02
      4.260  0.1988E+01  0.7503E+02
      4.351  0.1307E+01  0.7515E+02
      4.441  0.2061E+01  0.7534E+02
      4.532  0.5541E+00  0.7539E+02
      4.623  0.1320E+01  0.7551E+02
      4.714  0.1549E+01  0.7565E+02
      4.805  0.1034E+01  0.7575E+02
      4.895  0.5348E-01  0.7575E+02
      4.986  0.1189E-04  0.7575E+02
      5.077  0.5131E-11  0.7575E+02
      5.168  0.0000E+00  0.7575E+02
      5.258  0.0000E+00  0.7575E+02
      5.349  0.0000E+00  0.7575E+02
      5.440  0.0000E+00  0.7575E+02
      5.531  0.0000E+00  0.7575E+02
      5.622  0.0000E+00  0.7575E+02
      5.712  0.0000E+00  0.7575E+02
      5.803  0.0000E+00  0.7575E+02
      5.894  0.0000E+00  0.7575E+02
      5.985  0.0000E+00  0.7575E+02
