  253  253   40    1
  0.2277282E+02  0.1514622E-08  0.1514622E-08  0.2900000E-08  0.2000000E-15
   1.0000000000000000E-004
  CAR 
 NiAl                                    
   2526      2   1515
 
  0.1262379E-14  0.1262379E-14  0.1262379E-14  0.2500000E+00
    1      -20.014500   1.000000
    2       -9.238791   1.000000
    3       -8.665566   1.000000
    4       -8.334190   1.000000
    5       -8.334179   1.000000
    6       -8.333798   1.000000
    7       -8.332508   1.000000
    8       -8.332501   1.000000
    9       -8.323493   1.000000
   10       -7.798197   1.000000
   11       -7.792231   1.000000
   12       -7.792226   1.000000
   13       -7.788245   1.000000
   14       -7.788242   1.000000
   15       -7.787711   1.000000
   16       -7.767767   1.000000
   17       -6.992637   1.000000
   18       -6.992595   1.000000
   19       -6.962227   1.000000
   20       -6.962215   1.000000
   21       -6.962183   1.000000
   22       -6.950910   1.000000
   23       -6.745572   1.000000
   24       -6.706274   1.000000
   25       -6.706221   1.000000
   26       -6.695936   1.000000
   27       -6.693305   1.000000
   28       -6.693289   1.000000
   29       -6.693027   1.000000
   30       -6.480624   1.000000
   31       -6.480035   1.000000
   32       -6.254652   1.000000
   33       -6.238766   1.000000
   34       -6.236289   1.000000
   35       -6.236271   1.000000
   36       -6.192083   1.000000
   37       -6.191980   1.000000
   38       -6.096955   1.000000
   39       -6.062180   1.000000
   40       -6.062168   1.000000
   41       -6.060537   1.000000
   42       -6.053323   1.000000
   43       -6.053305   1.000000
   44       -6.049813   1.000000
   45       -5.968130   1.000000
   46       -5.968123   1.000000
   47       -5.967722   1.000000
   48       -5.926808   1.000000
   49       -5.926753   1.000000
   50       -5.805924   1.000000
   51       -5.703410   1.000000
   52       -5.696201   1.000000
   53       -5.696199   1.000000
   54       -5.694959   1.000000
   55       -5.678935   1.000000
   56       -5.678922   1.000000
   57       -5.649992   1.000000
   58       -5.574454   1.000000
   59       -5.573974   1.000000
   60       -5.573960   1.000000
   61       -5.537024   1.000000
   62       -5.536976   1.000000
   63       -5.491113   1.000000
   64       -5.218964   1.000000
   65       -5.216797   1.000000
   66       -5.216774   1.000000
   67       -5.196357   1.000000
   68       -5.195476   1.000000
   69       -5.195462   1.000000
   70       -5.067732   1.000000
   71       -5.013733   1.000000
   72       -5.013718   1.000000
   73       -5.013654   1.000000
   74       -5.000487   1.000000
   75       -5.000471   1.000000
   76       -4.947589   1.000000
   77       -4.911268   1.000000
   78       -4.908666   1.000000
   79       -4.908634   1.000000
   80       -4.906471   1.000000
   81       -4.827512   1.000000
   82       -4.827502   1.000000
   83       -4.827385   1.000000
   84       -4.811013   1.000000
   85       -4.811002   1.000000
   86       -4.793965   1.000000
   87       -4.756023   1.000000
   88       -4.755837   1.000000
   89       -4.755787   1.000000
   90       -4.743977   1.000000
   91       -4.740883   1.000000
   92       -4.740834   1.000000
   93       -4.721476   1.000000
   94       -4.721453   1.000000
   95       -4.704881   1.000000
   96       -4.688879   1.000000
   97       -4.687952   1.000000
   98       -4.687934   1.000000
   99       -4.685562   1.000000
  100       -4.685542   1.000000
  101       -4.685034   1.000000
  102       -4.684637   1.000000
  103       -4.684602   1.000000
  104       -4.684572   1.000000
  105       -4.683978   1.000000
  106       -4.682973   1.000000
  107       -4.682958   1.000000
  108       -4.599486   1.000000
  109       -4.597398   1.000000
  110       -4.597359   1.000000
  111       -4.522916   1.000000
  112       -4.522870   1.000000
  113       -4.521821   1.000000
  114       -4.478581   1.000000
  115       -4.477917   1.000000
  116       -4.477899   1.000000
  117       -4.477386   1.000000
  118       -4.477294   1.000000
  119       -4.477260   1.000000
  120       -4.475824   1.000000
  121       -4.475808   1.000000
  122       -4.475228   1.000000
  123       -4.474544   1.000000
  124       -4.473485   1.000000
  125       -4.473457   1.000000
  126       -4.455148   1.000000
  127       -4.455122   1.000000
  128       -4.453138   1.000000
  129       -4.448658   1.000000
  130       -4.448626   1.000000
  131       -4.439392   1.000000
  132       -4.439389   1.000000
  133       -4.438720   1.000000
  134       -4.437976   1.000000
  135       -4.437957   1.000000
  136       -4.437592   1.000000
  137       -4.436403   1.000000
  138       -4.434561   1.000000
  139       -4.431820   1.000000
  140       -4.431809   1.000000
  141       -4.431552   1.000000
  142       -4.431544   1.000000
  143       -4.410850   1.000000
  144       -4.362120   1.000000
  145       -4.362098   1.000000
  146       -4.360890   1.000000
  147       -4.358230   1.000000
  148       -4.358198   1.000000
  149       -4.332823   1.000000
  150       -4.314418   1.000000
  151       -4.311824   1.000000
  152       -4.311749   1.000000
  153       -4.302296   1.000000
  154       -4.302232   1.000000
  155       -4.299231   1.000000
  156       -4.298293   1.000000
  157       -4.298229   1.000000
  158       -4.286670   1.000000
  159       -4.281400   1.000000
  160       -4.281384   1.000000
  161       -4.280029   1.000000
  162       -4.279123   1.000000
  163       -4.279103   1.000000
  164       -4.276730   1.000000
  165       -4.275148   1.000000
  166       -4.275133   1.000000
  167       -4.275058   1.000000
  168       -4.263113   1.000000
  169       -4.263097   1.000000
  170       -4.255200   1.000000
  171       -4.183759   1.000000
  172       -4.183712   1.000000
  173       -4.183511   1.000000
  174       -4.174449   1.000000
  175       -4.174444   1.000000
  176       -4.173263   1.000000
  177       -4.164832   1.000000
  178       -4.164822   1.000000
  179       -4.147837   1.000000
  180       -4.069444   1.000000
  181       -4.069426   1.000000
  182       -4.068567   1.000000
  183       -4.068092   1.000000
  184       -4.065925   1.000000
  185       -4.065908   1.000000
  186       -4.064378   1.000000
  187       -4.064361   1.000000
  188       -4.063454   1.000000
  189       -4.061712   1.000000
  190       -4.061541   1.000000
  191       -4.061497   1.000000
  192       -4.025950   1.000000
  193       -4.025912   1.000000
  194       -4.012319   1.000000
  195       -3.985784   1.000000
  196       -3.984225   1.000000
  197       -3.984106   1.000000
  198       -3.934326   1.000000
  199       -3.934221   1.000000
  200       -3.932672   1.000000
  201       -3.931373   1.000000
  202       -3.929844   1.000000
  203       -3.929726   1.000000
  204       -3.914260   1.000000
  205       -3.914162   1.000000
  206       -3.907435   1.000000
  207       -3.907314   1.000000
  208       -3.907065   1.000000
  209       -3.906867   1.000000
  210       -3.905533   1.000000
  211       -3.905476   1.000000
  212       -3.904728   1.000000
  213       -3.904572   1.000000
  214       -3.904003   1.000000
  215       -3.903918   1.000000
  216       -3.902177   1.000000
  217       -3.902017   1.000000
  218       -3.894881   1.000000
  219       -3.876549   1.000000
  220       -3.876429   1.000000
  221       -3.875144   1.000000
  222       -3.869007   1.000000
  223       -3.868904   1.000000
  224       -3.856373   1.000000
  225       -3.813584   1.000000
  226       -3.812430   1.000000
  227       -3.812409   1.000000
  228       -3.808015   1.000000
  229       -3.808005   1.000000
  230       -3.807396   1.000000
  231       -3.807273   1.000000
  232       -3.806450   1.000000
  233       -3.806440   1.000000
  234       -3.799397   1.000000
  235       -3.799390   1.000000
  236       -3.798661   1.000000
  237       -3.797196   1.000000
  238       -3.797186   1.000000
  239       -3.796615   1.000000
  240       -3.796479   1.000000
  241       -3.796165   1.000000
  242       -3.796142   1.000000
  243       -3.794398   1.000000
  244       -3.794383   1.000000
  245       -3.793131   1.000000
  246       -3.766404   1.000000
  247       -3.766379   1.000000
  248       -3.750582   1.000000
  249       -3.740223   1.000000
  250       -3.740159   1.000000
  251       -3.739207   1.000000
  252       -3.737428   1.000000
  253       -3.737355   1.000000
  254       -3.733754   1.000000
  255       -3.690953   1.000000
  256       -3.690894   1.000000
  257       -3.688922   1.000000
  258       -3.688733   1.000000
  259       -3.688683   1.000000
  260       -3.687623   1.000000
  261       -3.687203   1.000000
  262       -3.686476   1.000000
  263       -3.686423   1.000000
  264       -3.685514   1.000000
  265       -3.685471   1.000000
  266       -3.681893   1.000000
  267       -3.681883   1.000000
  268       -3.681793   1.000000
  269       -3.681161   1.000000
  270       -3.672805   1.000000
  271       -3.661330   1.000000
  272       -3.661322   1.000000
  273       -3.658883   1.000000
  274       -3.658808   1.000000
  275       -3.650241   1.000000
  276       -3.650208   1.000000
  277       -3.649396   1.000000
  278       -3.649296   1.000000
  279       -3.648730   1.000000
  280       -3.648303   1.000000
  281       -3.648267   1.000000
  282       -3.630859   1.000000
  283       -3.627039   1.000000
  284       -3.627010   1.000000
  285       -3.621815   1.000000
  286       -3.621776   1.000000
  287       -3.620428   1.000000
  288       -3.605160   1.000000
  289       -3.605006   1.000000
  290       -3.603291   1.000000
  291       -3.595997   1.000000
  292       -3.595856   1.000000
  293       -3.578189   1.000000
  294       -3.533094   1.000000
  295       -3.525023   1.000000
  296       -3.517508   1.000000
  297       -3.517493   1.000000
  298       -3.513468   1.000000
  299       -3.512803   1.000000
  300       -3.512748   1.000000
  301       -3.512396   1.000000
  302       -3.512383   1.000000
  303       -3.510831   1.000000
  304       -3.508554   1.000000
  305       -3.508541   1.000000
  306       -3.506783   1.000000
  307       -3.491937   1.000000
  308       -3.491887   1.000000
  309       -3.478089   1.000000
  310       -3.465962   1.000000
  311       -3.465555   1.000000
  312       -3.465515   1.000000
  313       -3.463290   1.000000
  314       -3.463255   1.000000
  315       -3.458070   1.000000
  316       -3.421336   1.000000
  317       -3.421297   1.000000
  318       -3.418010   1.000000
  319       -3.415217   1.000000
  320       -3.415174   1.000000
  321       -3.412507   1.000000
  322       -3.410718   1.000000
  323       -3.410712   1.000000
  324       -3.400686   1.000000
  325       -3.400674   1.000000
  326       -3.400533   1.000000
  327       -3.400458   1.000000
  328       -3.400073   1.000000
  329       -3.399162   1.000000
  330       -3.399127   1.000000
  331       -3.394543   1.000000
  332       -3.394438   1.000000
  333       -3.387714   1.000000
  334       -3.386617   1.000000
  335       -3.386529   1.000000
  336       -3.378546   1.000000
  337       -3.377248   1.000000
  338       -3.377162   1.000000
  339       -3.318660   1.000000
  340       -3.293822   1.000000
  341       -3.293820   1.000000
  342       -3.290832   1.000000
  343       -3.264834   1.000000
  344       -3.264776   1.000000
  345       -3.260291   1.000000
  346       -3.258566   1.000000
  347       -3.258519   1.000000
  348       -3.257347   1.000000
  349       -3.244815   1.000000
  350       -3.244811   1.000000
  351       -3.231346   1.000000
  352       -3.231330   1.000000
  353       -3.219185   1.000000
  354       -3.217223   1.000000
  355       -3.217194   1.000000
  356       -3.217061   1.000000
  357       -3.216855   1.000000
  358       -3.216538   1.000000
  359       -3.216532   1.000000
  360       -3.213919   1.000000
  361       -3.213903   1.000000
  362       -3.201139   1.000000
  363       -3.201134   1.000000
  364       -3.173523   1.000000
  365       -3.164362   1.000000
  366       -3.164339   1.000000
  367       -3.159240   1.000000
  368       -3.159222   1.000000
  369       -3.157731   1.000000
  370       -3.153444   1.000000
  371       -3.126469   1.000000
  372       -3.126391   1.000000
  373       -3.126349   1.000000
  374       -3.126270   1.000000
  375       -3.125827   1.000000
  376       -3.125765   1.000000
  377       -3.124120   1.000000
  378       -3.124109   1.000000
  379       -3.123080   1.000000
  380       -3.123034   1.000000
  381       -3.122413   1.000000
  382       -3.105995   1.000000
  383       -3.086503   1.000000
  384       -3.086482   1.000000
  385       -3.083306   1.000000
  386       -3.082936   1.000000
  387       -3.081740   1.000000
  388       -3.081723   1.000000
  389       -3.080903   1.000000
  390       -3.080888   1.000000
  391       -3.080800   1.000000
  392       -3.080497   1.000000
  393       -3.080481   1.000000
  394       -3.079932   1.000000
  395       -3.035007   1.000000
  396       -3.034977   1.000000
  397       -3.034872   1.000000
  398       -3.034498   1.000000
  399       -3.034477   1.000000
  400       -3.023406   1.000000
  401       -2.944592   1.000000
  402       -2.941718   1.000000
  403       -2.941675   1.000000
  404       -2.940808   1.000000
  405       -2.939727   1.000000
  406       -2.939694   1.000000
  407       -2.935112   1.000000
  408       -2.934950   1.000000
  409       -2.934919   1.000000
  410       -2.933491   1.000000
  411       -2.933463   1.000000
  412       -2.932989   1.000000
  413       -2.931084   1.000000
  414       -2.931040   1.000000
  415       -2.930727   1.000000
  416       -2.930085   1.000000
  417       -2.928969   1.000000
  418       -2.928939   1.000000
  419       -2.927987   1.000000
  420       -2.927851   1.000000
  421       -2.927833   1.000000
  422       -2.925126   1.000000
  423       -2.925094   1.000000
  424       -2.923602   1.000000
  425       -2.921732   1.000000
  426       -2.921712   1.000000
  427       -2.921256   1.000000
  428       -2.920212   1.000000
  429       -2.920180   1.000000
  430       -2.917503   1.000000
  431       -2.912566   1.000000
  432       -2.912537   1.000000
  433       -2.911403   1.000000
  434       -2.911398   1.000000
  435       -2.907521   1.000000
  436       -2.906876   1.000000
  437       -2.897533   1.000000
  438       -2.897463   1.000000
  439       -2.894012   1.000000
  440       -2.889648   1.000000
  441       -2.889594   1.000000
  442       -2.883866   1.000000
  443       -2.847606   1.000000
  444       -2.847593   1.000000
  445       -2.844270   1.000000
  446       -2.843210   1.000000
  447       -2.843145   1.000000
  448       -2.843136   1.000000
  449       -2.842343   1.000000
  450       -2.841754   1.000000
  451       -2.841741   1.000000
  452       -2.840602   1.000000
  453       -2.839554   1.000000
  454       -2.839550   1.000000
  455       -2.821769   1.000000
  456       -2.816044   1.000000
  457       -2.815968   1.000000
  458       -2.815649   1.000000
  459       -2.814968   1.000000
  460       -2.814888   1.000000
  461       -2.810565   1.000000
  462       -2.803516   1.000000
  463       -2.803513   1.000000
  464       -2.774210   1.000000
  465       -2.774200   1.000000
  466       -2.768829   1.000000
  467       -2.767377   1.000000
  468       -2.741349   1.000000
  469       -2.737790   1.000000
  470       -2.737782   1.000000
  471       -2.736056   1.000000
  472       -2.736051   1.000000
  473       -2.733777   1.000000
  474       -2.733420   1.000000
  475       -2.733410   1.000000
  476       -2.724781   1.000000
  477       -2.723972   1.000000
  478       -2.722181   1.000000
  479       -2.722147   1.000000
  480       -2.720561   1.000000
  481       -2.720554   1.000000
  482       -2.719333   1.000000
  483       -2.719298   1.000000
  484       -2.719277   1.000000
  485       -2.716841   1.000000
  486       -2.716829   1.000000
  487       -2.716456   1.000000
  488       -2.712882   1.000000
  489       -2.712872   1.000000
  490       -2.712070   1.000000
  491       -2.710899   1.000000
  492       -2.710899   1.000000
  493       -2.705535   1.000000
  494       -2.695792   1.000000
  495       -2.695737   1.000000
  496       -2.688580   1.000000
  497       -2.681134   1.000000
  498       -2.681107   1.000000
  499       -2.677610   1.000000
  500       -2.675487   1.000000
  501       -2.675446   1.000000
  502       -2.673445   1.000000
  503       -2.671433   1.000000
  504       -2.671414   1.000000
  505       -2.662818   1.000000
  506       -2.651063   1.000000
  507       -2.651007   1.000000
  508       -2.649339   1.000000
  509       -2.649284   1.000000
  510       -2.647538   1.000000
  511       -2.643561   1.000000
  512       -2.615773   1.000000
  513       -2.615770   1.000000
  514       -2.596243   1.000000
  515       -2.596099   1.000000
  516       -2.574739   1.000000
  517       -2.574636   1.000000
  518       -2.574607   1.000000
  519       -2.571194   1.000000
  520       -2.571173   1.000000
  521       -2.570956   1.000000
  522       -2.570364   1.000000
  523       -2.570346   1.000000
  524       -2.567589   1.000000
  525       -2.567567   1.000000
  526       -2.567450   1.000000
  527       -2.566897   1.000000
  528       -2.565130   1.000000
  529       -2.565097   1.000000
  530       -2.560625   1.000000
  531       -2.555318   1.000000
  532       -2.555267   1.000000
  533       -2.552503   1.000000
  534       -2.552479   1.000000
  535       -2.552370   1.000000
  536       -2.548247   1.000000
  537       -2.522630   1.000000
  538       -2.509273   1.000000
  539       -2.506279   1.000000
  540       -2.506270   1.000000
  541       -2.492540   1.000000
  542       -2.491188   1.000000
  543       -2.490344   1.000000
  544       -2.490303   1.000000
  545       -2.488868   1.000000
  546       -2.488842   1.000000
  547       -2.487548   1.000000
  548       -2.487541   1.000000
  549       -2.486653   1.000000
  550       -2.485883   1.000000
  551       -2.485263   1.000000
  552       -2.485221   1.000000
  553       -2.484884   1.000000
  554       -2.483078   1.000000
  555       -2.483052   1.000000
  556       -2.468424   1.000000
  557       -2.468273   1.000000
  558       -2.458130   1.000000
  559       -2.455627   1.000000
  560       -2.455601   1.000000
  561       -2.451022   1.000000
  562       -2.450958   1.000000
  563       -2.450946   1.000000
  564       -2.447475   1.000000
  565       -2.447468   1.000000
  566       -2.447387   1.000000
  567       -2.447185   1.000000
  568       -2.446320   1.000000
  569       -2.446258   1.000000
  570       -2.445185   1.000000
  571       -2.442601   1.000000
  572       -2.442515   1.000000
  573       -2.429182   1.000000
  574       -2.429175   1.000000
  575       -2.428909   1.000000
  576       -2.427926   1.000000
  577       -2.427917   1.000000
  578       -2.426485   1.000000
  579       -2.426462   1.000000
  580       -2.426281   1.000000
  581       -2.425993   1.000000
  582       -2.425106   1.000000
  583       -2.425054   1.000000
  584       -2.422875   1.000000
  585       -2.422855   1.000000
  586       -2.421108   1.000000
  587       -2.407156   1.000000
  588       -2.407148   1.000000
  589       -2.403344   1.000000
  590       -2.402460   1.000000
  591       -2.402459   1.000000
  592       -2.398396   1.000000
  593       -2.390987   1.000000
  594       -2.379448   1.000000
  595       -2.379385   1.000000
  596       -2.370219   1.000000
  597       -2.370143   1.000000
  598       -2.369882   1.000000
  599       -2.368132   1.000000
  600       -2.365922   1.000000
  601       -2.365857   1.000000
  602       -2.365410   1.000000
  603       -2.365334   1.000000
  604       -2.358278   1.000000
  605       -2.344079   1.000000
  606       -2.342956   1.000000
  607       -2.340897   1.000000
  608       -2.340843   1.000000
  609       -2.340322   1.000000
  610       -2.336250   1.000000
  611       -2.336198   1.000000
  612       -2.316697   1.000000
  613       -2.316490   1.000000
  614       -2.306248   1.000000
  615       -2.306195   1.000000
  616       -2.296390   1.000000
  617       -2.292579   1.000000
  618       -2.292412   1.000000
  619       -2.286703   1.000000
  620       -2.281238   1.000000
  621       -2.281203   1.000000
  622       -2.281199   1.000000
  623       -2.266926   1.000000
  624       -2.265262   1.000000
  625       -2.265216   1.000000
  626       -2.257931   1.000000
  627       -2.256969   1.000000
  628       -2.256908   1.000000
  629       -2.256244   1.000000
  630       -2.256147   1.000000
  631       -2.255025   1.000000
  632       -2.248893   1.000000
  633       -2.248831   1.000000
  634       -2.232483   1.000000
  635       -2.224429   1.000000
  636       -2.206570   1.000000
  637       -2.206533   1.000000
  638       -2.197397   1.000000
  639       -2.194691   1.000000
  640       -2.194497   1.000000
  641       -2.191880   1.000000
  642       -2.189715   1.000000
  643       -2.189647   1.000000
  644       -2.189423   1.000000
  645       -2.188949   1.000000
  646       -2.188852   1.000000
  647       -2.187773   1.000000
  648       -2.187768   1.000000
  649       -2.186450   1.000000
  650       -2.185668   1.000000
  651       -2.185632   1.000000
  652       -2.184666   1.000000
  653       -2.184368   1.000000
  654       -2.183508   1.000000
  655       -2.183490   1.000000
  656       -2.181880   1.000000
  657       -2.180927   1.000000
  658       -2.180601   1.000000
  659       -2.180583   1.000000
  660       -2.170709   1.000000
  661       -2.170694   1.000000
  662       -2.170124   1.000000
  663       -2.167202   1.000000
  664       -2.167196   1.000000
  665       -2.163632   1.000000
  666       -2.145999   1.000000
  667       -2.145928   1.000000
  668       -2.139514   1.000000
  669       -2.138056   1.000000
  670       -2.137982   1.000000
  671       -2.130921   1.000000
  672       -2.130848   1.000000
  673       -2.126271   1.000000
  674       -2.126210   1.000000
  675       -2.125999   1.000000
  676       -2.125928   1.000000
  677       -2.124144   1.000000
  678       -2.124069   1.000000
  679       -2.123591   1.000000
  680       -2.122123   1.000000
  681       -2.118465   1.000000
  682       -2.118410   1.000000
  683       -2.102625   1.000000
  684       -2.102565   1.000000
  685       -2.094243   1.000000
  686       -2.088648   1.000000
  687       -2.088561   1.000000
  688       -2.088047   1.000000
  689       -2.080854   1.000000
  690       -2.080756   1.000000
  691       -2.076271   1.000000
  692       -2.075136   1.000000
  693       -2.075034   1.000000
  694       -2.074924   1.000000
  695       -2.072897   1.000000
  696       -2.072788   1.000000
  697       -2.072734   1.000000
  698       -2.070439   1.000000
  699       -2.063727   1.000000
  700       -2.063718   1.000000
  701       -2.060726   1.000000
  702       -2.059427   1.000000
  703       -2.059328   1.000000
  704       -2.058057   1.000000
  705       -2.058046   1.000000
  706       -2.057778   1.000000
  707       -2.057629   1.000000
  708       -2.056162   1.000000
  709       -2.054457   1.000000
  710       -2.054403   1.000000
  711       -2.052133   1.000000
  712       -2.043401   1.000000
  713       -2.043215   1.000000
  714       -2.041544   1.000000
  715       -2.023477   1.000000
  716       -2.023404   1.000000
  717       -2.012652   1.000000
  718       -2.011819   1.000000
  719       -2.011743   1.000000
  720       -2.009142   1.000000
  721       -2.009087   1.000000
  722       -2.005725   1.000000
  723       -2.001660   1.000000
  724       -2.001620   1.000000
  725       -2.000409   1.000000
  726       -2.000372   1.000000
  727       -1.996531   1.000000
  728       -1.991964   1.000000
  729       -1.973310   1.000000
  730       -1.970387   1.000000
  731       -1.970368   1.000000
  732       -1.966139   1.000000
  733       -1.966047   1.000000
  734       -1.964085   1.000000
  735       -1.962172   1.000000
  736       -1.960159   1.000000
  737       -1.960112   1.000000
  738       -1.960066   1.000000
  739       -1.960065   1.000000
  740       -1.956348   1.000000
  741       -1.956323   1.000000
  742       -1.955699   1.000000
  743       -1.954593   1.000000
  744       -1.950257   1.000000
  745       -1.950224   1.000000
  746       -1.936747   1.000000
  747       -1.906220   1.000000
  748       -1.906212   1.000000
  749       -1.898552   1.000000
  750       -1.898540   1.000000
  751       -1.895447   1.000000
  752       -1.894289   1.000000
  753       -1.892803   1.000000
  754       -1.891793   1.000000
  755       -1.891770   1.000000
  756       -1.881052   1.000000
  757       -1.875992   1.000000
  758       -1.875970   1.000000
  759       -1.870449   1.000000
  760       -1.870418   1.000000
  761       -1.867443   1.000000
  762       -1.861711   1.000000
  763       -1.861685   1.000000
  764       -1.861014   1.000000
  765       -1.860991   1.000000
  766       -1.859283   1.000000
  767       -1.859195   1.000000
  768       -1.858874   1.000000
  769       -1.858857   1.000000
  770       -1.858435   1.000000
  771       -1.855955   1.000000
  772       -1.855546   1.000000
  773       -1.855539   1.000000
  774       -1.855359   1.000000
  775       -1.855285   1.000000
  776       -1.855234   1.000000
  777       -1.849622   1.000000
  778       -1.849589   1.000000
  779       -1.849212   1.000000
  780       -1.849170   1.000000
  781       -1.848941   1.000000
  782       -1.847437   1.000000
  783       -1.844724   1.000000
  784       -1.844707   1.000000
  785       -1.842579   1.000000
  786       -1.841157   1.000000
  787       -1.840039   1.000000
  788       -1.840011   1.000000
  789       -1.839363   1.000000
  790       -1.833903   1.000000
  791       -1.833879   1.000000
  792       -1.833151   1.000000
  793       -1.826706   1.000000
  794       -1.826661   1.000000
  795       -1.823893   1.000000
  796       -1.823832   1.000000
  797       -1.820052   1.000000
  798       -1.815684   1.000000
  799       -1.815660   1.000000
  800       -1.815132   1.000000
  801       -1.806435   1.000000
  802       -1.806417   1.000000
  803       -1.802063   1.000000
  804       -1.802052   1.000000
  805       -1.800346   1.000000
  806       -1.793771   1.000000
  807       -1.779073   1.000000
  808       -1.779063   1.000000
  809       -1.778526   1.000000
  810       -1.778502   1.000000
  811       -1.777071   1.000000
  812       -1.776555   1.000000
  813       -1.766159   1.000000
  814       -1.766132   1.000000
  815       -1.755959   1.000000
  816       -1.750500   1.000000
  817       -1.745650   1.000000
  818       -1.745629   1.000000
  819       -1.741200   1.000000
  820       -1.741179   1.000000
  821       -1.739885   1.000000
  822       -1.733546   1.000000
  823       -1.733532   1.000000
  824       -1.730906   1.000000
  825       -1.729597   1.000000
  826       -1.729591   1.000000
  827       -1.726704   1.000000
  828       -1.726053   1.000000
  829       -1.726027   1.000000
  830       -1.717858   1.000000
  831       -1.708362   1.000000
  832       -1.708294   1.000000
  833       -1.699085   1.000000
  834       -1.698825   1.000000
  835       -1.698603   1.000000
  836       -1.698576   1.000000
  837       -1.693774   1.000000
  838       -1.693717   1.000000
  839       -1.691231   1.000000
  840       -1.691176   1.000000
  841       -1.691143   1.000000
  842       -1.690297   1.000000
  843       -1.688089   1.000000
  844       -1.688054   1.000000
  845       -1.686437   1.000000
  846       -1.686425   1.000000
  847       -1.682742   1.000000
  848       -1.682691   1.000000
  849       -1.682106   1.000000
  850       -1.679625   1.000000
  851       -1.675386   1.000000
  852       -1.675280   1.000000
  853       -1.675259   1.000000
  854       -1.669404   1.000000
  855       -1.650811   1.000000
  856       -1.650767   1.000000
  857       -1.649790   1.000000
  858       -1.649752   1.000000
  859       -1.646821   1.000000
  860       -1.646070   1.000000
  861       -1.629545   1.000000
  862       -1.629540   1.000000
  863       -1.617439   1.000000
  864       -1.617422   1.000000
  865       -1.613009   1.000000
  866       -1.607782   1.000000
  867       -1.607761   1.000000
  868       -1.607241   1.000000
  869       -1.594796   1.000000
  870       -1.594481   1.000000
  871       -1.592205   1.000000
  872       -1.592199   1.000000
  873       -1.590210   1.000000
  874       -1.590206   1.000000
  875       -1.589002   1.000000
  876       -1.587807   1.000000
  877       -1.586229   1.000000
  878       -1.586214   1.000000
  879       -1.568758   1.000000
  880       -1.568737   1.000000
  881       -1.552697   1.000000
  882       -1.552684   1.000000
  883       -1.547028   1.000000
  884       -1.547011   1.000000
  885       -1.546464   1.000000
  886       -1.543115   1.000000
  887       -1.530470   1.000000
  888       -1.527166   1.000000
  889       -1.527098   1.000000
  890       -1.526350   1.000000
  891       -1.522189   1.000000
  892       -1.522124   1.000000
  893       -1.512150   1.000000
  894       -1.498753   1.000000
  895       -1.498718   1.000000
  896       -1.498184   1.000000
  897       -1.491418   1.000000
  898       -1.491405   1.000000
  899       -1.489728   1.000000
  900       -1.479461   1.000000
  901       -1.479398   1.000000