         261
 Energy:  -1415.4494916000001      en  -1318.0603516000001      edisp  -97.389139999999998     
 X   0.00000000       0.00000000       0.00000000    
 X   0.00000000      -15.1462221       0.00000000    
 X   0.00000000      -7.57311106      -13.1170130    
 X   29.0000000       0.00000000       0.00000000    
 X   0.00000000      -22.7193336      -13.1170130    
 X   29.0000000      -15.1462221       0.00000000    
 X   29.0000000      -7.57311106      -13.1170130    
 X   29.0000000      -22.7193336      -13.1170130    
 Ni   3.02601004      -10.0974798      -5.82978010    
 Ni   3.02601004      -12.6218500      -10.2021198    
 Ni   3.02601004      -7.57311010      -1.45745003    
 Ni   3.02601004      -15.1462202      -5.82978010    
 Ni   3.02601004      -17.6705894      -10.2021198    
 Ni   3.02601004      -12.6218500      -1.45745003    
 Ni   3.02601004      -5.04873991      -5.82978010    
 Ni   3.02601004      -7.57311010      -10.2021198    
 Ni   3.02601004      -2.52436996      -1.45745003    
 Ni   5.02237988      -12.6218500      -7.28723001    
 Ni   5.02237988      -15.1462202      -11.6595697    
 Ni   5.02237988      -10.0974798      -2.91489005    
 Ni   5.02237988      -17.6705894      -7.28723001    
 Ni   5.02237988      -20.1949596      -11.6595697    
 Ni   5.02237988      -15.1462202      -2.91489005    
 Ni   5.02237988      -7.57311010      -7.28723001    
 Ni   5.02237988      -10.0974798      -11.6595697    
 Ni   5.02237988      -5.04873991      -2.91489005    
 Ni   7.03247023      -15.1462202      -8.74468040    
 Ni   7.03247023      -10.0974798       0.00000000    
 Ni   7.03247023      -12.6218500      -4.37234020    
 Ni   7.03247023      -5.04873991      -8.74468040    
 Ni   7.03247023       0.00000000       0.00000000    
 Ni   7.03247023      -2.52436996      -4.37234020    
 Ni   7.03247023      -10.0974798      -8.74468040    
 Ni   7.03247023      -5.04873991       0.00000000    
 Ni   7.03247023      -7.57311010      -4.37234020    
 Ni   9.04018974      -17.6705894      -10.2021198    
 Ni   9.04018974      -12.6218500      -1.45745003    
 Ni   9.04018974      -15.1462202      -5.82978010    
 Ni   9.04018974      -7.57311010      -10.2021198    
 Ni   9.04018974      -2.52436996      -1.45745003    
 Ni   9.04018974      -5.04873991      -5.82978010    
 Ni   9.04018974      -12.6218500      -10.2021198    
 Ni   9.04018974      -7.57311010      -1.45745003    
 Ni   9.04018974      -10.0974798      -5.82978010    
 Ni   11.0479097      -20.1949596      -11.6595697    
 Ni   11.0479097      -15.1462202      -2.91489005    
 Ni   11.0479097      -17.6705894      -7.28723001    
 Ni   11.0479097      -10.0974798      -11.6595697    
 Ni   11.0479097      -5.04873991      -2.91489005    
 Ni   11.0479097      -7.57311010      -7.28723001    
 Ni   11.0479097      -15.1462202      -11.6595697    
 Ni   11.0479097      -10.0974798      -2.91489005    
 Ni   11.0479097      -12.6218500      -7.28723001    
 Ni   13.0579996       0.00000000       0.00000000    
 Ni   13.0579996      -2.52436996      -4.37234020    
 Ni   13.0579996      -5.04873991      -8.74468040    
 Ni   13.0579996      -5.04873991       0.00000000    
 Ni   13.0579996      -7.57311010      -4.37234020    
 Ni   13.0579996      -10.0974798      -8.74468040    
 Ni   13.0579996      -10.0974798       0.00000000    
 Ni   13.0579996      -12.6218500      -4.37234020    
 Ni   13.0579996      -15.1462202      -8.74468040    
 Ni   15.0543699      -2.52436996      -1.45745003    
 Ni   15.0543699      -5.04873991      -5.82978010    
 Ni   15.0543699      -7.57311010      -10.2021198    
 Ni   15.0543699      -7.57311010      -1.45745003    
 Ni   15.0543699      -10.0974798      -5.82978010    
 Ni   15.0543699      -12.6218500      -10.2021198    
 Ni   15.0543699      -12.6218500      -1.45745003    
 Ni   15.0543699      -15.1462202      -5.82978010    
 Ni   15.0543699      -17.6705894      -10.2021198    
 Ni   3.02601004      -6.31092978      -3.64361000    
 Ni   3.02601004      -8.83530045      -8.01595020    
 Ni   3.02601004      -11.3596697      -12.3882904    
 Ni   3.02601004      -11.3596697      -3.64361000    
 Ni   3.02601004      -13.8840399      -8.01595020    
 Ni   3.02601004      -16.4084091      -12.3882904    
 Ni   3.02601004      -16.4084091      -3.64361000    
 Ni   3.02601004      -18.9327793      -8.01595020    
 Ni   3.02601004      -21.4571495      -12.3882904    
 Ni   5.02237988      -8.83530045      -5.10105991    
 Ni   5.02237988      -11.3596697      -9.47340012    
 Ni   5.02237988      -6.31092978     -0.728720009    
 Ni   5.02237988      -13.8840399      -5.10105991    
 Ni   5.02237988      -16.4084091      -9.47340012    
 Ni   5.02237988      -11.3596697     -0.728720009    
 Ni   5.02237988      -3.78656006      -5.10105991    
 Ni   5.02237988      -6.31092978      -9.47340012    
 Ni   5.02237988      -1.26218998     -0.728720009    
 Ni   7.03247023      -11.3596697      -6.55850983    
 Ni   7.03247023      -13.8840399      -10.9308395    
 Ni   7.03247023      -8.83530045      -2.18617010    
 Ni   7.03247023      -16.4084091      -6.55850983    
 Ni   7.03247023      -18.9327793      -10.9308395    
 Ni   7.03247023      -13.8840399      -2.18617010    
 Ni   7.03247023      -6.31092978      -6.55850983    
 Ni   7.03247023      -8.83530045      -10.9308395    
 Ni   7.03247023      -3.78656006      -2.18617010    
 Ni   9.04018974      -13.8840399      -8.01595020    
 Ni   9.04018974      -16.4084091      -12.3882904    
 Ni   9.04018974      -11.3596697      -3.64361000    
 Ni   9.04018974      -18.9327793      -8.01595020    
 Ni   9.04018974      -21.4571495      -12.3882904    
 Ni   9.04018974      -16.4084091      -3.64361000    
 Ni   9.04018974      -8.83530045      -8.01595020    
 Ni   9.04018974      -11.3596697      -12.3882904    
 Ni   9.04018974      -6.31092978      -3.64361000    
 Ni   11.0479097      -16.4084091      -9.47340012    
 Ni   11.0479097      -11.3596697     -0.728720009    
 Ni   11.0479097      -13.8840399      -5.10105991    
 Ni   11.0479097      -6.31092978      -9.47340012    
 Ni   11.0479097      -1.26218998     -0.728720009    
 Ni   11.0479097      -3.78656006      -5.10105991    
 Ni   11.0479097      -11.3596697      -9.47340012    
 Ni   11.0479097      -6.31092978     -0.728720009    
 Ni   11.0479097      -8.83530045      -5.10105991    
 Ni   13.0579996      -18.9327793      -10.9308395    
 Ni   13.0579996      -13.8840399      -2.18617010    
 Ni   13.0579996      -16.4084091      -6.55850983    
 Ni   13.0579996      -8.83530045      -10.9308395    
 Ni   13.0579996      -3.78656006      -2.18617010    
 Ni   13.0579996      -6.31092978      -6.55850983    
 Ni   13.0579996      -13.8840399      -10.9308395    
 Ni   13.0579996      -8.83530045      -2.18617010    
 Ni   13.0579996      -11.3596697      -6.55850983    
 Ni   15.0543699      -21.4571495      -12.3882904    
 Ni   15.0543699      -16.4084091      -3.64361000    
 Ni   15.0543699      -18.9327793      -8.01595020    
 Ni   15.0543699      -11.3596697      -12.3882904    
 Ni   15.0543699      -6.31092978      -3.64361000    
 Ni   15.0543699      -8.83530045      -8.01595020    
 Ni   15.0543699      -16.4084091      -12.3882904    
 Ni   15.0543699      -11.3596697      -3.64361000    
 Ni   15.0543699      -13.8840399      -8.01595020    
 Ni   3.02601004      -7.57311010      -5.82978010    
 Ni   3.02601004      -10.0974798      -10.2021198    
 Ni   3.02601004      -5.04873991      -1.45745003    
 Ni   3.02601004      -12.6218500      -5.82978010    
 Ni   3.02601004      -15.1462202      -10.2021198    
 Ni   3.02601004      -10.0974798      -1.45745003    
 Ni   3.02601004      -17.6705894      -5.82978010    
 Ni   3.02601004      -20.1949596      -10.2021198    
 Ni   3.02601004      -15.1462202      -1.45745003    
 Ni   5.02237988      -10.0974798      -7.28723001    
 Ni   5.02237988      -12.6218500      -11.6595697    
 Ni   5.02237988      -7.57311010      -2.91489005    
 Ni   5.02237988      -15.1462202      -7.28723001    
 Ni   5.02237988      -17.6705894      -11.6595697    
 Ni   5.02237988      -12.6218500      -2.91489005    
 Ni   5.02237988      -5.04873991      -7.28723001    
 Ni   5.02237988      -7.57311010      -11.6595697    
 Ni   5.02237988      -2.52436996      -2.91489005    
 Ni   7.03247023      -12.6218500      -8.74468040    
 Ni   7.03247023      -7.57311010       0.00000000    
 Ni   7.03247023      -10.0974798      -4.37234020    
 Ni   7.03247023      -17.6705894      -8.74468040    
 Ni   7.03247023      -12.6218500       0.00000000    
 Ni   7.03247023      -15.1462202      -4.37234020    
 Ni   7.03247023      -7.57311010      -8.74468040    
 Ni   7.03247023      -2.52436996       0.00000000    
 Ni   7.03247023      -5.04873991      -4.37234020    
 Ni   9.04018974      -15.1462202      -10.2021198    
 Ni   9.04018974      -10.0974798      -1.45745003    
 Ni   9.04018974      -12.6218500      -5.82978010    
 Ni   9.04018974      -20.1949596      -10.2021198    
 Ni   9.04018974      -15.1462202      -1.45745003    
 Ni   9.04018974      -17.6705894      -5.82978010    
 Ni   9.04018974      -10.0974798      -10.2021198    
 Ni   9.04018974      -5.04873991      -1.45745003    
 Ni   9.04018974      -7.57311010      -5.82978010    
 Ni   11.0479097      -17.6705894      -11.6595697    
 Ni   11.0479097      -12.6218500      -2.91489005    
 Ni   11.0479097      -15.1462202      -7.28723001    
 Ni   11.0479097      -7.57311010      -11.6595697    
 Ni   11.0479097      -2.52436996      -2.91489005    
 Ni   11.0479097      -5.04873991      -7.28723001    
 Ni   11.0479097      -12.6218500      -11.6595697    
 Ni   11.0479097      -7.57311010      -2.91489005    
 Ni   11.0479097      -10.0974798      -7.28723001    
 Ni   13.0579996      -12.6218500       0.00000000    
 Ni   13.0579996      -15.1462202      -4.37234020    
 Ni   13.0579996      -17.6705894      -8.74468040    
 Ni   13.0579996      -2.52436996       0.00000000    
 Ni   13.0579996      -5.04873991      -4.37234020    
 Ni   13.0579996      -7.57311010      -8.74468040    
 Ni   13.0579996      -7.57311010       0.00000000    
 Ni   13.0579996      -10.0974798      -4.37234020    
 Ni   13.0579996      -12.6218500      -8.74468040    
 Ni   15.0543699      -15.1462202      -1.45745003    
 Ni   15.0543699      -17.6705894      -5.82978010    
 Ni   15.0543699      -20.1949596      -10.2021198    
 Ni   15.0543699      -5.04873991      -1.45745003    
 Ni   15.0543699      -7.57311010      -5.82978010    
 Ni   15.0543699      -10.0974798      -10.2021198    
 Ni   15.0543699      -10.0974798      -1.45745003    
 Ni   15.0543699      -12.6218500      -5.82978010    
 Ni   15.0543699      -15.1462202      -10.2021198    
 Ni   3.02601004      -8.83530045      -3.64361000    
 Ni   3.02601004      -11.3596697      -8.01595020    
 Ni   3.02601004      -13.8840399      -12.3882904    
 Ni   3.02601004      -13.8840399      -3.64361000    
 Ni   3.02601004      -16.4084091      -8.01595020    
 Ni   3.02601004      -18.9327793      -12.3882904    
 Ni   3.02601004      -3.78656006      -3.64361000    
 Ni   3.02601004      -6.31092978      -8.01595020    
 Ni   3.02601004      -8.83530045      -12.3882904    
 Ni   5.02237988      -11.3596697      -5.10105991    
 Ni   5.02237988      -13.8840399      -9.47340012    
 Ni   5.02237988      -8.83530045     -0.728720009    
 Ni   5.02237988      -16.4084091      -5.10105991    
 Ni   5.02237988      -18.9327793      -9.47340012    
 Ni   5.02237988      -13.8840399     -0.728720009    
 Ni   5.02237988      -6.31092978      -5.10105991    
 Ni   5.02237988      -8.83530045      -9.47340012    
 Ni   5.02237988      -3.78656006     -0.728720009    
 Ni   7.03247023      -13.8840399      -6.55850983    
 Ni   7.03247023      -16.4084091      -10.9308395    
 Ni   7.03247023      -11.3596697      -2.18617010    
 Ni   7.03247023      -3.78656006      -6.55850983    
 Ni   7.03247023      -6.31092978      -10.9308395    
 Ni   7.03247023      -1.26218998      -2.18617010    
 Ni   7.03247023      -8.83530045      -6.55850983    
 Ni   7.03247023      -11.3596697      -10.9308395    
 Ni   7.03247023      -6.31092978      -2.18617010    
 Ni   9.04018974      -16.4084091      -8.01595020    
 Ni   9.04018974      -18.9327793      -12.3882904    
 Ni   9.04018974      -13.8840399      -3.64361000    
 Ni   9.04018974      -6.31092978      -8.01595020    
 Ni   9.04018974      -8.83530045      -12.3882904    
 Ni   9.04018974      -3.78656006      -3.64361000    
 Ni   9.04018974      -11.3596697      -8.01595020    
 Ni   9.04018974      -13.8840399      -12.3882904    
 Ni   9.04018974      -8.83530045      -3.64361000    
 Ni   11.0479097      -18.9327793      -9.47340012    
 Ni   11.0479097      -13.8840399     -0.728720009    
 Ni   11.0479097      -16.4084091      -5.10105991    
 Ni   11.0479097      -8.83530045      -9.47340012    
 Ni   11.0479097      -3.78656006     -0.728720009    
 Ni   11.0479097      -6.31092978      -5.10105991    
 Ni   11.0479097      -13.8840399      -9.47340012    
 Ni   11.0479097      -8.83530045     -0.728720009    
 Ni   11.0479097      -11.3596697      -5.10105991    
 Ni   13.0579996      -6.31092978      -10.9308395    
 Ni   13.0579996      -1.26218998      -2.18617010    
 Ni   13.0579996      -3.78656006      -6.55850983    
 Ni   13.0579996      -11.3596697      -10.9308395    
 Ni   13.0579996      -6.31092978      -2.18617010    
 Ni   13.0579996      -8.83530045      -6.55850983    
 Ni   13.0579996      -16.4084091      -10.9308395    
 Ni   13.0579996      -11.3596697      -2.18617010    
 Ni   13.0579996      -13.8840399      -6.55850983    
 Ni   15.0543699      -8.83530045      -12.3882904    
 Ni   15.0543699      -3.78656006      -3.64361000    
 Ni   15.0543699      -6.31092978      -8.01595020    
 Ni   15.0543699      -13.8840399      -12.3882904    
 Ni   15.0543699      -8.83530045      -3.64361000    
 Ni   15.0543699      -11.3596697      -8.01595020    
 Ni   15.0543699      -18.9327793      -12.3882904    
 Ni   15.0543699      -13.8840399      -3.64361000    
 Ni   15.0543699      -16.4084091      -8.01595020    
 O    13.6300001      -10.0974798      -7.28723001    
         261
 Energy:  -1418.1862583000000      en  -1320.7558082999999      edisp  -97.430449999999993     
 X   0.00000000       0.00000000       0.00000000    
 X   0.00000000      -15.1462221       0.00000000    
 X   0.00000000      -7.57311106      -13.1170130    
 X   29.0000000       0.00000000       0.00000000    
 X   0.00000000      -22.7193336      -13.1170130    
 X   29.0000000      -15.1462221       0.00000000    
 X   29.0000000      -7.57311106      -13.1170130    
 X   29.0000000      -22.7193336      -13.1170130    
 Ni   3.02832007      -10.0974798      -5.82964993    
 Ni   3.02833009      -12.6218395      -10.2020502    
 Ni   3.02844000      -7.57324982      -1.45752001    
 Ni   3.02840996      -15.1461096      -5.82975006    
 Ni   3.02859998      -17.6705894      -10.2022696    
 Ni   3.02844000      -12.6217098      -1.45752001    
 Ni   3.02840996      -5.04885006      -5.82975006    
 Ni   3.02833009      -7.57312012      -10.2020502    
 Ni   3.02852011      -2.52436996      -1.45748997    
 Ni   5.02483988      -12.6218300      -7.28719997    
 Ni   5.02488995      -15.1463203      -11.6596003    
 Ni   5.02470016      -10.0974798      -2.91491008    
 Ni   5.02491999      -17.6705894      -7.28732014    
 Ni   5.02488995      -20.1948605      -11.6596003    
 Ni   5.02478981      -15.1461296      -2.91491008    
 Ni   5.02483988      -7.57313013      -7.28719997    
 Ni   5.02477980      -10.0974798      -11.6594496    
 Ni   5.02478981      -5.04884005      -2.91491008    
 Ni   7.03245020      -15.1463203      -8.74477005    
 Ni   7.03244019      -10.0974798       1.90000006E-04
 Ni   7.03253984      -12.6217804      -4.37237978    
 Ni   7.03245020      -5.04863977      -8.74477005    
 Ni   7.03240013       7.99999980E-05   9.00000014E-05
 Ni   7.03250980      -2.52436996      -4.37241983    
 Ni   7.03250980      -10.0974798      -8.74466991    
 Ni   7.03240013      -5.04882002       9.00000014E-05
 Ni   7.03253984      -7.57318020      -4.37237978    
 Ni   9.04014015      -17.6705894      -10.2022400    
 Ni   9.03999996      -12.6216898      -1.45746005    
 Ni   9.04014015      -15.1460400      -5.82987022    
 Ni   9.03971004      -7.57288980      -10.2019901    
 Ni   9.04014969      -2.52436996      -1.45736003    
 Ni   9.04014015      -5.04892015      -5.82987022    
 Ni   9.03971004      -12.6220798      -10.2019901    
 Ni   9.03999996      -7.57326984      -1.45746005    
 Ni   9.04051971      -10.0974798      -5.82986021    
 Ni   11.0479002      -20.1948204      -11.6595697    
 Ni   11.0480604      -15.1460896      -2.91495991    
 Ni   11.0482903      -17.6705894      -7.28726006    
 Ni   11.0480003      -10.0974798      -11.6594400    
 Ni   11.0480604      -5.04887009      -2.91495991    
 Ni   11.0455198      -7.57109022      -7.28783989    
 Ni   11.0479002      -15.1463604      -11.6595697    
 Ni   11.0479698      -10.0974798      -2.91539001    
 Ni   11.0455198      -12.6238804      -7.28783989    
 Ni   13.0554895       1.30000000E-04  -3.39999999E-04
 Ni   13.0555601      -2.52436996      -4.37233019    
 Ni   13.0554705      -5.04883003      -8.74440002    
 Ni   13.0554895      -5.04887009      -3.39999999E-04
 Ni   13.0554800      -7.57294989      -4.37267017    
 Ni   12.9952898      -10.0974798      -8.89420986    
 Ni   13.0553999      -10.0974798      -3.99999990E-05
 Ni   13.0554800      -12.6220102      -4.37267017    
 Ni   13.0554705      -15.1461296      -8.74440002    
 Ni   15.0522699      -2.52436996      -1.45747006    
 Ni   15.0517902      -5.04866982      -5.83008003    
 Ni   15.0528603      -7.57404995      -10.2016697    
 Ni   15.0518999      -7.57314014      -1.45757997    
 Ni   15.0714502      -10.0974798      -5.80838013    
 Ni   15.0528603      -12.6209097      -10.2016697    
 Ni   15.0518999      -12.6218204      -1.45757997    
 Ni   15.0517902      -15.1462898      -5.83008003    
 Ni   15.0520697      -17.6705894      -10.2020502    
 Ni   3.02840996      -6.31094980      -3.64372993    
 Ni   3.02832007      -8.83518028      -8.01601982    
 Ni   3.02840996      -11.3595800      -12.3882103    
 Ni   3.02833009      -11.3596096      -3.64366007    
 Ni   3.02833009      -13.8839703      -8.01597977    
 Ni   3.02859998      -16.4085407      -12.3882103    
 Ni   3.02852011      -16.4084492      -3.64358997    
 Ni   3.02844000      -18.9329109      -8.01603985    
 Ni   3.02844000      -21.4571400      -12.3881302    
 Ni   5.02483988      -8.83528042      -5.10108995    
 Ni   5.02483988      -11.3596296      -9.47340012    
 Ni   5.02491999      -6.31099987     -0.728680015    
 Ni   5.02477980      -13.8839302      -5.10112000    
 Ni   5.02488995      -16.4084892      -9.47346973    
 Ni   5.02488995      -11.3596497     -0.728619993    
 Ni   5.02478981      -3.78661990      -5.10114002    
 Ni   5.02470016      -6.31093979      -9.47338963    
 Ni   5.02478981      -1.26215005     -0.728630006    
 Ni   7.03250980      -11.3596697      -6.55850983    
 Ni   7.03245020      -13.8841600      -10.9308796    
 Ni   7.03245020      -8.83533001      -2.18603992    
 Ni   7.03240013      -16.4083691      -6.55861998    
 Ni   7.03244019      -18.9326096      -10.9309397    
 Ni   7.03240013      -13.8839197      -2.18614006    
 Ni   7.03253984      -6.31098986      -6.55854988    
 Ni   7.03253984      -8.83530045      -10.9307604    
 Ni   7.03250980      -3.78662992      -2.18613005    
 Ni   9.03971004      -13.8840303      -8.01620960    
 Ni   9.04014015      -16.4085102      -12.3882303    
 Ni   9.03971004      -11.3594398      -3.64349008    
 Ni   9.03999996      -18.9328709      -8.01607990    
 Ni   9.03999996      -21.4570808      -12.3881397    
 Ni   9.04014969      -16.4083309      -3.64366007    
 Ni   9.04051971      -8.83535957      -8.01591015    
 Ni   9.04014015      -11.3596497      -12.3880901    
 Ni   9.04014015      -6.31108999      -3.64372993    
 Ni   11.0479002      -16.4084797      -9.47352028    
 Ni   11.0479002      -11.3596001     -0.728600025    
 Ni   11.0480003      -13.8839302      -5.10112000    
 Ni   11.0479698      -6.31134987      -9.47315025    
 Ni   11.0480604      -1.26217997     -0.728569984    
 Ni   11.0480604      -3.78667998      -5.10114002    
 Ni   11.0455198      -11.3612099      -9.47484970    
 Ni   11.0482903      -6.31094980     -0.728709996    
 Ni   11.0455198      -8.83481026      -5.09899998    
 Ni   13.0553999      -18.9328098      -10.9308205    
 Ni   13.0554895      -13.8842697      -2.18587995    
 Ni   13.0554895      -16.4087696      -6.55845022    
 Ni   13.0554800      -8.83567047      -10.9308205    
 Ni   13.0555601      -3.78655005      -2.18617010    
 Ni   13.0554800      -6.31113005      -6.55819988    
 Ni   13.0554705      -13.8837500      -10.9308996    
 Ni   13.0554705      -8.83510017      -2.18638992    
 Ni   12.9952898      -11.4891701      -6.48373985    
 Ni   15.0518999      -21.4572392      -12.3881998    
 Ni   15.0522699      -16.4084301      -3.64359999    
 Ni   15.0518999      -18.9329109      -8.01591015    
 Ni   15.0517902      -11.3599596      -12.3881998    
 Ni   15.0517902      -6.31115007      -3.64340997    
 Ni   15.0714502      -8.81676006      -8.02665043    
 Ni   15.0520697      -16.4083405      -12.3883305    
 Ni   15.0528603      -11.3597498      -3.64464998    
 Ni   15.0528603      -13.8831797      -8.01535988    
 Ni   3.02846003      -7.57306004      -5.82975006    
 Ni   3.02846003      -10.0974798      -10.2021799    
 Ni   3.02844000      -5.04856014      -1.45755005    
 Ni   3.02846003      -12.6218996      -5.82975006    
 Ni   3.02860999      -15.1461201      -10.2020597    
 Ni   3.02860999      -10.0974798      -1.45756996    
 Ni   3.02844000      -17.6705894      -5.82956982    
 Ni   3.02860999      -20.1950703      -10.2020597    
 Ni   3.02844000      -15.1464005      -1.45755005    
 Ni   5.02507019      -10.0974798      -7.28723001    
 Ni   5.02487993      -12.6217699      -11.6594896    
 Ni   5.02487993      -7.57314014      -2.91499996    
 Ni   5.02487993      -15.1461096      -7.28719997    
 Ni   5.02495003      -17.6705894      -11.6595697    
 Ni   5.02487993      -12.6218204      -2.91499996    
 Ni   5.02487993      -5.04885006      -7.28719997    
 Ni   5.02487993      -7.57319021      -11.6594896    
 Ni   5.02474022      -2.52436996      -2.91489005    
 Ni   7.03249979      -12.6218395      -8.74466991    
 Ni   7.03241014      -7.57320976       4.99999987E-05
 Ni   7.03249979      -10.0974798      -4.37236023    
 Ni   7.03241014      -17.6705894      -8.74477959    
 Ni   7.03241014      -12.6217604       4.99999987E-05
 Ni   7.03245020      -15.1461096      -4.37239981    
 Ni   7.03249979      -7.57313013      -8.74466991    
 Ni   7.03245020      -2.52436996       1.30000000E-04
 Ni   7.03245020      -5.04885006      -4.37239981    
 Ni   9.04016972      -15.1461201      -10.2020597    
 Ni   9.04016972      -10.0974798      -1.45755994    
 Ni   9.04026031      -12.6216602      -5.82989979    
 Ni   9.04016972      -20.1950607      -10.2020597    
 Ni   9.03991032      -15.1462097      -1.45744002    
 Ni   9.03991032      -17.6705894      -5.82980013    
 Ni   9.04026031      -10.0974798      -10.2018995    
 Ni   9.03991032      -5.04875994      -1.45744002    
 Ni   9.04026031      -7.57329988      -5.82989979    
 Ni   11.0477505      -17.6705894      -11.6595697    
 Ni   11.0481396      -12.6216698      -2.91516995    
 Ni   11.0481396      -15.1458902      -7.28725004    
 Ni   11.0481396      -7.57325983      -11.6592703    
 Ni   11.0479898      -2.52436996      -2.91489005    
 Ni   11.0481396      -5.04907990      -7.28725004    
 Ni   11.0481396      -12.6217003      -11.6592703    
 Ni   11.0481396      -7.57328987      -2.91516995    
 Ni   11.0293798      -10.0974798      -7.28723001    
 Ni   13.0554504      -12.6217604       4.99999987E-05
 Ni   13.0555296      -15.1460400      -4.37243986    
 Ni   13.0554504      -17.6705894      -8.74477959    
 Ni   13.0555296      -2.52436996       2.09999998E-04
 Ni   13.0555296      -5.04892015      -4.37243986    
 Ni   13.0525503      -7.56476021      -8.74950027    
 Ni   13.0554504      -7.57320023       4.99999987E-05
 Ni   13.0525503      -10.0974798      -4.36269999    
 Ni   13.0525503      -12.6302004      -8.74950027    
 Ni   15.0519695      -15.1465101      -1.45761001    
 Ni   15.0519695      -17.6705894      -5.82945013    
 Ni   15.0519104      -20.1949692      -10.2021198    
 Ni   15.0519695      -5.04846001      -1.45761001    
 Ni   15.0546198      -7.56770992      -5.82667017    
 Ni   15.0546198      -10.0974798      -10.2083597    
 Ni   15.0519104      -10.0974798      -1.45746005    
 Ni   15.0546198      -12.6272497      -5.82667017    
 Ni   15.0519104      -15.1462097      -10.2021198    
 Ni   3.02833009      -8.83535004      -3.64366007    
 Ni   3.02832007      -11.3597803      -8.01601982    
 Ni   3.02844000      -13.8840399      -12.3881302    
 Ni   3.02840996      -13.8840103      -3.64372993    
 Ni   3.02844000      -16.4082699      -8.01603985    
 Ni   3.02859998      -18.9326401      -12.3882103    
 Ni   3.02852011      -3.78652000      -3.64358997    
 Ni   3.02833009      -6.31098986      -8.01597977    
 Ni   3.02840996      -8.83537960      -12.3882103    
 Ni   5.02483988      -11.3596802      -5.10108995    
 Ni   5.02470016      -13.8840199      -9.47338963    
 Ni   5.02488995      -8.83532047     -0.728619993    
 Ni   5.02478981      -16.4083500      -5.10114002    
 Ni   5.02488995      -18.9326992      -9.47346973    
 Ni   5.02491999      -13.8839598     -0.728680015    
 Ni   5.02477980      -6.31102991      -5.10112000    
 Ni   5.02483988      -8.83533001      -9.47340012    
 Ni   5.02478981      -3.78659010     -0.728630006    
 Ni   7.03253984      -13.8839703      -6.55854988    
 Ni   7.03244019      -16.4085693      -10.9309397    
 Ni   7.03245020      -11.3596401      -2.18603992    
 Ni   7.03240013      -3.78659010      -6.55861998    
 Ni   7.03245020      -6.31080008      -10.9308796    
 Ni   7.03250980      -1.26210999      -2.18613005    
 Ni   7.03250980      -8.83530045      -6.55850983    
 Ni   7.03253984      -11.3596697      -10.9307604    
 Ni   7.03240013      -6.31103992      -2.18614006    
 Ni   9.03999996      -16.4083099      -8.01607990    
 Ni   9.04014015      -18.9326801      -12.3882303    
 Ni   9.04014015      -13.8838701      -3.64372993    
 Ni   9.03971004      -6.31092978      -8.01620960    
 Ni   9.04014015      -8.83532047      -12.3880901    
 Ni   9.04014969      -3.78662992      -3.64366007    
 Ni   9.04051971      -11.3596001      -8.01591015    
 Ni   9.03999996      -13.8841000      -12.3881397    
 Ni   9.03971004      -8.83551979      -3.64349008    
 Ni   11.0479002      -18.9326992      -9.47352028    
 Ni   11.0482903      -13.8840103     -0.728709996    
 Ni   11.0480604      -16.4082794      -5.10114002    
 Ni   11.0455198      -8.83374977      -9.47484970    
 Ni   11.0480604      -3.78656006     -0.728569984    
 Ni   11.0480003      -6.31102991      -5.10112000    
 Ni   11.0479698      -13.8836098      -9.47315025    
 Ni   11.0479002      -8.83535957     -0.728600025    
 Ni   11.0455198      -11.3601503      -5.09899998    
 Ni   13.0554705      -6.31121016      -10.9308996    
 Ni   13.0555601      -1.26218998      -2.18617010    
 Ni   13.0554895      -3.78619003      -6.55845022    
 Ni   13.0554800      -11.3592997      -10.9308205    
 Ni   13.0554895      -6.31069994      -2.18587995    
 Ni   12.9952898      -8.70580006      -6.48373985    
 Ni   13.0553999      -16.4083691      -10.9308205    
 Ni   13.0554705      -11.3598604      -2.18638992    
 Ni   13.0554800      -13.8838301      -6.55819988    
 Ni   15.0517902      -8.83500004      -12.3881998    
 Ni   15.0522699      -3.78653002      -3.64359999    
 Ni   15.0528603      -6.31178999      -8.01535988    
 Ni   15.0518999      -13.8839397      -12.3881998    
 Ni   15.0528603      -8.83522034      -3.64464998    
 Ni   15.0714502      -11.3781996      -8.02665043    
 Ni   15.0520697      -18.9328403      -12.3883305    
 Ni   15.0517902      -13.8838100      -3.64340997    
 Ni   15.0518999      -16.4082794      -8.01591015    
 O    13.7823200      -10.0974798      -7.28723001    
         261
 Energy:  -1418.2749850000000      en  -1320.8371850000001      edisp  -97.437799999999996     
 X   0.00000000       0.00000000       0.00000000    
 X   0.00000000      -15.1462221       0.00000000    
 X   0.00000000      -7.57311106      -13.1170130    
 X   29.0000000       0.00000000       0.00000000    
 X   0.00000000      -22.7193336      -13.1170130    
 X   29.0000000      -15.1462221       0.00000000    
 X   29.0000000      -7.57311106      -13.1170130    
 X   29.0000000      -22.7193336      -13.1170130    
 Ni   3.02869010      -10.0974798      -5.82962990    
 Ni   3.02870011      -12.6218395      -10.2020397    
 Ni   3.02883005      -7.57326984      -1.45753002    
 Ni   3.02879000      -15.1460896      -5.82974005    
 Ni   3.02901006      -17.6705894      -10.2023001    
 Ni   3.02883005      -12.6216898      -1.45753002    
 Ni   3.02879000      -5.04887009      -5.82974005    
 Ni   3.02870011      -7.57312012      -10.2020397    
 Ni   3.02891994      -2.52436996      -1.45749998    