<?xml version="1.0" encoding="ISO-8859-1"?>
<modeling>
 <generator>
  <i name="program" type="string">vasp </i>
  <i name="version" type="string">6.2.1  </i>
  <i name="subversion" type="string">16May21 (build Jun 16 2021 03:23:30) complex                          parallel </i>
  <i name="platform" type="string">LinuxPGI </i>
  <i name="date" type="string">2022 04 25 </i>
  <i name="time" type="string">11:32:55 </i>
 </generator>
 <incar>
  <i type="string" name="SYSTEM">NiAl</i>
  <i type="int" name="ISTART">     0</i>
  <i type="int" name="NELMIN">     6</i>
  <i type="int" name="IBRION">     2</i>
  <i name="EDIFF">      0.00000500</i>
  <i type="int" name="NSW">    40</i>
  <i type="int" name="ISIF">     1</i>
  <i name="ENCUT">    360.00000000</i>
  <i name="POTIM">      0.20000000</i>
  <i type="string" name="LREAL">Auto</i>
  <i type="logical" name="LPLANE"> T  </i>
  <i type="int" name="ISMEAR">     0</i>
  <i name="SIGMA">      0.05000000</i>
  <i type="logical" name="LWAVE"> F  </i>
  <i type="logical" name="LCHARG"> F  </i>
  <i type="int" name="IVDW">    12</i>
 </incar>
 <primitive_cell>
  <structure name="primitive_cell" >
   <crystal>
    <varray name="basis" >
     <v>       0.00000000     -15.14622176       0.00000000 </v>
     <v>       0.00000000      -7.57311088     -13.11701281 </v>
     <v>      29.00000000       0.00000000       0.00000000 </v>
    </varray>
    <i name="volume">   5761.52236213 </i>
    <varray name="rec_basis" >
     <v>       0.00000000      -0.06602307       0.03811843 </v>
     <v>       0.00000000       0.00000000      -0.07623687 </v>
     <v>       0.03448276       0.00000000       0.00000000 </v>
    </varray>
   </crystal>
   <varray name="positions" >
    <v>       0.44444444       0.44444444       0.10434507 </v>
    <v>       0.44444444       0.77777778       0.10434507 </v>
    <v>       0.44444444       0.11111111       0.10434507 </v>
    <v>       0.77777778       0.44444444       0.10434507 </v>
    <v>       0.77777778       0.77777778       0.10434507 </v>
    <v>       0.77777778       0.11111111       0.10434507 </v>
    <v>       0.11111111       0.44444444       0.10434507 </v>
    <v>       0.11111111       0.77777778       0.10434507 </v>
    <v>       0.11111111       0.11111111       0.10434507 </v>
    <v>       0.55555556       0.55555556       0.17318538 </v>
    <v>       0.55555556       0.88888889       0.17318538 </v>
    <v>       0.55555556       0.22222222       0.17318538 </v>
    <v>       0.88888889       0.55555556       0.17318538 </v>
    <v>       0.88888889       0.88888889       0.17318538 </v>
    <v>       0.88888889       0.22222222       0.17318538 </v>
    <v>       0.22222222       0.55555556       0.17318538 </v>
    <v>       0.22222222       0.88888889       0.17318538 </v>
    <v>       0.22222222       0.22222222       0.17318538 </v>
    <v>       0.66666667       0.66666667       0.24249888 </v>
    <v>       0.66666667       0.00000000       0.24249888 </v>
    <v>       0.66666667       0.33333333       0.24249888 </v>
    <v>       1.00000000       0.66666667       0.24249888 </v>
    <v>       0.00000000       0.00000000       0.24249888 </v>
    <v>       1.00000000       0.33333333       0.24249888 </v>
    <v>       0.33333333       0.66666667       0.24249888 </v>
    <v>       0.33333333       0.00000000       0.24249888 </v>
    <v>       0.33333333       0.33333333       0.24249888 </v>
    <v>       0.77777778       0.77777778       0.31173066 </v>
    <v>       0.77777778       0.11111111       0.31173066 </v>
    <v>       0.77777778       0.44444444       0.31173066 </v>
    <v>       0.11111111       0.77777778       0.31173066 </v>
    <v>       0.11111111       0.11111111       0.31173066 </v>
    <v>       0.11111111       0.44444444       0.31173066 </v>
    <v>       0.44444444       0.77777778       0.31173066 </v>
    <v>       0.44444444       0.11111111       0.31173066 </v>
    <v>       0.44444444       0.44444444       0.31173066 </v>
    <v>       0.88888889       0.88888889       0.38096243 </v>
    <v>       0.88888889       0.22222222       0.38096243 </v>
    <v>       0.88888889       0.55555556       0.38096243 </v>
    <v>       0.22222222       0.88888889       0.38096243 </v>
    <v>       0.22222222       0.22222222       0.38096243 </v>
    <v>       0.22222222       0.55555556       0.38096243 </v>
    <v>       0.55555556       0.88888889       0.38096243 </v>
    <v>       0.55555556       0.22222222       0.38096243 </v>
    <v>       0.55555556       0.55555556       0.38096243 </v>
    <v>       0.00000000       0.00000000       0.45027593 </v>
    <v>       1.00000000       0.33333333       0.45027593 </v>
    <v>       1.00000000       0.66666667       0.45027593 </v>
    <v>       0.33333333       0.00000000       0.45027593 </v>
    <v>       0.33333333       0.33333333       0.45027593 </v>
    <v>       0.33333333       0.66666667       0.45027593 </v>
    <v>       0.66666667       0.00000000       0.45027593 </v>
    <v>       0.66666667       0.33333333       0.45027593 </v>
    <v>       0.66666667       0.66666667       0.45027593 </v>
    <v>       0.11111111       0.11111111       0.51911624 </v>
    <v>       0.11111111       0.44444444       0.51911624 </v>
    <v>       0.11111111       0.77777778       0.51911624 </v>
    <v>       0.44444444       0.11111111       0.51911624 </v>
    <v>       0.44444444       0.44444444       0.51911624 </v>
    <v>       0.44444444       0.77777778       0.51911624 </v>
    <v>       0.77777778       0.11111111       0.51911624 </v>
    <v>       0.77777778       0.44444444       0.51911624 </v>
    <v>       0.77777778       0.77777778       0.51911624 </v>
    <v>       0.27777778       0.27777778       0.10434507 </v>
    <v>       0.27777778       0.61111111       0.10434507 </v>
    <v>       0.27777778       0.94444444       0.10434507 </v>
    <v>       0.61111111       0.27777778       0.10434507 </v>
    <v>       0.61111111       0.61111111       0.10434507 </v>
    <v>       0.61111111       0.94444444       0.10434507 </v>
    <v>       0.94444444       0.27777778       0.10434507 </v>
    <v>       0.94444444       0.61111111       0.10434507 </v>
    <v>       0.94444444       0.94444444       0.10434507 </v>
    <v>       0.38888889       0.38888889       0.17318538 </v>
    <v>       0.38888889       0.72222222       0.17318538 </v>
    <v>       0.38888889       0.05555556       0.17318538 </v>
    <v>       0.72222222       0.38888889       0.17318538 </v>
    <v>       0.72222222       0.72222222       0.17318538 </v>
    <v>       0.72222222       0.05555556       0.17318538 </v>
    <v>       0.05555556       0.38888889       0.17318538 </v>
    <v>       0.05555556       0.72222222       0.17318538 </v>
    <v>       0.05555556       0.05555556       0.17318538 </v>
    <v>       0.50000000       0.50000000       0.24249888 </v>
    <v>       0.50000000       0.83333333       0.24249888 </v>
    <v>       0.50000000       0.16666667       0.24249888 </v>
    <v>       0.83333333       0.50000000       0.24249888 </v>
    <v>       0.83333333       0.83333333       0.24249888 </v>
    <v>       0.83333333       0.16666667       0.24249888 </v>
    <v>       0.16666667       0.50000000       0.24249888 </v>
    <v>       0.16666667       0.83333333       0.24249888 </v>
    <v>       0.16666667       0.16666667       0.24249888 </v>
    <v>       0.61111111       0.61111111       0.31173066 </v>
    <v>       0.61111111       0.94444444       0.31173066 </v>
    <v>       0.61111111       0.27777778       0.31173066 </v>
    <v>       0.94444444       0.61111111       0.31173066 </v>
    <v>       0.94444444       0.94444444       0.31173066 </v>
    <v>       0.94444444       0.27777778       0.31173066 </v>
    <v>       0.27777778       0.61111111       0.31173066 </v>
    <v>       0.27777778       0.94444444       0.31173066 </v>
    <v>       0.27777778       0.27777778       0.31173066 </v>
    <v>       0.72222222       0.72222222       0.38096243 </v>
    <v>       0.72222222       0.05555556       0.38096243 </v>
    <v>       0.72222222       0.38888889       0.38096243 </v>
    <v>       0.05555556       0.72222222       0.38096243 </v>
    <v>       0.05555556       0.05555556       0.38096243 </v>
    <v>       0.05555556       0.38888889       0.38096243 </v>
    <v>       0.38888889       0.72222222       0.38096243 </v>
    <v>       0.38888889       0.05555556       0.38096243 </v>
    <v>       0.38888889       0.38888889       0.38096243 </v>
    <v>       0.83333333       0.83333333       0.45027593 </v>
    <v>       0.83333333       0.16666667       0.45027593 </v>
    <v>       0.83333333       0.50000000       0.45027593 </v>
    <v>       0.16666667       0.83333333       0.45027593 </v>
    <v>       0.16666667       0.16666667       0.45027593 </v>
    <v>       0.16666667       0.50000000       0.45027593 </v>
    <v>       0.50000000       0.83333333       0.45027593 </v>
    <v>       0.50000000       0.16666667       0.45027593 </v>
    <v>       0.50000000       0.50000000       0.45027593 </v>
    <v>       0.94444444       0.94444444       0.51911624 </v>
    <v>       0.94444444       0.27777778       0.51911624 </v>
    <v>       0.94444444       0.61111111       0.51911624 </v>
    <v>       0.27777778       0.94444444       0.51911624 </v>
    <v>       0.27777778       0.27777778       0.51911624 </v>
    <v>       0.27777778       0.61111111       0.51911624 </v>
    <v>       0.61111111       0.94444444       0.51911624 </v>
    <v>       0.61111111       0.27777778       0.51911624 </v>
    <v>       0.61111111       0.61111111       0.51911624 </v>
    <v>       0.27777778       0.44444444       0.10434507 </v>
    <v>       0.27777778       0.77777778       0.10434507 </v>
    <v>       0.27777778       0.11111111       0.10434507 </v>
    <v>       0.61111111       0.44444444       0.10434507 </v>
    <v>       0.61111111       0.77777778       0.10434507 </v>
    <v>       0.61111111       0.11111111       0.10434507 </v>
    <v>       0.94444444       0.44444444       0.10434507 </v>
    <v>       0.94444444       0.77777778       0.10434507 </v>
    <v>       0.94444444       0.11111111       0.10434507 </v>
    <v>       0.38888889       0.55555556       0.17318538 </v>
    <v>       0.38888889       0.88888889       0.17318538 </v>
    <v>       0.38888889       0.22222222       0.17318538 </v>
    <v>       0.72222222       0.55555556       0.17318538 </v>
    <v>       0.72222222       0.88888889       0.17318538 </v>
    <v>       0.72222222       0.22222222       0.17318538 </v>
    <v>       0.05555556       0.55555556       0.17318538 </v>
    <v>       0.05555556       0.88888889       0.17318538 </v>
    <v>       0.05555556       0.22222222       0.17318538 </v>
    <v>       0.50000000       0.66666667       0.24249888 </v>
    <v>       0.50000000       0.00000000       0.24249888 </v>
    <v>       0.50000000       0.33333333       0.24249888 </v>
    <v>       0.83333333       0.66666667       0.24249888 </v>
    <v>       0.83333333       0.00000000       0.24249888 </v>
    <v>       0.83333333       0.33333333       0.24249888 </v>
    <v>       0.16666667       0.66666667       0.24249888 </v>
    <v>       0.16666667       0.00000000       0.24249888 </v>
    <v>       0.16666667       0.33333333       0.24249888 </v>
    <v>       0.61111111       0.77777778       0.31173066 </v>
    <v>       0.61111111       0.11111111       0.31173066 </v>
    <v>       0.61111111       0.44444444       0.31173066 </v>
    <v>       0.94444444       0.77777778       0.31173066 </v>
    <v>       0.94444444       0.11111111       0.31173066 </v>
    <v>       0.94444444       0.44444444       0.31173066 </v>
    <v>       0.27777778       0.77777778       0.31173066 </v>
    <v>       0.27777778       0.11111111       0.31173066 </v>
    <v>       0.27777778       0.44444444       0.31173066 </v>
    <v>       0.72222222       0.88888889       0.38096243 </v>
    <v>       0.72222222       0.22222222       0.38096243 </v>
    <v>       0.72222222       0.55555556       0.38096243 </v>
    <v>       0.05555556       0.88888889       0.38096243 </v>
    <v>       0.05555556       0.22222222       0.38096243 </v>
    <v>       0.05555556       0.55555556       0.38096243 </v>
    <v>       0.38888889       0.88888889       0.38096243 </v>
    <v>       0.38888889       0.22222222       0.38096243 </v>
    <v>       0.38888889       0.55555556       0.38096243 </v>
    <v>       0.83333333       0.00000000       0.45027593 </v>
    <v>       0.83333333       0.33333333       0.45027593 </v>
    <v>       0.83333333       0.66666667       0.45027593 </v>
    <v>       0.16666667       0.00000000       0.45027593 </v>
    <v>       0.16666667       0.33333333       0.45027593 </v>
    <v>       0.16666667       0.66666667       0.45027593 </v>
    <v>       0.50000000       0.00000000       0.45027593 </v>
    <v>       0.50000000       0.33333333       0.45027593 </v>
    <v>       0.50000000       0.66666667       0.45027593 </v>
    <v>       0.94444444       0.11111111       0.51911624 </v>
    <v>       0.94444444       0.44444444       0.51911624 </v>
    <v>       0.94444444       0.77777778       0.51911624 </v>
    <v>       0.27777778       0.11111111       0.51911624 </v>
    <v>       0.27777778       0.44444444       0.51911624 </v>
    <v>       0.27777778       0.77777778       0.51911624 </v>
    <v>       0.61111111       0.11111111       0.51911624 </v>
    <v>       0.61111111       0.44444444       0.51911624 </v>
    <v>       0.61111111       0.77777778       0.51911624 </v>
    <v>       0.44444444       0.27777778       0.10434507 </v>
    <v>       0.44444444       0.61111111       0.10434507 </v>
    <v>       0.44444444       0.94444444       0.10434507 </v>
    <v>       0.77777778       0.27777778       0.10434507 </v>
    <v>       0.77777778       0.61111111       0.10434507 </v>
    <v>       0.77777778       0.94444444       0.10434507 </v>
    <v>       0.11111111       0.27777778       0.10434507 </v>
    <v>       0.11111111       0.61111111       0.10434507 </v>
    <v>       0.11111111       0.94444444       0.10434507 </v>
    <v>       0.55555556       0.38888889       0.17318538 </v>
    <v>       0.55555556       0.72222222       0.17318538 </v>
    <v>       0.55555556       0.05555556       0.17318538 </v>
    <v>       0.88888889       0.38888889       0.17318538 </v>
    <v>       0.88888889       0.72222222       0.17318538 </v>
    <v>       0.88888889       0.05555556       0.17318538 </v>
    <v>       0.22222222       0.38888889       0.17318538 </v>
    <v>       0.22222222       0.72222222       0.17318538 </v>
    <v>       0.22222222       0.05555556       0.17318538 </v>
    <v>       0.66666667       0.50000000       0.24249888 </v>
    <v>       0.66666667       0.83333333       0.24249888 </v>
    <v>       0.66666667       0.16666667       0.24249888 </v>
    <v>       1.00000000       0.50000000       0.24249888 </v>
    <v>       1.00000000       0.83333333       0.24249888 </v>
    <v>       1.00000000       0.16666667       0.24249888 </v>
    <v>       0.33333333       0.50000000       0.24249888 </v>
    <v>       0.33333333       0.83333333       0.24249888 </v>
    <v>       0.33333333       0.16666667       0.24249888 </v>
    <v>       0.77777778       0.61111111       0.31173066 </v>
    <v>       0.77777778       0.94444444       0.31173066 </v>
    <v>       0.77777778       0.27777778       0.31173066 </v>
    <v>       0.11111111       0.61111111       0.31173066 </v>
    <v>       0.11111111       0.94444444       0.31173066 </v>
    <v>       0.11111111       0.27777778       0.31173066 </v>
    <v>       0.44444444       0.61111111       0.31173066 </v>
    <v>       0.44444444       0.94444444       0.31173066 </v>
    <v>       0.44444444       0.27777778       0.31173066 </v>
    <v>       0.88888889       0.72222222       0.38096243 </v>
    <v>       0.88888889       0.05555556       0.38096243 </v>
    <v>       0.88888889       0.38888889       0.38096243 </v>
    <v>       0.22222222       0.72222222       0.38096243 </v>
    <v>       0.22222222       0.05555556       0.38096243 </v>
    <v>       0.22222222       0.38888889       0.38096243 </v>
    <v>       0.55555556       0.72222222       0.38096243 </v>
    <v>       0.55555556       0.05555556       0.38096243 </v>
    <v>       0.55555556       0.38888889       0.38096243 </v>
    <v>       1.00000000       0.83333333       0.45027593 </v>
    <v>       1.00000000       0.16666667       0.45027593 </v>
    <v>       1.00000000       0.50000000       0.45027593 </v>
    <v>       0.33333333       0.83333333       0.45027593 </v>
    <v>       0.33333333       0.16666667       0.45027593 </v>
    <v>       0.33333333       0.50000000       0.45027593 </v>
    <v>       0.66666667       0.83333333       0.45027593 </v>
    <v>       0.66666667       0.16666667       0.45027593 </v>
    <v>       0.66666667       0.50000000       0.45027593 </v>
    <v>       0.11111111       0.94444444       0.51911624 </v>
    <v>       0.11111111       0.27777778       0.51911624 </v>
    <v>       0.11111111       0.61111111       0.51911624 </v>
    <v>       0.44444444       0.94444444       0.51911624 </v>
    <v>       0.44444444       0.27777778       0.51911624 </v>
    <v>       0.44444444       0.61111111       0.51911624 </v>
    <v>       0.77777778       0.94444444       0.51911624 </v>
    <v>       0.77777778       0.27777778       0.51911624 </v>
    <v>       0.77777778       0.61111111       0.51911624 </v>
    <v>       0.38888889       0.55555556       0.47000000 </v>
   </varray>
  </structure>
  <varray name="primitive_index" >
   <v type="int" >        1 </v>
   <v type="int" >        2 </v>
   <v type="int" >        3 </v>
   <v type="int" >        4 </v>
   <v type="int" >        5 </v>
   <v type="int" >        6 </v>
   <v type="int" >        7 </v>
   <v type="int" >        8 </v>
   <v type="int" >        9 </v>
   <v type="int" >       10 </v>
   <v type="int" >       11 </v>
   <v type="int" >       12 </v>
   <v type="int" >       13 </v>
   <v type="int" >       14 </v>
   <v type="int" >       15 </v>
   <v type="int" >       16 </v>
   <v type="int" >       17 </v>
   <v type="int" >       18 </v>
   <v type="int" >       19 </v>
   <v type="int" >       20 </v>
   <v type="int" >       21 </v>
   <v type="int" >       22 </v>
   <v type="int" >       23 </v>
   <v type="int" >       24 </v>
   <v type="int" >       25 </v>
   <v type="int" >       26 </v>
   <v type="int" >       27 </v>
   <v type="int" >       28 </v>
   <v type="int" >       29 </v>
   <v type="int" >       30 </v>
   <v type="int" >       31 </v>
   <v type="int" >       32 </v>
   <v type="int" >       33 </v>
   <v type="int" >       34 </v>
   <v type="int" >       35 </v>
   <v type="int" >       36 </v>
   <v type="int" >       37 </v>
   <v type="int" >       38 </v>
   <v type="int" >       39 </v>
   <v type="int" >       40 </v>
   <v type="int" >       41 </v>
   <v type="int" >       42 </v>
   <v type="int" >       43 </v>
   <v type="int" >       44 </v>
   <v type="int" >       45 </v>
   <v type="int" >       46 </v>
   <v type="int" >       47 </v>
   <v type="int" >       48 </v>
   <v type="int" >       49 </v>
   <v type="int" >       50 </v>
   <v type="int" >       51 </v>
   <v type="int" >       52 </v>
   <v type="int" >       53 </v>
   <v type="int" >       54 </v>
   <v type="int" >       55 </v>
   <v type="int" >       56 </v>
   <v type="int" >       57 </v>
   <v type="int" >       58 </v>
   <v type="int" >       59 </v>
   <v type="int" >       60 </v>
   <v type="int" >       61 </v>
   <v type="int" >       62 </v>
   <v type="int" >       63 </v>
   <v type="int" >       64 </v>
   <v type="int" >       65 </v>
   <v type="int" >       66 </v>
   <v type="int" >       67 </v>
   <v type="int" >       68 </v>
   <v type="int" >       69 </v>
   <v type="int" >       70 </v>
   <v type="int" >       71 </v>
   <v type="int" >       72 </v>
   <v type="int" >       73 </v>
   <v type="int" >       74 </v>
   <v type="int" >       75 </v>
   <v type="int" >       76 </v>
   <v type="int" >       77 </v>
   <v type="int" >       78 </v>
   <v type="int" >       79 </v>
   <v type="int" >       80 </v>
   <v type="int" >       81 </v>
   <v type="int" >       82 </v>
   <v type="int" >       83 </v>
   <v type="int" >       84 </v>
   <v type="int" >       85 </v>
   <v type="int" >       86 </v>
   <v type="int" >       87 </v>
   <v type="int" >       88 </v>
   <v type="int" >       89 </v>
   <v type="int" >       90 </v>
   <v type="int" >       91 </v>
   <v type="int" >       92 </v>
   <v type="int" >       93 </v>
   <v type="int" >       94 </v>
   <v type="int" >       95 </v>
   <v type="int" >       96 </v>
   <v type="int" >       97 </v>
   <v type="int" >       98 </v>
   <v type="int" >       99 </v>
   <v type="int" >      100 </v>
   <v type="int" >      101 </v>
   <v type="int" >      102 </v>
   <v type="int" >      103 </v>
   <v type="int" >      104 </v>
   <v type="int" >      105 </v>
   <v type="int" >      106 </v>
   <v type="int" >      107 </v>
   <v type="int" >      108 </v>
   <v type="int" >      109 </v>
   <v type="int" >      110 </v>
   <v type="int" >      111 </v>
   <v type="int" >      112 </v>
   <v type="int" >      113 </v>
   <v type="int" >      114 </v>
   <v type="int" >      115 </v>
   <v type="int" >      116 </v>
   <v type="int" >      117 </v>
   <v type="int" >      118 </v>
   <v type="int" >      119 </v>
   <v type="int" >      120 </v>
   <v type="int" >      121 </v>
   <v type="int" >      122 </v>
   <v type="int" >      123 </v>
   <v type="int" >      124 </v>
   <v type="int" >      125 </v>
   <v type="int" >      126 </v>
   <v type="int" >      127 </v>
   <v type="int" >      128 </v>
   <v type="int" >      129 </v>
   <v type="int" >      130 </v>
   <v type="int" >      131 </v>
   <v type="int" >      132 </v>
   <v type="int" >      133 </v>
   <v type="int" >      134 </v>
   <v type="int" >      135 </v>
   <v type="int" >      136 </v>
   <v type="int" >      137 </v>
   <v type="int" >      138 </v>
   <v type="int" >      139 </v>
   <v type="int" >      140 </v>
   <v type="int" >      141 </v>
   <v type="int" >      142 </v>
   <v type="int" >      143 </v>
   <v type="int" >      144 </v>
   <v type="int" >      145 </v>
   <v type="int" >      146 </v>
   <v type="int" >      147 </v>
   <v type="int" >      148 </v>
   <v type="int" >      149 </v>
   <v type="int" >      150 </v>
   <v type="int" >      151 </v>
   <v type="int" >      152 </v>
   <v type="int" >      153 </v>
   <v type="int" >      154 </v>
   <v type="int" >      155 </v>
   <v type="int" >      156 </v>
   <v type="int" >      157 </v>
   <v type="int" >      158 </v>
   <v type="int" >      159 </v>
   <v type="int" >      160 </v>
   <v type="int" >      161 </v>
   <v type="int" >      162 </v>
   <v type="int" >      163 </v>
   <v type="int" >      164 </v>
   <v type="int" >      165 </v>
   <v type="int" >      166 </v>
   <v type="int" >      167 </v>
   <v type="int" >      168 </v>
   <v type="int" >      169 </v>
   <v type="int" >      170 </v>
   <v type="int" >      171 </v>
   <v type="int" >      172 </v>
   <v type="int" >      173 </v>
   <v type="int" >      174 </v>
   <v type="int" >      175 </v>
   <v type="int" >      176 </v>
   <v type="int" >      177 </v>
   <v type="int" >      178 </v>
   <v type="int" >      179 </v>
   <v type="int" >      180 </v>
   <v type="int" >      181 </v>
   <v type="int" >      182 </v>
   <v type="int" >      183 </v>
   <v type="int" >      184 </v>
   <v type="int" >      185 </v>
   <v type="int" >      186 </v>
   <v type="int" >      187 </v>
   <v type="int" >      188 </v>
   <v type="int" >      189 </v>
   <v type="int" >      190 </v>
   <v type="int" >      191 </v>
   <v type="int" >      192 </v>
   <v type="int" >      193 </v>
   <v type="int" >      194 </v>
   <v type="int" >      195 </v>
   <v type="int" >      196 </v>
   <v type="int" >      197 </v>
   <v type="int" >      198 </v>
   <v type="int" >      199 </v>
   <v type="int" >      200 </v>
   <v type="int" >      201 </v>
   <v type="int" >      202 </v>
   <v type="int" >      203 </v>
   <v type="int" >      204 </v>
   <v type="int" >      205 </v>
   <v type="int" >      206 </v>
   <v type="int" >      207 </v>
   <v type="int" >      208 </v>
   <v type="int" >      209 </v>
   <v type="int" >      210 </v>
   <v type="int" >      211 </v>
   <v type="int" >      212 </v>
   <v type="int" >      213 </v>
   <v type="int" >      214 </v>
   <v type="int" >      215 </v>
   <v type="int" >      216 </v>
   <v type="int" >      217 </v>
   <v type="int" >      218 </v>
   <v type="int" >      219 </v>
   <v type="int" >      220 </v>
   <v type="int" >      221 </v>
   <v type="int" >      222 </v>
   <v type="int" >      223 </v>
   <v type="int" >      224 </v>
   <v type="int" >      225 </v>
   <v type="int" >      226 </v>
   <v type="int" >      227 </v>
   <v type="int" >      228 </v>
   <v type="int" >      229 </v>
   <v type="int" >      230 </v>
   <v type="int" >      231 </v>
   <v type="int" >      232 </v>
   <v type="int" >      233 </v>
   <v type="int" >      234 </v>
   <v type="int" >      235 </v>
   <v type="int" >      236 </v>
   <v type="int" >      237 </v>
   <v type="int" >      238 </v>
   <v type="int" >      239 </v>
   <v type="int" >      240 </v>
   <v type="int" >      241 </v>
   <v type="int" >      242 </v>
   <v type="int" >      243 </v>
   <v type="int" >      244 </v>
   <v type="int" >      245 </v>
   <v type="int" >      246 </v>
   <v type="int" >      247 </v>
   <v type="int" >      248 </v>
   <v type="int" >      249 </v>
   <v type="int" >      250 </v>
   <v type="int" >      251 </v>
   <v type="int" >      252 </v>
   <v type="int" >      253 </v>
  </varray>
 </primitive_cell>
 <kpoints>
  <generation param="Gamma">
   <v type="int" name="divisions">       2        2        1 </v>
   <v name="usershift">      0.00000000       0.00000000       0.00000000 </v>
   <v name="genvec1">      0.50000000      -0.00000000       0.00000000 </v>
   <v name="genvec2">      0.00000000       0.50000000       0.00000000 </v>
   <v name="genvec3">      0.00000000       0.00000000       1.00000000 </v>
   <v name="shift">      0.00000000       0.00000000       0.00000000 </v>
  </generation>
  <varray name="kpointlist" >
   <v>       0.00000000       0.00000000       0.00000000 </v>
   <v>       0.50000000       0.00000000       0.00000000 </v>
  </varray>
  <varray name="weights" >
   <v>       0.25000000 </v>
   <v>       0.75000000 </v>
  </varray>
 </kpoints>
 <parameters>
  <separator name="general" >
   <i type="string" name="SYSTEM">NiAl</i>
   <i type="logical" name="LCOMPAT"> F  </i>
  </separator>
  <separator name="electronic" >
   <i type="string" name="PREC">normal</i>
   <i name="ENMAX">    360.00000000</i>
   <i name="ENAUG">   1139.60900000</i>
   <i name="EDIFF">      0.00000500</i>
   <i type="int" name="IALGO">    38</i>
   <i type="int" name="IWAVPR">    11</i>
   <i type="int" name="NBANDS">  1515</i>
   <i type="int" name="NBANDSLOW">    -1</i>
   <i type="int" name="NBANDSHIGH">    -1</i>
   <i name="NELECT">   2526.00000000</i>
   <i type="int" name="TURBO">     0</i>
   <i type="int" name="IRESTART">     0</i>
   <i type="int" name="NREBOOT">     0</i>
   <i type="int" name="NMIN">     0</i>
   <i name="EREF">      0.00000000</i>
   <separator name="electronic smearing" >
    <i type="int" name="ISMEAR">     0</i>
    <i name="SIGMA">      0.05000000</i>
    <i name="KSPACING">      0.50000000</i>
    <i type="logical" name="KGAMMA"> T  </i>
    <i type="logical" name="KBLOWUP"> T  </i>
   </separator>
   <separator name="electronic projectors" >
    <i type="logical" name="LREAL"> T  </i>
    <v name="ROPT">     -0.00050000     -0.00050000</v>
    <i type="int" name="LMAXPAW">  -100</i>
    <i type="int" name="LMAXMIX">     2</i>
    <i type="logical" name="NLSPLINE"> F  </i>
   </separator>
   <separator name="electronic startup" >
    <i type="int" name="ISTART">     0</i>
    <i type="int" name="ICHARG">     2</i>
    <i type="int" name="INIWAV">     1</i>
   </separator>
   <separator name="electronic spin" >
    <i type="int" name="ISPIN">     1</i>
    <i type="logical" name="LNONCOLLINEAR"> F  </i>
    <v name="MAGMOM">      1.00000000      1.00000000      1.00000000      1.00000000      1.00000000      1.00000000      1.00000000      1.00000000      1.00000000      1.00000000      1.00000000      1.00000000      1.00000000      1.00000000      1.00000000      1.00000000      1.00000000      1.00000000      1.00000000      1.00000000
      1.00000000      1.00000000      1.00000000      1.00000000      1.00000000      1.00000000      1.00000000      1.00000000      1.00000000      1.00000000      1.00000000      1.00000000      1.00000000      1.00000000      1.00000000      1.00000000      1.00000000      1.00000000      1.00000000      1.00000000
      1.00000000      1.00000000      1.00000000      1.00000000      1.00000000      1.00000000      1.00000000      1.00000000      1.00000000      1.00000000      1.00000000      1.00000000      1.00000000      1.00000000      1.00000000      1.00000000      1.00000000      1.00000000      1.00000000      1.00000000
      1.00000000      1.00000000      1.00000000      1.00000000      1.00000000      1.00000000      1.00000000      1.00000000      1.00000000      1.00000000      1.00000000      1.00000000      1.00000000      1.00000000      1.00000000      1.00000000      1.00000000      1.00000000      1.00000000      1.00000000
      1.00000000      1.00000000      1.00000000      1.00000000      1.00000000      1.00000000      1.00000000      1.00000000      1.00000000      1.00000000      1.00000000      1.00000000      1.00000000      1.00000000      1.00000000      1.00000000      1.00000000      1.00000000      1.00000000      1.00000000
      1.00000000      1.00000000      1.00000000      1.00000000      1.00000000      1.00000000      1.00000000      1.00000000      1.00000000      1.00000000      1.00000000      1.00000000      1.00000000      1.00000000      1.00000000      1.00000000      1.00000000      1.00000000      1.00000000      1.00000000
      1.00000000      1.00000000      1.00000000      1.00000000      1.00000000      1.00000000      1.00000000      1.00000000      1.00000000      1.00000000      1.00000000      1.00000000      1.00000000      1.00000000      1.00000000      1.00000000      1.00000000      1.00000000      1.00000000      1.00000000
      1.00000000      1.00000000      1.00000000      1.00000000      1.00000000      1.00000000      1.00000000      1.00000000      1.00000000      1.00000000      1.00000000      1.00000000      1.00000000      1.00000000      1.00000000      1.00000000      1.00000000      1.00000000      1.00000000      1.00000000
      1.00000000      1.00000000      1.00000000      1.00000000      1.00000000      1.00000000      1.00000000      1.00000000      1.00000000      1.00000000      1.00000000      1.00000000      1.00000000      1.00000000      1.00000000      1.00000000      1.00000000      1.00000000      1.00000000      1.00000000
      1.00000000      1.00000000      1.00000000      1.00000000      1.00000000      1.00000000      1.00000000      1.00000000      1.00000000      1.00000000      1.00000000      1.00000000      1.00000000      1.00000000      1.00000000      1.00000000      1.00000000      1.00000000      1.00000000      1.00000000
      1.00000000      1.00000000      1.00000000      1.00000000      1.00000000      1.00000000      1.00000000      1.00000000      1.00000000      1.00000000      1.00000000      1.00000000      1.00000000      1.00000000      1.00000000      1.00000000      1.00000000      1.00000000      1.00000000      1.00000000
      1.00000000      1.00000000      1.00000000      1.00000000      1.00000000      1.00000000      1.00000000      1.00000000      1.00000000      1.00000000      1.00000000      1.00000000      1.00000000      1.00000000      1.00000000      1.00000000      1.00000000      1.00000000      1.00000000      1.00000000
      1.00000000      1.00000000      1.00000000      1.00000000      1.00000000      1.00000000      1.00000000      1.00000000      1.00000000      1.00000000      1.00000000      1.00000000      1.00000000</v>
    <i name="NUPDOWN">     -1.00000000</i>
    <i type="logical" name="LSORBIT"> F  </i>
    <v name="SAXIS">      0.00000000      0.00000000      1.00000000</v>
    <i type="logical" name="LSPIRAL"> F  </i>
    <v name="QSPIRAL">      0.00000000      0.00000000      0.00000000</v>
    <i type="logical" name="LZEROZ"> F  </i>
   </separator>
   <separator name="electronic exchange-correlation" >
    <i type="logical" name="LASPH"> F  </i>
    <i type="logical" name="LMETAGGA"> F  </i>
   </separator>
   <separator name="electronic convergence" >
    <i type="int" name="NELM">    60</i>
    <i type="int" name="NELMDL">    -5</i>
    <i type="int" name="NELMIN">     6</i>
    <i name="ENINI">    360.00000000</i>
    <separator name="electronic convergence detail" >
     <i type="logical" name="LDIAG"> T  </i>
     <i type="logical" name="LSUBROT"> F  </i>
     <i name="WEIMIN">      0.00100000</i>
     <i name="EBREAK">      0.00000000</i>
     <i name="DEPER">      0.30000000</i>
     <i type="int" name="NRMM">     4</i>
     <i name="TIME">      0.40000000</i>
    </separator>
   </separator>
   <separator name="electronic mixer" >
    <i name="AMIX">      0.40000000</i>
    <i name="BMIX">      1.00000000</i>
    <i name="AMIN">      0.10000000</i>
    <i name="AMIX_MAG">      1.60000000</i>
    <i name="BMIX_MAG">      1.00000000</i>
    <separator name="electronic mixer details" >
     <i type="int" name="IMIX">     4</i>
     <i type="logical" name="MIXFIRST"> F  </i>
     <i type="int" name="MAXMIX">   -45</i>
     <i name="WC">    100.00000000</i>
     <i type="int" name="INIMIX">     1</i>
     <i type="int" name="MIXPRE">     1</i>
     <i type="int" name="MREMOVE">     5</i>
    </separator>
   </separator>
   <separator name="electronic dipolcorrection" >
    <i type="logical" name="LDIPOL"> F  </i>
    <i type="logical" name="LMONO"> F  </i>
    <i type="int" name="IDIPOL">     0</i>
    <i name="EPSILON">      1.00000000</i>
    <v name="DIPOL">   -100.00000000   -100.00000000   -100.00000000</v>
    <i name="EFIELD">      0.00000000</i>
   </separator>
  </separator>
  <separator name="grids" >
   <i type="int" name="NGX">    70</i>
   <i type="int" name="NGY">    70</i>
   <i type="int" name="NGZ">   140</i>
   <i type="int" name="NGXF">   140</i>
   <i type="int" name="NGYF">   140</i>
   <i type="int" name="NGZF">   280</i>
   <i type="logical" name="ADDGRID"> F  </i>
  </separator>
  <separator name="ionic" >
   <i type="int" name="NSW">    40</i>
   <i type="int" name="IBRION">     2</i>
   <i type="int" name="MDALGO">     0</i>
   <i type="int" name="ISIF">     1</i>
   <i name="PSTRESS">      0.00000000</i>
   <i name="EDIFFG">      0.00005000</i>
   <i type="int" name="NFREE">     1</i>
   <i name="POTIM">      0.20000000</i>
   <i name="SMASS">     -3.00000000</i>
   <i name="SCALEE">      1.00000000</i>
  </separator>
  <separator name="ionic md" >
   <i name="TEBEG">      0.00010000</i>
   <i name="TEEND">      0.00010000</i>
   <i type="int" name="NBLOCK">     1</i>
   <i type="int" name="KBLOCK">    40</i>
   <i type="int" name="NPACO">   256</i>
   <i name="APACO">     16.00000000</i>
  </separator>
  <separator name="symmetry" >
   <i type="int" name="ISYM">     2</i>
   <i name="SYMPREC">      0.00001000</i>
  </separator>
  <separator name="dos" >
   <i type="int" name="LORBIT">     0</i>
   <v name="RWIGS">     -1.00000000     -1.00000000</v>
   <i type="int" name="NEDOS">   301</i>
   <i name="EMIN">     10.00000000</i>
   <i name="EMAX">    -10.00000000</i>
   <i name="EFERMI">      0.00000000</i>
  </separator>
  <separator name="writing" >
   <i type="int" name="NWRITE">     2</i>
   <i type="logical" name="LWAVE"> F  </i>
   <i type="logical" name="LDOWNSAMPLE"> F  </i>
   <i type="logical" name="LCHARG"> F  </i>
   <i type="logical" name="LPARD"> F  </i>
   <i type="logical" name="LVTOT"> F  </i>
   <i type="logical" name="LVHAR"> F  </i>
   <i type="logical" name="LELF"> F  </i>
   <i type="logical" name="LOPTICS"> F  </i>
   <v name="STM">      0.00000000      0.00000000      0.00000000      0.00000000      0.00000000      0.00000000      0.00000000</v>
  </separator>
  <separator name="performance" >
   <i type="int" name="NPAR">     1</i>
   <i type="int" name="NSIM">     4</i>
   <i type="int" name="NBLK">    -1</i>
   <i type="logical" name="LPLANE"> T  </i>
   <i type="logical" name="LSCALAPACK"> T  </i>
   <i type="logical" name="LSCAAWARE"> F  </i>
   <i type="logical" name="LSCALU"> F  </i>
   <i type="logical" name="LASYNC"> F  </i>
   <i type="logical" name="LORBITALREAL"> F  </i>
  </separator>
  <separator name="miscellaneous" >
   <i type="int" name="IDIOT">     3</i>
   <i type="int" name="PHON_NSTRUCT">    -1</i>
   <i type="logical" name="LMUSIC"> F  </i>
   <v name="POMASS">     58.69000000     16.00000000</v>
   <v name="DARWINR">      0.00000000      0.00000000</v>
   <v name="DARWINV">      1.00000000      1.00000000</v>
   <i type="logical" name="LCORR"> T  </i>
  </separator>
  <i type="logical" name="GGA_COMPAT"> T  </i>
  <i type="logical" name="LBERRY"> F  </i>
  <i type="int" name="ICORELEVEL">     0</i>
  <i type="logical" name="LDAU"> F  </i>
  <i type="int" name="I_CONSTRAINED_M">     0</i>
  <separator name="electronic exchange-correlation" >
   <i type="string" name="GGA">--</i>
   <i type="int" name="VOSKOWN">     0</i>
   <i type="logical" name="LHFCALC"> F  </i>
   <i type="string" name="PRECFOCK"></i>
   <i type="logical" name="LSYMGRAD"> F  </i>
   <i type="logical" name="LHFONE"> F  </i>
   <i type="logical" name="LRHFCALC"> F  </i>
   <i type="logical" name="LTHOMAS"> F  </i>
   <i type="logical" name="LMODELHF"> F  </i>
   <i type="logical" name="LFOCKACE"> F  </i>
   <i name="ENCUT4O">     -1.00000000</i>
   <i type="int" name="EXXOEP">     0</i>
   <i type="int" name="FOURORBIT">     0</i>
   <i name="AEXX">      0.00000000</i>
   <i name="HFALPHA">      0.00000000</i>
   <i name="MCALPHA">      0.00000000</i>
   <i name="ALDAX">      1.00000000</i>
   <i name="AGGAX">      1.00000000</i>
   <i name="ALDAC">      1.00000000</i>
   <i name="AGGAC">      1.00000000</i>
   <i type="int" name="NKREDX">     1</i>
   <i type="int" name="NKREDY">     1</i>
   <i type="int" name="NKREDZ">     1</i>
   <i type="logical" name="SHIFTRED"> F  </i>
   <i type="logical" name="ODDONLY"> F  </i>
   <i type="logical" name="EVENONLY"> F  </i>
   <i type="int" name="LMAXFOCK">     0</i>
   <i type="int" name="NMAXFOCKAE">     0</i>
   <i type="logical" name="LFOCKAEDFT"> F  </i>
   <i name="HFSCREEN">      0.00000000</i>
   <i name="HFSCREENC">      0.00000000</i>
   <i type="int" name="NBANDSGWLOW">     0</i>
  </separator>
  <separator name="vdW DFT" >
   <i type="logical" name="LUSE_VDW"> F  </i>
   <i name="Zab_VDW">     -0.84910000</i>
   <i name="PARAM1">      0.12340000</i>
   <i name="PARAM2">      1.00000000</i>
   <i name="PARAM3">      0.00000000</i>
  </separator>
  <separator name="model GW" >
   <i type="int" name="MODEL_GW">     0</i>
   <i name="MODEL_EPS0">     13.66368940</i>
   <i name="MODEL_ALPHA">      1.00000000</i>
  </separator>
  <separator name="linear response parameters" >
   <i type="logical" name="LEPSILON"> F  </i>
   <i type="logical" name="LRPA"> F  </i>
   <i type="logical" name="LNABLA"> F  </i>
   <i type="logical" name="LVEL"> F  </i>
   <i type="int" name="KINTER">     0</i>
   <i name="CSHIFT">      0.10000000</i>
   <i name="OMEGAMAX">     -1.00000000</i>
   <i name="DEG_THRESHOLD">      0.00200000</i>
   <i name="RTIME">     -0.10000000</i>
   <i name="WPLASMAI">      0.00000000</i>
   <v name="DFIELD">      0.00000000      0.00000000      0.00000000</v>
   <v name="WPLASMA">      0.00000000      0.00000000      0.00000000      0.00000000      0.00000000      0.00000000      0.00000000      0.00000000      0.00000000</v>
  </separator>
  <separator name="orbital magnetization" >
   <i type="logical" name="NUCIND"> F  </i>
   <v name="MAGPOS">      0.00000000      0.00000000      0.00000000</v>
   <i type="logical" name="LNICSALL"> T  </i>
   <i type="logical" name="ORBITALMAG"> F  </i>
   <i type="logical" name="LMAGBLOCH"> F  </i>
   <i type="logical" name="LCHIMAG"> F  </i>
   <i type="logical" name="LGAUGE"> T  </i>
   <i type="int" name="MAGATOM">     0</i>
   <v name="MAGDIPOL">      0.00000000      0.00000000      0.00000000</v>
   <v name="AVECCONST">      0.00000000      0.00000000      0.00000000</v>
  </separator>
  <separator name="response functions" >
   <i type="logical" name="LFINITE_TEMPERATURE"> F  </i>
   <i type="logical" name="LADDER"> F  </i>
   <i type="logical" name="LRPAFORCE"> F  </i>
   <i type="logical" name="LFXC"> F  </i>
   <i type="logical" name="LHARTREE"> T  </i>
   <i type="int" name="IBSE">     0</i>
   <v type="int" name="KPOINT">    -1     0     0     0</v>
   <i type="logical" name="LTCTC"> F  </i>
   <i type="logical" name="LTCTE"> F  </i>
   <i type="logical" name="LTETE"> F  </i>
   <i type="logical" name="LTRIPLET"> F  </i>
   <i type="logical" name="LFXCEPS"> F  </i>
   <i type="logical" name="LFXHEG"> F  </i>
   <i type="int" name="NATURALO">     2</i>
   <i type="logical" name="LHOLEGF"> F  </i>
   <i type="logical" name="L2ORDER"> F  </i>
   <i type="logical" name="LDMP1"> F  </i>
   <i type="logical" name="LMP2LT"> F  </i>
   <i type="logical" name="LSMP2LT"> F  </i>
   <i type="logical" name="LGWLF"> F  </i>
   <i name="ENCUTGW">     -2.00000000</i>
   <i name="ENCUTGWSOFT">     -2.00000000</i>
   <i name="ENCUTLF">     -1.00000000</i>
   <i type="logical" name="LESF_SPLINES"> F  </i>
   <i type="int" name="LMAXMP2">    -1</i>
   <i name="SCISSOR">      0.00000000</i>
   <i type="int" name="NOMEGA">     0</i>
   <i type="int" name="NOMEGAR">     0</i>
   <i type="int" name="NBANDSGW">    -1</i>
   <i type="int" name="NBANDSO">    -1</i>
   <i type="int" name="NBANDSV">    -1</i>
   <i type="int" name="NELM">     1</i>
   <i type="int" name="NELMHF">     1</i>
   <i type="int" name="DIM">     3</i>
   <i type="int" name="IESPILON">     4</i>
   <i type="int" name="ANTIRES">     0</i>
   <i name="OMEGAMAX">    -30.00000000</i>
   <i name="OMEGAMIN">    -30.00000000</i>
   <i name="OMEGATL">   -200.00000000</i>
   <i type="int" name="OMEGAGRID">     0</i>
   <i name="CSHIFT">     -0.10000000</i>
   <i type="logical" name="LSELFENERGY"> F  </i>
   <i type="logical" name="LSPECTRAL"> F  </i>
   <i type="logical" name="LSPECTRALGW"> F  </i>
   <i type="logical" name="LSINGLES"> F  </i>
   <i type="logical" name="LFERMIGW"> F  </i>
   <i type="logical" name="ODDONLYGW"> F  </i>
   <i type="logical" name="EVENONLYGW"> F  </i>
   <i type="int" name="NKREDLFX">     1</i>
   <i type="int" name="NKREDLFY">     1</i>
   <i type="int" name="NKREDLFZ">     1</i>
   <i type="int" name="MAXMEM">  2800</i>
   <i type="int" name="TELESCOPE">     0</i>
   <i type="int" name="NTAUPAR">    -1</i>
   <i type="int" name="NOMEGAPAR">    -1</i>
   <i name="DAMP_NEWTON">      0.80000001</i>
   <i name="LAMBDA">      1.00000000</i>
  </separator>
  <separator name="External order field" >
   <i name="OFIELD_KAPPA">      0.00000000</i>
   <v name="OFIELD_K">      0.00000000      0.00000000      0.00000000</v>
   <i name="OFIELD_Q6_NEAR">      0.00000000</i>
   <i name="OFIELD_Q6_FAR">      0.00000000</i>
   <i name="OFIELD_A">      0.00000000</i>
  </separator>
  <separator name="solvation model" >
   <i type="logical" name="LSOL"> F  </i>
  </separator>
 </parameters>
 <atominfo>
  <atoms>     253 </atoms>
  <types>       2 </types>
  <array name="atoms" >
   <dimension dim="1">ion</dimension>
   <field type="string">element</field>
   <field type="int">atomtype</field>
   <set>
    <rc><c>Ni</c><c>   1</c></rc>
    <rc><c>Ni</c><c>   1</c></rc>
    <rc><c>Ni</c><c>   1</c></rc>
    <rc><c>Ni</c><c>   1</c></rc>
    <rc><c>Ni</c><c>   1</c></rc>
    <rc><c>Ni</c><c>   1</c></rc>
    <rc><c>Ni</c><c>   1</c></rc>
    <rc><c>Ni</c><c>   1</c></rc>
    <rc><c>Ni</c><c>   1</c></rc>
    <rc><c>Ni</c><c>   1</c></rc>
    <rc><c>Ni</c><c>   1</c></rc>
    <rc><c>Ni</c><c>   1</c></rc>
    <rc><c>Ni</c><c>   1</c></rc>
    <rc><c>Ni</c><c>   1</c></rc>
    <rc><c>Ni</c><c>   1</c></rc>
    <rc><c>Ni</c><c>   1</c></rc>
    <rc><c>Ni</c><c>   1</c></rc>
    <rc><c>Ni</c><c>   1</c></rc>
    <rc><c>Ni</c><c>   1</c></rc>
    <rc><c>Ni</c><c>   1</c></rc>
    <rc><c>Ni</c><c>   1</c></rc>
    <rc><c>Ni</c><c>   1</c></rc>
    <rc><c>Ni</c><c>   1</c></rc>
    <rc><c>Ni</c><c>   1</c></rc>
    <rc><c>Ni</c><c>   1</c></rc>
    <rc><c>Ni</c><c>   1</c></rc>
    <rc><c>Ni</c><c>   1</c></rc>
    <rc><c>Ni</c><c>   1</c></rc>
    <rc><c>Ni</c><c>   1</c></rc>
    <rc><c>Ni</c><c>   1</c></rc>
    <rc><c>Ni</c><c>   1</c></rc>
    <rc><c>Ni</c><c>   1</c></rc>
    <rc><c>Ni</c><c>   1</c></rc>
    <rc><c>Ni</c><c>   1</c></rc>
    <rc><c>Ni</c><c>   1</c></rc>
    <rc><c>Ni</c><c>   1</c></rc>
    <rc><c>Ni</c><c>   1</c></rc>
    <rc><c>Ni</c><c>   1</c></rc>
    <rc><c>Ni</c><c>   1</c></rc>
    <rc><c>Ni</c><c>   1</c></rc>
    <rc><c>Ni</c><c>   1</c></rc>
    <rc><c>Ni</c><c>   1</c></rc>
    <rc><c>Ni</c><c>   1</c></rc>
    <rc><c>Ni</c><c>   1</c></rc>
    <rc><c>Ni</c><c>   1</c></rc>
    <rc><c>Ni</c><c>   1</c></rc>
    <rc><c>Ni</c><c>   1</c></rc>
    <rc><c>Ni</c><c>   1</c></rc>
    <rc><c>Ni</c><c>   1</c></rc>
    <rc><c>Ni</c><c>   1</c></rc>
    <rc><c>Ni</c><c>   1</c></rc>
    <rc><c>Ni</c><c>   1</c></rc>
    <rc><c>Ni</c><c>   1</c></rc>
    <rc><c>Ni</c><c>   1</c></rc>
    <rc><c>Ni</c><c>   1</c></rc>
    <rc><c>Ni</c><c>   1</c></rc>
    <rc><c>Ni</c><c>   1</c></rc>
    <rc><c>Ni</c><c>   1</c></rc>
    <rc><c>Ni</c><c>   1</c></rc>
    <rc><c>Ni</c><c>   1</c></rc>
    <rc><c>Ni</c><c>   1</c></rc>
    <rc><c>Ni</c><c>   1</c></rc>
    <rc><c>Ni</c><c>   1</c></rc>
    <rc><c>Ni</c><c>   1</c></rc>
    <rc><c>Ni</c><c>   1</c></rc>
    <rc><c>Ni</c><c>   1</c></rc>
    <rc><c>Ni</c><c>   1</c></rc>
    <rc><c>Ni</c><c>   1</c></rc>
    <rc><c>Ni</c><c>   1</c></rc>
    <rc><c>Ni</c><c>   1</c></rc>
    <rc><c>Ni</c><c>   1</c></rc>
    <rc><c>Ni</c><c>   1</c></rc>
    <rc><c>Ni</c><c>   1</c></rc>
    <rc><c>Ni</c><c>   1</c></rc>
    <rc><c>Ni</c><c>   1</c></rc>
    <rc><c>Ni</c><c>   1</c></rc>
    <rc><c>Ni</c><c>   1</c></rc>
    <rc><c>Ni</c><c>   1</c></rc>
    <rc><c>Ni</c><c>   1</c></rc>
    <rc><c>Ni</c><c>   1</c></rc>
    <rc><c>Ni</c><c>   1</c></rc>
    <rc><c>Ni</c><c>   1</c></rc>
    <rc><c>Ni</c><c>   1</c></rc>
    <rc><c>Ni</c><c>   1</c></rc>
    <rc><c>Ni</c><c>   1</c></rc>
    <rc><c>Ni</c><c>   1</c></rc>
    <rc><c>Ni</c><c>   1</c></rc>
    <rc><c>Ni</c><c>   1</c></rc>
    <rc><c>Ni</c><c>   1</c></rc>
    <rc><c>Ni</c><c>   1</c></rc>
    <rc><c>Ni</c><c>   1</c></rc>
    <rc><c>Ni</c><c>   1</c></rc>
    <rc><c>Ni</c><c>   1</c></rc>
    <rc><c>Ni</c><c>   1</c></rc>
    <rc><c>Ni</c><c>   1</c></rc>
    <rc><c>Ni</c><c>   1</c></rc>
    <rc><c>Ni</c><c>   1</c></rc>
    <rc><c>Ni</c><c>   1</c></rc>
    <rc><c>Ni</c><c>   1</c></rc>
    <rc><c>Ni</c><c>   1</c></rc>
    <rc><c>Ni</c><c>   1</c></rc>
    <rc><c>Ni</c><c>   1</c></rc>
    <rc><c>Ni</c><c>   1</c></rc>
    <rc><c>Ni</c><c>   1</c></rc>
    <rc><c>Ni</c><c>   1</c></rc>
    <rc><c>Ni</c><c>   1</c></rc>
    <rc><c>Ni</c><c>   1</c></rc>
    <rc><c>Ni</c><c>   1</c></rc>
    <rc><c>Ni</c><c>   1</c></rc>
    <rc><c>Ni</c><c>   1</c></rc>
    <rc><c>Ni</c><c>   1</c></rc>
    <rc><c>Ni</c><c>   1</c></rc>
    <rc><c>Ni</c><c>   1</c></rc>
    <rc><c>Ni</c><c>   1</c></rc>
    <rc><c>Ni</c><c>   1</c></rc>
    <rc><c>Ni</c><c>   1</c></rc>
    <rc><c>Ni</c><c>   1</c></rc>
    <rc><c>Ni</c><c>   1</c></rc>
    <rc><c>Ni</c><c>   1</c></rc>
    <rc><c>Ni</c><c>   1</c></rc>
    <rc><c>Ni</c><c>   1</c></rc>
    <rc><c>Ni</c><c>   1</c></rc>
    <rc><c>Ni</c><c>   1</c></rc>
    <rc><c>Ni</c><c>   1</c></rc>
    <rc><c>Ni</c><c>   1</c></rc>
    <rc><c>Ni</c><c>   1</c></rc>
    <rc><c>Ni</c><c>   1</c></rc>
    <rc><c>Ni</c><c>   1</c></rc>
    <rc><c>Ni</c><c>   1</c></rc>
    <rc><c>Ni</c><c>   1</c></rc>
    <rc><c>Ni</c><c>   1</c></rc>
    <rc><c>Ni</c><c>   1</c></rc>
    <rc><c>Ni</c><c>   1</c></rc>
    <rc><c>Ni</c><c>   1</c></rc>
    <rc><c>Ni</c><c>   1</c></rc>
    <rc><c>Ni</c><c>   1</c></rc>
    <rc><c>Ni</c><c>   1</c></rc>
    <rc><c>Ni</c><c>   1</c></rc>
    <rc><c>Ni</c><c>   1</c></rc>
    <rc><c>Ni</c><c>   1</c></rc>
    <rc><c>Ni</c><c>   1</c></rc>
    <rc><c>Ni</c><c>   1</c></rc>
    <rc><c>Ni</c><c>   1</c></rc>
    <rc><c>Ni</c><c>   1</c></rc>
    <rc><c>Ni</c><c>   1</c></rc>
    <rc><c>Ni</c><c>   1</c></rc>
    <rc><c>Ni</c><c>   1</c></rc>
    <rc><c>Ni</c><c>   1</c></rc>
    <rc><c>Ni</c><c>   1</c></rc>
    <rc><c>Ni</c><c>   1</c></rc>
    <rc><c>Ni</c><c>   1</c></rc>
    <rc><c>Ni</c><c>   1</c></rc>
    <rc><c>Ni</c><c>   1</c></rc>
    <rc><c>Ni</c><c>   1</c></rc>
    <rc><c>Ni</c><c>   1</c></rc>
    <rc><c>Ni</c><c>   1</c></rc>
    <rc><c>Ni</c><c>   1</c></rc>
    <rc><c>Ni</c><c>   1</c></rc>
    <rc><c>Ni</c><c>   1</c></rc>
    <rc><c>Ni</c><c>   1</c></rc>
    <rc><c>Ni</c><c>   1</c></rc>
    <rc><c>Ni</c><c>   1</c></rc>
    <rc><c>Ni</c><c>   1</c></rc>
    <rc><c>Ni</c><c>   1</c></rc>
    <rc><c>Ni</c><c>   1</c></rc>
    <rc><c>Ni</c><c>   1</c></rc>
    <rc><c>Ni</c><c>   1</c></rc>
    <rc><c>Ni</c><c>   1</c></rc>
    <rc><c>Ni</c><c>   1</c></rc>
    <rc><c>Ni</c><c>   1</c></rc>
    <rc><c>Ni</c><c>   1</c></rc>
    <rc><c>Ni</c><c>   1</c></rc>
    <rc><c>Ni</c><c>   1</c></rc>
    <rc><c>Ni</c><c>   1</c></rc>
    <rc><c>Ni</c><c>   1</c></rc>
    <rc><c>Ni</c><c>   1</c></rc>
    <rc><c>Ni</c><c>   1</c></rc>
    <rc><c>Ni</c><c>   1</c></rc>
    <rc><c>Ni</c><c>   1</c></rc>
    <rc><c>Ni</c><c>   1</c></rc>
    <rc><c>Ni</c><c>   1</c></rc>
    <rc><c>Ni</c><c>   1</c></rc>
    <rc><c>Ni</c><c>   1</c></rc>
    <rc><c>Ni</c><c>   1</c></rc>
    <rc><c>Ni</c><c>   1</c></rc>
    <rc><c>Ni</c><c>   1</c></rc>
    <rc><c>Ni</c><c>   1</c></rc>
    <rc><c>Ni</c><c>   1</c></rc>
    <rc><c>Ni</c><c>   1</c></rc>
    <rc><c>Ni</c><c>   1</c></rc>
    <rc><c>Ni</c><c>   1</c></rc>
    <rc><c>Ni</c><c>   1</c></rc>
    <rc><c>Ni</c><c>   1</c></rc>
    <rc><c>Ni</c><c>   1</c></rc>
    <rc><c>Ni</c><c>   1</c></rc>
    <rc><c>Ni</c><c>   1</c></rc>
    <rc><c>Ni</c><c>   1</c></rc>
    <rc><c>Ni</c><c>   1</c></rc>
    <rc><c>Ni</c><c>   1</c></rc>
    <rc><c>Ni</c><c>   1</c></rc>
    <rc><c>Ni</c><c>   1</c></rc>
    <rc><c>Ni</c><c>   1</c></rc>
    <rc><c>Ni</c><c>   1</c></rc>
    <rc><c>Ni</c><c>   1</c></rc>
    <rc><c>Ni</c><c>   1</c></rc>
    <rc><c>Ni</c><c>   1</c></rc>
    <rc><c>Ni</c><c>   1</c></rc>
    <rc><c>Ni</c><c>   1</c></rc>
    <rc><c>Ni</c><c>   1</c></rc>
    <rc><c>Ni</c><c>   1</c></rc>
    <rc><c>Ni</c><c>   1</c></rc>
    <rc><c>Ni</c><c>   1</c></rc>
    <rc><c>Ni</c><c>   1</c></rc>
    <rc><c>Ni</c><c>   1</c></rc>
    <rc><c>Ni</c><c>   1</c></rc>
    <rc><c>Ni</c><c>   1</c></rc>
    <rc><c>Ni</c><c>   1</c></rc>
    <rc><c>Ni</c><c>   1</c></rc>
    <rc><c>Ni</c><c>   1</c></rc>
    <rc><c>Ni</c><c>   1</c></rc>
    <rc><c>Ni</c><c>   1</c></rc>
    <rc><c>Ni</c><c>   1</c></rc>
    <rc><c>Ni</c><c>   1</c></rc>
    <rc><c>Ni</c><c>   1</c></rc>
    <rc><c>Ni</c><c>   1</c></rc>
    <rc><c>Ni</c><c>   1</c></rc>
    <rc><c>Ni</c><c>   1</c></rc>
    <rc><c>Ni</c><c>   1</c></rc>
    <rc><c>Ni</c><c>   1</c></rc>
    <rc><c>Ni</c><c>   1</c></rc>
    <rc><c>Ni</c><c>   1</c></rc>
    <rc><c>Ni</c><c>   1</c></rc>
    <rc><c>Ni</c><c>   1</c></rc>
    <rc><c>Ni</c><c>   1</c></rc>
    <rc><c>Ni</c><c>   1</c></rc>
    <rc><c>Ni</c><c>   1</c></rc>
    <rc><c>Ni</c><c>   1</c></rc>
    <rc><c>Ni</c><c>   1</c></rc>
    <rc><c>Ni</c><c>   1</c></rc>
    <rc><c>Ni</c><c>   1</c></rc>
    <rc><c>Ni</c><c>   1</c></rc>
    <rc><c>Ni</c><c>   1</c></rc>
    <rc><c>Ni</c><c>   1</c></rc>
    <rc><c>Ni</c><c>   1</c></rc>
    <rc><c>Ni</c><c>   1</c></rc>
    <rc><c>Ni</c><c>   1</c></rc>
    <rc><c>Ni</c><c>   1</c></rc>
    <rc><c>Ni</c><c>   1</c></rc>
    <rc><c>Ni</c><c>   1</c></rc>
    <rc><c>Ni</c><c>   1</c></rc>
    <rc><c>Ni</c><c>   1</c></rc>
    <rc><c>Ni</c><c>   1</c></rc>
    <rc><c>O </c><c>   2</c></rc>
   </set>
  </array>
  <array name="atomtypes" >
   <dimension dim="1">type</dimension>
   <field type="int">atomspertype</field>
   <field type="string">element</field>
   <field>mass</field>
   <field>valence</field>
   <field type="string">pseudopotential</field>
   <set>
    <rc><c> 252</c><c>Ni</c><c>     58.69000000</c><c>     10.00000000</c><c>  PAW Ni_GW 31Mar2010                   </c></rc>
    <rc><c>   1</c><c>O </c><c>     16.00000000</c><c>      6.00000000</c><c>  PAW O_GW 19Mar2012                    </c></rc>
   </set>
  </array>
 </atominfo>
 <structure name="initialpos" >
  <crystal>
   <varray name="basis" >
    <v>       0.00000000     -15.14622176       0.00000000 </v>
    <v>       0.00000000      -7.57311088     -13.11701281 </v>
    <v>      29.00000000       0.00000000       0.00000000 </v>
   </varray>
   <i name="volume">   5761.52236213 </i>
   <varray name="rec_basis" >
    <v>       0.00000000      -0.06602307       0.03811843 </v>
    <v>       0.00000000       0.00000000      -0.07623687 </v>
    <v>       0.03448276       0.00000000       0.00000000 </v>
   </varray>
  </crystal>
  <varray name="positions" >
   <v>       0.44444444       0.44444444       0.10434507 </v>
   <v>       0.44444444       0.77777778       0.10434507 </v>
   <v>       0.44444444       0.11111111       0.10434507 </v>
   <v>       0.77777778       0.44444444       0.10434507 </v>
   <v>       0.77777778       0.77777778       0.10434507 </v>
   <v>       0.77777778       0.11111111       0.10434507 </v>
   <v>       0.11111111       0.44444444       0.10434507 </v>
   <v>       0.11111111       0.77777778       0.10434507 </v>
   <v>       0.11111111       0.11111111       0.10434507 </v>
   <v>       0.55555556       0.55555556       0.17318538 </v>
   <v>       0.55555556       0.88888889       0.17318538 </v>
   <v>       0.55555556       0.22222222       0.17318538 </v>
   <v>       0.88888889       0.55555556       0.17318538 </v>
   <v>       0.88888889       0.88888889       0.17318538 </v>
   <v>       0.88888889       0.22222222       0.17318538 </v>
   <v>       0.22222222       0.55555556       0.17318538 </v>
   <v>       0.22222222       0.88888889       0.17318538 </v>
   <v>       0.22222222       0.22222222       0.17318538 </v>
   <v>       0.66666667       0.66666667       0.24249888 </v>
   <v>       0.66666667       0.00000000       0.24249888 </v>
   <v>       0.66666667       0.33333333       0.24249888 </v>
   <v>       0.00000000       0.66666667       0.24249888 </v>
   <v>       0.00000000       0.00000000       0.24249888 </v>
   <v>       0.00000000       0.33333333       0.24249888 </v>
   <v>       0.33333333       0.66666667       0.24249888 </v>
   <v>       0.33333333       0.00000000       0.24249888 </v>
   <v>       0.33333333       0.33333333       0.24249888 </v>
   <v>       0.77777778       0.77777778       0.31173066 </v>
   <v>       0.77777778       0.11111111       0.31173066 </v>
   <v>       0.77777778       0.44444444       0.31173066 </v>
   <v>       0.11111111       0.77777778       0.31173066 </v>
   <v>       0.11111111       0.11111111       0.31173066 </v>
   <v>       0.11111111       0.44444444       0.31173066 </v>
   <v>       0.44444444       0.77777778       0.31173066 </v>
   <v>       0.44444444       0.11111111       0.31173066 </v>
   <v>       0.44444444       0.44444444       0.31173066 </v>
   <v>       0.88888889       0.88888889       0.38096243 </v>
   <v>       0.88888889       0.22222222       0.38096243 </v>
   <v>       0.88888889       0.55555556       0.38096243 </v>
   <v>       0.22222222       0.88888889       0.38096243 </v>
   <v>       0.22222222       0.22222222       0.38096243 </v>
   <v>       0.22222222       0.55555556       0.38096243 </v>
   <v>       0.55555556       0.88888889       0.38096243 </v>
   <v>       0.55555556       0.22222222       0.38096243 </v>
   <v>       0.55555556       0.55555556       0.38096243 </v>
   <v>       0.00000000       0.00000000       0.45027593 </v>
   <v>       0.00000000       0.33333333       0.45027593 </v>
   <v>       0.00000000       0.66666667       0.45027593 </v>
   <v>       0.33333333       0.00000000       0.45027593 </v>
   <v>       0.33333333       0.33333333       0.45027593 </v>
   <v>       0.33333333       0.66666667       0.45027593 </v>
   <v>       0.66666667       0.00000000       0.45027593 </v>
   <v>       0.66666667       0.33333333       0.45027593 </v>
   <v>       0.66666667       0.66666667       0.45027593 </v>
   <v>       0.11111111       0.11111111       0.51911624 </v>
   <v>       0.11111111       0.44444444       0.51911624 </v>
   <v>       0.11111111       0.77777778       0.51911624 </v>
   <v>       0.44444444       0.11111111       0.51911624 </v>
   <v>       0.44444444       0.44444444       0.51911624 </v>
   <v>       0.44444444       0.77777778       0.51911624 </v>
   <v>       0.77777778       0.11111111       0.51911624 </v>
   <v>       0.77777778       0.44444444       0.51911624 </v>
   <v>       0.77777778       0.77777778       0.51911624 </v>
   <v>       0.27777778       0.27777778       0.10434507 </v>
   <v>       0.27777778       0.61111111       0.10434507 </v>
   <v>       0.27777778       0.94444444       0.10434507 </v>
   <v>       0.61111111       0.27777778       0.10434507 </v>
   <v>       0.61111111       0.61111111       0.10434507 </v>
   <v>       0.61111111       0.94444444       0.10434507 </v>
   <v>       0.94444444       0.27777778       0.10434507 </v>
   <v>       0.94444444       0.61111111       0.10434507 </v>
   <v>       0.94444444       0.94444444       0.10434507 </v>
   <v>       0.38888889       0.38888889       0.17318538 </v>
   <v>       0.38888889       0.72222222       0.17318538 </v>
   <v>       0.38888889       0.05555556       0.17318538 </v>
   <v>       0.72222222       0.38888889       0.17318538 </v>
   <v>       0.72222222       0.72222222       0.17318538 </v>
   <v>       0.72222222       0.05555556       0.17318538 </v>
   <v>       0.05555556       0.38888889       0.17318538 </v>
   <v>       0.05555556       0.72222222       0.17318538 </v>
   <v>       0.05555556       0.05555556       0.17318538 </v>
   <v>       0.50000000       0.50000000       0.24249888 </v>
   <v>       0.50000000       0.83333333       0.24249888 </v>
   <v>       0.50000000       0.16666667       0.24249888 </v>
   <v>       0.83333333       0.50000000       0.24249888 </v>
   <v>       0.83333333       0.83333333       0.24249888 </v>
   <v>       0.83333333       0.16666667       0.24249888 </v>
   <v>       0.16666667       0.50000000       0.24249888 </v>
   <v>       0.16666667       0.83333333       0.24249888 </v>
   <v>       0.16666667       0.16666667       0.24249888 </v>
   <v>       0.61111111       0.61111111       0.31173066 </v>
   <v>       0.61111111       0.94444444       0.31173066 </v>
   <v>       0.61111111       0.27777778       0.31173066 </v>
   <v>       0.94444444       0.61111111       0.31173066 </v>
   <v>       0.94444444       0.94444444       0.31173066 </v>
   <v>       0.94444444       0.27777778       0.31173066 </v>
   <v>       0.27777778       0.61111111       0.31173066 </v>
   <v>       0.27777778       0.94444444       0.31173066 </v>
   <v>       0.27777778       0.27777778       0.31173066 </v>
   <v>       0.72222222       0.72222222       0.38096243 </v>
   <v>       0.72222222       0.05555556       0.38096243 </v>
   <v>       0.72222222       0.38888889       0.38096243 </v>
   <v>       0.05555556       0.72222222       0.38096243 </v>
   <v>       0.05555556       0.05555556       0.38096243 </v>
   <v>       0.05555556       0.38888889       0.38096243 </v>
   <v>       0.38888889       0.72222222       0.38096243 </v>
   <v>       0.38888889       0.05555556       0.38096243 </v>
   <v>       0.38888889       0.38888889       0.38096243 </v>
   <v>       0.83333333       0.83333333       0.45027593 </v>
   <v>       0.83333333       0.16666667       0.45027593 </v>
   <v>       0.83333333       0.50000000       0.45027593 </v>
   <v>       0.16666667       0.83333333       0.45027593 </v>
   <v>       0.16666667       0.16666667       0.45027593 </v>
   <v>       0.16666667       0.50000000       0.45027593 </v>
   <v>       0.50000000       0.83333333       0.45027593 </v>
   <v>       0.50000000       0.16666667       0.45027593 </v>
   <v>       0.50000000       0.50000000       0.45027593 </v>
   <v>       0.94444444       0.94444444       0.51911624 </v>
   <v>       0.94444444       0.27777778       0.51911624 </v>
   <v>       0.94444444       0.61111111       0.51911624 </v>
   <v>       0.27777778       0.94444444       0.51911624 </v>
   <v>       0.27777778       0.27777778       0.51911624 </v>
   <v>       0.27777778       0.61111111       0.51911624 </v>
   <v>       0.61111111       0.94444444       0.51911624 </v>
   <v>       0.61111111       0.27777778       0.51911624 </v>
   <v>       0.61111111       0.61111111       0.51911624 </v>
   <v>       0.27777778       0.44444444       0.10434507 </v>
   <v>       0.27777778       0.77777778       0.10434507 </v>
   <v>       0.27777778       0.11111111       0.10434507 </v>
   <v>       0.61111111       0.44444444       0.10434507 </v>
   <v>       0.61111111       0.77777778       0.10434507 </v>
   <v>       0.61111111       0.11111111       0.10434507 </v>
   <v>       0.94444444       0.44444444       0.10434507 </v>
   <v>       0.94444444       0.77777778       0.10434507 </v>
   <v>       0.94444444       0.11111111       0.10434507 </v>
   <v>       0.38888889       0.55555556       0.17318538 </v>
   <v>       0.38888889       0.88888889       0.17318538 </v>
   <v>       0.38888889       0.22222222       0.17318538 </v>
   <v>       0.72222222       0.55555556       0.17318538 </v>
   <v>       0.72222222       0.88888889       0.17318538 </v>
   <v>       0.72222222       0.22222222       0.17318538 </v>
   <v>       0.05555556       0.55555556       0.17318538 </v>
   <v>       0.05555556       0.88888889       0.17318538 </v>
   <v>       0.05555556       0.22222222       0.17318538 </v>
   <v>       0.50000000       0.66666667       0.24249888 </v>
   <v>       0.50000000       0.00000000       0.24249888 </v>
   <v>       0.50000000       0.33333333       0.24249888 </v>
   <v>       0.83333333       0.66666667       0.24249888 </v>
   <v>       0.83333333       0.00000000       0.24249888 </v>
   <v>       0.83333333       0.33333333       0.24249888 </v>
   <v>       0.16666667       0.66666667       0.24249888 </v>
   <v>       0.16666667       0.00000000       0.24249888 </v>
   <v>       0.16666667       0.33333333       0.24249888 </v>
   <v>       0.61111111       0.77777778       0.31173066 </v>
   <v>       0.61111111       0.11111111       0.31173066 </v>
   <v>       0.61111111       0.44444444       0.31173066 </v>
   <v>       0.94444444       0.77777778       0.31173066 </v>
   <v>       0.94444444       0.11111111       0.31173066 </v>
   <v>       0.94444444       0.44444444       0.31173066 </v>
   <v>       0.27777778       0.77777778       0.31173066 </v>
   <v>       0.27777778       0.11111111       0.31173066 </v>
   <v>       0.27777778       0.44444444       0.31173066 </v>
   <v>       0.72222222       0.88888889       0.38096243 </v>
   <v>       0.72222222       0.22222222       0.38096243 </v>
   <v>       0.72222222       0.55555556       0.38096243 </v>
   <v>       0.05555556       0.88888889       0.38096243 </v>
   <v>       0.05555556       0.22222222       0.38096243 </v>
   <v>       0.05555556       0.55555556       0.38096243 </v>
   <v>       0.38888889       0.88888889       0.38096243 </v>
   <v>       0.38888889       0.22222222       0.38096243 </v>
   <v>       0.38888889       0.55555556       0.38096243 </v>
   <v>       0.83333333       0.00000000       0.45027593 </v>
   <v>       0.83333333       0.33333333       0.45027593 </v>
   <v>       0.83333333       0.66666667       0.45027593 </v>
   <v>       0.16666667       0.00000000       0.45027593 </v>
   <v>       0.16666667       0.33333333       0.45027593 </v>
   <v>       0.16666667       0.66666667       0.45027593 </v>
   <v>       0.50000000       0.00000000       0.45027593 </v>
   <v>       0.50000000       0.33333333       0.45027593 </v>
   <v>       0.50000000       0.66666667       0.45027593 </v>
   <v>       0.94444444       0.11111111       0.51911624 </v>
   <v>       0.94444444       0.44444444       0.51911624 </v>
   <v>       0.94444444       0.77777778       0.51911624 </v>
   <v>       0.27777778       0.11111111       0.51911624 </v>
   <v>       0.27777778       0.44444444       0.51911624 </v>
   <v>       0.27777778       0.77777778       0.51911624 </v>
   <v>       0.61111111       0.11111111       0.51911624 </v>
   <v>       0.61111111       0.44444444       0.51911624 </v>
   <v>       0.61111111       0.77777778       0.51911624 </v>
   <v>       0.44444444       0.27777778       0.10434507 </v>
   <v>       0.44444444       0.61111111       0.10434507 </v>
   <v>       0.44444444       0.94444444       0.10434507 </v>
   <v>       0.77777778       0.27777778       0.10434507 </v>
   <v>       0.77777778       0.61111111       0.10434507 </v>
   <v>       0.77777778       0.94444444       0.10434507 </v>
   <v>       0.11111111       0.27777778       0.10434507 </v>
   <v>       0.11111111       0.61111111       0.10434507 </v>
   <v>       0.11111111       0.94444444       0.10434507 </v>
   <v>       0.55555556       0.38888889       0.17318538 </v>
   <v>       0.55555556       0.72222222       0.17318538 </v>
   <v>       0.55555556       0.05555556       0.17318538 </v>
   <v>       0.88888889       0.38888889       0.17318538 </v>
   <v>       0.88888889       0.72222222       0.17318538 </v>
   <v>       0.88888889       0.05555556       0.17318538 </v>
   <v>       0.22222222       0.38888889       0.17318538 </v>
   <v>       0.22222222       0.72222222       0.17318538 </v>
   <v>       0.22222222       0.05555556       0.17318538 </v>
   <v>       0.66666667       0.50000000       0.24249888 </v>
   <v>       0.66666667       0.83333333       0.24249888 </v>
   <v>       0.66666667       0.16666667       0.24249888 </v>
   <v>       0.00000000       0.50000000       0.24249888 </v>
   <v>       0.00000000       0.83333333       0.24249888 </v>
   <v>       0.00000000       0.16666667       0.24249888 </v>
   <v>       0.33333333       0.50000000       0.24249888 </v>
   <v>       0.33333333       0.83333333       0.24249888 </v>
   <v>       0.33333333       0.16666667       0.24249888 </v>
   <v>       0.77777778       0.61111111       0.31173066 </v>
   <v>       0.77777778       0.94444444       0.31173066 </v>
   <v>       0.77777778       0.27777778       0.31173066 </v>
   <v>       0.11111111       0.61111111       0.31173066 </v>
   <v>       0.11111111       0.94444444       0.31173066 </v>
   <v>       0.11111111       0.27777778       0.31173066 </v>
   <v>       0.44444444       0.61111111       0.31173066 </v>
   <v>       0.44444444       0.94444444       0.31173066 </v>
   <v>       0.44444444       0.27777778       0.31173066 </v>
   <v>       0.88888889       0.72222222       0.38096243 </v>
   <v>       0.88888889       0.05555556       0.38096243 </v>
   <v>       0.88888889       0.38888889       0.38096243 </v>
   <v>       0.22222222       0.72222222       0.38096243 </v>
   <v>       0.22222222       0.05555556       0.38096243 </v>
   <v>       0.22222222       0.38888889       0.38096243 </v>
   <v>       0.55555556       0.72222222       0.38096243 </v>
   <v>       0.55555556       0.05555556       0.38096243 </v>
   <v>       0.55555556       0.38888889       0.38096243 </v>
   <v>       0.00000000       0.83333333       0.45027593 </v>
   <v>       0.00000000       0.16666667       0.45027593 </v>
   <v>       0.00000000       0.50000000       0.45027593 </v>
   <v>       0.33333333       0.83333333       0.45027593 </v>
   <v>       0.33333333       0.16666667       0.45027593 </v>
   <v>       0.33333333       0.50000000       0.45027593 </v>
   <v>       0.66666667       0.83333333       0.45027593 </v>
   <v>       0.66666667       0.16666667       0.45027593 </v>
   <v>       0.66666667       0.50000000       0.45027593 </v>
   <v>       0.11111111       0.94444444       0.51911624 </v>
   <v>       0.11111111       0.27777778       0.51911624 </v>
   <v>       0.11111111       0.61111111       0.51911624 </v>
   <v>       0.44444444       0.94444444       0.51911624 </v>
   <v>       0.44444444       0.27777778       0.51911624 </v>
   <v>       0.44444444       0.61111111       0.51911624 </v>
   <v>       0.77777778       0.94444444       0.51911624 </v>
   <v>       0.77777778       0.27777778       0.51911624 </v>
   <v>       0.77777778       0.61111111       0.51911624 </v>
   <v>       0.38888889       0.55555556       0.47000000 </v>
  </varray>
 </structure>
 <calculation>
  <scstep>
   <time name="dav">   16.26   16.26</time>
   <time name="total">   16.84   16.86</time>
   <energy>
    <i name="alphaZ">  11956.15812075 </i>
    <i name="ewald">1667338.79547891 </i>
    <i name="hartreedc">**************** </i>
    <i name="XCdc">   2926.20183054 </i>
    <i name="pawpsdc"> 240296.40052760 </i>
    <i name="pawaedc">-259856.80369814 </i>
    <i name="eentropy">     -0.19748493 </i>
    <i name="bandstr">  18893.50013627 </i>
    <i name="atom"> 271991.82707245 </i>
    <i name="e_fr_energy">  22309.30423396 </i>
    <i name="e_wo_entrp">  22309.50171889 </i>
    <i name="e_0_energy">  22309.40297643 </i>
   </energy>
  </scstep>
  <scstep>
   <time name="dav">   16.19   16.19</time>
   <time name="total">   16.19   16.19</time>
   <energy>
    <i name="e_fr_energy">     96.07701630 </i>
    <i name="e_wo_entrp">     96.29831690 </i>
    <i name="e_0_energy">     96.18766660 </i>
   </energy>
  </scstep>
  <scstep>
   <time name="dav">   17.76   17.77</time>
   <time name="total">   17.77   17.77</time>
   <energy>
    <i name="e_fr_energy">  -1333.55479350 </i>
    <i name="e_wo_entrp">  -1332.75839288 </i>
    <i name="e_0_energy">  -1333.15659319 </i>
   </energy>
  </scstep>
  <scstep>
   <time name="dav">   26.05   26.06</time>
   <time name="total">   26.06   26.06</time>
   <energy>
    <i name="e_fr_energy">  -1550.44245550 </i>
    <i name="e_wo_entrp">  -1549.27257281 </i>
    <i name="e_0_energy">  -1549.85751415 </i>
   </energy>
  </scstep>
  <scstep>
   <time name="dav">   23.07   23.07</time>
   <time name="total">   24.13   24.14</time>
   <energy>
    <i name="e_fr_energy">  -1560.66564317 </i>
    <i name="e_wo_entrp">  -1559.47357852 </i>
    <i name="e_0_energy">  -1560.06961084 </i>
   </energy>
  </scstep>
  <scstep>
   <time name="dav">   20.27   20.28</time>
   <time name="total">   21.91   21.92</time>
   <energy>
    <i name="e_fr_energy">  -1941.14194649 </i>
    <i name="e_wo_entrp">  -1940.70179565 </i>
    <i name="e_0_energy">  -1940.92187107 </i>
   </energy>
  </scstep>
  <scstep>
   <time name="dav">   17.20   17.20</time>
   <time name="total">   18.82   18.83</time>
   <energy>
    <i name="e_fr_energy">  -1710.93461215 </i>
    <i name="e_wo_entrp">  -1710.27831488 </i>
    <i name="e_0_energy">  -1710.60646352 </i>
   </energy>
  </scstep>
  <scstep>
   <time name="dav">   20.37   20.37</time>
   <time name="total">   21.97   21.98</time>
   <energy>
    <i name="e_fr_energy">  -2087.98417916 </i>
    <i name="e_wo_entrp">  -2087.63122845 </i>
    <i name="e_0_energy">  -2087.80770380 </i>
   </energy>
  </scstep>
  <scstep>
   <time name="dav">   17.38   17.39</time>
   <time name="total">   19.01   19.01</time>
   <energy>
    <i name="e_fr_energy">  -1898.52069797 </i>
    <i name="e_wo_entrp">  -1898.24966755 </i>
    <i name="e_0_energy">  -1898.38518276 </i>
   </energy>
  </scstep>
  <scstep>
   <time name="dav">   21.68   21.69</time>
   <time name="total">   23.30   23.30</time>
   <energy>
    <i name="e_fr_energy">  -1669.41142947 </i>
    <i name="e_wo_entrp">  -1669.03950561 </i>
    <i name="e_0_energy">  -1669.22546754 </i>
   </energy>
  </scstep>
  <scstep>
   <time name="dav">   17.17   17.17</time>
   <time name="total">   18.82   18.82</time>
   <energy>
    <i name="e_fr_energy">  -1514.15738024 </i>
    <i name="e_wo_entrp">  -1513.82356454 </i>
    <i name="e_0_energy">  -1513.99047239 </i>
   </energy>
  </scstep>
  <scstep>
   <time name="dav">   19.88   19.88</time>
   <time name="total">   21.53   21.53</time>
   <energy>
    <i name="e_fr_energy">  -1548.53656608 </i>
    <i name="e_wo_entrp">  -1548.13093738 </i>
    <i name="e_0_energy">  -1548.33375173 </i>
   </energy>
  </scstep>
  <scstep>
   <time name="dav">   17.22   17.22</time>
   <time name="total">   18.90   18.90</time>
   <energy>
    <i name="e_fr_energy">  -1512.16292997 </i>
    <i name="e_wo_entrp">  -1511.49179991 </i>
    <i name="e_0_energy">  -1511.82736494 </i>
   </energy>
  </scstep>
  <scstep>
   <time name="dav">   16.95   16.95</time>
   <time name="total">   18.62   18.62</time>
   <energy>
    <i name="e_fr_energy">  -1487.37325792 </i>
    <i name="e_wo_entrp">  -1486.95151511 </i>
    <i name="e_0_energy">  -1487.16238652 </i>
   </energy>
  </scstep>
  <scstep>
   <time name="dav">   17.03   17.04</time>
   <time name="total">   18.71   18.71</time>
   <energy>
    <i name="e_fr_energy">  -1487.50962174 </i>
    <i name="e_wo_entrp">  -1486.93867112 </i>
    <i name="e_0_energy">  -1487.22414643 </i>
   </energy>
  </scstep>
  <scstep>
   <time name="dav">   17.02   17.03</time>
   <time name="total">   18.71   18.72</time>
   <energy>
    <i name="e_fr_energy">  -1470.34201629 </i>
    <i name="e_wo_entrp">  -1469.82494009 </i>
    <i name="e_0_energy">  -1470.08347819 </i>
   </energy>
  </scstep>
  <scstep>
   <time name="dav">   17.56   17.56</time>
   <time name="total">   19.26   19.27</time>
   <energy>
    <i name="e_fr_energy">  -1431.85346612 </i>
    <i name="e_wo_entrp">  -1431.36957135 </i>
    <i name="e_0_energy">  -1431.61151874 </i>
   </energy>
  </scstep>
  <scstep>
   <time name="dav">   17.39   17.39</time>
   <time name="total">   19.10   19.10</time>
   <energy>
    <i name="e_fr_energy">  -1410.99443489 </i>
    <i name="e_wo_entrp">  -1410.45479260 </i>
    <i name="e_0_energy">  -1410.72461374 </i>
   </energy>
  </scstep>
  <scstep>
   <time name="dav">   16.86   16.87</time>
   <time name="total">   18.59   18.59</time>
   <energy>
    <i name="e_fr_energy">  -1403.86666843 </i>
    <i name="e_wo_entrp">  -1403.34457792 </i>
    <i name="e_0_energy">  -1403.60562318 </i>
   </energy>
  </scstep>
  <scstep>
   <time name="dav">   17.80   17.80</time>
   <time name="total">   19.52   19.52</time>
   <energy>
    <i name="e_fr_energy">  -1398.08216673 </i>
    <i name="e_wo_entrp">  -1397.52696491 </i>
    <i name="e_0_energy">  -1397.80456582 </i>
   </energy>
  </scstep>
  <scstep>
   <time name="dav">   16.87   16.87</time>
   <time name="total">   18.62   18.62</time>
   <energy>
    <i name="e_fr_energy">  -1364.13060301 </i>
    <i name="e_wo_entrp">  -1363.46681482 </i>
    <i name="e_0_energy">  -1363.79870892 </i>
   </energy>
  </scstep>
  <scstep>
   <time name="dav">   16.94   16.94</time>
   <time name="total">   18.69   18.69</time>
   <energy>
    <i name="e_fr_energy">  -1341.74128114 </i>
    <i name="e_wo_entrp">  -1340.77542981 </i>
    <i name="e_0_energy">  -1341.25835548 </i>
   </energy>
  </scstep>
  <scstep>
   <time name="dav">   17.11   17.11</time>
   <time name="total">   18.89   18.89</time>
   <energy>
    <i name="e_fr_energy">  -1334.95137378 </i>
    <i name="e_wo_entrp">  -1333.89433123 </i>
    <i name="e_0_energy">  -1334.42285250 </i>
   </energy>
  </scstep>
  <scstep>
   <time name="dav">   17.25   17.25</time>
   <time name="total">   19.03   19.03</time>
   <energy>
    <i name="e_fr_energy">  -1334.08331491 </i>
    <i name="e_wo_entrp">  -1333.18619402 </i>
    <i name="e_0_energy">  -1333.63475446 </i>
   </energy>
  </scstep>
  <scstep>
   <time name="dav">   17.25   17.25</time>
   <time name="total">   19.05   19.05</time>
   <energy>
    <i name="e_fr_energy">  -1331.06743891 </i>
    <i name="e_wo_entrp">  -1330.07782104 </i>
    <i name="e_0_energy">  -1330.57262998 </i>
   </energy>
  </scstep>
  <scstep>
   <time name="dav">   17.25   17.25</time>
   <time name="total">   19.05   19.05</time>
   <energy>
    <i name="e_fr_energy">  -1325.20986221 </i>
    <i name="e_wo_entrp">  -1323.97823261 </i>
    <i name="e_0_energy">  -1324.59404741 </i>
   </energy>
  </scstep>
  <scstep>
   <time name="dav">   17.21   17.21</time>
   <time name="total">   19.04   19.05</time>
   <energy>
    <i name="e_fr_energy">  -1322.92353240 </i>
    <i name="e_wo_entrp">  -1321.63045972 </i>
    <i name="e_0_energy">  -1322.27699606 </i>
   </energy>
  </scstep>
  <scstep>
   <time name="dav">   17.49   17.49</time>
   <time name="total">   19.34   19.34</time>
   <energy>
    <i name="e_fr_energy">  -1321.81407217 </i>
    <i name="e_wo_entrp">  -1320.48537036 </i>
    <i name="e_0_energy">  -1321.14972127 </i>
   </energy>
  </scstep>
  <scstep>
   <time name="dav">   17.31   17.31</time>
   <time name="total">   19.17   19.17</time>
   <energy>
    <i name="e_fr_energy">  -1321.26143024 </i>
    <i name="e_wo_entrp">  -1319.92261306 </i>
    <i name="e_0_energy">  -1320.59202165 </i>
   </energy>
  </scstep>
  <scstep>
   <time name="dav">   17.52   17.52</time>
   <time name="total">   19.40   19.40</time>
   <energy>
    <i name="e_fr_energy">  -1321.50365679 </i>
    <i name="e_wo_entrp">  -1320.17123069 </i>
    <i name="e_0_energy">  -1320.83744374 </i>
   </energy>
  </scstep>
  <scstep>
   <time name="dav">   17.52   17.52</time>
   <time name="total">   19.41   19.41</time>
   <energy>
    <i name="e_fr_energy">  -1322.16461207 </i>
    <i name="e_wo_entrp">  -1320.86182684 </i>
    <i name="e_0_energy">  -1321.51321946 </i>
   </energy>
  </scstep>
  <scstep>
   <time name="dav">   17.53   17.53</time>
   <time name="total">   19.46   19.46</time>
   <energy>
    <i name="e_fr_energy">  -1321.57197976 </i>
    <i name="e_wo_entrp">  -1320.27469032 </i>
    <i name="e_0_energy">  -1320.92333504 </i>
   </energy>
  </scstep>
  <scstep>
   <time name="dav">   17.70   17.70</time>
   <time name="total">   19.63   19.63</time>
   <energy>
    <i name="e_fr_energy">  -1321.55024518 </i>
    <i name="e_wo_entrp">  -1320.27881544 </i>
[...]
       <r>    -0.0982   180.1841  2686.8475 </r>
       <r>    -0.0074   145.2625  2700.0361 </r>
       <r>     0.0834    96.9385  2708.8372 </r>
       <r>     0.1742    43.7770  2712.8118 </r>
       <r>     0.2649    67.3921  2718.9304 </r>
       <r>     0.3557    51.5308  2723.6089 </r>
       <r>     0.4465    81.4834  2731.0069 </r>
       <r>     0.5373   101.3947  2740.2126 </r>
       <r>     0.6281    73.6943  2746.9034 </r>
       <r>     0.7189   104.0710  2756.3522 </r>
       <r>     0.8097   103.3766  2765.7378 </r>
       <r>     0.9005    95.9846  2774.4524 </r>
       <r>     0.9913   141.0576  2787.2592 </r>
       <r>     1.0821    59.9674  2792.7037 </r>
       <r>     1.1729    36.1106  2795.9822 </r>
       <r>     1.2636    70.9686  2802.4255 </r>
       <r>     1.3544   111.5125  2812.5499 </r>
       <r>     1.4452    42.3370  2816.3937 </r>
       <r>     1.5360    31.2871  2819.2343 </r>
       <r>     1.6268    66.0008  2825.2266 </r>
       <r>     1.7176   146.3215  2838.5113 </r>
       <r>     1.8084    53.4702  2843.3659 </r>
       <r>     1.8992    62.7091  2849.0594 </r>
       <r>     1.9900    97.3521  2857.8981 </r>
       <r>     2.0808    82.7256  2865.4088 </r>
       <r>     2.1716    64.1247  2871.2308 </r>
       <r>     2.2623    81.1286  2878.5965 </r>
       <r>     2.3531   123.8594  2889.8419 </r>
       <r>     2.4439    80.5203  2897.1524 </r>
       <r>     2.5347    70.3170  2903.5366 </r>
       <r>     2.6255    39.2399  2907.0992 </r>
       <r>     2.7163    15.1589  2908.4755 </r>
       <r>     2.8071    37.6215  2911.8912 </r>
       <r>     2.8979    32.9401  2914.8819 </r>
       <r>     2.9887    57.8031  2920.1299 </r>
       <r>     3.0795   121.6949  2931.1787 </r>
       <r>     3.1703   181.8654  2947.6905 </r>
       <r>     3.2611    65.0824  2953.5994 </r>
       <r>     3.3518    47.8985  2957.9481 </r>
       <r>     3.4426    42.4223  2961.7997 </r>
       <r>     3.5334    92.4131  2970.1900 </r>
       <r>     3.6242    53.2682  2975.0263 </r>
       <r>     3.7150    62.2194  2980.6753 </r>
       <r>     3.8058    53.7818  2985.5582 </r>
       <r>     3.8966    25.7196  2987.8933 </r>
       <r>     3.9874     2.0880  2988.0829 </r>
       <r>     4.0782    23.2165  2990.1907 </r>
       <r>     4.1690    43.8471  2994.1716 </r>
       <r>     4.2598    79.5172  3001.3911 </r>
       <r>     4.3505    52.2633  3006.1361 </r>
       <r>     4.4413    82.4567  3013.6225 </r>
       <r>     4.5321    22.1657  3015.6349 </r>
       <r>     4.6229    52.7819  3020.4271 </r>
       <r>     4.7137    61.9474  3026.0513 </r>
       <r>     4.8045    41.3520  3029.8057 </r>
       <r>     4.8953     2.1392  3030.0000 </r>
       <r>     4.9861     0.0005  3030.0000 </r>
       <r>     5.0769     0.0000  3030.0000 </r>
       <r>     5.1677     0.0000  3030.0000 </r>
       <r>     5.2585     0.0000  3030.0000 </r>
       <r>     5.3492     0.0000  3030.0000 </r>
       <r>     5.4400     0.0000  3030.0000 </r>
       <r>     5.5308     0.0000  3030.0000 </r>
       <r>     5.6216     0.0000  3030.0000 </r>
       <r>     5.7124     0.0000  3030.0000 </r>
       <r>     5.8032     0.0000  3030.0000 </r>
       <r>     5.8940     0.0000  3030.0000 </r>
       <r>     5.9848     0.0000  3030.0000 </r>
      </set>
     </set>
    </array>
   </total>
  </dos>
 </calculation>
 <structure name="finalpos" >
  <crystal>
   <varray name="basis" >
    <v>       0.00000000     -15.14622176       0.00000000 </v>
    <v>       0.00000000      -7.57311088     -13.11701281 </v>
    <v>      29.00000000       0.00000000       0.00000000 </v>
   </varray>
   <i name="volume">   5761.52236213 </i>
   <varray name="rec_basis" >
    <v>       0.00000000      -0.06602307       0.03811843 </v>
    <v>       0.00000000       0.00000000      -0.07623687 </v>
    <v>       0.03448276       0.00000000       0.00000000 </v>
   </varray>
  </crystal>
  <varray name="positions" >
   <v>       0.44448007       0.44437319       0.10802442 </v>
   <v>       0.44444566       0.77778051       0.10795550 </v>
   <v>       0.44432334       0.11122271       0.10787113 </v>
   <v>       0.77783380       0.44436727       0.10794512 </v>
   <v>       0.77780767       0.77771800       0.10781580 </v>
   <v>       0.77778729       0.11122271       0.10787113 </v>
   <v>       0.11113226       0.44436727       0.10794512 </v>
   <v>       0.11110716       0.77778051       0.10795550 </v>
   <v>       0.11108420       0.11116492       0.10791098 </v>
   <v>       0.55556360       0.55556686       0.17609267 </v>
   <v>       0.55551387       0.88880371       0.17584730 </v>
   <v>       0.55552872       0.22227589       0.17602723 </v>
   <v>       0.88894225       0.55544883       0.17591307 </v>
   <v>       0.88901575       0.88880371       0.17584730 </v>
   <v>       0.88891008       0.22230546       0.17603677 </v>
   <v>       0.22220288       0.55556686       0.17609267 </v>
   <v>       0.22222156       0.88889022       0.17610009 </v>
   <v>       0.22211779       0.22230546       0.17603677 </v>
   <v>       0.66664734       0.66676589       0.24365993 </v>
   <v>       0.66668378      -0.00003423       0.24354543 </v>
   <v>       0.66663337       0.33334669       0.24378239 </v>
   <v>      -0.00007989       0.66676589       0.24365993 </v>
   <v>      -0.00006458      -0.00002502       0.24366541 </v>
   <v>      -0.00000129       0.33333591       0.24374601 </v>
   <v>       0.33331544       0.66670246       0.24380038 </v>
   <v>       0.33342294      -0.00002502       0.24366541 </v>
   <v>       0.33335328       0.33334669       0.24378239 </v>
   <v>       0.77775809       0.77781715       0.31127989 </v>
   <v>       0.77773977       0.11106020       0.31128952 </v>
   <v>       0.77787796       0.44436921       0.31135493 </v>
   <v>       0.11114956       0.77777096       0.31140446 </v>
   <v>       0.11107203       0.11118928       0.31141359 </v>
   <v>       0.11108617       0.44436921       0.31135493 </v>
   <v>       0.44441282       0.77777096       0.31140446 </v>
   <v>       0.44453336       0.11106020       0.31128952 </v>
   <v>       0.44442126       0.44449081       0.31154556 </v>
   <v>       0.88909956       0.88870639       0.37893903 </v>
   <v>       0.88892686       0.22219505       0.37903496 </v>
   <v>       0.88884015       0.55565304       0.37891940 </v>
   <v>       0.22219269       0.88894795       0.37901328 </v>
   <v>       0.22221143       0.22219505       0.37903496 </v>
   <v>       0.22227863       0.55566266       0.37928248 </v>
   <v>       0.55552739       0.88870639       0.37893903 </v>
   <v>       0.55539554       0.22254226       0.37900928 </v>
   <v>       0.55539204       0.55566266       0.37928248 </v>
   <v>      -0.00026070       0.00003321       0.44658945 </v>
   <v>       0.00003262       0.33326810       0.44681854 </v>
   <v>       0.00039860       0.66666665       0.44658697 </v>
   <v>       0.33356082       0.00003321       0.44658945 </v>
   <v>       0.33339502       0.33292735       0.44660865 </v>
   <v>       0.33323509       0.66686316       0.44740028 </v>
   <v>       0.66662821       0.00007692       0.44664615 </v>
   <v>       0.66701096       0.33292735       0.44660865 </v>
   <v>       0.66626808       0.66666665       0.44658697 </v>
   <v>       0.11094854       0.11143626       0.51498471 </v>
   <v>       0.11006330       0.44430864       0.51468232 </v>
   <v>       0.11004617       0.77883614       0.51469538 </v>
   <v>       0.44472642       0.11055974       0.51459144 </v>
   <v>       0.44597799       0.44137735       0.51830491 </v>
   <v>       0.44445103       0.77883614       0.51469538 </v>
   <v>       0.77804717       0.11055974       0.51459144 </v>
   <v>       0.77896139       0.44430864       0.51468232 </v>
   <v>       0.77771922       0.77789489       0.51468458 </v>
   <v>       0.27770060       0.27779893       0.10794512 </v>
   <v>       0.27770652       0.61114674       0.10802442 </v>
   <v>       0.27770060       0.94450047       0.10794512 </v>
   <v>       0.61111384       0.27777383       0.10795550 </v>
   <v>       0.61111384       0.61111233       0.10795550 </v>
   <v>       0.61105134       0.94447433       0.10781580 </v>
   <v>       0.94449826       0.27775087       0.10791098 </v>
   <v>       0.94455604       0.61099000       0.10787113 </v>
   <v>       0.94455604       0.94445395       0.10787113 </v>
   <v>       0.38890019       0.38886954       0.17609267 </v>
   <v>       0.38890019       0.72223026       0.17609267 </v>
   <v>       0.38878216       0.05560892       0.17591307 </v>
   <v>       0.72222355       0.38888823       0.17610009 </v>
   <v>       0.72213705       0.72218053       0.17584730 </v>
   <v>       0.72213705       0.05568242       0.17584730 </v>
   <v>       0.05563880       0.38878446       0.17603677 </v>
   <v>       0.05560922       0.72219539       0.17602723 </v>
   <v>       0.05563880       0.05557674       0.17603677 </v>
   <v>       0.50003579       0.49998211       0.24380038 </v>
   <v>       0.50009922       0.83331400       0.24365993 </v>
   <v>       0.50009922       0.16658677       0.24365993 </v>
   <v>       0.83330831       0.50008960       0.24366541 </v>
   <v>       0.83329911       0.83335045       0.24354543 </v>
   <v>       0.83330831       0.16660209       0.24366541 </v>
   <v>       0.16668002       0.50001995       0.24378239 </v>
   <v>       0.16668002       0.83330003       0.24378239 </v>
   <v>       0.16666925       0.16666538       0.24374601 </v>
   <v>       0.61110429       0.61107949       0.31140446 </v>
   <v>       0.61115048       0.94442476       0.31127989 </v>
   <v>       0.61110429       0.27781622       0.31140446 </v>
   <v>       0.94439354       0.61120002       0.31128952 </v>
   <v>       0.94439354       0.94440644       0.31128952 </v>
   <v>       0.94452261       0.27773869       0.31141359 </v>
   <v>       0.27782415       0.61108793       0.31154556 </v>
   <v>       0.27770254       0.94454462       0.31135493 </v>
   <v>       0.27770254       0.27775283       0.31135493 </v>
   <v>       0.72203972       0.72219405       0.37893903 </v>
   <v>       0.72203972       0.05576623       0.37893903 </v>
   <v>       0.72228129       0.38885936       0.37901328 </v>
   <v>       0.05587559       0.72206221       0.37900928 </v>
   <v>       0.05552838       0.05559352       0.37903496 </v>
   <v>       0.05552838       0.38887809       0.37903496 </v>
   <v>       0.38899600       0.72205871       0.37928248 </v>
   <v>       0.38898637       0.05550681       0.37891940 </v>
   <v>       0.38899600       0.38894529       0.37928248 </v>
   <v>       0.83341025       0.83329487       0.44664615 </v>
   <v>       0.83336654       0.16640597       0.44658945 </v>
   <v>       0.83336654       0.50022749       0.44658945 </v>
   <v>       0.16626069       0.83367762       0.44660865 </v>
   <v>       0.16660143       0.16669928       0.44681854 </v>
   <v>       0.16626069       0.50006169       0.44660865 </v>
   <v>       0.49999998       0.83293475       0.44658697 </v>
   <v>       0.49999998       0.16706527       0.44658697 </v>
   <v>       0.50019650       0.49990175       0.44740028 </v>
   <v>       0.94389308       0.94471384       0.51459144 </v>
   <v>       0.94476959       0.27761521       0.51498471 </v>
   <v>       0.94389308       0.61139309       0.51459144 </v>
   <v>       0.27764197       0.94562806       0.51468232 </v>
   <v>       0.27764197       0.27672997       0.51468232 </v>
   <v>       0.27471068       0.61264466       0.51830491 </v>
   <v>       0.61122822       0.94438589       0.51468458 </v>
   <v>       0.61216947       0.27671284       0.51469538 </v>
   <v>       0.61216947       0.61111769       0.51469538 </v>
   <v>       0.27776553       0.44443220       0.10802975 </v>
   <v>       0.27776553       0.77780227       0.10802975 </v>
   <v>       0.27763773       0.11118113       0.10795618 </v>
   <v>       0.61113560       0.44443220       0.10802975 </v>
   <v>       0.61106790       0.77773457       0.10778585 </v>
   <v>       0.61106790       0.11119753       0.10778585 </v>
   <v>       0.94451447       0.44430440       0.10795618 </v>
   <v>       0.94453086       0.77773457       0.10778585 </v>
   <v>       0.94451447       0.11118113       0.10795618 </v>
   <v>       0.38888889       0.55555556       0.17604778 </v>
   <v>       0.38880930       0.88889692       0.17600287 </v>
   <v>       0.38880930       0.22229379       0.17600287 </v>
   <v>       0.72223025       0.55547596       0.17600287 </v>
   <v>       0.72222222       0.88888889       0.17580878 </v>
   <v>       0.72223025       0.22229379       0.17600287 </v>
   <v>       0.05562712       0.55547596       0.17600287 </v>
   <v>       0.05562712       0.88889692       0.17600287 </v>
   <v>       0.05555556       0.22222222       0.17601181 </v>
   <v>       0.49998125       0.66664792       0.24380185 </v>
   <v>       0.50011329      -0.00005664       0.24356255 </v>
   <v>       0.49998125       0.33337083       0.24380185 </v>
   <v>       0.83327669       0.66677996       0.24356255 </v>
   <v>       0.83327669      -0.00005664       0.24356255 </v>
   <v>       0.83331769       0.33334115       0.24376211 </v>
   <v>       0.16670416       0.66664792       0.24380185 </v>
   <v>       0.16667449      -0.00001564       0.24376211 </v>
   <v>       0.16667449       0.33334115       0.24376211 </v>
   <v>       0.61111978       0.77778645       0.31123790 </v>
   <v>       0.61111978       0.11109377       0.31123790 </v>
   <v>       0.61108805       0.44445598       0.31151505 </v>
   <v>       0.94442710       0.77778645       0.31123790 </v>
   <v>       0.94445889       0.11112556       0.31136014 </v>
   <v>       0.94445889       0.44441555       0.31136014 </v>
   <v>       0.27778931       0.77775471       0.31151505 </v>
   <v>       0.27774889       0.11112556       0.31136014 </v>
   <v>       0.27778931       0.44445598       0.31151505 </v>
   <v>       0.72222222       0.88888889       0.37898936 </v>
   <v>       0.72220315       0.22225195       0.37892269 </v>
   <v>       0.72220315       0.55554489       0.37892269 </v>
   <v>       0.05558529       0.88886982       0.37892269 </v>
   <v>       0.05555556       0.22222222       0.37907941 </v>
   <v>       0.05558529       0.55554489       0.37892269 </v>
   <v>       0.38887823       0.88886982       0.37892269 </v>
   <v>       0.38887823       0.22225195       0.37892269 </v>
   <v>       0.38888889       0.55555556       0.37962767 </v>
   <v>       0.83315446      -0.00017887       0.44649458 </v>
   <v>       0.83356049       0.33321975       0.44672482 </v>
   <v>       0.83315446       0.66702441       0.44649458 </v>
   <v>       0.16655309       0.00022716       0.44672482 </v>
   <v>       0.16655309       0.33321975       0.44672482 </v>
   <v>       0.16838648       0.66580676       0.44783295 </v>
   <v>       0.50035774      -0.00017887       0.44649458 </v>
   <v>       0.49914009       0.33505315       0.44783295 </v>
   <v>       0.49914009       0.66580676       0.44783295 </v>
   <v>       0.94448579       0.11115246       0.51474285 </v>
   <v>       0.94448579       0.44436175       0.51474285 </v>
   <v>       0.94410026       0.77794987       0.51469587 </v>
   <v>       0.27769508       0.11115246       0.51474285 </v>
   <v>       0.27524412       0.44191079       0.51426955 </v>
   <v>       0.27524412       0.78284509       0.51426955 </v>
   <v>       0.61128320       0.11076693       0.51469587 </v>
   <v>       0.61617842       0.44191079       0.51426955 </v>
   <v>       0.61128320       0.77794987       0.51469587 </v>
   <v>       0.44444566       0.27777383       0.10795550 </v>
   <v>       0.44448007       0.61114674       0.10802442 </v>
   <v>       0.44432334       0.94445395       0.10787113 </v>
   <v>       0.77783380       0.27779893       0.10794512 </v>
   <v>       0.77778729       0.61099000       0.10787113 </v>
   <v>       0.77780767       0.94447433       0.10781580 </v>
   <v>       0.11108420       0.27775087       0.10791098 </v>
   <v>       0.11110716       0.61111233       0.10795550 </v>
   <v>       0.11113226       0.94450047       0.10794512 </v>
   <v>       0.55556360       0.38886954       0.17609267 </v>
   <v>       0.55552872       0.72219539       0.17602723 </v>
   <v>       0.55551387       0.05568242       0.17584730 </v>
   <v>       0.88891008       0.38878446       0.17603677 </v>
   <v>       0.88901575       0.72218053       0.17584730 </v>
   <v>       0.88894225       0.05560892       0.17591307 </v>
   <v>       0.22222156       0.38888823       0.17610009 </v>
   <v>       0.22220288       0.72223026       0.17609267 </v>
   <v>       0.22211779       0.05557674       0.17603677 </v>
   <v>       0.66663337       0.50001995       0.24378239 </v>
   <v>       0.66668378       0.83335045       0.24354543 </v>
   <v>       0.66664734       0.16658677       0.24365993 </v>
   <v>      -0.00006458       0.50008960       0.24366541 </v>
   <v>      -0.00007989       0.83331400       0.24365993 </v>
   <v>      -0.00000129       0.16666538       0.24374601 </v>
   <v>       0.33331544       0.49998211       0.24380038 </v>
   <v>       0.33335328       0.83330003       0.24378239 </v>
   <v>       0.33342294       0.16660209       0.24366541 </v>
   <v>       0.77773977       0.61120002       0.31128952 </v>
   <v>       0.77775809       0.94442476       0.31127989 </v>
   <v>       0.77787796       0.27775283       0.31135493 </v>
   <v>       0.11114956       0.61107949       0.31140446 </v>
   <v>       0.11108617       0.94454462       0.31135493 </v>
   <v>       0.11107203       0.27773869       0.31141359 </v>
   <v>       0.44442126       0.61108793       0.31154556 </v>
   <v>       0.44453336       0.94440644       0.31128952 </v>
   <v>       0.44441282       0.27781622       0.31140446 </v>
   <v>       0.88909956       0.72219405       0.37893903 </v>
   <v>       0.88884015       0.05550681       0.37891940 </v>
   <v>       0.88892686       0.38887809       0.37903496 </v>
   <v>       0.22227863       0.72205871       0.37928248 </v>
   <v>       0.22221143       0.05559352       0.37903496 </v>
   <v>       0.22219269       0.38885936       0.37901328 </v>
   <v>       0.55539554       0.72206221       0.37900928 </v>
   <v>       0.55552739       0.05576623       0.37893903 </v>
   <v>       0.55539204       0.38894529       0.37928248 </v>
   <v>       0.00039860       0.83293475       0.44658697 </v>
   <v>       0.00003262       0.16669928       0.44681854 </v>
   <v>      -0.00026070       0.50022749       0.44658945 </v>
   <v>       0.33339502       0.83367762       0.44660865 </v>
   <v>       0.33356082       0.16640597       0.44658945 </v>
   <v>       0.33323509       0.49990175       0.44740028 </v>
   <v>       0.66662821       0.83329487       0.44664615 </v>
   <v>       0.66626808       0.16706527       0.44658697 </v>
   <v>       0.66701096       0.50006169       0.44660865 </v>
   <v>       0.11006330       0.94562806       0.51468232 </v>
   <v>       0.11094854       0.27761521       0.51498471 </v>
   <v>       0.11004617       0.61111769       0.51469538 </v>
   <v>       0.44472642       0.94471384       0.51459144 </v>
   <v>       0.44445103       0.27671284       0.51469538 </v>
   <v>       0.44597799       0.61264466       0.51830491 </v>
   <v>       0.77771922       0.94438589       0.51468458 </v>
   <v>       0.77896139       0.27672997       0.51468232 </v>
   <v>       0.77804717       0.61139309       0.51459144 </v>
   <v>       0.38888889       0.55555556       0.55348548 </v>
  </varray>
 </structure>
</modeling>
