  252  252   40    1
  0.2286318E+02  0.1514622E-08  0.1514622E-08  0.2900000E-08  0.2000000E-15
   1.0000000000000000E-004
  CAR 
 NiAl                                    
   2520      2   1512
 
  0.1262379E-14  0.1262379E-14  0.1262379E-14  0.2500000E+00
    1       -9.244746   1.000000
    2       -8.671562   1.000000
    3       -8.337082   1.000000
    4       -8.337079   1.000000
    5       -8.337079   1.000000
    6       -8.337060   1.000000
    7       -8.337057   1.000000
    8       -8.337057   1.000000
    9       -7.800960   1.000000
   10       -7.789281   1.000000
   11       -7.789280   1.000000
   12       -7.789280   1.000000
   13       -7.789264   1.000000
   14       -7.789263   1.000000
   15       -7.789263   1.000000
   16       -6.961783   1.000000
   17       -6.961783   1.000000
   18       -6.961781   1.000000
   19       -6.961747   1.000000
   20       -6.961747   1.000000
   21       -6.961745   1.000000
   22       -6.744746   1.000000
   23       -6.698551   1.000000
   24       -6.698551   1.000000
   25       -6.698549   1.000000
   26       -6.698549   1.000000
   27       -6.698518   1.000000
   28       -6.698516   1.000000
   29       -6.239245   1.000000
   30       -6.239245   1.000000
   31       -6.239241   1.000000
   32       -6.239241   1.000000
   33       -6.239215   1.000000
   34       -6.239211   1.000000
   35       -6.066790   1.000000
   36       -6.066765   1.000000
   37       -6.066763   1.000000
   38       -6.066748   1.000000
   39       -6.066747   1.000000
   40       -6.066723   1.000000
   41       -5.966503   1.000000
   42       -5.966503   1.000000
   43       -5.966495   1.000000
   44       -5.966476   1.000000
   45       -5.966476   1.000000
   46       -5.966468   1.000000
   47       -5.712247   1.000000
   48       -5.699472   1.000000
   49       -5.699457   1.000000
   50       -5.699453   1.000000
   51       -5.699444   1.000000
   52       -5.699440   1.000000
   53       -5.699411   1.000000
   54       -5.574272   1.000000
   55       -5.574272   1.000000
   56       -5.574271   1.000000
   57       -5.574271   1.000000
   58       -5.574248   1.000000
   59       -5.574246   1.000000
   60       -5.219053   1.000000
   61       -5.219024   1.000000
   62       -5.219010   1.000000
   63       -5.219004   1.000000
   64       -5.218986   1.000000
   65       -5.218954   1.000000
   66       -5.074027   1.000000
   67       -5.012042   1.000000
   68       -5.012042   1.000000
   69       -5.012018   1.000000
   70       -5.012008   1.000000
   71       -5.012008   1.000000
   72       -5.011984   1.000000
   73       -4.921386   1.000000
   74       -4.914427   1.000000
   75       -4.914427   1.000000
   76       -4.914373   1.000000
   77       -4.827028   1.000000
   78       -4.827028   1.000000
   79       -4.827028   1.000000
   80       -4.827028   1.000000
   81       -4.827014   1.000000
   82       -4.827014   1.000000
   83       -4.761143   1.000000
   84       -4.761143   1.000000
   85       -4.761074   1.000000
   86       -4.743335   1.000000
   87       -4.743324   1.000000
   88       -4.743315   1.000000
   89       -4.743307   1.000000
   90       -4.743261   1.000000
   91       -4.743249   1.000000
   92       -4.691529   1.000000
   93       -4.691528   1.000000
   94       -4.691507   1.000000
   95       -4.691501   1.000000
   96       -4.691479   1.000000
   97       -4.691479   1.000000
   98       -4.691469   1.000000
   99       -4.691469   1.000000
  100       -4.691441   1.000000
  101       -4.691441   1.000000
  102       -4.691430   1.000000
  103       -4.691430   1.000000
  104       -4.603174   1.000000
  105       -4.603174   1.000000
  106       -4.603109   1.000000
  107       -4.529162   1.000000
  108       -4.529162   1.000000
  109       -4.529089   1.000000
  110       -4.481556   1.000000
  111       -4.481554   1.000000
  112       -4.481531   1.000000
  113       -4.481531   1.000000
  114       -4.481531   1.000000
  115       -4.481526   1.000000
  116       -4.481518   1.000000
  117       -4.481518   1.000000
  118       -4.481470   1.000000
  119       -4.481470   1.000000
  120       -4.481457   1.000000
  121       -4.481457   1.000000
  122       -4.453239   1.000000
  123       -4.453239   1.000000
  124       -4.453213   1.000000
  125       -4.453213   1.000000
  126       -4.453196   1.000000
  127       -4.453170   1.000000
  128       -4.441132   1.000000
  129       -4.441127   1.000000
  130       -4.441119   1.000000
  131       -4.441117   1.000000
  132       -4.441100   1.000000
  133       -4.441100   1.000000
  134       -4.441096   1.000000
  135       -4.441096   1.000000
  136       -4.441086   1.000000
  137       -4.441086   1.000000
  138       -4.441084   1.000000
  139       -4.441084   1.000000
  140       -4.362996   1.000000
  141       -4.362996   1.000000
  142       -4.362971   1.000000
  143       -4.362971   1.000000
  144       -4.362960   1.000000
  145       -4.362935   1.000000
  146       -4.313296   1.000000
  147       -4.313295   1.000000
  148       -4.313287   1.000000
  149       -4.313282   1.000000
  150       -4.313182   1.000000
  151       -4.313179   1.000000
  152       -4.302144   1.000000
  153       -4.302144   1.000000
  154       -4.302047   1.000000
  155       -4.280984   1.000000
  156       -4.280983   1.000000
  157       -4.280982   1.000000
  158       -4.280968   1.000000
  159       -4.280965   1.000000
  160       -4.280965   1.000000
  161       -4.280961   1.000000
  162       -4.280961   1.000000
  163       -4.280949   1.000000
  164       -4.280949   1.000000
  165       -4.280939   1.000000
  166       -4.280939   1.000000
  167       -4.188800   1.000000
  168       -4.188800   1.000000
  169       -4.188590   1.000000
  170       -4.175192   1.000000
  171       -4.175187   1.000000
  172       -4.175182   1.000000
  173       -4.175182   1.000000
  174       -4.175178   1.000000
  175       -4.175178   1.000000
  176       -4.066342   1.000000
  177       -4.066337   1.000000
  178       -4.066335   1.000000
  179       -4.066335   1.000000
  180       -4.066330   1.000000
  181       -4.066330   1.000000
  182       -4.066320   1.000000
  183       -4.066315   1.000000
  184       -4.066293   1.000000
  185       -4.066293   1.000000
  186       -4.066288   1.000000
  187       -4.066288   1.000000
  188       -4.053996   1.000000
  189       -4.053996   1.000000
  190       -4.053897   1.000000
  191       -3.991303   1.000000
  192       -3.991303   1.000000
  193       -3.991132   1.000000
  194       -3.937728   1.000000
  195       -3.937726   1.000000
  196       -3.937717   1.000000
  197       -3.937711   1.000000
  198       -3.937562   1.000000
  199       -3.937550   1.000000
  200       -3.922466   1.000000
  201       -3.922466   1.000000
  202       -3.922304   1.000000
  203       -3.909645   1.000000
  204       -3.909641   1.000000
  205       -3.909641   1.000000
  206       -3.909639   1.000000
  207       -3.909622   1.000000
  208       -3.909620   1.000000
  209       -3.909620   1.000000
  210       -3.909619   1.000000
  211       -3.909413   1.000000
  212       -3.909413   1.000000
  213       -3.909392   1.000000
  214       -3.909392   1.000000
  215       -3.878558   1.000000
  216       -3.878557   1.000000
  217       -3.878548   1.000000
  218       -3.878541   1.000000
  219       -3.878383   1.000000
  220       -3.878378   1.000000
  221       -3.808634   1.000000
  222       -3.808634   1.000000
  223       -3.808625   1.000000
  224       -3.808621   1.000000
  225       -3.808611   1.000000
  226       -3.808611   1.000000
  227       -3.808603   1.000000
  228       -3.808597   1.000000
  229       -3.808588   1.000000
  230       -3.808588   1.000000
  231       -3.808566   1.000000
  232       -3.808566   1.000000
  233       -3.803885   1.000000
  234       -3.803884   1.000000
  235       -3.803826   1.000000
  236       -3.803824   1.000000
  237       -3.800597   1.000000
  238       -3.800597   1.000000
  239       -3.798727   1.000000
  240       -3.798722   1.000000
  241       -3.798675   1.000000
  242       -3.798675   1.000000
  243       -3.798669   1.000000
  244       -3.798669   1.000000
  245       -3.743826   1.000000
  246       -3.743820   1.000000
  247       -3.743813   1.000000
  248       -3.743810   1.000000
  249       -3.743718   1.000000
  250       -3.743711   1.000000
  251       -3.690543   1.000000
  252       -3.690541   1.000000
  253       -3.690541   1.000000
  254       -3.690540   1.000000
  255       -3.690526   1.000000
  256       -3.690523   1.000000
  257       -3.690523   1.000000
  258       -3.690517   1.000000
  259       -3.690336   1.000000
  260       -3.690336   1.000000
  261       -3.690317   1.000000
  262       -3.690317   1.000000
  263       -3.687067   1.000000
  264       -3.687067   1.000000
  265       -3.687042   1.000000
  266       -3.687042   1.000000
  267       -3.666885   1.000000
  268       -3.666885   1.000000
  269       -3.660013   1.000000
  270       -3.660013   1.000000
  271       -3.659885   1.000000
  272       -3.654809   1.000000
  273       -3.654808   1.000000
  274       -3.653735   1.000000
  275       -3.653730   1.000000
  276       -3.653696   1.000000
  277       -3.653693   1.000000
  278       -3.631030   1.000000
  279       -3.631030   1.000000
  280       -3.630984   1.000000
  281       -3.630984   1.000000
  282       -3.630984   1.000000
  283       -3.630984   1.000000
  284       -3.604671   1.000000
  285       -3.604670   1.000000
  286       -3.604654   1.000000
  287       -3.604651   1.000000
  288       -3.604434   1.000000
  289       -3.604419   1.000000
  290       -3.522339   1.000000
  291       -3.522339   1.000000
  292       -3.522249   1.000000
  293       -3.522238   1.000000
  294       -3.512019   1.000000
  295       -3.512019   1.000000
  296       -3.512004   1.000000
  297       -3.512004   1.000000
  298       -3.511926   1.000000
  299       -3.511910   1.000000
  300       -3.511910   1.000000
  301       -3.511908   1.000000
  302       -3.511905   1.000000
  303       -3.511900   1.000000
  304       -3.511896   1.000000
  305       -3.511896   1.000000
  306       -3.469614   1.000000
  307       -3.469610   1.000000
  308       -3.469552   1.000000
  309       -3.469552   1.000000
  310       -3.469547   1.000000
  311       -3.469547   1.000000
  312       -3.420271   1.000000
  313       -3.420269   1.000000
  314       -3.420192   1.000000
  315       -3.420192   1.000000
  316       -3.420189   1.000000
  317       -3.420189   1.000000
  318       -3.400466   1.000000
  319       -3.400466   1.000000
  320       -3.400449   1.000000
  321       -3.400445   1.000000
  322       -3.400443   1.000000
  323       -3.400443   1.000000
  324       -3.400424   1.000000
  325       -3.400423   1.000000
  326       -3.400286   1.000000
  327       -3.400286   1.000000
  328       -3.400263   1.000000
  329       -3.400263   1.000000
  330       -3.381736   1.000000
  331       -3.381735   1.000000
  332       -3.381727   1.000000
  333       -3.381723   1.000000
  334       -3.381604   1.000000
  335       -3.381593   1.000000
  336       -3.295112   1.000000
  337       -3.295112   1.000000
  338       -3.295108   1.000000
  339       -3.262193   1.000000
  340       -3.262184   1.000000
  341       -3.262110   1.000000
  342       -3.262110   1.000000
  343       -3.262102   1.000000
  344       -3.262102   1.000000
  345       -3.247858   1.000000
  346       -3.247858   1.000000
  347       -3.216769   1.000000
  348       -3.216769   1.000000
  349       -3.216754   1.000000
  350       -3.216754   1.000000
  351       -3.216716   1.000000
  352       -3.216706   1.000000
  353       -3.216700   1.000000
  354       -3.216689   1.000000
  355       -3.216688   1.000000
  356       -3.216688   1.000000
  357       -3.216672   1.000000
  358       -3.216672   1.000000
  359       -3.207863   1.000000
  360       -3.207863   1.000000
  361       -3.160211   1.000000
  362       -3.160211   1.000000
  363       -3.160200   1.000000
  364       -3.160196   1.000000
  365       -3.160186   1.000000
  366       -3.160172   1.000000
  367       -3.128712   1.000000
  368       -3.128712   1.000000
  369       -3.128679   1.000000
  370       -3.128679   1.000000
  371       -3.128590   1.000000
  372       -3.128557   1.000000
  373       -3.127496   1.000000
  374       -3.127488   1.000000
  375       -3.127395   1.000000
  376       -3.127395   1.000000
  377       -3.127388   1.000000
  378       -3.127388   1.000000
  379       -3.083570   1.000000
  380       -3.083570   1.000000
  381       -3.083559   1.000000
  382       -3.083559   1.000000
  383       -3.083538   1.000000
  384       -3.083538   1.000000
  385       -3.083528   1.000000
  386       -3.083526   1.000000
  387       -3.083526   1.000000
  388       -3.083525   1.000000
  389       -3.083518   1.000000
  390       -3.083510   1.000000
  391       -3.037601   1.000000
  392       -3.037598   1.000000
  393       -3.037503   1.000000
  394       -3.037503   1.000000
  395       -3.037500   1.000000
  396       -3.037500   1.000000
  397       -2.943010   1.000000
  398       -2.943010   1.000000
  399       -2.942999   1.000000
  400       -2.942999   1.000000
  401       -2.942949   1.000000
  402       -2.942939   1.000000
  403       -2.933825   1.000000
  404       -2.933821   1.000000
  405       -2.933718   1.000000
  406       -2.933718   1.000000
  407       -2.933715   1.000000
  408       -2.933715   1.000000
  409       -2.932817   1.000000
  410       -2.932817   1.000000
  411       -2.932810   1.000000
  412       -2.932810   1.000000
  413       -2.932780   1.000000
  414       -2.932780   1.000000
  415       -2.932773   1.000000
  416       -2.932773   1.000000
  417       -2.932753   1.000000
  418       -2.932752   1.000000
  419       -2.932747   1.000000
  420       -2.932743   1.000000
  421       -2.925098   1.000000
  422       -2.925090   1.000000
  423       -2.925059   1.000000
  424       -2.925059   1.000000
  425       -2.925051   1.000000
  426       -2.925051   1.000000
  427       -2.912307   1.000000
  428       -2.912299   1.000000
  429       -2.912267   1.000000
  430       -2.912262   1.000000
  431       -2.912259   1.000000
  432       -2.912250   1.000000
  433       -2.893463   1.000000
  434       -2.893457   1.000000
  435       -2.893350   1.000000
  436       -2.893350   1.000000
  437       -2.893344   1.000000
  438       -2.893344   1.000000
  439       -2.846247   1.000000
  440       -2.846247   1.000000
  441       -2.846239   1.000000
  442       -2.846239   1.000000
  443       -2.846230   1.000000
  444       -2.846230   1.000000
  445       -2.846224   1.000000
  446       -2.846224   1.000000
  447       -2.846221   1.000000
  448       -2.846221   1.000000
  449       -2.846207   1.000000
  450       -2.846207   1.000000
  451       -2.817984   1.000000
  452       -2.817984   1.000000
  453       -2.817977   1.000000
  454       -2.817977   1.000000
  455       -2.817866   1.000000
  456       -2.817860   1.000000
  457       -2.807194   1.000000
  458       -2.807185   1.000000
  459       -2.807185   1.000000
  460       -2.772612   1.000000
  461       -2.772610   1.000000
  462       -2.772526   1.000000
  463       -2.772524   1.000000
  464       -2.739813   1.000000
  465       -2.739813   1.000000
  466       -2.739807   1.000000
  467       -2.739807   1.000000
  468       -2.739807   1.000000
  469       -2.739801   1.000000
  470       -2.722898   1.000000
  471       -2.722898   1.000000
  472       -2.722887   1.000000
  473       -2.722887   1.000000
  474       -2.722868   1.000000
  475       -2.722861   1.000000
  476       -2.722854   1.000000
  477       -2.722849   1.000000
  478       -2.722845   1.000000
  479       -2.722845   1.000000
  480       -2.722835   1.000000
  481       -2.722835   1.000000
  482       -2.715661   1.000000
  483       -2.715661   1.000000
  484       -2.715652   1.000000
  485       -2.715643   1.000000
  486       -2.715630   1.000000
  487       -2.715624   1.000000
  488       -2.715240   1.000000
  489       -2.715240   1.000000
  490       -2.684653   1.000000
  491       -2.684646   1.000000
  492       -2.684534   1.000000
  493       -2.684534   1.000000
  494       -2.684527   1.000000
  495       -2.684527   1.000000
  496       -2.678923   1.000000
  497       -2.678920   1.000000
  498       -2.678856   1.000000
  499       -2.678850   1.000000
  500       -2.678848   1.000000
  501       -2.678844   1.000000
  502       -2.651419   1.000000
  503       -2.651419   1.000000
  504       -2.651408   1.000000
  505       -2.651408   1.000000
  506       -2.651329   1.000000
  507       -2.651318   1.000000
  508       -2.599290   1.000000
  509       -2.599287   1.000000
  510       -2.599198   1.000000
  511       -2.599198   1.000000
  512       -2.572985   1.000000
  513       -2.572985   1.000000
  514       -2.572980   1.000000
  515       -2.572980   1.000000
  516       -2.572945   1.000000
  517       -2.572945   1.000000
  518       -2.572942   1.000000
  519       -2.572942   1.000000
  520       -2.572921   1.000000
  521       -2.572915   1.000000
  522       -2.572910   1.000000
  523       -2.572908   1.000000
  524       -2.559086   1.000000
  525       -2.559055   1.000000
  526       -2.559055   1.000000
  527       -2.554427   1.000000
  528       -2.554422   1.000000
  529       -2.554338   1.000000
  530       -2.554338   1.000000
  531       -2.554333   1.000000
  532       -2.554333   1.000000
  533       -2.550972   1.000000
  534       -2.510819   1.000000
  535       -2.490013   1.000000
  536       -2.490013   1.000000
  537       -2.490012   1.000000
  538       -2.490012   1.000000
  539       -2.489970   1.000000
  540       -2.489970   1.000000
  541       -2.489968   1.000000
  542       -2.489968   1.000000
  543       -2.489943   1.000000
  544       -2.489942   1.000000
  545       -2.489939   1.000000
  546       -2.489935   1.000000
  547       -2.486588   1.000000
  548       -2.486585   1.000000
  549       -2.486528   1.000000
  550       -2.486528   1.000000
  551       -2.486525   1.000000
  552       -2.486525   1.000000
  553       -2.473629   1.000000
  554       -2.473482   1.000000
  555       -2.450341   1.000000
  556       -2.450340   1.000000
  557       -2.450307   1.000000
  558       -2.450307   1.000000
  559       -2.450306   1.000000
  560       -2.450306   1.000000
  561       -2.448986   1.000000
  562       -2.448986   1.000000
  563       -2.448982   1.000000
  564       -2.448982   1.000000
  565       -2.448884   1.000000
  566       -2.448879   1.000000
  567       -2.446712   1.000000
  568       -2.446712   1.000000
  569       -2.446578   1.000000
  570       -2.431647   1.000000
  571       -2.431646   1.000000
  572       -2.431614   1.000000
  573       -2.431613   1.000000
  574       -2.431611   1.000000
  575       -2.431607   1.000000
  576       -2.430654   1.000000
  577       -2.430654   1.000000
  578       -2.430651   1.000000
  579       -2.430651   1.000000
  580       -2.430621   1.000000
  581       -2.430618   1.000000
  582       -2.430308   1.000000
  583       -2.430099   1.000000
  584       -2.406133   1.000000
  585       -2.406133   1.000000
  586       -2.406133   1.000000
  587       -2.406133   1.000000
  588       -2.406132   1.000000
  589       -2.406132   1.000000
  590       -2.367178   1.000000
  591       -2.367172   1.000000
  592       -2.367169   1.000000
  593       -2.367169   1.000000
  594       -2.367097   1.000000
  595       -2.367092   1.000000
  596       -2.367089   1.000000
  597       -2.367089   1.000000
  598       -2.367067   1.000000
  599       -2.367067   1.000000
  600       -2.366951   1.000000
  601       -2.366929   1.000000
  602       -2.346142   1.000000
  603       -2.346140   1.000000
  604       -2.346066   1.000000
  605       -2.346066   1.000000
  606       -2.346064   1.000000
  607       -2.346064   1.000000
  608       -2.319449   1.000000
  609       -2.319236   1.000000
  610       -2.303392   1.000000
  611       -2.303392   1.000000
  612       -2.303341   1.000000
  613       -2.297165   1.000000
  614       -2.296992   1.000000
  615       -2.289902   1.000000
  616       -2.286758   1.000000
  617       -2.286726   1.000000
  618       -2.286726   1.000000
  619       -2.259234   1.000000
  620       -2.259234   1.000000
  621       -2.259046   1.000000
  622       -2.257261   1.000000
  623       -2.257259   1.000000
  624       -2.257259   1.000000
  625       -2.247669   1.000000
  626       -2.247669   1.000000
  627       -2.247668   1.000000
  628       -2.247668   1.000000
  629       -2.247569   1.000000
  630       -2.247567   1.000000
  631       -2.221854   1.000000
  632       -2.197046   1.000000
  633       -2.196827   1.000000
  634       -2.190314   1.000000
  635       -2.190307   1.000000
  636       -2.190301   1.000000
  637       -2.190296   1.000000
  638       -2.190167   1.000000
  639       -2.190154   1.000000
  640       -2.187317   1.000000
  641       -2.187307   1.000000
  642       -2.187284   1.000000
  643       -2.187276   1.000000
  644       -2.187275   1.000000
  645       -2.187267   1.000000
  646       -2.186723   1.000000
  647       -2.186723   1.000000
  648       -2.186715   1.000000
  649       -2.186712   1.000000
  650       -2.186712   1.000000
  651       -2.186712   1.000000
  652       -2.186706   1.000000
  653       -2.186701   1.000000
  654       -2.186701   1.000000
  655       -2.186699   1.000000
  656       -2.186689   1.000000
  657       -2.186689   1.000000
  658       -2.169867   1.000000
  659       -2.169867   1.000000
  660       -2.169689   1.000000
  661       -2.169682   1.000000
  662       -2.135331   1.000000
  663       -2.135331   1.000000
  664       -2.135321   1.000000
  665       -2.135321   1.000000
  666       -2.135226   1.000000
  667       -2.135216   1.000000
  668       -2.127125   1.000000
  669       -2.127116   1.000000
  670       -2.127042   1.000000
  671       -2.127042   1.000000
  672       -2.127033   1.000000
  673       -2.127033   1.000000
  674       -2.124968   1.000000
  675       -2.124965   1.000000
  676       -2.124959   1.000000
  677       -2.124957   1.000000
  678       -2.124831   1.000000
  679       -2.124827   1.000000
  680       -2.088108   1.000000
  681       -2.088108   1.000000
  682       -2.088099   1.000000
  683       -2.088099   1.000000
  684       -2.087981   1.000000
  685       -2.087972   1.000000
  686       -2.077962   1.000000
  687       -2.077960   1.000000
  688       -2.077820   1.000000
  689       -2.077820   1.000000
  690       -2.077818   1.000000
  691       -2.077818   1.000000
  692       -2.073371   1.000000
  693       -2.061961   1.000000
  694       -2.061761   1.000000
  695       -2.060635   1.000000
  696       -2.060629   1.000000
  697       -2.060453   1.000000
  698       -2.060453   1.000000
  699       -2.054876   1.000000
  700       -2.054876   1.000000
  701       -2.054871   1.000000
  702       -2.054871   1.000000
  703       -2.054863   1.000000
  704       -2.054862   1.000000
  705       -2.054854   1.000000
  706       -2.054846   1.000000
  707       -2.054812   1.000000
  708       -2.054812   1.000000
  709       -2.054805   1.000000
  710       -2.054805   1.000000
  711       -2.042390   1.000000
  712       -2.042175   1.000000
  713       -2.011848   1.000000
  714       -2.011848   1.000000
  715       -2.011842   1.000000
  716       -2.011842   1.000000
  717       -2.011745   1.000000
  718       -2.011739   1.000000
  719       -1.997366   1.000000
  720       -1.997363   1.000000
  721       -1.997359   1.000000
  722       -1.997358   1.000000
  723       -1.997308   1.000000
  724       -1.997302   1.000000
  725       -1.967283   1.000000
  726       -1.967282   1.000000
  727       -1.967141   1.000000
  728       -1.967141   1.000000
  729       -1.967140   1.000000
  730       -1.967140   1.000000
  731       -1.956898   1.000000
  732       -1.956898   1.000000
  733       -1.956894   1.000000
  734       -1.956894   1.000000
  735       -1.956870   1.000000
  736       -1.956868   1.000000
  737       -1.956867   1.000000
  738       -1.956867   1.000000
  739       -1.956862   1.000000
  740       -1.956862   1.000000
  741       -1.956862   1.000000
  742       -1.956856   1.000000
  743       -1.896099   1.000000
  744       -1.896094   1.000000
  745       -1.896084   1.000000
  746       -1.896084   1.000000
  747       -1.896080   1.000000
  748       -1.896080   1.000000
  749       -1.889543   1.000000
  750       -1.889511   1.000000
  751       -1.889511   1.000000
  752       -1.860688   1.000000
  753       -1.860687   1.000000
  754       -1.860637   1.000000
  755       -1.860637   1.000000
  756       -1.860636   1.000000
  757       -1.860636   1.000000
  758       -1.859638   1.000000
  759       -1.859638   1.000000
  760       -1.859631   1.000000
  761       -1.859631   1.000000
  762       -1.859606   1.000000
  763       -1.859604   1.000000
  764       -1.859598   1.000000
  765       -1.859595   1.000000
  766       -1.859558   1.000000
  767       -1.859558   1.000000
  768       -1.859551   1.000000
  769       -1.859551   1.000000
  770       -1.858546   1.000000
  771       -1.858544   1.000000
  772       -1.858427   1.000000
  773       -1.858427   1.000000
  774       -1.858425   1.000000
  775       -1.858425   1.000000
  776       -1.845461   1.000000
  777       -1.845460   1.000000
  778       -1.845414   1.000000
  779       -1.845414   1.000000
  780       -1.845413   1.000000
  781       -1.845413   1.000000
  782       -1.844830   1.000000
  783       -1.844828   1.000000
  784       -1.844792   1.000000
  785       -1.844791   1.000000
  786       -1.844788   1.000000
  787       -1.844788   1.000000
  788       -1.824311   1.000000
  789       -1.824295   1.000000
  790       -1.824177   1.000000
  791       -1.824177   1.000000
  792       -1.824162   1.000000
  793       -1.824162   1.000000
  794       -1.812624   1.000000
  795       -1.812615   1.000000
  796       -1.812599   1.000000
  797       -1.812594   1.000000
  798       -1.812587   1.000000
  799       -1.812584   1.000000
  800       -1.779556   1.000000
  801       -1.779556   1.000000
  802       -1.779544   1.000000
  803       -1.779544   1.000000
  804       -1.779506   1.000000
  805       -1.779506   1.000000
  806       -1.779494   1.000000
  807       -1.779494   1.000000
  808       -1.779491   1.000000
  809       -1.779490   1.000000
  810       -1.779481   1.000000
  811       -1.779477   1.000000
  812       -1.746244   1.000000
  813       -1.746176   1.000000
  814       -1.746176   1.000000
  815       -1.730833   1.000000
  816       -1.730833   1.000000
  817       -1.730830   1.000000
  818       -1.730830   1.000000
  819       -1.730796   1.000000
  820       -1.730796   1.000000
  821       -1.730793   1.000000
  822       -1.730793   1.000000
  823       -1.730738   1.000000
  824       -1.730736   1.000000
  825       -1.730724   1.000000
  826       -1.730722   1.000000
  827       -1.703825   1.000000
  828       -1.703813   1.000000
  829       -1.703674   1.000000
  830       -1.703674   1.000000
  831       -1.703663   1.000000
  832       -1.703663   1.000000
  833       -1.692832   1.000000
  834       -1.692832   1.000000
  835       -1.692776   1.000000
  836       -1.692776   1.000000
  837       -1.692776   1.000000
  838       -1.692776   1.000000
  839       -1.683279   1.000000
  840       -1.683279   1.000000
  841       -1.683273   1.000000
  842       -1.683273   1.000000
  843       -1.683195   1.000000
  844       -1.683189   1.000000
  845       -1.676646   1.000000
  846       -1.676582   1.000000
  847       -1.676582   1.000000
  848       -1.674715   1.000000
  849       -1.674700   1.000000
  850       -1.674670   1.000000
  851       -1.674658   1.000000
  852       -1.674650   1.000000
  853       -1.674644   1.000000
  854       -1.647695   1.000000
  855       -1.647693   1.000000
  856       -1.647615   1.000000
  857       -1.647615   1.000000
  858       -1.647614   1.000000
  859       -1.647614   1.000000
  860       -1.609546   1.000000
  861       -1.609546   1.000000
  862       -1.609515   1.000000
  863       -1.609515   1.000000
  864       -1.609514   1.000000
  865       -1.609514   1.000000
  866       -1.588118   1.000000
  867       -1.588118   1.000000
  868       -1.588112   1.000000
  869       -1.588112   1.000000
  870       -1.588098   1.000000
  871       -1.588098   1.000000
  872       -1.588092   1.000000
  873       -1.588092   1.000000
  874       -1.588086   1.000000
  875       -1.588079   1.000000
  876       -1.588078   1.000000
  877       -1.588073   1.000000
  878       -1.549321   1.000000
  879       -1.549321   1.000000
  880       -1.549314   1.000000
  881       -1.549314   1.000000
  882       -1.549296   1.000000
  883       -1.549289   1.000000
  884       -1.528826   1.000000
  885       -1.528811   1.000000
  886       -1.528717   1.000000
  887       -1.528717   1.000000
  888       -1.528701   1.000000
  889       -1.528701   1.000000
  890       -1.499935   1.000000
  891       -1.499935   1.000000
  892       -1.499883   1.000000
  893       -1.499882   1.000000
  894       -1.499880   1.000000
  895       -1.499876   1.000000
  896       -1.497531   1.000000
  897       -1.480105   1.000000
  898       -1.480105   1.000000
  899       -1.480104   1.000000
  900       -1.480104   1.000000
  901       -1.479999   1.000000