       N       E                     dE             d eps       ncg     rms          rms(c)
DAV:   1     0.214776431227E+05    0.21478E+05   -0.96850E+05  6080   0.133E+03
DAV:   2     0.679639056979E+02   -0.21410E+05   -0.20472E+05  6048   0.465E+02
DAV:   3    -0.128151904066E+04   -0.13495E+04   -0.11288E+04  6720   0.126E+02
DAV:   4    -0.150545640433E+04   -0.22394E+03   -0.18586E+03 10904   0.477E+01
DAV:   5    -0.151733743898E+04   -0.11881E+02   -0.11069E+02  9472   0.123E+01    0.130E+02
DAV:   6    -0.155530657915E+04   -0.37969E+02   -0.33969E+03  6920   0.119E+02    0.223E+02
DAV:   7    -0.189914111553E+04   -0.34383E+03   -0.71309E+02  6856   0.161E+02    0.245E+02
DAV:   8    -0.164386649880E+04    0.25527E+03   -0.29542E+02  7840   0.883E+01    0.204E+02
DAV:   9    -0.144641650772E+04    0.19745E+03   -0.29822E+02  9416   0.619E+01    0.161E+02
DAV:  10    -0.154783542460E+04   -0.10142E+03   -0.36094E+02  8784   0.822E+01    0.236E+02
DAV:  11    -0.161876993789E+04   -0.70935E+02   -0.22411E+02  8496   0.634E+01    0.204E+02
DAV:  12    -0.130294589072E+04    0.31582E+03   -0.10309E+02  7456   0.514E+01    0.720E+01
DAV:  13    -0.130879969910E+04   -0.58538E+01   -0.66927E+01  8704   0.258E+01    0.981E+01
DAV:  14    -0.129744210339E+04    0.11358E+02   -0.36080E+01  6696   0.223E+01    0.602E+01
DAV:  15    -0.129042060615E+04    0.70215E+01   -0.12064E+01  6544   0.953E+00    0.396E+01
DAV:  16    -0.128978195836E+04    0.63865E+00   -0.26843E+00  9664   0.251E+00    0.389E+01
DAV:  17    -0.128884273636E+04    0.93922E+00   -0.11988E-01  9328   0.938E-01    0.363E+01
DAV:  18    -0.128439241719E+04    0.44503E+01   -0.20117E+00  8976   0.563E+00    0.158E+01
DAV:  19    -0.128430462784E+04    0.87789E-01   -0.21055E+00 11360   0.483E+00    0.186E+01
DAV:  20    -0.128378662772E+04    0.51800E+00   -0.14830E+00  8032   0.445E+00    0.105E+01
DAV:  21    -0.128365992601E+04    0.12670E+00   -0.18656E-01  7680   0.154E+00    0.112E+01
DAV:  22    -0.128355437188E+04    0.10555E+00   -0.45238E-01  7624   0.253E+00    0.939E+00
DAV:  23    -0.128352408600E+04    0.30286E-01   -0.13981E-01  6360   0.109E+00    0.813E+00
DAV:  24    -0.128347067450E+04    0.53412E-01   -0.43093E-02  7096   0.435E-01    0.721E+00
DAV:  25    -0.128342097363E+04    0.49701E-01   -0.82658E-02 11160   0.115E+00    0.660E+00
DAV:  26    -0.128336207361E+04    0.58900E-01   -0.22211E-02  7992   0.408E-01    0.400E+00
DAV:  27    -0.128335797269E+04    0.41009E-02   -0.78680E-03  6888   0.212E-01    0.375E+00
DAV:  28    -0.128333231760E+04    0.25655E-01   -0.14501E-02  6816   0.475E-01    0.100E+00
DAV:  29    -0.128333543498E+04   -0.31174E-02   -0.84649E-03 10816   0.197E-01    0.126E+00
DAV:  30    -0.128333488701E+04    0.54797E-03   -0.67584E-03  6288   0.266E-01    0.874E-01
DAV:  31    -0.128333551495E+04   -0.62794E-03   -0.37443E-04  6720   0.562E-02    0.907E-01
DAV:  32    -0.128333560877E+04   -0.93820E-04   -0.12563E-03  9432   0.178E-01    0.303E-01
DAV:  33    -0.128333650078E+04   -0.89201E-03   -0.53324E-04  8680   0.574E-02    0.445E-01
DAV:  34    -0.128333691786E+04   -0.41708E-03   -0.31887E-04  6992   0.462E-02    0.340E-01
DAV:  35    -0.128333698612E+04   -0.68258E-04   -0.97698E-05  7416   0.232E-02    0.217E-01
DAV:  36    -0.128333715389E+04   -0.16777E-03   -0.40573E-05  6128   0.346E-02    0.111E-01
DAV:  37    -0.128333733390E+04   -0.18001E-03   -0.76113E-05  7592   0.184E-02    0.484E-02
DAV:  38    -0.128333749401E+04   -0.16012E-03   -0.38073E-05  6344   0.152E-02    0.724E-02
DAV:  39    -0.128333757469E+04   -0.80677E-04   -0.10691E-05  3720   0.135E-02    0.468E-02
DAV:  40    -0.128333762787E+04   -0.53178E-04   -0.39257E-06  3552   0.470E-03    0.451E-02
DAV:  41    -0.128333767419E+04   -0.46317E-04   -0.41750E-06  3568   0.791E-03    0.168E-02
DAV:  42    -0.128333769838E+04   -0.24196E-04   -0.35250E-06  3480   0.311E-03    0.193E-02
DAV:  43    -0.128333770680E+04   -0.84154E-05   -0.14723E-06  3184   0.359E-03    0.250E-02
DAV:  44    -0.128333771605E+04   -0.92483E-05   -0.83815E-07  3440   0.238E-03    0.107E-02
DAV:  45    -0.128333771843E+04   -0.23856E-05   -0.47606E-07  3152   0.899E-04
   1 F= -.13741633E+04 E0= -.13733544E+04  d E =-.137416E+04
       N       E                     dE             d eps       ncg     rms          rms(c)
DAV:   1    -0.128454171133E+04   -0.12040E+01   -0.37526E+02  6072   0.189E+01    0.356E+00
DAV:   2    -0.129837744937E+04   -0.13836E+02   -0.60532E+00  6688   0.132E+01    0.569E+01
DAV:   3    -0.128701660356E+04    0.11361E+02   -0.32263E+00  6840   0.138E+01    0.273E+01
DAV:   4    -0.128489946424E+04    0.21171E+01   -0.19170E+00  7048   0.557E+00    0.287E+00
DAV:   5    -0.128536926186E+04   -0.46980E+00   -0.82299E-01  7440   0.298E+00    0.128E+01
DAV:   6    -0.128509022424E+04    0.27904E+00   -0.57069E-01  6800   0.278E+00    0.826E+00
DAV:   7    -0.128491667202E+04    0.17355E+00   -0.12972E-01  7568   0.141E+00    0.750E-01
DAV:   8    -0.128492687188E+04   -0.10200E-01   -0.44743E-02  8624   0.457E-01    0.215E+00
DAV:   9    -0.128492155862E+04    0.53133E-02   -0.12520E-02  6184   0.343E-01    0.109E+00
DAV:  10    -0.128492125858E+04    0.30003E-03   -0.29134E-03  7240   0.228E-01    0.407E-01
DAV:  11    -0.128492156100E+04   -0.30242E-03   -0.11181E-03  7080   0.862E-02    0.131E-01
DAV:  12    -0.128492178813E+04   -0.22713E-03   -0.22248E-04  9808   0.429E-02    0.255E-01
DAV:  13    -0.128492168141E+04    0.10672E-03   -0.16519E-04  6552   0.611E-02    0.820E-02
DAV:  14    -0.128492166917E+04    0.12243E-04   -0.18012E-05  4864   0.137E-02    0.308E-02
DAV:  15    -0.128492167490E+04   -0.57374E-05   -0.55583E-06  3224   0.803E-03    0.205E-02
DAV:  16    -0.128492167729E+04   -0.23835E-05   -0.48193E-06  3096   0.397E-03
   2 F= -.13758101E+04 E0= -.13749982E+04  d E =-.164674E+01
       N       E                     dE             d eps       ncg     rms          rms(c)
DAV:   1    -0.128210788370E+04    0.28138E+01   -0.34220E+03  6072   0.590E+01    0.158E+01
DAV:   2    -0.141805101677E+04   -0.13594E+03   -0.73884E+01  6776   0.542E+01    0.134E+02
DAV:   3    -0.132890795561E+04    0.89143E+02   -0.65315E+01  7136   0.407E+01    0.995E+01
DAV:   4    -0.128969996769E+04    0.39208E+02   -0.23632E+01  7264   0.238E+01    0.252E+01
DAV:   5    -0.129980590127E+04   -0.10106E+02   -0.18028E+01  8592   0.176E+01    0.495E+01
DAV:   6    -0.128898849880E+04    0.10817E+02   -0.92143E+00  7144   0.141E+01    0.438E+00
DAV:   7    -0.128928149377E+04   -0.29299E+00   -0.26085E+00  8944   0.318E+00    0.798E+00
DAV:   8    -0.128920304201E+04    0.78452E-01   -0.59201E-01  6520   0.273E+00    0.492E+00
DAV:   9    -0.128920876400E+04   -0.57220E-02   -0.16771E-01  8152   0.706E-01    0.293E+00
DAV:  10    -0.128922129858E+04   -0.12535E-01   -0.41153E-02  9960   0.764E-01    0.363E+00
DAV:  11    -0.128921973152E+04    0.15671E-02   -0.22756E-02  7256   0.819E-01    0.275E+00
DAV:  12    -0.128920757669E+04    0.12155E-01   -0.81410E-03  6904   0.365E-01    0.111E+00
DAV:  13    -0.128920814672E+04   -0.57003E-03   -0.42557E-03  7336   0.169E-01    0.973E-01
DAV:  14    -0.128920648082E+04    0.16659E-02   -0.15504E-03  8656   0.189E-01    0.385E-01
DAV:  15    -0.128920733952E+04   -0.85871E-03   -0.11911E-03  9568   0.837E-02    0.695E-01
DAV:  16    -0.128920656904E+04    0.77048E-03   -0.34492E-04  6376   0.701E-02    0.390E-01
DAV:  17    -0.128920645821E+04    0.11083E-03   -0.47412E-05  8088   0.178E-02    0.351E-01
DAV:  18    -0.128920634581E+04    0.11239E-03   -0.21929E-05  5360   0.152E-02    0.266E-01
DAV:  19    -0.128920624173E+04    0.10408E-03   -0.90651E-06  3824   0.147E-02    0.175E-01
DAV:  20    -0.128920619377E+04    0.47967E-04   -0.28125E-05  6296   0.911E-03    0.973E-02
DAV:  21    -0.128920617689E+04    0.16878E-04   -0.49616E-06  3720   0.678E-03    0.339E-02
DAV:  22    -0.128920617962E+04   -0.27344E-05   -0.62760E-06  3144   0.446E-03
   3 F= -.13802581E+04 E0= -.13794372E+04  d E =-.609474E+01
       N       E                     dE             d eps       ncg     rms          rms(c)
DAV:   1    -0.124219636367E+04    0.47010E+02   -0.14550E+04  6080   0.133E+02    0.621E+01
DAV:   2    -0.216878112681E+04   -0.92658E+03   -0.51440E+02  6888   0.179E+02    0.301E+02
DAV:   3    -0.156934298067E+04    0.59944E+03   -0.68834E+02  7832   0.799E+01    0.177E+02
DAV:   4    -0.138668404190E+04    0.18266E+03   -0.27846E+02  9304   0.684E+01    0.135E+02
DAV:   5    -0.135307927799E+04    0.33605E+02   -0.13286E+02  8552   0.432E+01    0.125E+02
DAV:   6    -0.130794693042E+04    0.45132E+02   -0.43912E+01  6712   0.323E+01    0.696E+01
DAV:   7    -0.129961815654E+04    0.83288E+01   -0.20754E+01  7672   0.116E+01    0.405E+01
DAV:   8    -0.129526834739E+04    0.43498E+01   -0.50042E+00  9152   0.649E+00    0.172E+01
DAV:   9    -0.129472593047E+04    0.54242E+00   -0.26418E+00  6368   0.417E+00    0.102E+01
DAV:  10    -0.129476594902E+04   -0.40019E-01   -0.49199E-01  8472   0.182E+00    0.111E+01
DAV:  11    -0.129502225510E+04   -0.25631E+00   -0.60674E-01 11488   0.288E+00    0.126E+01
DAV:  12    -0.129466372662E+04    0.35853E+00   -0.23608E-01  6952   0.174E+00    0.491E+00
DAV:  13    -0.129464336188E+04    0.20365E-01   -0.71701E-02  6760   0.763E-01    0.389E+00
DAV:  14    -0.129478569240E+04   -0.14233E+00   -0.39776E-02  7152   0.798E-01    0.920E+00
DAV:  15    -0.129465271599E+04    0.13298E+00   -0.28064E-02  7416   0.660E-01    0.474E+00
DAV:  16    -0.129463264404E+04    0.20072E-01   -0.24341E-02  9440   0.248E-01    0.368E+00
DAV:  17    -0.129462714571E+04    0.54983E-02   -0.65861E-03  6472   0.131E-01    0.320E+00
DAV:  18    -0.129460695369E+04    0.20192E-01   -0.65990E-03 10688   0.317E-01    0.955E-01
DAV:  19    -0.129460754659E+04   -0.59290E-03   -0.16442E-03  6752   0.688E-02    0.858E-01
DAV:  20    -0.129460680089E+04    0.74570E-03   -0.11628E-04  7032   0.404E-02    0.571E-01
DAV:  21    -0.129460678131E+04    0.19585E-04   -0.17284E-04  9360   0.305E-02    0.401E-01
DAV:  22    -0.129460650845E+04    0.27286E-03   -0.13225E-04  9536   0.355E-02    0.145E-01
DAV:  23    -0.129460649401E+04    0.14444E-04   -0.33565E-05  6080   0.197E-02    0.317E-02
DAV:  24    -0.129460652266E+04   -0.28652E-04   -0.29250E-05  5432   0.778E-03    0.650E-02
DAV:  25    -0.129460651947E+04    0.31919E-05   -0.27444E-06  3096   0.361E-03
   4 F= -.13859414E+04 E0= -.13851066E+04  d E =-.117781E+02
       N       E                     dE             d eps       ncg     rms          rms(c)
DAV:   1    -0.780988334282E+03    0.51362E+03   -0.70970E+04  6312   0.361E+02    0.324E+02
DAV:   2    -0.470795207755E+04   -0.39270E+04   -0.56601E+03  6768   0.437E+02    0.775E+02
DAV:   3    -0.240046764852E+04    0.23075E+04   -0.57504E+03  7072   0.150E+02    0.296E+02
DAV:   4    -0.340493035383E+04   -0.10045E+04   -0.81011E+03  9496   0.270E+02    0.454E+02
DAV:   5    -0.297244264492E+04    0.43249E+03   -0.28785E+03  8784   0.971E+01    0.331E+02
DAV:   6    -0.192455213738E+04    0.10479E+04   -0.19108E+03  9696   0.934E+01    0.240E+02
DAV:   7    -0.177514702529E+04    0.14941E+03   -0.60838E+02  9048   0.631E+01    0.283E+02
DAV:   8    -0.141474252028E+04    0.36040E+03   -0.41357E+02  8000   0.590E+01    0.164E+02
DAV:   9    -0.136340189481E+04    0.51341E+02   -0.15311E+02  8256   0.250E+01    0.133E+02
DAV:  10    -0.132616805820E+04    0.37234E+02   -0.24223E+01  8664   0.137E+01    0.114E+02
DAV:  11    -0.128871507663E+04    0.37453E+02   -0.24915E+01 11144   0.171E+01    0.717E+01
DAV:  12    -0.129073474826E+04   -0.20197E+01   -0.12888E+01  7424   0.886E+00    0.745E+01
DAV:  13    -0.128748046317E+04    0.32543E+01   -0.27868E+00  6760   0.467E+00    0.663E+01
DAV:  14    -0.128677781319E+04    0.70265E+00   -0.36936E+00 11480   0.730E+00    0.585E+01
DAV:  15    -0.128686756683E+04   -0.89754E-01   -0.22983E+00  7480   0.840E+00    0.434E+01
DAV:  16    -0.128690285497E+04   -0.35288E-01   -0.10159E+01  9712   0.152E+01    0.330E+01
DAV:  17    -0.128577068750E+04    0.11322E+01   -0.24233E+00  8112   0.445E+00    0.252E+01
DAV:  18    -0.128565117824E+04    0.11951E+00   -0.20120E+00  6752   0.521E+00    0.307E+01
DAV:  19    -0.128591228484E+04   -0.26111E+00   -0.24618E+00  8296   0.381E+00    0.385E+01
DAV:  20    -0.128424513471E+04    0.16672E+01   -0.10394E+00  6360   0.282E+00    0.256E+01
DAV:  21    -0.128340115985E+04    0.84397E+00   -0.10479E+00  9672   0.290E+00    0.114E+01
DAV:  22    -0.128310994053E+04    0.29122E+00   -0.41245E-01  8664   0.159E+00    0.939E+00
DAV:  23    -0.128293452392E+04    0.17542E+00   -0.12983E-01  7240   0.928E-01    0.599E+00
DAV:  24    -0.128281451919E+04    0.12000E+00   -0.18558E-01 10656   0.114E+00    0.420E+00
DAV:  25    -0.128285085965E+04   -0.36340E-01   -0.49420E-02  7504   0.484E-01    0.564E+00
DAV:  26    -0.128282942982E+04    0.21430E-01   -0.16701E-02  6400   0.367E-01    0.442E+00
DAV:  27    -0.128281770717E+04    0.11723E-01   -0.17735E-03  8112   0.111E-01    0.370E+00
DAV:  28    -0.128280319148E+04    0.14516E-01   -0.21761E-03  8880   0.170E-01    0.259E+00
DAV:  29    -0.128279171249E+04    0.11479E-01   -0.10903E-02 11432   0.263E-01    0.111E+00
DAV:  30    -0.128279060523E+04    0.11073E-02   -0.17340E-03  6520   0.694E-02    0.943E-01
DAV:  31    -0.128279037146E+04    0.23377E-03   -0.39536E-04  6520   0.399E-02    0.820E-01
DAV:  32    -0.128279101741E+04   -0.64595E-03   -0.87062E-04  8688   0.115E-01    0.927E-01
DAV:  33    -0.128279025138E+04    0.76603E-03   -0.80511E-04  9080   0.153E-01    0.648E-01
DAV:  34    -0.128279021427E+04    0.37107E-04   -0.33476E-04  7000   0.277E-02    0.636E-01
DAV:  35    -0.128279010827E+04    0.10600E-03   -0.54247E-05  6456   0.190E-02    0.569E-01
DAV:  36    -0.128279003149E+04    0.76784E-04   -0.12019E-04  8288   0.444E-02    0.518E-01
DAV:  37    -0.128278992818E+04    0.10331E-03   -0.14055E-04  6984   0.311E-02    0.349E-01
DAV:  38    -0.128278994473E+04   -0.16550E-04   -0.88589E-05  6728   0.188E-02    0.252E-01
DAV:  39    -0.128278997859E+04   -0.33862E-04   -0.24629E-05  5344   0.111E-02    0.224E-01
DAV:  40    -0.128278993785E+04    0.40737E-04   -0.98637E-06  3936   0.145E-02    0.144E-01
DAV:  41    -0.128278996096E+04   -0.23103E-04   -0.21015E-05  5256   0.777E-03    0.114E-01
DAV:  42    -0.128278999518E+04   -0.34223E-04   -0.11268E-05  3576   0.104E-02    0.109E-01
DAV:  43    -0.128278999382E+04    0.13653E-05   -0.69365E-06  3736   0.940E-03
   5 F= -.13752313E+04 E0= -.13744830E+04  d E =-.106793E+01
       N       E                     dE             d eps       ncg     rms          rms(c)
DAV:   1    -0.100291884374E+04    0.27987E+03   -0.46207E+04  6120   0.273E+02    0.174E+02
DAV:   2    -0.318709423981E+04   -0.21842E+04   -0.24340E+03  6768   0.285E+02    0.448E+02
DAV:   3    -0.159908497943E+04    0.15880E+04   -0.26299E+03  6968   0.122E+02    0.195E+02
DAV:   4    -0.239457771710E+04   -0.79549E+03   -0.20940E+03  9264   0.184E+02    0.332E+02
DAV:   5    -0.177204641985E+04    0.62253E+03   -0.73515E+02  9208   0.618E+01    0.234E+02
DAV:   6    -0.153201211264E+04    0.24003E+03   -0.33422E+02  9312   0.586E+01    0.189E+02
DAV:   7    -0.133115870737E+04    0.20085E+03   -0.12349E+02  8880   0.407E+01    0.109E+02
DAV:   8    -0.131441676093E+04    0.16742E+02   -0.97280E+01  7408   0.257E+01    0.751E+01
DAV:   9    -0.130089463670E+04    0.13522E+02   -0.23872E+01  7280   0.143E+01    0.524E+01
DAV:  10    -0.129884276397E+04    0.20519E+01   -0.75713E+00  9880   0.517E+00    0.479E+01
DAV:  11    -0.129672343756E+04    0.21193E+01   -0.15662E+00  8080   0.414E+00    0.367E+01
DAV:  12    -0.129708187321E+04   -0.35844E+00   -0.19393E+00  7824   0.575E+00    0.339E+01
DAV:  13    -0.129587694180E+04    0.12049E+01   -0.15036E+00  9696   0.603E+00    0.248E+01
DAV:  14    -0.129595564366E+04   -0.78702E-01   -0.11275E+00  7680   0.370E+00    0.221E+01
DAV:  15    -0.129536582794E+04    0.58982E+00   -0.62235E-01  6480   0.248E+00    0.923E+00
DAV:  16    -0.129559164274E+04   -0.22581E+00   -0.23453E-01  8208   0.149E+00    0.116E+01
DAV:  17    -0.129548645437E+04    0.10519E+00   -0.13314E-01  6600   0.127E+00    0.107E+01
DAV:  18    -0.129535354880E+04    0.13291E+00   -0.11160E-01 10552   0.117E+00    0.987E+00
DAV:  19    -0.129512441006E+04    0.22914E+00   -0.13687E-01  9264   0.121E+00    0.260E+00
DAV:  20    -0.129519657435E+04   -0.72164E-01   -0.10554E-01  6928   0.938E-01    0.583E+00
DAV:  21    -0.129512570386E+04    0.70870E-01   -0.40909E-02  6504   0.844E-01    0.187E+00
DAV:  22    -0.129511984666E+04    0.58572E-02   -0.10670E-02 11408   0.249E-01    0.138E+00
DAV:  23    -0.129512140159E+04   -0.15549E-02   -0.49086E-03  6400   0.253E-01    0.137E+00
DAV:  24    -0.129511949850E+04    0.19031E-02   -0.30501E-04  7624   0.611E-02    0.114E+00
DAV:  25    -0.129511756914E+04    0.19294E-02   -0.56682E-04 11104   0.655E-02    0.857E-01
DAV:  26    -0.129511712665E+04    0.44249E-03   -0.27822E-04  6880   0.376E-02    0.701E-01
DAV:  27    -0.129511651509E+04    0.61155E-03   -0.11639E-04  7880   0.610E-02    0.467E-01
DAV:  28    -0.129511649461E+04    0.20482E-04   -0.28537E-04  9096   0.389E-02    0.433E-01
DAV:  29    -0.129511644359E+04    0.51026E-04   -0.13163E-04  7016   0.328E-02    0.269E-01
DAV:  30    -0.129511653900E+04   -0.95415E-04   -0.10891E-04  9080   0.169E-02    0.162E-01
DAV:  31    -0.129511659863E+04   -0.59626E-04   -0.38343E-05  7064   0.256E-02    0.899E-02
DAV:  32    -0.129511666294E+04   -0.64316E-04   -0.30566E-05  6024   0.136E-02    0.863E-02
DAV:  33    -0.129511672091E+04   -0.57968E-04   -0.12457E-05  4152   0.141E-02    0.513E-02
DAV:  34    -0.129511679371E+04   -0.72797E-04   -0.11846E-05  4320   0.801E-03    0.735E-02
DAV:  35    -0.129511681141E+04   -0.17701E-04   -0.58973E-06  3440   0.649E-03    0.510E-02
DAV:  36    -0.129511681498E+04   -0.35709E-05   -0.11058E-06  3104   0.355E-03
   6 F= -.13865595E+04 E0= -.13857193E+04  d E =-.123962E+02
       N       E                     dE             d eps       ncg     rms          rms(c)
DAV:   1    -0.129183799110E+04    0.32788E+01   -0.34539E+03  6064   0.618E+01    0.162E+01
DAV:   2    -0.148364853426E+04   -0.19181E+03   -0.75168E+01  6744   0.682E+01    0.145E+02
DAV:   3    -0.133099467736E+04    0.15265E+03   -0.59276E+01  7176   0.450E+01    0.888E+01
DAV:   4    -0.129727980850E+04    0.33715E+02   -0.19944E+01  7208   0.225E+01    0.214E+01
DAV:   5    -0.130396938748E+04   -0.66896E+01   -0.18583E+01  8160   0.128E+01    0.503E+01
DAV:   6    -0.129826875857E+04    0.57006E+01   -0.89568E+00  6912   0.124E+01    0.100E+01
DAV:   7    -0.129815411508E+04    0.11464E+00   -0.18885E+00  7216   0.382E+00    0.686E+00
DAV:   8    -0.129815424943E+04   -0.13435E-03   -0.49800E-01  6952   0.194E+00    0.703E+00
DAV:   9    -0.129817449282E+04   -0.20243E-01   -0.26075E-01  6720   0.169E+00    0.655E+00
DAV:  10    -0.129812674513E+04    0.47748E-01   -0.12209E-01  7616   0.167E+00    0.444E+00
DAV:  11    -0.129813795120E+04   -0.11206E-01   -0.69785E-02  7088   0.136E+00    0.520E+00
DAV:  12    -0.129808663967E+04    0.51312E-01   -0.36549E-02  7824   0.632E-01    0.108E+00
DAV:  13    -0.129808761551E+04   -0.97584E-03   -0.11177E-02  8528   0.221E-01    0.118E+00
DAV:  14    -0.129808568135E+04    0.19342E-02   -0.11257E-03  7424   0.109E-01    0.459E-01
DAV:  15    -0.129808562495E+04    0.56396E-04   -0.66741E-04  9128   0.731E-02    0.126E-01
DAV:  16    -0.129808570940E+04   -0.84447E-04   -0.17768E-04  7480   0.240E-02    0.800E-02
DAV:  17    -0.129808573809E+04   -0.28693E-04   -0.21957E-05  5120   0.872E-03    0.869E-02
DAV:  18    -0.129808574940E+04   -0.11305E-04   -0.22028E-06  3144   0.322E-03    0.998E-02
DAV:  19    -0.129808607611E+04   -0.32671E-03   -0.13685E-04  8880   0.441E-02    0.400E-01
DAV:  20    -0.129808576916E+04    0.30695E-03   -0.63583E-05  6864   0.488E-02    0.723E-02
DAV:  21    -0.129808575854E+04    0.10617E-04   -0.25020E-05  5208   0.122E-02    0.264E-02
DAV:  22    -0.129808575874E+04   -0.20443E-06   -0.79603E-06  3128   0.757E-03
   7 F= -.13898517E+04 E0= -.13890120E+04  d E =-.329216E+01
       N       E                     dE             d eps       ncg     rms          rms(c)
DAV:   1    -0.113861878438E+04    0.15947E+03   -0.33851E+04  6064   0.227E+02    0.126E+02
DAV:   2    -0.294126356856E+04   -0.18026E+04   -0.15764E+03  6680   0.266E+02    0.397E+02
DAV:   3    -0.155756449583E+04    0.13837E+04   -0.18141E+03  7760   0.115E+02    0.172E+02
DAV:   4    -0.187701407418E+04   -0.31945E+03   -0.12205E+03  9208   0.141E+02    0.272E+02
DAV:   5    -0.158537373080E+04    0.29164E+03   -0.47208E+02  9304   0.615E+01    0.196E+02
DAV:   6    -0.131508464836E+04    0.27029E+03   -0.23472E+02  7696   0.531E+01    0.679E+01
DAV:   7    -0.132903767707E+04   -0.13953E+02   -0.92386E+01  7392   0.336E+01    0.787E+01
DAV:   8    -0.130963857088E+04    0.19399E+02   -0.34619E+01  6672   0.267E+01    0.500E+01
DAV:   9    -0.130786386287E+04    0.17747E+01   -0.14381E+01  7888   0.820E+00    0.387E+01
DAV:  10    -0.130598978937E+04    0.18741E+01   -0.20919E+00  8560   0.407E+00    0.273E+01
DAV:  11    -0.130685008287E+04   -0.86029E+00   -0.11154E+00  8040   0.449E+00    0.321E+01
DAV:  12    -0.130529971402E+04    0.15504E+01   -0.19407E+00 10424   0.422E+00    0.951E+00
DAV:  13    -0.130542382198E+04   -0.12411E+00   -0.44566E-01 10032   0.233E+00    0.119E+01
DAV:  14    -0.130517815949E+04    0.24566E+00   -0.21021E-01  7416   0.182E+00    0.693E+00
DAV:  15    -0.130533355120E+04   -0.15539E+00   -0.27686E-01 10320   0.137E+00    0.109E+01
DAV:  16    -0.130505862658E+04    0.27492E+00   -0.17132E-01  6800   0.143E+00    0.409E+00
DAV:  17    -0.130504721564E+04    0.11411E-01   -0.66185E-02  7216   0.442E-01    0.388E+00
DAV:  18    -0.130502082039E+04    0.26395E-01   -0.24333E-02  8384   0.485E-01    0.105E+00
DAV:  19    -0.130502542006E+04   -0.45997E-02   -0.17954E-02  7960   0.389E-01    0.167E+00
DAV:  20    -0.130502095233E+04    0.44677E-02   -0.59145E-03  6456   0.207E-01    0.962E-01
DAV:  21    -0.130501938433E+04    0.15680E-02   -0.41501E-03  8880   0.126E-01    0.577E-01
DAV:  22    -0.130501950299E+04   -0.11867E-03   -0.83241E-04  7408   0.592E-02    0.607E-01
DAV:  23    -0.130501864674E+04    0.85625E-03   -0.20713E-04  8424   0.733E-02    0.277E-01
DAV:  24    -0.130501850221E+04    0.14453E-03   -0.16092E-04  7576   0.259E-02    0.204E-01
DAV:  25    -0.130501847502E+04    0.27195E-04   -0.22928E-05  5808   0.170E-02    0.231E-01
DAV:  26    -0.130501842363E+04    0.51390E-04   -0.32864E-05  5840   0.122E-02    0.194E-01
DAV:  27    -0.130501833985E+04    0.83780E-04   -0.22499E-06  3584   0.157E-02    0.843E-02
DAV:  28    -0.130501831876E+04    0.21086E-04   -0.13344E-05  4080   0.892E-03    0.768E-02
DAV:  29    -0.130501831381E+04    0.49507E-05   -0.40589E-06  3232   0.393E-03
   8 F= -.13980215E+04 E0= -.13971832E+04  d E =-.114620E+02
       N       E                     dE             d eps       ncg     rms          rms(c)
DAV:   1     0.414104396369E+03    0.17191E+04   -0.16980E+05  6184   0.671E+02    0.828E+02
DAV:   2    -0.579337048610E+04   -0.62075E+04   -0.19514E+04  6376   0.590E+02    0.989E+02
DAV:   3    -0.349272159838E+04    0.23006E+04   -0.19943E+04  6744   0.310E+02    0.567E+02
DAV:   4    -0.340791073803E+04    0.84811E+02   -0.65170E+03  8776   0.235E+02    0.444E+02
DAV:   5    -0.309017351011E+04    0.31774E+03   -0.89317E+03  8264   0.216E+02    0.533E+02
DAV:   6    -0.229996940407E+04    0.79020E+03   -0.38882E+03  8368   0.124E+02    0.306E+02
DAV:   7    -0.149964575881E+04    0.80032E+03   -0.18869E+03  9664   0.117E+02    0.281E+02
DAV:   8    -0.145253378811E+04    0.47112E+02   -0.75261E+02  8400   0.948E+01    0.294E+02
DAV:   9    -0.137939537858E+04    0.73138E+02   -0.29034E+02  7192   0.714E+01    0.260E+02
DAV:  10    -0.137860902677E+04    0.78635E+00   -0.11008E+02  8680   0.164E+01    0.249E+02
DAV:  11    -0.138052723841E+04   -0.19182E+01   -0.51330E+00  8864   0.339E+00    0.250E+02
DAV:  12    -0.138202454831E+04   -0.14973E+01   -0.22412E-01 10560   0.751E-01    0.250E+02
DAV:  13    -0.133505208361E+04    0.46972E+02   -0.13261E+01  9248   0.171E+01    0.228E+02
DAV:  14    -0.131927564197E+04    0.15776E+02   -0.40507E+01 10272   0.297E+01    0.183E+02
DAV:  15    -0.131574773284E+04    0.35279E+01   -0.15290E+01  9752   0.181E+01    0.186E+02
DAV:  16    -0.132697710518E+04   -0.11229E+02   -0.18065E+01 10272   0.253E+01    0.133E+02
DAV:  17    -0.132210625488E+04    0.48709E+01   -0.59883E+00  9272   0.791E+00    0.125E+02
DAV:  18    -0.131290592440E+04    0.92003E+01   -0.91442E+00  6920   0.132E+01    0.945E+01
DAV:  19    -0.130980178057E+04    0.31041E+01   -0.30335E+00  8576   0.346E+00    0.799E+01
DAV:  20    -0.130786799652E+04    0.19338E+01   -0.68166E+00  9008   0.763E+00    0.416E+01
DAV:  21    -0.131288580871E+04   -0.50178E+01   -0.33979E+00  8440   0.444E+00    0.474E+01
DAV:  22    -0.130967976358E+04    0.32060E+01   -0.51813E+00  9168   0.110E+01    0.445E+01
DAV:  23    -0.130885461290E+04    0.82515E+00   -0.17942E+00  7384   0.519E+00    0.424E+01
DAV:  24    -0.130730098752E+04    0.15536E+01   -0.11906E+00  6928   0.226E+00    0.429E+01
DAV:  25    -0.130704325117E+04    0.25774E+00   -0.20176E+00 10712   0.448E+00    0.410E+01
DAV:  26    -0.130649869738E+04    0.54455E+00   -0.90741E-01  8120   0.216E+00    0.377E+01
DAV:  27    -0.130591203632E+04    0.58666E+00   -0.34568E-01  7312   0.214E+00    0.337E+01
DAV:  28    -0.130461950623E+04    0.12925E+01   -0.30087E-01 11136   0.250E+00    0.249E+01
DAV:  29    -0.130340908900E+04    0.12104E+01   -0.57060E-01  8872   0.292E+00    0.124E+01
DAV:  30    -0.130344387874E+04   -0.34790E-01   -0.17110E-01  6328   0.918E-01    0.136E+01
DAV:  31    -0.130343619928E+04    0.76795E-02   -0.11523E-02  6888   0.212E-01    0.133E+01
DAV:  32    -0.130324138535E+04    0.19481E+00   -0.61516E-02 11280   0.771E-01    0.906E+00
DAV:  33    -0.130327990833E+04   -0.38523E-01   -0.71086E-02 10112   0.112E+00    0.849E+00
DAV:  34    -0.130315861377E+04    0.12129E+00   -0.83218E-02  7064   0.105E+00    0.381E+00
DAV:  35    -0.130314768059E+04    0.10933E-01   -0.28180E-02  8072   0.248E-01    0.312E+00
DAV:  36    -0.130314068131E+04    0.69993E-02   -0.10271E-02  9424   0.324E-01    0.218E+00
DAV:  37    -0.130314639384E+04   -0.57125E-02   -0.18010E-02 11216   0.393E-01    0.268E+00
DAV:  38    -0.130313515576E+04    0.11238E-01   -0.63952E-03  7000   0.243E-01    0.131E+00
DAV:  39    -0.130313415370E+04    0.10021E-02   -0.39751E-03  6544   0.145E-01    0.992E-01
DAV:  40    -0.130313268185E+04    0.14718E-02   -0.38554E-03  7632   0.153E-01    0.514E-01
DAV:  41    -0.130313321195E+04   -0.53010E-03   -0.37957E-03  7080   0.176E-01    0.855E-01
DAV:  42    -0.130313321585E+04   -0.38987E-05   -0.66013E-04  6504   0.591E-02    0.717E-01
DAV:  43    -0.130313301436E+04    0.20149E-03   -0.16349E-04  7152   0.629E-02    0.558E-01
DAV:  44    -0.130313270930E+04    0.30506E-03   -0.39972E-04  9440   0.744E-02    0.474E-01
DAV:  45    -0.130313233679E+04    0.37251E-03   -0.23547E-04  7136   0.484E-02    0.237E-01
DAV:  46    -0.130313234288E+04   -0.60908E-05   -0.26538E-04  8632   0.400E-02    0.180E-01
DAV:  47    -0.130313224912E+04    0.93756E-04   -0.10772E-04  6808   0.444E-02    0.676E-02
DAV:  48    -0.130313224901E+04    0.11246E-06   -0.66712E-05  5800   0.203E-02    0.899E-02
DAV:  49    -0.130313222464E+04    0.24369E-04   -0.22962E-05  5392   0.146E-02    0.788E-02
DAV:  50    -0.130313223507E+04   -0.10427E-04   -0.17446E-05  4272   0.147E-02    0.109E-01
DAV:  51    -0.130313219616E+04    0.38912E-04   -0.18606E-05  3456   0.175E-02    0.331E-02
DAV:  52    -0.130313218690E+04    0.92629E-05   -0.79588E-06  3432   0.709E-03    0.215E-02
DAV:  53    -0.130313217685E+04    0.10044E-04   -0.62781E-06  3304   0.437E-03    0.167E-02
DAV:  54    -0.130313217023E+04    0.66184E-05   -0.92809E-07  3144   0.207E-03    0.716E-03
DAV:  55    -0.130313216447E+04    0.57647E-05   -0.90666E-07  3128   0.356E-03    0.176E-02
DAV:  56    -0.130313216032E+04    0.41451E-05   -0.76164E-07  3120   0.185E-03
   9 F= -.13996120E+04 E0= -.13988184E+04  d E =-.130525E+02
       N       E                     dE             d eps       ncg     rms          rms(c)
DAV:   1    -0.111801818933E+04    0.18511E+03   -0.35350E+04  6064   0.235E+02    0.124E+02
DAV:   2    -0.163276898948E+04   -0.51475E+03   -0.21987E+03  6400   0.127E+02    0.264E+02
DAV:   3    -0.184489203769E+04   -0.21212E+03   -0.87328E+02  6976   0.134E+02    0.250E+02
DAV:   4    -0.197584821343E+04   -0.13096E+03   -0.85023E+02  8520   0.129E+02    0.238E+02
DAV:   5    -0.172675856273E+04    0.24909E+03   -0.61230E+02  9224   0.914E+01    0.239E+02
DAV:   6    -0.138654423345E+04    0.34021E+03   -0.42795E+02  8712   0.779E+01    0.962E+01
DAV:   7    -0.132497423800E+04    0.61570E+02   -0.16475E+02  7792   0.317E+01    0.714E+01
DAV:   8    -0.130875630547E+04    0.16218E+02   -0.32123E+01 10368   0.133E+01    0.432E+01
DAV:   9    -0.131099764060E+04   -0.22413E+01   -0.13077E+01  6224   0.111E+01    0.441E+01
DAV:  10    -0.130960262931E+04    0.13950E+01   -0.22750E+00  6168   0.519E+00    0.383E+01
DAV:  11    -0.130909066053E+04    0.51197E+00   -0.24590E+00 11648   0.659E+00    0.303E+01
DAV:  12    -0.130790083000E+04    0.11898E+01   -0.18266E+00  8840   0.537E+00    0.214E+01
DAV:  13    -0.131031724901E+04   -0.24164E+01   -0.10244E+00 10336   0.440E+00    0.327E+01
DAV:  14    -0.130930852907E+04    0.10087E+01   -0.37463E-01  6408   0.218E+00    0.231E+01
DAV:  15    -0.130987773664E+04   -0.56921E+00   -0.26820E-01  6848   0.163E+00    0.274E+01
DAV:  16    -0.130831050006E+04    0.15672E+01   -0.37113E-01  7672   0.223E+00    0.155E+01
DAV:  17    -0.130786950534E+04    0.44099E+00   -0.19915E-01 10912   0.977E-01    0.103E+01
DAV:  18    -0.130772176001E+04    0.14775E+00   -0.63109E-02  6968   0.716E-01    0.787E+00
DAV:  19    -0.130756105340E+04    0.16071E+00   -0.44389E-02 11264   0.700E-01    0.360E+00
DAV:  20    -0.130754928378E+04    0.11770E-01   -0.75793E-02  9736   0.793E-01    0.268E+00
DAV:  21    -0.130754624040E+04    0.30434E-02   -0.27845E-02  6112   0.351E-01    0.237E+00
DAV:  22    -0.130754441929E+04    0.18211E-02   -0.88210E-04  6976   0.116E-01    0.228E+00
DAV:  23    -0.130754235315E+04    0.20661E-02   -0.14049E-02 10064   0.290E-01    0.179E+00
DAV:  24    -0.130753883403E+04    0.35191E-02   -0.49852E-03  6800   0.317E-01    0.132E+00
DAV:  25    -0.130754074139E+04   -0.19074E-02   -0.20118E-03  6784   0.126E-01    0.157E+00
DAV:  26    -0.130753804733E+04    0.26941E-02   -0.11874E-03  6352   0.107E-01    0.111E+00
DAV:  27    -0.130753715426E+04    0.89308E-03   -0.44671E-04 11072   0.538E-02    0.843E-01
DAV:  28    -0.130753661987E+04    0.53438E-03   -0.41565E-04  7136   0.541E-02    0.575E-01
DAV:  29    -0.130753665906E+04   -0.39192E-04   -0.80556E-05  7504   0.153E-02    0.497E-01
DAV:  30    -0.130753662793E+04    0.31135E-04   -0.11304E-05  3776   0.131E-02    0.434E-01
DAV:  31    -0.130753645287E+04    0.17506E-03   -0.24289E-04  8768   0.450E-02    0.201E-01
DAV:  32    -0.130753652015E+04   -0.67272E-04   -0.57250E-05  7208   0.157E-02    0.125E-01
DAV:  33    -0.130753652985E+04   -0.96995E-05   -0.14603E-05  4504   0.131E-02    0.547E-02
DAV:  34    -0.130753654906E+04   -0.19215E-04   -0.20489E-05  4752   0.762E-03    0.543E-02
DAV:  35    -0.130753655378E+04   -0.47192E-05   -0.45984E-06  3136   0.668E-03
  10 F= -.14021253E+04 E0= -.14012869E+04  d E =-.155658E+02
       N       E                     dE             d eps       ncg     rms          rms(c)
DAV:   1    -0.129363598643E+04    0.13901E+02   -0.74543E+03  6048   0.946E+01    0.271E+01
DAV:   2    -0.169448264219E+04   -0.40085E+03   -0.18483E+02  6720   0.100E+02    0.224E+02
DAV:   3    -0.136334864440E+04    0.33113E+03   -0.16427E+02  7568   0.566E+01    0.967E+01
DAV:   4    -0.131310562603E+04    0.50243E+02   -0.43278E+01  7552   0.365E+01    0.351E+01
DAV:   5    -0.132148931073E+04   -0.83837E+01   -0.35621E+01  7656   0.230E+01    0.551E+01
DAV:   6    -0.131243972622E+04    0.90496E+01   -0.17454E+01  6656   0.184E+01    0.276E+01
DAV:   7    -0.131200311917E+04    0.43661E+00   -0.61965E+00  8008   0.950E+00    0.231E+01
DAV:   8    -0.131137345958E+04    0.62966E+00   -0.22180E+00  6784   0.367E+00    0.160E+01
DAV:   9    -0.131081266187E+04    0.56080E+00   -0.48769E-01  7800   0.234E+00    0.426E+00
DAV:  10    -0.131085260294E+04   -0.39941E-01   -0.26669E-01  6696   0.151E+00    0.410E+00
DAV:  11    -0.131084147882E+04    0.11124E-01   -0.11057E-01  6960   0.116E+00    0.280E+00
DAV:  12    -0.131083735518E+04    0.41236E-02   -0.43774E-02  7688   0.762E-01    0.216E+00
DAV:  13    -0.131083070798E+04    0.66472E-02   -0.17240E-02  6816   0.390E-01    0.110E+00
DAV:  14    -0.131083319917E+04   -0.24912E-02   -0.45956E-03  7056   0.188E-01    0.143E+00
DAV:  15    -0.131083290285E+04    0.29632E-03   -0.16118E-03  8408   0.117E-01    0.150E+00
DAV:  16    -0.131082929001E+04    0.36128E-02   -0.40159E-04  7904   0.111E-01    0.828E-01
DAV:  17    -0.131082877452E+04    0.51549E-03   -0.34164E-04 10648   0.496E-02    0.665E-01
DAV:  18    -0.131082812998E+04    0.64454E-03   -0.92909E-05  8104   0.408E-02    0.397E-01
DAV:  19    -0.131082797235E+04    0.15763E-03   -0.58507E-05  7856   0.149E-02    0.289E-01
DAV:  20    -0.131082782326E+04    0.14909E-03   -0.36570E-06  3624   0.144E-02    0.171E-01
DAV:  21    -0.131082772817E+04    0.95088E-04   -0.63116E-05  8408   0.261E-02    0.162E-02
DAV:  22    -0.131082771180E+04    0.16373E-04   -0.19658E-05  4768   0.753E-03    0.131E-02
DAV:  23    -0.131082770397E+04    0.78245E-05   -0.19353E-06  3176   0.321E-03    0.614E-03
DAV:  24    -0.131082769525E+04    0.87195E-05   -0.63465E-07  3392   0.311E-03    0.220E-02
DAV:  25    -0.131082768660E+04    0.86480E-05   -0.38560E-07  3168   0.249E-03    0.913E-03
DAV:  26    -0.131082768422E+04    0.23819E-05   -0.27877E-07  3120   0.768E-04
  11 F= -.14059530E+04 E0= -.14051284E+04  d E =-.382771E+01
       N       E                     dE             d eps       ncg     rms          rms(c)
DAV:   1    -0.786270016732E+03    0.52456E+03   -0.76030E+04  6072   0.392E+02    0.286E+02
DAV:   2    -0.261187061435E+04   -0.18256E+04   -0.57008E+03  6360   0.260E+02    0.428E+02
DAV:   3    -0.292409801081E+04   -0.31223E+03   -0.46925E+03  8464   0.251E+02    0.325E+02
DAV:   4    -0.279209553215E+04    0.13200E+03   -0.20312E+03  9352   0.154E+02    0.333E+02
DAV:   5    -0.185816307977E+04    0.93393E+03   -0.91693E+02  7960   0.700E+01    0.220E+02
DAV:   6    -0.222381975649E+04   -0.36566E+03   -0.17005E+03  8704   0.159E+02    0.308E+02
DAV:   7    -0.155864977337E+04    0.66517E+03   -0.64513E+02  8664   0.703E+01    0.164E+02
DAV:   8    -0.136519723677E+04    0.19345E+03   -0.12116E+02  8528   0.405E+01    0.131E+02
DAV:   9    -0.133542730408E+04    0.29770E+02   -0.90752E+01  8360   0.232E+01    0.945E+01
DAV:  10    -0.132519552473E+04    0.10232E+02   -0.19322E+01  7696   0.905E+00    0.818E+01
DAV:  11    -0.132370585521E+04    0.14897E+01   -0.46037E+00  6632   0.428E+00    0.748E+01
DAV:  12    -0.133129255340E+04   -0.75867E+01   -0.83852E+00  9608   0.171E+01    0.851E+01
DAV:  13    -0.132701544538E+04    0.42771E+01   -0.33632E+00  6392   0.435E+00    0.757E+01
DAV:  14    -0.132055915599E+04    0.64563E+01   -0.63676E+00  8856   0.151E+01    0.462E+01
DAV:  15    -0.132327982212E+04   -0.27207E+01   -0.64945E+00 10528   0.121E+01    0.546E+01
DAV:  16    -0.131877954868E+04    0.45003E+01   -0.59000E+00  6704   0.129E+01    0.309E+01
DAV:  17    -0.131782867572E+04    0.95087E+00   -0.24178E+00  6952   0.542E+00    0.200E+01
DAV:  18    -0.131783556524E+04   -0.68895E-02   -0.96468E-01  6488   0.358E+00    0.224E+01
DAV:  19    -0.131659769570E+04    0.12379E+01   -0.48862E-01  6584   0.387E+00    0.117E+01
DAV:  20    -0.131735035969E+04   -0.75266E+00   -0.70497E-01 10600   0.293E+00    0.227E+01
DAV:  21    -0.131624506034E+04    0.11053E+01   -0.41034E-01  9600   0.258E+00    0.595E+00
DAV:  22    -0.131622726146E+04    0.17799E-01   -0.12795E-01  7808   0.139E+00    0.562E+00
DAV:  23    -0.131620392097E+04    0.23340E-01   -0.54466E-02  8312   0.695E-01    0.514E+00
DAV:  24    -0.131623479535E+04   -0.30874E-01   -0.32463E-02  6512   0.437E-01    0.640E+00
DAV:  25    -0.131619370441E+04    0.41091E-01   -0.34615E-02  6856   0.586E-01    0.461E+00
DAV:  26    -0.131615020210E+04    0.43502E-01   -0.17422E-02  6872   0.621E-01    0.181E+00
DAV:  27    -0.131616403798E+04   -0.13836E-01   -0.83122E-03  6984   0.336E-01    0.308E+00
DAV:  28    -0.131614892311E+04    0.15115E-01   -0.11186E-02  7280   0.509E-01    0.128E+00
DAV:  29    -0.131615813962E+04   -0.92165E-02   -0.93899E-03 10856   0.238E-01    0.243E+00
DAV:  30    -0.131615121220E+04    0.69274E-02   -0.17250E-03  6712   0.162E-01    0.166E+00
DAV:  31    -0.131614644109E+04    0.47711E-02   -0.12583E-03 11344   0.145E-01    0.984E-01
DAV:  32    -0.131614604763E+04    0.39346E-03   -0.25992E-03 10856   0.236E-01    0.999E-01
DAV:  33    -0.131614547945E+04    0.56818E-03   -0.83897E-04  6280   0.589E-02    0.883E-01
DAV:  34    -0.131614382134E+04    0.16581E-02   -0.23767E-04  7320   0.101E-01    0.222E-01
DAV:  35    -0.131614394068E+04   -0.11934E-03   -0.49209E-04 10704   0.496E-02    0.274E-01
DAV:  36    -0.131614381787E+04    0.12280E-03   -0.15101E-04  7080   0.563E-02    0.140E-01
DAV:  37    -0.131614369893E+04    0.11895E-03   -0.39813E-05  6616   0.328E-02    0.911E-02
DAV:  38    -0.131614360616E+04    0.92768E-04   -0.42534E-05  7576   0.191E-02    0.487E-02
DAV:  39    -0.131614353955E+04    0.66616E-04   -0.33142E-05  6064   0.130E-02    0.298E-02
DAV:  40    -0.131614349008E+04    0.49469E-04   -0.24219E-06  3544   0.114E-02    0.487E-02
DAV:  41    -0.131614342787E+04    0.62206E-04   -0.60180E-06  3664   0.103E-02    0.188E-02
DAV:  42    -0.131614339760E+04    0.30267E-04   -0.15204E-06  3352   0.434E-03    0.259E-02
DAV:  43    -0.131614337136E+04    0.26240E-04   -0.21981E-06  3328   0.591E-03    0.626E-03
DAV:  44    -0.131614336634E+04    0.50226E-05   -0.91771E-07  3136   0.434E-03    0.209E-02
DAV:  45    -0.131614335688E+04    0.94660E-05   -0.51913E-07  3136   0.294E-03    0.617E-03
DAV:  46    -0.131614335082E+04    0.60506E-05   -0.50434E-07  3128   0.131E-03    0.709E-03
DAV:  47    -0.131614334889E+04    0.19360E-05   -0.17459E-07  3176   0.191E-03
  12 F= -.14135170E+04 E0= -.14127699E+04  d E =-.113918E+02
       N       E                     dE             d eps       ncg     rms          rms(c)
DAV:   1    -0.127610139514E+04    0.40042E+02   -0.13215E+04  6056   0.130E+02    0.457E+01
DAV:   2    -0.186045037013E+04   -0.58435E+03   -0.38536E+02  6576   0.128E+02    0.254E+02
DAV:   3    -0.137472285622E+04    0.48573E+03   -0.34018E+02  7552   0.771E+01    0.991E+01
DAV:   4    -0.136474031334E+04    0.99825E+01   -0.11899E+02  7976   0.614E+01    0.105E+02
DAV:   5    -0.134414661130E+04    0.20594E+02   -0.60104E+01  6736   0.420E+01    0.822E+01
DAV:   6    -0.132295458545E+04    0.21192E+02   -0.29227E+01  6704   0.189E+01    0.539E+01
DAV:   7    -0.131775618513E+04    0.51984E+01   -0.12640E+01  6944   0.116E+01    0.286E+01
DAV:   8    -0.131541396116E+04    0.23422E+01   -0.40446E+00  7440   0.672E+00    0.117E+01
DAV:   9    -0.131611008039E+04   -0.69612E+00   -0.29786E+00  6472   0.647E+00    0.189E+01
DAV:  10    -0.131555952762E+04    0.55055E+00   -0.13368E+00  7576   0.571E+00    0.925E+00
DAV:  11    -0.131563478310E+04   -0.75255E-01   -0.75170E-01 10688   0.183E+00    0.970E+00
DAV:  12    -0.131556815322E+04    0.66630E-01   -0.10813E-01  8344   0.950E-01    0.840E+00
DAV:  13    -0.131541516065E+04    0.15299E+00   -0.41743E-02  8984   0.853E-01    0.479E+00
DAV:  14    -0.131537031176E+04    0.44849E-01   -0.40812E-02  8672   0.571E-01    0.256E+00
DAV:  15    -0.131535342384E+04    0.16888E-01   -0.22539E-02  7712   0.476E-01    0.954E-01
DAV:  16    -0.131535356751E+04   -0.14367E-03   -0.56672E-03  6480   0.260E-01    0.687E-01
DAV:  17    -0.131535244828E+04    0.11192E-02   -0.29234E-03  6688   0.199E-01    0.313E-01
DAV:  18    -0.131535299718E+04   -0.54890E-03   -0.12518E-03  6152   0.122E-01    0.556E-01
DAV:  19    -0.131535262264E+04    0.37454E-03   -0.21205E-04 10624   0.338E-02    0.361E-01
DAV:  20    -0.131535238489E+04    0.23775E-03   -0.16402E-04  9616   0.359E-02    0.143E-01
DAV:  21    -0.131535236674E+04    0.18153E-04   -0.40081E-05  6760   0.291E-02    0.732E-02
DAV:  22    -0.131535237003E+04   -0.32911E-05   -0.25132E-05  5464   0.830E-03
  13 F= -.14138816E+04 E0= -.14131897E+04  d E =-.117563E+02
       N       E                     dE             d eps       ncg     rms          rms(c)
DAV:   1    -0.131360589406E+04    0.17465E+01   -0.17824E+03  6048   0.447E+01    0.107E+01
DAV:   2    -0.144939120570E+04   -0.13579E+03   -0.37677E+01  6672   0.501E+01    0.143E+02
DAV:   3    -0.132424816572E+04    0.12514E+03   -0.20671E+01  6824   0.355E+01    0.480E+01
DAV:   4    -0.131580690145E+04    0.84413E+01   -0.96809E+00  7608   0.118E+01    0.104E+01
DAV:   5    -0.131739045525E+04   -0.15836E+01   -0.59935E+00  7840   0.817E+00    0.216E+01
DAV:   6    -0.131601696222E+04    0.13735E+01   -0.31300E+00  6712   0.720E+00    0.667E+00
DAV:   7    -0.131615120269E+04   -0.13424E+00   -0.10047E+00  8952   0.274E+00    0.104E+01
DAV:   8    -0.131603325653E+04    0.11795E+00   -0.37804E-01  6776   0.267E+00    0.675E+00
DAV:   9    -0.131594088136E+04    0.92375E-01   -0.12804E-01  7240   0.138E+00    0.219E+00
DAV:  10    -0.131596680043E+04   -0.25919E-01   -0.45843E-02  6896   0.881E-01    0.415E+00
DAV:  11    -0.131594249075E+04    0.24310E-01   -0.13859E-02  7072   0.362E-01    0.243E+00
DAV:  12    -0.131592862473E+04    0.13866E-01   -0.53734E-03  9504   0.346E-01    0.252E-01
DAV:  13    -0.131592880831E+04   -0.18358E-03   -0.27264E-03  6752   0.104E-01    0.268E-01
DAV:  14    -0.131592877353E+04    0.34785E-04   -0.31966E-04  6712   0.512E-02    0.131E-01
DAV:  15    -0.131592873090E+04    0.42621E-04   -0.14148E-04  9736   0.279E-02    0.705E-02
DAV:  16    -0.131592876091E+04   -0.30011E-04   -0.45083E-05  6464   0.151E-02    0.142E-01
DAV:  17    -0.131592875024E+04    0.10673E-04   -0.17975E-05  4456   0.146E-02    0.930E-02
DAV:  18    -0.131592874578E+04    0.44580E-05   -0.58603E-06  3496   0.525E-03
  14 F= -.14140224E+04 E0= -.14133083E+04  d E =-.118971E+02
       N       E                     dE             d eps       ncg     rms          rms(c)
DAV:   1    -0.130377537901E+04    0.12153E+02   -0.51508E+03  6048   0.772E+01    0.219E+01
DAV:   2    -0.158110803380E+04   -0.27733E+03   -0.12937E+02  6648   0.793E+01    0.177E+02
DAV:   3    -0.132480199567E+04    0.25631E+03   -0.99759E+01  7160   0.571E+01    0.571E+01
DAV:   4    -0.132031661715E+04    0.44854E+01   -0.40329E+01  8184   0.264E+01    0.421E+01
DAV:   5    -0.132449633875E+04   -0.41797E+01   -0.25660E+01  6816   0.213E+01    0.514E+01
DAV:   6    -0.131681375720E+04    0.76826E+01   -0.88864E+00  6520   0.134E+01    0.256E+01
DAV:   7    -0.131562673460E+04    0.11870E+01   -0.38162E+00  8544   0.634E+00    0.111E+01
DAV:   8    -0.131546807895E+04    0.15866E+00   -0.14529E+00  6704   0.357E+00    0.656E+00
DAV:   9    -0.131595068084E+04   -0.48260E+00   -0.41558E-01  8256   0.163E+00    0.155E+01
DAV:  10    -0.131542165864E+04    0.52902E+00   -0.28655E-01  6616   0.239E+00    0.410E+00
DAV:  11    -0.131544400219E+04   -0.22344E-01   -0.68045E-02 10016   0.490E-01    0.463E+00
DAV:  12    -0.131540392404E+04    0.40078E-01   -0.11567E-02  7840   0.429E-01    0.182E+00
DAV:  13    -0.131539869944E+04    0.52246E-02   -0.74768E-03  8680   0.177E-01    0.109E+00
DAV:  14    -0.131539699015E+04    0.17093E-02   -0.99800E-04 10184   0.839E-02    0.505E-01
DAV:  15    -0.131539664031E+04    0.34983E-03   -0.40508E-04 10768   0.686E-02    0.215E-01
DAV:  16    -0.131539669936E+04   -0.59049E-04   -0.41271E-04  6464   0.359E-02    0.223E-01
DAV:  17    -0.131539701958E+04   -0.32022E-03   -0.56306E-05  6704   0.458E-02    0.447E-01
DAV:  18    -0.131539675186E+04    0.26772E-03   -0.47168E-05  7064   0.265E-02    0.303E-01
DAV:  19    -0.131539655348E+04    0.19838E-03   -0.35476E-05  6688   0.302E-02    0.988E-02
DAV:  20    -0.131539654347E+04    0.10015E-04   -0.45812E-05  6984   0.103E-02    0.363E-02
DAV:  21    -0.131539654311E+04    0.35693E-06   -0.57251E-06  3216   0.548E-03
  15 F= -.14143270E+04 E0= -.14136480E+04  d E =-.304632E+00
       N       E                     dE             d eps       ncg     rms          rms(c)
DAV:   1    -0.131516001742E+04    0.23653E+00   -0.58624E+02  6048   0.252E+01    0.582E+00
DAV:   2    -0.136855649657E+04   -0.53396E+02   -0.14515E+01  6736   0.269E+01    0.110E+02
DAV:   3    -0.131637560679E+04    0.52181E+02   -0.10754E+01  6960   0.225E+01    0.153E+01
DAV:   4    -0.131583523090E+04    0.54038E+00   -0.34588E+00  8224   0.481E+00    0.683E+00
DAV:   5    -0.131659318422E+04   -0.75795E+00   -0.18042E+00  7432   0.490E+00    0.142E+01
DAV:   6    -0.131591602407E+04    0.67716E+00   -0.81084E-01  6936   0.417E+00    0.703E+00
DAV:   7    -0.131589830019E+04    0.17724E-01   -0.31652E-01  8528   0.203E+00    0.687E+00
DAV:   8    -0.131579922603E+04    0.99074E-01   -0.10468E-01  6952   0.133E+00    0.473E-01
DAV:   9    -0.131579927083E+04   -0.44804E-04   -0.23213E-02  9344   0.264E-01    0.600E-01
DAV:  10    -0.131579956934E+04   -0.29851E-03   -0.29941E-03  6664   0.111E-01    0.474E-01
DAV:  11    -0.131580214897E+04   -0.25796E-02   -0.13234E-03  8808   0.189E-01    0.111E+00
DAV:  12    -0.131579939426E+04    0.27547E-02   -0.79689E-04  7504   0.158E-01    0.299E-01
DAV:  13    -0.131579918333E+04    0.21093E-03   -0.23551E-04 10200   0.407E-02    0.113E-01
DAV:  14    -0.131579916079E+04    0.22535E-04   -0.51091E-05  6336   0.181E-02    0.529E-02
DAV:  15    -0.131579916082E+04   -0.27241E-07   -0.19252E-05  4760   0.134E-02
  16 F= -.14144413E+04 E0= -.14137504E+04  d E =-.418965E+00
       N       E                     dE             d eps       ncg     rms          rms(c)
DAV:   1    -0.131579043930E+04    0.87215E-02   -0.50972E-01  6056   0.739E-01    0.187E-01
DAV:   2    -0.131588078832E+04   -0.90349E-01   -0.49329E-02  6800   0.918E-01    0.621E+00
DAV:   3    -0.131579233510E+04    0.88453E-01   -0.29477E-02  6832   0.912E-01    0.484E-01
DAV:   4    -0.131579135361E+04    0.98148E-03   -0.21568E-03 10216   0.196E-01    0.403E-01
DAV:   5    -0.131579140110E+04   -0.47483E-04   -0.98508E-04  8552   0.159E-01    0.450E-01
DAV:   6    -0.131579091249E+04    0.48861E-03   -0.39988E-04  7392   0.113E-01    0.258E-01
DAV:   7    -0.131579075608E+04    0.15641E-03   -0.10293E-04  7376   0.433E-02    0.197E-02
DAV:   8    -0.131579075942E+04   -0.33455E-05   -0.43437E-05  6680   0.101E-02
  17 F= -.14144414E+04 E0= -.14137508E+04  d E =-.419012E+00
       N       E                     dE             d eps       ncg     rms          rms(c)
DAV:   1    -0.131575444649E+04    0.36310E-01   -0.58665E+01  6072   0.789E+00    0.196E+00
DAV:   2    -0.131958679978E+04   -0.38324E+01   -0.21267E+00  6688   0.755E+00    0.333E+01
DAV:   3    -0.131639210569E+04    0.31947E+01   -0.14254E+00  6664   0.733E+00    0.137E+01
DAV:   4    -0.131579012045E+04    0.60199E+00   -0.45188E-01  7136   0.297E+00    0.169E+00
DAV:   5    -0.131587541281E+04   -0.85292E-01   -0.19273E-01  7800   0.155E+00    0.451E+00
DAV:   6    -0.131581574863E+04    0.59664E-01   -0.14570E-01  6928   0.134E+00    0.184E+00
DAV:   7    -0.131581106566E+04    0.46830E-02   -0.26428E-02  7408   0.536E-01    0.113E+00
DAV:   8    -0.131581002263E+04    0.10430E-02   -0.86612E-03  8336   0.187E-01    0.701E-01
DAV:   9    -0.131580954495E+04    0.47768E-03   -0.17185E-03  7672   0.146E-01    0.430E-01
DAV:  10    -0.131580909497E+04    0.44998E-03   -0.82533E-04  6648   0.115E-01    0.949E-02
DAV:  11    -0.131580915294E+04   -0.57968E-04   -0.13558E-04  7448   0.417E-02    0.182E-01
DAV:  12    -0.131580908816E+04    0.64776E-04   -0.10565E-04  6152   0.384E-02    0.421E-02
DAV:  13    -0.131580909241E+04   -0.42457E-05   -0.17356E-05  4288   0.653E-03
  18 F= -.14144647E+04 E0= -.14137699E+04  d E =-.233024E-01
       N       E                     dE             d eps       ncg     rms          rms(c)
DAV:   1    -0.131580941106E+04   -0.32290E-03   -0.48776E-01  6072   0.720E-01    0.184E-01
DAV:   2    -0.131586280643E+04   -0.53395E-01   -0.27454E-02  6712   0.762E-01    0.480E+00
DAV:   3    -0.131581405549E+04    0.48751E-01   -0.25733E-02  6704   0.773E-01    0.111E+00
DAV:   4    -0.131580967691E+04    0.43786E-02   -0.20979E-03  7448   0.263E-01    0.111E-01
DAV:   5    -0.131581002117E+04   -0.34425E-03   -0.99244E-04  7920   0.865E-02    0.268E-01
DAV:   6    -0.131580987291E+04    0.14825E-03   -0.36020E-04  6632   0.800E-02    0.157E-01
DAV:   7    -0.131580982813E+04    0.44784E-04   -0.91320E-05  6752   0.379E-02    0.796E-02
DAV:   8    -0.131580983214E+04   -0.40124E-05   -0.43980E-05  6488   0.129E-02
  19 F= -.14144649E+04 E0= -.14137707E+04  d E =-.235682E-01
       N       E                     dE             d eps       ncg     rms          rms(c)
DAV:   1    -0.131580474575E+04    0.50824E-02   -0.46606E+00  6104   0.219E+00    0.297E-01
DAV:   2    -0.131582564305E+04   -0.20897E-01   -0.62982E-02  6696   0.702E-01    0.226E+00
DAV:   3    -0.131581197595E+04    0.13667E-01   -0.26085E-02  6320   0.702E-01    0.963E-01
DAV:   4    -0.131581234917E+04   -0.37323E-03   -0.70496E-03  6792   0.308E-01    0.100E+00
DAV:   5    -0.131581580629E+04   -0.34571E-02   -0.94734E-03  8024   0.390E-01    0.128E+00
DAV:   6    -0.131580965800E+04    0.61483E-02   -0.35017E-03  7632   0.321E-01    0.118E-01
DAV:   7    -0.131581010516E+04   -0.44716E-03   -0.80226E-04  9512   0.561E-02    0.131E-01
DAV:   8    -0.131581009309E+04    0.12065E-04   -0.13015E-04  6408   0.435E-02    0.897E-02
DAV:   9    -0.131581010497E+04   -0.11872E-04   -0.22572E-05  4800   0.862E-03    0.905E-02
DAV:  10    -0.131581009356E+04    0.11404E-04   -0.59404E-06  3504   0.164E-02    0.280E-02
DAV:  11    -0.131581009323E+04    0.33458E-06   -0.41222E-06  3104   0.608E-03
  20 F= -.14144662E+04 E0= -.14137716E+04  d E =-.126816E-02
       N       E                     dE             d eps       ncg     rms          rms(c)
DAV:   1    -0.131581022648E+04   -0.13292E-03   -0.30463E-01  6104   0.559E-01    0.787E-02
DAV:   2    -0.131581194360E+04   -0.17171E-02   -0.40186E-03  6672   0.193E-01    0.704E-01
DAV:   3    -0.131581111562E+04    0.82798E-03   -0.18555E-03  6352   0.198E-01    0.492E-01
DAV:   4    -0.131581059182E+04    0.52380E-03   -0.52377E-04  6560   0.104E-01    0.118E-01
DAV:   5    -0.131581091051E+04   -0.31869E-03   -0.46495E-04  8096   0.951E-02    0.321E-01
DAV:   6    -0.131581053107E+04    0.37945E-03   -0.24336E-04  7576   0.850E-02    0.315E-02
DAV:   7    -0.131581054454E+04   -0.13468E-04   -0.59223E-05  7336   0.177E-02    0.351E-02
DAV:   8    -0.131581054458E+04   -0.41677E-07   -0.85399E-06  3224   0.671E-03
  21 F= -.14144664E+04 E0= -.14137719E+04  d E =-.145488E-02
       N       E                     dE             d eps       ncg     rms          rms(c)
DAV:   1    -0.131580254504E+04    0.79995E-02   -0.48830E-01  6056   0.718E-01    0.167E-01
DAV:   2    -0.131586733527E+04   -0.64790E-01   -0.31649E-02  6856   0.787E-01    0.517E+00
DAV:   3    -0.131580460075E+04    0.62735E-01   -0.31385E-02  6784   0.786E-01    0.725E-01
DAV:   4    -0.131580285932E+04    0.17414E-02   -0.16112E-03  8456   0.193E-01    0.186E-01
DAV:   5    -0.131580291980E+04   -0.60473E-04   -0.65757E-04  7648   0.819E-02    0.246E-01
DAV:   6    -0.131580291615E+04    0.36487E-05   -0.19766E-04  6784   0.554E-02    0.222E-01
DAV:   7    -0.131580278768E+04    0.12846E-03   -0.98437E-05  6536   0.468E-02    0.256E-02
DAV:   8    -0.131580279212E+04   -0.44331E-05   -0.38487E-05  6360   0.101E-02
  22 F= -.14144667E+04 E0= -.14137725E+04  d E =-.343086E-03
       N       E                     dE             d eps       ncg     rms          rms(c)
DAV:   1    -0.131578661912E+04    0.16169E-01   -0.18620E+00  6056   0.140E+00    0.316E-01
DAV:   2    -0.131601349167E+04   -0.22687E+00   -0.11903E-01  6856   0.147E+00    0.970E+00
DAV:   3    -0.131579391274E+04    0.21958E+00   -0.85774E-02  6784   0.148E+00    0.141E+00
DAV:   4    -0.131578776619E+04    0.61465E-02   -0.61964E-03  8496   0.371E-01    0.340E-01
DAV:   5    -0.131578840910E+04   -0.64291E-03   -0.28231E-03  7704   0.182E-01    0.580E-01
DAV:   6    -0.131578800234E+04    0.40676E-03   -0.90383E-04  6808   0.133E-01    0.445E-01
DAV:   7    -0.131578753631E+04    0.46603E-03   -0.32098E-04  6832   0.812E-02    0.505E-02
DAV:   8    -0.131578756513E+04   -0.28819E-04   -0.17897E-04  8464   0.187E-02    0.101E-01
DAV:   9    -0.131578755086E+04    0.14277E-04   -0.18437E-05  4872   0.194E-02    0.286E-02
DAV:  10    -0.131578755346E+04   -0.26014E-05   -0.53030E-06  3328   0.892E-03
  23 F= -.14144673E+04 E0= -.14137736E+04  d E =-.910344E-03
       N       E                     dE             d eps       ncg     rms          rms(c)
DAV:   1    -0.131575255415E+04    0.34997E-01   -0.74456E+00  6056   0.281E+00    0.608E-01
DAV:   2    -0.131658193489E+04   -0.82938E+00   -0.42571E-01  6920   0.282E+00    0.185E+01
DAV:   3    -0.131577921479E+04    0.80272E+00   -0.33632E-01  6848   0.282E+00    0.278E+00
DAV:   4    -0.131575658917E+04    0.22626E-01   -0.26404E-02  8408   0.729E-01    0.611E-01
DAV:   5    -0.131575859712E+04   -0.20079E-02   -0.10517E-02  7496   0.313E-01    0.102E+00
DAV:   6    -0.131575805222E+04    0.54490E-03   -0.32322E-03  6680   0.221E-01    0.863E-01
DAV:   7    -0.131575620322E+04    0.18490E-02   -0.13743E-03  6624   0.164E-01    0.666E-02
DAV:   8    -0.131575630809E+04   -0.10487E-03   -0.63918E-04  9224   0.352E-02    0.205E-01
DAV:   9    -0.131575624433E+04    0.63760E-04   -0.11590E-04  6408   0.434E-02    0.404E-02
DAV:  10    -0.131575624917E+04   -0.48440E-05   -0.10925E-05  3672   0.112E-02
  24 F= -.14144676E+04 E0= -.14137750E+04  d E =-.123839E-02
       N       E                     dE             d eps       ncg     rms          rms(c)
DAV:   1    -0.131574998133E+04    0.62630E-02   -0.10600E+00  6064   0.106E+00    0.246E-01
DAV:   2    -0.131587275004E+04   -0.12277E+00   -0.61219E-02  6768   0.110E+00    0.736E+00
DAV:   3    -0.131575522163E+04    0.11753E+00   -0.52746E-02  6704   0.111E+00    0.945E-01
DAV:   4    -0.131575095610E+04    0.42655E-02   -0.50512E-03  8528   0.298E-01    0.315E-01
DAV:   5    -0.131575132652E+04   -0.37042E-03   -0.15771E-03  7560   0.137E-01    0.442E-01
DAV:   6    -0.131575111698E+04    0.20954E-03   -0.63441E-04  6760   0.110E-01    0.329E-01
DAV:   7    -0.131575087792E+04    0.23906E-03   -0.28955E-04  6776   0.663E-02    0.833E-02
DAV:   8    -0.131575087626E+04    0.16515E-05   -0.11079E-04  8120   0.205E-02    0.829E-02
DAV:   9    -0.131575087227E+04    0.39905E-05   -0.80615E-06  3368   0.111E-02
  25 F= -.14144675E+04 E0= -.14137755E+04  d E =0.100228E-03
       N       E                     dE             d eps       ncg     rms          rms(c)
DAV:   1    -0.131575387337E+04   -0.29971E-02   -0.37788E-01  6064   0.631E-01    0.153E-01
DAV:   2    -0.131580053362E+04   -0.46660E-01   -0.22256E-02  6776   0.690E-01    0.440E+00
DAV:   3    -0.131575606566E+04    0.44468E-01   -0.17847E-02  6696   0.685E-01    0.600E-01
DAV:   4    -0.131575421200E+04    0.18537E-02   -0.19465E-03  8392   0.188E-01    0.181E-01
DAV:   5    -0.131575433513E+04   -0.12313E-03   -0.58448E-04  7464   0.749E-02    0.258E-01
DAV:   6    -0.131575430208E+04    0.33047E-04   -0.21390E-04  6560   0.620E-02    0.214E-01
DAV:   7    -0.131575418670E+04    0.11538E-03   -0.88730E-05  6440   0.453E-02    0.496E-02
DAV:   8    -0.131575419028E+04   -0.35840E-05   -0.37440E-05  5936   0.114E-02
  26 F= -.14144677E+04 E0= -.14137752E+04  d E =-.697413E-04
