NiAl                                    
            1
     0.000000  -15.146222    0.000000
     0.000000   -7.573111  -13.117013
    29.000000    0.000000    0.000000
   Ni
   252
Direct configuration=     1
   0.44444444  0.44444444  0.07780690
   0.44444444  0.77777778  0.07780690
   0.44444444  0.11111111  0.07780690
   0.77777778  0.44444444  0.07780690
   0.77777778  0.77777778  0.07780690
   0.77777778  0.11111111  0.07780690
   0.11111111  0.44444444  0.07780690
   0.11111111  0.77777778  0.07780690
   0.11111111  0.11111111  0.07780690
   0.55555556  0.55555556  0.15673765
   0.55555556  0.88888889  0.15673765
   0.55555556  0.22222222  0.15673765
   0.88888889  0.55555556  0.15673765
   0.88888889  0.88888889  0.15673765
   0.88888889  0.22222222  0.15673765
   0.22222222  0.55555556  0.15673765
   0.22222222  0.88888889  0.15673765
   0.22222222  0.22222222  0.15673765
   0.66666667  0.66666667  0.23311859
   0.66666667  0.00000000  0.23311859
   0.66666667  0.33333333  0.23311859
   0.00000000  0.66666667  0.23311859
   0.00000000  0.00000000  0.23311859
   0.00000000  0.33333333  0.23311859
   0.33333333  0.66666667  0.23311859
   0.33333333  0.00000000  0.23311859
   0.33333333  0.33333333  0.23311859
   0.77777778  0.77777778  0.31173066
   0.77777778  0.11111111  0.31173066
   0.77777778  0.44444444  0.31173066
   0.11111111  0.77777778  0.31173066
   0.11111111  0.11111111  0.31173066
   0.11111111  0.44444444  0.31173066
   0.44444444  0.77777778  0.31173066
   0.44444444  0.11111111  0.31173066
   0.44444444  0.44444444  0.31173066
   0.88888889  0.88888889  0.39034272
   0.88888889  0.22222222  0.39034272
   0.88888889  0.55555556  0.39034272
   0.22222222  0.88888889  0.39034272
   0.22222222  0.22222222  0.39034272
   0.22222222  0.55555556  0.39034272
   0.55555556  0.88888889  0.39034272
   0.55555556  0.22222222  0.39034272
   0.55555556  0.55555556  0.39034272
   0.00000000  0.00000000  0.46672366
   0.00000000  0.33333333  0.46672366
   0.00000000  0.66666667  0.46672366
   0.33333333  0.00000000  0.46672366
   0.33333333  0.33333333  0.46672366
   0.33333333  0.66666667  0.46672366
   0.66666667  0.00000000  0.46672366
   0.66666667  0.33333333  0.46672366
   0.66666667  0.66666667  0.46672366
   0.11111111  0.11111111  0.54565441
   0.11111111  0.44444444  0.54565441
   0.11111111  0.77777778  0.54565441
   0.44444444  0.11111111  0.54565441
   0.44444444  0.44444444  0.54565441
   0.44444444  0.77777778  0.54565441
   0.77777778  0.11111111  0.54565441
   0.77777778  0.44444444  0.54565441
   0.77777778  0.77777778  0.54565441
   0.27777778  0.27777778  0.07780690
   0.27777778  0.61111111  0.07780690
   0.27777778  0.94444444  0.07780690
   0.61111111  0.27777778  0.07780690
   0.61111111  0.61111111  0.07780690
   0.61111111  0.94444444  0.07780690
   0.94444444  0.27777778  0.07780690
   0.94444444  0.61111111  0.07780690
   0.94444444  0.94444444  0.07780690
   0.38888889  0.38888889  0.15673765
   0.38888889  0.72222222  0.15673765
   0.38888889  0.05555556  0.15673765
   0.72222222  0.38888889  0.15673765
   0.72222222  0.72222222  0.15673765
   0.72222222  0.05555556  0.15673765
   0.05555556  0.38888889  0.15673765
   0.05555556  0.72222222  0.15673765
   0.05555556  0.05555556  0.15673765
   0.50000000  0.50000000  0.23311859
   0.50000000  0.83333333  0.23311859
   0.50000000  0.16666667  0.23311859
   0.83333333  0.50000000  0.23311859
   0.83333333  0.83333333  0.23311859
   0.83333333  0.16666667  0.23311859
   0.16666667  0.50000000  0.23311859
   0.16666667  0.83333333  0.23311859
   0.16666667  0.16666667  0.23311859
   0.61111111  0.61111111  0.31173066
   0.61111111  0.94444444  0.31173066
   0.61111111  0.27777778  0.31173066
   0.94444444  0.61111111  0.31173066
   0.94444444  0.94444444  0.31173066
   0.94444444  0.27777778  0.31173066
   0.27777778  0.61111111  0.31173066
   0.27777778  0.94444444  0.31173066
   0.27777778  0.27777778  0.31173066
   0.72222222  0.72222222  0.39034272
   0.72222222  0.05555556  0.39034272
   0.72222222  0.38888889  0.39034272
   0.05555556  0.72222222  0.39034272
   0.05555556  0.05555556  0.39034272
   0.05555556  0.38888889  0.39034272
   0.38888889  0.72222222  0.39034272
   0.38888889  0.05555556  0.39034272
   0.38888889  0.38888889  0.39034272
   0.83333333  0.83333333  0.46672366
   0.83333333  0.16666667  0.46672366
   0.83333333  0.50000000  0.46672366
   0.16666667  0.83333333  0.46672366
   0.16666667  0.16666667  0.46672366
   0.16666667  0.50000000  0.46672366
   0.50000000  0.83333333  0.46672366
   0.50000000  0.16666667  0.46672366
   0.50000000  0.50000000  0.46672366
   0.94444444  0.94444444  0.54565441
   0.94444444  0.27777778  0.54565441
   0.94444444  0.61111111  0.54565441
   0.27777778  0.94444444  0.54565441
   0.27777778  0.27777778  0.54565441
   0.27777778  0.61111111  0.54565441
   0.61111111  0.94444444  0.54565441
   0.61111111  0.27777778  0.54565441
   0.61111111  0.61111111  0.54565441
   0.27777778  0.44444444  0.07780690
   0.27777778  0.77777778  0.07780690
   0.27777778  0.11111111  0.07780690
   0.61111111  0.44444444  0.07780690
   0.61111111  0.77777778  0.07780690
   0.61111111  0.11111111  0.07780690
   0.94444444  0.44444444  0.07780690
   0.94444444  0.77777778  0.07780690
   0.94444444  0.11111111  0.07780690
   0.38888889  0.55555556  0.15673765
   0.38888889  0.88888889  0.15673765
   0.38888889  0.22222222  0.15673765
   0.72222222  0.55555556  0.15673765
   0.72222222  0.88888889  0.15673765
   0.72222222  0.22222222  0.15673765
   0.05555556  0.55555556  0.15673765
   0.05555556  0.88888889  0.15673765
   0.05555556  0.22222222  0.15673765
   0.50000000  0.66666667  0.23311859
   0.50000000  0.00000000  0.23311859
   0.50000000  0.33333333  0.23311859
   0.83333333  0.66666667  0.23311859
   0.83333333  0.00000000  0.23311859
   0.83333333  0.33333333  0.23311859
   0.16666667  0.66666667  0.23311859
   0.16666667  0.00000000  0.23311859
   0.16666667  0.33333333  0.23311859
   0.61111111  0.77777778  0.31173066
   0.61111111  0.11111111  0.31173066
   0.61111111  0.44444444  0.31173066
   0.94444444  0.77777778  0.31173066
   0.94444444  0.11111111  0.31173066
   0.94444444  0.44444444  0.31173066
   0.27777778  0.77777778  0.31173066
   0.27777778  0.11111111  0.31173066
   0.27777778  0.44444444  0.31173066
   0.72222222  0.88888889  0.39034272
   0.72222222  0.22222222  0.39034272
   0.72222222  0.55555556  0.39034272
   0.05555556  0.88888889  0.39034272
   0.05555556  0.22222222  0.39034272
   0.05555556  0.55555556  0.39034272
   0.38888889  0.88888889  0.39034272
   0.38888889  0.22222222  0.39034272
   0.38888889  0.55555556  0.39034272
   0.83333333  0.00000000  0.46672366
   0.83333333  0.33333333  0.46672366
   0.83333333  0.66666667  0.46672366
   0.16666667  0.00000000  0.46672366
   0.16666667  0.33333333  0.46672366
   0.16666667  0.66666667  0.46672366
   0.50000000  0.00000000  0.46672366
   0.50000000  0.33333333  0.46672366
   0.50000000  0.66666667  0.46672366
   0.94444444  0.11111111  0.54565441
   0.94444444  0.44444444  0.54565441
   0.94444444  0.77777778  0.54565441
   0.27777778  0.11111111  0.54565441
   0.27777778  0.44444444  0.54565441
   0.27777778  0.77777778  0.54565441
   0.61111111  0.11111111  0.54565441
   0.61111111  0.44444444  0.54565441
   0.61111111  0.77777778  0.54565441
   0.44444444  0.27777778  0.07780690
   0.44444444  0.61111111  0.07780690
   0.44444444  0.94444444  0.07780690
   0.77777778  0.27777778  0.07780690
   0.77777778  0.61111111  0.07780690
   0.77777778  0.94444444  0.07780690
   0.11111111  0.27777778  0.07780690
   0.11111111  0.61111111  0.07780690
   0.11111111  0.94444444  0.07780690
   0.55555556  0.38888889  0.15673765
   0.55555556  0.72222222  0.15673765
   0.55555556  0.05555556  0.15673765
   0.88888889  0.38888889  0.15673765
   0.88888889  0.72222222  0.15673765
   0.88888889  0.05555556  0.15673765
   0.22222222  0.38888889  0.15673765
   0.22222222  0.72222222  0.15673765
   0.22222222  0.05555556  0.15673765
   0.66666667  0.50000000  0.23311859
   0.66666667  0.83333333  0.23311859
   0.66666667  0.16666667  0.23311859
   0.00000000  0.50000000  0.23311859
   0.00000000  0.83333333  0.23311859
   0.00000000  0.16666667  0.23311859
   0.33333333  0.50000000  0.23311859
   0.33333333  0.83333333  0.23311859
   0.33333333  0.16666667  0.23311859
   0.77777778  0.61111111  0.31173066
   0.77777778  0.94444444  0.31173066
   0.77777778  0.27777778  0.31173066
   0.11111111  0.61111111  0.31173066
   0.11111111  0.94444444  0.31173066
   0.11111111  0.27777778  0.31173066
   0.44444444  0.61111111  0.31173066
   0.44444444  0.94444444  0.31173066
   0.44444444  0.27777778  0.31173066
   0.88888889  0.72222222  0.39034272
   0.88888889  0.05555556  0.39034272
   0.88888889  0.38888889  0.39034272
   0.22222222  0.72222222  0.39034272
   0.22222222  0.05555556  0.39034272
   0.22222222  0.38888889  0.39034272
   0.55555556  0.72222222  0.39034272
   0.55555556  0.05555556  0.39034272
   0.55555556  0.38888889  0.39034272
   0.00000000  0.83333333  0.46672366
   0.00000000  0.16666667  0.46672366
   0.00000000  0.50000000  0.46672366
   0.33333333  0.83333333  0.46672366
   0.33333333  0.16666667  0.46672366
   0.33333333  0.50000000  0.46672366
   0.66666667  0.83333333  0.46672366
   0.66666667  0.16666667  0.46672366
   0.66666667  0.50000000  0.46672366
   0.11111111  0.94444444  0.54565441
   0.11111111  0.27777778  0.54565441
   0.11111111  0.61111111  0.54565441
   0.44444444  0.94444444  0.54565441
   0.44444444  0.27777778  0.54565441
   0.44444444  0.61111111  0.54565441
   0.77777778  0.94444444  0.54565441
   0.77777778  0.27777778  0.54565441
   0.77777778  0.61111111  0.54565441
Direct configuration=     2
   0.44444444  0.44444444  0.07852637
   0.44444444  0.77777778  0.07852637
   0.44444444  0.11111111  0.07852637
   0.77777778  0.44444444  0.07852637
   0.77777778  0.77777778  0.07852637
   0.77777778  0.11111111  0.07852637
   0.11111111  0.44444444  0.07852637
   0.11111111  0.77777778  0.07852637
   0.11111111  0.11111111  0.07852637
   0.55555556  0.55555556  0.15663257
   0.55555556  0.88888889  0.15663257
   0.55555556  0.22222222  0.15663257
   0.88888889  0.55555556  0.15663257
   0.88888889  0.88888889  0.15663257
   0.88888889  0.22222222  0.15663257
   0.22222222  0.55555556  0.15663257
   0.22222222  0.88888889  0.15663257
   0.22222222  0.22222222  0.15663257
   0.66666667  0.66666667  0.23319865
   0.66666667  0.00000000  0.23319865
   0.66666667  0.33333333  0.23319865
   0.00000000  0.66666667  0.23319865
   0.00000000  0.00000000  0.23319865
   0.00000000  0.33333333  0.23319865
   0.33333333  0.66666667  0.23319865
   0.33333333  0.00000000  0.23319865
   0.33333333  0.33333333  0.23319865
   0.77777778  0.77777778  0.31173066
   0.77777778  0.11111111  0.31173066
   0.77777778  0.44444444  0.31173066
   0.11111111  0.77777778  0.31173066
   0.11111111  0.11111111  0.31173066
   0.11111111  0.44444444  0.31173066
   0.44444444  0.77777778  0.31173066
   0.44444444  0.11111111  0.31173066
   0.44444444  0.44444444  0.31173066
   0.88888889  0.88888889  0.39026266
   0.88888889  0.22222222  0.39026266
   0.88888889  0.55555556  0.39026266
   0.22222222  0.88888889  0.39026266
   0.22222222  0.22222222  0.39026266
   0.22222222  0.55555556  0.39026266
   0.55555556  0.88888889  0.39026266
   0.55555556  0.22222222  0.39026266
   0.55555556  0.55555556  0.39026266
  -0.00000000  0.00000000  0.46682874
   0.00000000  0.33333333  0.46682874
  -0.00000000  0.66666667  0.46682874
   0.33333333  0.00000000  0.46682874
   0.33333333  0.33333333  0.46682874
   0.33333333  0.66666667  0.46682874
   0.66666667  0.00000000  0.46682874
   0.66666667  0.33333333  0.46682874
   0.66666667  0.66666667  0.46682874
   0.11111111  0.11111111  0.54493494
   0.11111111  0.44444444  0.54493494
   0.11111111  0.77777778  0.54493494
   0.44444444  0.11111111  0.54493494
   0.44444444  0.44444444  0.54493494
   0.44444444  0.77777778  0.54493494
   0.77777778  0.11111111  0.54493494
   0.77777778  0.44444444  0.54493494
   0.77777778  0.77777778  0.54493494
   0.27777778  0.27777778  0.07852637
   0.27777778  0.61111111  0.07852637
   0.27777778  0.94444444  0.07852637
   0.61111111  0.27777778  0.07852637
   0.61111111  0.61111111  0.07852637
   0.61111111  0.94444444  0.07852637
   0.94444444  0.27777778  0.07852637
   0.94444444  0.61111111  0.07852637
   0.94444444  0.94444444  0.07852637
   0.38888889  0.38888889  0.15663257
   0.38888889  0.72222222  0.15663257
   0.38888889  0.05555556  0.15663257
   0.72222222  0.38888889  0.15663257
   0.72222222  0.72222222  0.15663257
   0.72222222  0.05555556  0.15663257
   0.05555556  0.38888889  0.15663257
   0.05555556  0.72222222  0.15663257
   0.05555556  0.05555556  0.15663257
   0.50000000  0.50000000  0.23319865
   0.50000000  0.83333333  0.23319865
   0.50000000  0.16666667  0.23319865
   0.83333333  0.50000000  0.23319865
   0.83333333  0.83333333  0.23319865
   0.83333333  0.16666667  0.23319865
   0.16666667  0.50000000  0.23319865
   0.16666667  0.83333333  0.23319865
   0.16666667  0.16666667  0.23319865
   0.61111111  0.61111111  0.31173066
   0.61111111  0.94444444  0.31173066
   0.61111111  0.27777778  0.31173066
   0.94444444  0.61111111  0.31173066
   0.94444444  0.94444444  0.31173066
   0.94444444  0.27777778  0.31173066
   0.27777778  0.61111111  0.31173066
   0.27777778  0.94444444  0.31173066
   0.27777778  0.27777778  0.31173066
   0.72222222  0.72222222  0.39026266
   0.72222222  0.05555556  0.39026266
   0.72222222  0.38888889  0.39026266
   0.05555556  0.72222222  0.39026266
   0.05555556  0.05555556  0.39026266
   0.05555556  0.38888889  0.39026266
   0.38888889  0.72222222  0.39026266
   0.38888889  0.05555556  0.39026266
   0.38888889  0.38888889  0.39026266
   0.83333333  0.83333333  0.46682874
   0.83333333  0.16666667  0.46682874
   0.83333333  0.50000000  0.46682874
   0.16666667  0.83333333  0.46682874
   0.16666667  0.16666667  0.46682874
   0.16666667  0.50000000  0.46682874
   0.50000000  0.83333333  0.46682874
   0.50000000  0.16666667  0.46682874
   0.50000000  0.50000000  0.46682874
   0.94444444  0.94444444  0.54493494
   0.94444444  0.27777778  0.54493494
   0.94444444  0.61111111  0.54493494
   0.27777778  0.94444444  0.54493494
   0.27777778  0.27777778  0.54493494
   0.27777778  0.61111111  0.54493494
   0.61111111  0.94444444  0.54493494
   0.61111111  0.27777778  0.54493494
   0.61111111  0.61111111  0.54493494
   0.27777778  0.44444444  0.07852637
   0.27777778  0.77777778  0.07852637
   0.27777778  0.11111111  0.07852637
   0.61111111  0.44444444  0.07852637
   0.61111111  0.77777778  0.07852637
   0.61111111  0.11111111  0.07852637
   0.94444444  0.44444444  0.07852637
   0.94444444  0.77777778  0.07852637
   0.94444444  0.11111111  0.07852637
   0.38888889  0.55555556  0.15663257
   0.38888889  0.88888889  0.15663257
   0.38888889  0.22222222  0.15663257
   0.72222222  0.55555556  0.15663257
   0.72222222  0.88888889  0.15663257
   0.72222222  0.22222222  0.15663257
   0.05555556  0.55555556  0.15663257
   0.05555556  0.88888889  0.15663257
   0.05555556  0.22222222  0.15663257
   0.50000000  0.66666667  0.23319865
   0.50000000  0.00000000  0.23319865
   0.50000000  0.33333333  0.23319865
   0.83333333  0.66666667  0.23319865
   0.83333333  0.00000000  0.23319865
   0.83333333  0.33333333  0.23319865
   0.16666667  0.66666667  0.23319865
   0.16666667  0.00000000  0.23319865
   0.16666667  0.33333333  0.23319865
   0.61111111  0.77777778  0.31173066
   0.61111111  0.11111111  0.31173066
   0.61111111  0.44444444  0.31173066
   0.94444444  0.77777778  0.31173066
   0.94444444  0.11111111  0.31173066
   0.94444444  0.44444444  0.31173066
   0.27777778  0.77777778  0.31173066
   0.27777778  0.11111111  0.31173066
   0.27777778  0.44444444  0.31173066
   0.72222222  0.88888889  0.39026266
   0.72222222  0.22222222  0.39026266
   0.72222222  0.55555556  0.39026266
   0.05555556  0.88888889  0.39026266
   0.05555556  0.22222222  0.39026266
   0.05555556  0.55555556  0.39026266
   0.38888889  0.88888889  0.39026266
   0.38888889  0.22222222  0.39026266
   0.38888889  0.55555556  0.39026266
   0.83333333  0.00000000  0.46682874
   0.83333333  0.33333333  0.46682874
   0.83333333  0.66666667  0.46682874
   0.16666667  0.00000000  0.46682874
   0.16666667  0.33333333  0.46682874
   0.16666667  0.66666667  0.46682874
   0.50000000  0.00000000  0.46682874
   0.50000000  0.33333333  0.46682874
   0.50000000  0.66666667  0.46682874
   0.94444444  0.11111111  0.54493494
   0.94444444  0.44444444  0.54493494
   0.94444444  0.77777778  0.54493494
   0.27777778  0.11111111  0.54493494
   0.27777778  0.44444444  0.54493494
   0.27777778  0.77777778  0.54493494
   0.61111111  0.11111111  0.54493494
   0.61111111  0.44444444  0.54493494
   0.61111111  0.77777778  0.54493494
   0.44444444  0.27777778  0.07852637
   0.44444444  0.61111111  0.07852637
   0.44444444  0.94444444  0.07852637
   0.77777778  0.27777778  0.07852637
   0.77777778  0.61111111  0.07852637
   0.77777778  0.94444444  0.07852637
   0.11111111  0.27777778  0.07852637
   0.11111111  0.61111111  0.07852637
   0.11111111  0.94444444  0.07852637
   0.55555556  0.38888889  0.15663257
   0.55555556  0.72222222  0.15663257
   0.55555556  0.05555556  0.15663257
   0.88888889  0.38888889  0.15663257
   0.88888889  0.72222222  0.15663257
   0.88888889  0.05555556  0.15663257
   0.22222222  0.38888889  0.15663257
   0.22222222  0.72222222  0.15663257
   0.22222222  0.05555556  0.15663257
   0.66666667  0.50000000  0.23319865
   0.66666667  0.83333333  0.23319865
   0.66666667  0.16666667  0.23319865
   0.00000000  0.50000000  0.23319865
   0.00000000  0.83333333  0.23319865
   0.00000000  0.16666667  0.23319865
   0.33333333  0.50000000  0.23319865
   0.33333333  0.83333333  0.23319865
   0.33333333  0.16666667  0.23319865
   0.77777778  0.61111111  0.31173066
   0.77777778  0.94444444  0.31173066
   0.77777778  0.27777778  0.31173066
   0.11111111  0.61111111  0.31173066
   0.11111111  0.94444444  0.31173066
   0.11111111  0.27777778  0.31173066
   0.44444444  0.61111111  0.31173066
   0.44444444  0.94444444  0.31173066
   0.44444444  0.27777778  0.31173066
   0.88888889  0.72222222  0.39026266
   0.88888889  0.05555556  0.39026266
   0.88888889  0.38888889  0.39026266
   0.22222222  0.72222222  0.39026266
   0.22222222  0.05555556  0.39026266
   0.22222222  0.38888889  0.39026266
   0.55555556  0.72222222  0.39026266
   0.55555556  0.05555556  0.39026266
   0.55555556  0.38888889  0.39026266
  -0.00000000  0.83333333  0.46682874
  -0.00000000  0.16666667  0.46682874
   0.00000000  0.50000000  0.46682874
   0.33333333  0.83333333  0.46682874
   0.33333333  0.16666667  0.46682874
   0.33333333  0.50000000  0.46682874
   0.66666667  0.83333333  0.46682874
   0.66666667  0.16666667  0.46682874
   0.66666667  0.50000000  0.46682874
   0.11111111  0.94444444  0.54493494
   0.11111111  0.27777778  0.54493494
   0.11111111  0.61111111  0.54493494
   0.44444444  0.94444444  0.54493494
   0.44444444  0.27777778  0.54493494
   0.44444444  0.61111111  0.54493494
   0.77777778  0.94444444  0.54493494
   0.77777778  0.27777778  0.54493494
   0.77777778  0.61111111  0.54493494
Direct configuration=     3
   0.44444444  0.44444444  0.08068477
   0.44444444  0.77777778  0.08068477
   0.44444444  0.11111111  0.08068477
   0.77777778  0.44444444  0.08068477
   0.77777778  0.77777778  0.08068477
   0.77777778  0.11111111  0.08068477
   0.11111111  0.44444444  0.08068477
   0.11111111  0.77777778  0.08068477
   0.11111111  0.11111111  0.08068477
   0.55555556  0.55555556  0.15631731
   0.55555556  0.88888889  0.15631731
   0.55555556  0.22222222  0.15631731
   0.88888889  0.55555556  0.15631731
   0.88888889  0.88888889  0.15631731
   0.88888889  0.22222222  0.15631731
   0.22222222  0.55555556  0.15631731
   0.22222222  0.88888889  0.15631731
   0.22222222  0.22222222  0.15631731
   0.66666667  0.66666667  0.23343880
   0.66666667  0.00000000  0.23343880
   0.66666667  0.33333333  0.23343880
   0.00000000  0.66666667  0.23343880
   0.00000000  0.00000000  0.23343880
   0.00000000  0.33333333  0.23343880
   0.33333333  0.66666667  0.23343880
   0.33333333  0.00000000  0.23343880
   0.33333333  0.33333333  0.23343880
   0.77777778  0.77777778  0.31173066
   0.77777778  0.11111111  0.31173066
   0.77777778  0.44444444  0.31173066
   0.11111111  0.77777778  0.31173066
   0.11111111  0.11111111  0.31173066
   0.11111111  0.44444444  0.31173066
   0.44444444  0.77777778  0.31173066
   0.44444444  0.11111111  0.31173066
   0.44444444  0.44444444  0.31173066
   0.88888889  0.88888889  0.39002251
   0.88888889  0.22222222  0.39002251
   0.88888889  0.55555556  0.39002251
   0.22222222  0.88888889  0.39002251
   0.22222222  0.22222222  0.39002251
   0.22222222  0.55555556  0.39002251
   0.55555556  0.88888889  0.39002251
   0.55555556  0.22222222  0.39002251
   0.55555556  0.55555556  0.39002251
  -0.00000000  0.00000000  0.46714400
   0.00000000  0.33333333  0.46714400
  -0.00000000  0.66666667  0.46714400
   0.33333333  0.00000000  0.46714400
   0.33333333  0.33333333  0.46714400
   0.33333333  0.66666667  0.46714400
   0.66666667  0.00000000  0.46714400
   0.66666667  0.33333333  0.46714400
   0.66666667  0.66666667  0.46714400
   0.11111111  0.11111111  0.54277654
   0.11111111  0.44444444  0.54277654
   0.11111111  0.77777778  0.54277654
   0.44444444  0.11111111  0.54277654
   0.44444444  0.44444444  0.54277654
   0.44444444  0.77777778  0.54277654
   0.77777778  0.11111111  0.54277654
   0.77777778  0.44444444  0.54277654
   0.77777778  0.77777778  0.54277654
   0.27777778  0.27777778  0.08068477
   0.27777778  0.61111111  0.08068477
   0.27777778  0.94444444  0.08068477
   0.61111111  0.27777778  0.08068477
   0.61111111  0.61111111  0.08068477
   0.61111111  0.94444444  0.08068477
   0.94444444  0.27777778  0.08068477
   0.94444444  0.61111111  0.08068477
   0.94444444  0.94444444  0.08068477
   0.38888889  0.38888889  0.15631731
   0.38888889  0.72222222  0.15631731
   0.38888889  0.05555556  0.15631731
   0.72222222  0.38888889  0.15631731
   0.72222222  0.72222222  0.15631731
   0.72222222  0.05555556  0.15631731
   0.05555556  0.38888889  0.15631731
   0.05555556  0.72222222  0.15631731
   0.05555556  0.05555556  0.15631731
   0.50000000  0.50000000  0.23343880
   0.50000000  0.83333333  0.23343880
   0.50000000  0.16666667  0.23343880
   0.83333333  0.50000000  0.23343880
   0.83333333  0.83333333  0.23343880
   0.83333333  0.16666667  0.23343880
   0.16666667  0.50000000  0.23343880
   0.16666667  0.83333333  0.23343880
   0.16666667  0.16666667  0.23343880
   0.61111111  0.61111111  0.31173066
   0.61111111  0.94444444  0.31173066
   0.61111111  0.27777778  0.31173066
   0.94444444  0.61111111  0.31173066
   0.94444444  0.94444444  0.31173066
   0.94444444  0.27777778  0.31173066
   0.27777778  0.61111111  0.31173066
   0.27777778  0.94444444  0.31173066
   0.27777778  0.27777778  0.31173066
   0.72222222  0.72222222  0.39002251
   0.72222222  0.05555556  0.39002251
   0.72222222  0.38888889  0.39002251
   0.05555556  0.72222222  0.39002251
   0.05555556  0.05555556  0.39002251
   0.05555556  0.38888889  0.39002251
   0.38888889  0.72222222  0.39002251
   0.38888889  0.05555556  0.39002251
   0.38888889  0.38888889  0.39002251
   0.83333333  0.83333333  0.46714400
   0.83333333  0.16666667  0.46714400
   0.83333333  0.50000000  0.46714400
   0.16666667  0.83333333  0.46714400
   0.16666667  0.16666667  0.46714400
   0.16666667  0.50000000  0.46714400
   0.50000000  0.83333333  0.46714400
   0.50000000  0.16666667  0.46714400
   0.50000000  0.50000000  0.46714400
   0.94444444  0.94444444  0.54277654
   0.94444444  0.27777778  0.54277654
   0.94444444  0.61111111  0.54277654
   0.27777778  0.94444444  0.54277654
   0.27777778  0.27777778  0.54277654
   0.27777778  0.61111111  0.54277654
   0.61111111  0.94444444  0.54277654
   0.61111111  0.27777778  0.54277654
   0.61111111  0.61111111  0.54277654
   0.27777778  0.44444444  0.08068477
   0.27777778  0.77777778  0.08068477
   0.27777778  0.11111111  0.08068477
   0.61111111  0.44444444  0.08068477
   0.61111111  0.77777778  0.08068477
   0.61111111  0.11111111  0.08068477
   0.94444444  0.44444444  0.08068477
   0.94444444  0.77777778  0.08068477
   0.94444444  0.11111111  0.08068477
   0.38888889  0.55555556  0.15631731
   0.38888889  0.88888889  0.15631731
   0.38888889  0.22222222  0.15631731
   0.72222222  0.55555556  0.15631731
   0.72222222  0.88888889  0.15631731
   0.72222222  0.22222222  0.15631731
   0.05555556  0.55555556  0.15631731
   0.05555556  0.88888889  0.15631731
   0.05555556  0.22222222  0.15631731
   0.50000000  0.66666667  0.23343880
   0.50000000  0.00000000  0.23343880
   0.50000000  0.33333333  0.23343880
   0.83333333  0.66666667  0.23343880
   0.83333333  0.00000000  0.23343880
   0.83333333  0.33333333  0.23343880
   0.16666667  0.66666667  0.23343880
   0.16666667  0.00000000  0.23343880
   0.16666667  0.33333333  0.23343880
   0.61111111  0.77777778  0.31173066
   0.61111111  0.11111111  0.31173066
   0.61111111  0.44444444  0.31173066
   0.94444444  0.77777778  0.31173066
   0.94444444  0.11111111  0.31173066
   0.94444444  0.44444444  0.31173066
   0.27777778  0.77777778  0.31173066
   0.27777778  0.11111111  0.31173066
   0.27777778  0.44444444  0.31173066
   0.72222222  0.88888889  0.39002251
   0.72222222  0.22222222  0.39002251
   0.72222222  0.55555556  0.39002251
   0.05555556  0.88888889  0.39002251
   0.05555556  0.22222222  0.39002251
   0.05555556  0.55555556  0.39002251
   0.38888889  0.88888889  0.39002251
   0.38888889  0.22222222  0.39002251
   0.38888889  0.55555556  0.39002251
   0.83333333  0.00000000  0.46714400
   0.83333333  0.33333333  0.46714400
   0.83333333  0.66666667  0.46714400
   0.16666667  0.00000000  0.46714400
   0.16666667  0.33333333  0.46714400
   0.16666667  0.66666667  0.46714400
   0.50000000  0.00000000  0.46714400
   0.50000000  0.33333333  0.46714400
   0.50000000  0.66666667  0.46714400
   0.94444444  0.11111111  0.54277654
   0.94444444  0.44444444  0.54277654
   0.94444444  0.77777778  0.54277654
   0.27777778  0.11111111  0.54277654
   0.27777778  0.44444444  0.54277654
   0.27777778  0.77777778  0.54277654
   0.61111111  0.11111111  0.54277654
   0.61111111  0.44444444  0.54277654
   0.61111111  0.77777778  0.54277654
   0.44444444  0.27777778  0.08068477
   0.44444444  0.61111111  0.08068477
   0.44444444  0.94444444  0.08068477
   0.77777778  0.27777778  0.08068477
   0.77777778  0.61111111  0.08068477
   0.77777778  0.94444444  0.08068477
   0.11111111  0.27777778  0.08068477
   0.11111111  0.61111111  0.08068477
   0.11111111  0.94444444  0.08068477
   0.55555556  0.38888889  0.15631731
   0.55555556  0.72222222  0.15631731
   0.55555556  0.05555556  0.15631731
   0.88888889  0.38888889  0.15631731
   0.88888889  0.72222222  0.15631731
   0.88888889  0.05555556  0.15631731
   0.22222222  0.38888889  0.15631731
   0.22222222  0.72222222  0.15631731
   0.22222222  0.05555556  0.15631731
   0.66666667  0.50000000  0.23343880
   0.66666667  0.83333333  0.23343880
   0.66666667  0.16666667  0.23343880
   0.00000000  0.50000000  0.23343880
   0.00000000  0.83333333  0.23343880
   0.00000000  0.16666667  0.23343880
   0.33333333  0.50000000  0.23343880
   0.33333333  0.83333333  0.23343880
   0.33333333  0.16666667  0.23343880
   0.77777778  0.61111111  0.31173066
   0.77777778  0.94444444  0.31173066
   0.77777778  0.27777778  0.31173066
   0.11111111  0.61111111  0.31173066
   0.11111111  0.94444444  0.31173066
   0.11111111  0.27777778  0.31173066
   0.44444444  0.61111111  0.31173066
   0.44444444  0.94444444  0.31173066
   0.44444444  0.27777778  0.31173066
   0.88888889  0.72222222  0.39002251
   0.88888889  0.05555556  0.39002251
   0.88888889  0.38888889  0.39002251
   0.22222222  0.72222222  0.39002251
   0.22222222  0.05555556  0.39002251
   0.22222222  0.38888889  0.39002251
   0.55555556  0.72222222  0.39002251
   0.55555556  0.05555556  0.39002251
   0.55555556  0.38888889  0.39002251
  -0.00000000  0.83333333  0.46714400
  -0.00000000  0.16666667  0.46714400
   0.00000000  0.50000000  0.46714400
   0.33333333  0.83333333  0.46714400
   0.33333333  0.16666667  0.46714400
   0.33333333  0.50000000  0.46714400
   0.66666667  0.83333333  0.46714400
   0.66666667  0.16666667  0.46714400
   0.66666667  0.50000000  0.46714400
   0.11111111  0.94444444  0.54277654
   0.11111111  0.27777778  0.54277654
   0.11111111  0.61111111  0.54277654
   0.44444444  0.94444444  0.54277654
   0.44444444  0.27777778  0.54277654
   0.44444444  0.61111111  0.54277654
   0.77777778  0.94444444  0.54277654
   0.77777778  0.27777778  0.54277654
   0.77777778  0.61111111  0.54277654
Direct configuration=     4
   0.44444444  0.44444444  0.08500158
   0.44444444  0.77777778  0.08500158
   0.44444444  0.11111111  0.08500158
   0.77777778  0.44444444  0.08500158
   0.77777778  0.77777778  0.08500158
   0.77777778  0.11111111  0.08500158
   0.11111111  0.44444444  0.08500158
   0.11111111  0.77777778  0.08500158
   0.11111111  0.11111111  0.08500158
   0.55555556  0.55555556  0.15568681
   0.55555556  0.88888889  0.15568681
   0.55555556  0.22222222  0.15568681
   0.88888889  0.55555556  0.15568681
   0.88888889  0.88888889  0.15568681
   0.88888889  0.22222222  0.15568681
   0.22222222  0.55555556  0.15568681
   0.22222222  0.88888889  0.15568681
   0.22222222  0.22222222  0.15568681
   0.66666667  0.66666667  0.23391912
   0.66666667  0.00000000  0.23391912
   0.66666667  0.33333333  0.23391912
   0.00000000  0.66666667  0.23391912
   0.00000000  0.00000000  0.23391912
   0.00000000  0.33333333  0.23391912
   0.33333333  0.66666667  0.23391912