 252 252   0   0
  0.3043173E+02  0.1718057E-08  0.1718057E-08  0.3000000E-08  0.2000000E-15
   1.0000000000000000E-004
  CAR 
 NiAl                                    
      4.75029131     -9.92412513  301      1.82920030      1.00000000
     -9.924  0.0000E+00  0.0000E+00
     -9.875  0.0000E+00  0.0000E+00
     -9.826  0.0000E+00  0.0000E+00
     -9.777  0.0000E+00  0.0000E+00
     -9.728  0.0000E+00  0.0000E+00
     -9.680  0.0000E+00  0.0000E+00
     -9.631  0.0000E+00  0.0000E+00
     -9.582  0.0000E+00  0.0000E+00
     -9.533  0.8086E-15  0.3955E-16
     -9.484  0.1805E-10  0.8831E-12
     -9.435  0.6234E-07  0.3050E-08
     -9.386  0.3378E-04  0.1655E-05
     -9.337  0.2979E-02  0.1474E-03
     -9.288  0.4537E-01  0.2366E-02
     -9.239  0.1286E+00  0.8658E-02
     -9.190  0.7452E-01  0.1230E-01
     -9.141  0.1167E+00  0.1801E-01
     -9.093  0.6136E+00  0.4802E-01
     -9.044  0.6631E+00  0.8046E-01
     -8.995  0.1387E+00  0.8724E-01
     -8.946  0.9901E-02  0.8773E-01
     -8.897  0.5686E-01  0.9051E-01
     -8.848  0.1383E+00  0.9727E-01
     -8.799  0.2370E+00  0.1089E+00
     -8.750  0.8626E+00  0.1511E+00
     -8.701  0.1243E+01  0.2119E+00
     -8.652  0.7380E+00  0.2480E+00
     -8.603  0.5909E+00  0.2769E+00
     -8.555  0.7500E+00  0.3136E+00
     -8.506  0.2216E+00  0.3244E+00
     -8.457  0.2590E-01  0.3257E+00
     -8.408  0.2373E+00  0.3373E+00
     -8.359  0.7563E+00  0.3743E+00
     -8.310  0.4723E+00  0.3974E+00
     -8.261  0.1606E+00  0.4052E+00
     -8.212  0.6666E+00  0.4378E+00
     -8.163  0.8842E+00  0.4811E+00
     -8.114  0.9790E+00  0.5290E+00
     -8.065  0.1826E+01  0.6183E+00
     -8.016  0.1384E+01  0.6860E+00
     -7.968  0.4911E+00  0.7100E+00
     -7.919  0.4977E-01  0.7125E+00
     -7.870  0.2772E-02  0.7126E+00
     -7.821  0.7626E-01  0.7163E+00
     -7.772  0.6869E+00  0.7499E+00
     -7.723  0.2098E+01  0.8525E+00
     -7.674  0.2466E+01  0.9731E+00
     -7.625  0.7662E+00  0.1011E+01
     -7.576  0.2356E+00  0.1022E+01
     -7.527  0.7222E+00  0.1057E+01
     -7.478  0.5401E+00  0.1084E+01
     -7.429  0.2032E+00  0.1094E+01
     -7.381  0.6907E+00  0.1128E+01
     -7.332  0.8194E+00  0.1168E+01
     -7.283  0.6507E+00  0.1200E+01
     -7.234  0.9029E+00  0.1244E+01
     -7.185  0.9283E+00  0.1289E+01
     -7.136  0.1156E+01  0.1346E+01
     -7.087  0.1935E+01  0.1440E+01
     -7.038  0.2256E+01  0.1551E+01
     -6.989  0.1309E+01  0.1615E+01
     -6.940  0.3199E+00  0.1630E+01
     -6.891  0.8284E+00  0.1671E+01
     -6.842  0.1439E+01  0.1741E+01
     -6.794  0.7165E+00  0.1776E+01
     -6.745  0.1179E+01  0.1834E+01
     -6.696  0.2941E+01  0.1978E+01
     -6.647  0.1965E+01  0.2074E+01
     -6.598  0.9885E+00  0.2122E+01
     -6.549  0.5031E+00  0.2147E+01
     -6.500  0.6301E-01  0.2150E+01
     -6.451  0.1422E-02  0.2150E+01
     -6.402  0.1703E-03  0.2150E+01
     -6.353  0.8907E-02  0.2150E+01
     -6.304  0.1225E+00  0.2156E+01
     -6.256  0.8853E+00  0.2200E+01
     -6.207  0.2738E+01  0.2334E+01
     -6.158  0.2884E+01  0.2475E+01
     -6.109  0.2872E+01  0.2615E+01
     -6.060  0.2728E+01  0.2749E+01
     -6.011  0.1521E+01  0.2823E+01
     -5.962  0.2927E+00  0.2837E+01
     -5.913  0.1970E+00  0.2847E+01
     -5.864  0.8275E+00  0.2888E+01
     -5.815  0.1757E+01  0.2973E+01
     -5.766  0.3103E+01  0.3125E+01
     -5.717  0.2505E+01  0.3248E+01
     -5.669  0.1002E+01  0.3297E+01
     -5.620  0.9204E+00  0.3342E+01
     -5.571  0.1084E+01  0.3395E+01
     -5.522  0.7283E+00  0.3430E+01
     -5.473  0.3150E+00  0.3446E+01
     -5.424  0.1293E+01  0.3509E+01
     -5.375  0.2141E+01  0.3614E+01
     -5.326  0.9023E+00  0.3658E+01
     -5.277  0.2612E+00  0.3671E+01
     -5.228  0.1150E+01  0.3727E+01
     -5.179  0.2115E+01  0.3831E+01
     -5.130  0.2838E+01  0.3969E+01
     -5.082  0.2704E+01  0.4102E+01
     -5.033  0.1484E+01  0.4174E+01
     -4.984  0.3262E+00  0.4190E+01
     -4.935  0.1419E+00  0.4197E+01
     -4.886  0.1550E+00  0.4205E+01
     -4.837  0.1122E+01  0.4260E+01
     -4.788  0.3296E+01  0.4421E+01
     -4.739  0.4013E+01  0.4617E+01
     -4.690  0.2453E+01  0.4737E+01
     -4.641  0.1794E+01  0.4825E+01
     -4.592  0.9199E+00  0.4870E+01
     -4.544  0.1403E+00  0.4877E+01
     -4.495  0.4881E+00  0.4901E+01
     -4.446  0.1411E+01  0.4970E+01
     -4.397  0.1045E+01  0.5021E+01
     -4.348  0.9552E+00  0.5067E+01
     -4.299  0.2652E+01  0.5197E+01
     -4.250  0.3629E+01  0.5375E+01
     -4.201  0.3092E+01  0.5526E+01
     -4.152  0.3583E+01  0.5701E+01
     -4.103  0.2270E+01  0.5812E+01
     -4.054  0.6890E+00  0.5846E+01
     -4.005  0.1267E+00  0.5852E+01
     -3.957  0.6168E+00  0.5882E+01
     -3.908  0.1595E+01  0.5960E+01
     -3.859  0.1464E+01  0.6032E+01
     -3.810  0.3088E+01  0.6183E+01
     -3.761  0.3159E+01  0.6338E+01
     -3.712  0.1186E+01  0.6396E+01
     -3.663  0.1316E+01  0.6460E+01
     -3.614  0.1827E+01  0.6549E+01
     -3.565  0.9920E+00  0.6598E+01
     -3.516  0.5881E+00  0.6627E+01
     -3.467  0.7589E+00  0.6664E+01
     -3.418  0.4012E+00  0.6683E+01
     -3.370  0.8191E+00  0.6723E+01
     -3.321  0.9813E+00  0.6771E+01
     -3.272  0.1237E+01  0.6832E+01
     -3.223  0.3055E+01  0.6981E+01
     -3.174  0.4482E+01  0.7201E+01
     -3.125  0.2597E+01  0.7328E+01
     -3.076  0.8522E+00  0.7369E+01
     -3.027  0.1116E+01  0.7424E+01
     -2.978  0.1896E+01  0.7517E+01
     -2.929  0.2499E+01  0.7639E+01
     -2.880  0.5381E+01  0.7902E+01
     -2.831  0.6260E+01  0.8208E+01
     -2.783  0.3486E+01  0.8379E+01
     -2.734  0.1343E+01  0.8445E+01
     -2.685  0.7227E+00  0.8480E+01
     -2.636  0.1716E+00  0.8488E+01
     -2.587  0.3108E+00  0.8503E+01
     -2.538  0.9622E+00  0.8551E+01
     -2.489  0.1122E+01  0.8605E+01
     -2.440  0.7936E+00  0.8644E+01
     -2.391  0.1652E+01  0.8725E+01
     -2.342  0.2871E+01  0.8865E+01
     -2.293  0.2227E+01  0.8974E+01
     -2.245  0.3812E+01  0.9161E+01
     -2.196  0.4259E+01  0.9369E+01
     -2.147  0.1695E+01  0.9452E+01
     -2.098  0.2087E+00  0.9462E+01
     -2.049  0.1064E-01  0.9463E+01
     -2.000  0.2062E+00  0.9473E+01
     -1.951  0.1998E+01  0.9571E+01
     -1.902  0.5132E+01  0.9822E+01
     -1.853  0.4156E+01  0.1002E+02
     -1.804  0.2774E+01  0.1016E+02
     -1.755  0.2255E+01  0.1027E+02
     -1.706  0.5822E+00  0.1030E+02
     -1.658  0.4204E+00  0.1032E+02
     -1.609  0.1786E+01  0.1041E+02
     -1.560  0.1839E+01  0.1050E+02
     -1.511  0.1054E+01  0.1055E+02
     -1.462  0.2550E+01  0.1067E+02
     -1.413  0.3663E+01  0.1085E+02
     -1.364  0.3338E+01  0.1102E+02
     -1.315  0.4643E+01  0.1124E+02
     -1.266  0.5697E+01  0.1152E+02
     -1.217  0.2470E+01  0.1164E+02
     -1.168  0.7924E+00  0.1168E+02
     -1.119  0.1488E+01  0.1175E+02
     -1.071  0.1871E+01  0.1185E+02
     -1.022  0.1580E+01  0.1192E+02
     -0.973  0.2149E+01  0.1203E+02
     -0.924  0.2509E+01  0.1215E+02
     -0.875  0.2861E+01  0.1229E+02
     -0.826  0.3843E+01  0.1248E+02
     -0.777  0.1443E+01  0.1255E+02
     -0.728  0.6998E+00  0.1258E+02
     -0.679  0.1104E+01  0.1264E+02
     -0.630  0.5732E+00  0.1267E+02
     -0.581  0.1262E+01  0.1273E+02
     -0.532  0.3973E+01  0.1292E+02
     -0.484  0.5266E+01  0.1318E+02
     -0.435  0.3659E+01  0.1336E+02
     -0.386  0.2941E+01  0.1350E+02
     -0.337  0.3200E+01  0.1366E+02
     -0.288  0.2650E+01  0.1379E+02
     -0.239  0.2711E+01  0.1392E+02
     -0.190  0.1780E+01  0.1401E+02
     -0.141  0.7472E+00  0.1404E+02
     -0.092  0.1044E+01  0.1410E+02
     -0.043  0.2137E+01  0.1420E+02
      0.006  0.1672E+01  0.1428E+02
      0.054  0.1381E+01  0.1435E+02
      0.103  0.1952E+01  0.1444E+02
      0.152  0.3106E+01  0.1460E+02
      0.201  0.3798E+01  0.1478E+02
      0.250  0.1739E+01  0.1487E+02
      0.299  0.1073E+01  0.1492E+02
      0.348  0.1290E+01  0.1498E+02
      0.397  0.2971E+01  0.1513E+02
      0.446  0.3684E+01  0.1531E+02
      0.495  0.2682E+01  0.1544E+02
      0.544  0.2764E+01  0.1558E+02
      0.593  0.2490E+01  0.1570E+02
      0.641  0.1528E+01  0.1577E+02
      0.690  0.3443E+00  0.1579E+02
      0.739  0.5316E+00  0.1581E+02
      0.788  0.1630E+01  0.1589E+02
      0.837  0.2234E+01  0.1600E+02
      0.886  0.4414E+01  0.1622E+02
      0.935  0.4649E+01  0.1645E+02
      0.984  0.4253E+01  0.1665E+02
      1.033  0.5069E+01  0.1690E+02
      1.082  0.4949E+01  0.1714E+02
      1.131  0.2285E+01  0.1726E+02
      1.180  0.1149E+01  0.1731E+02
      1.228  0.4884E+00  0.1734E+02
      1.277  0.5187E+00  0.1736E+02
      1.326  0.1548E+01  0.1744E+02
      1.375  0.2999E+01  0.1758E+02
      1.424  0.3595E+01  0.1776E+02
      1.473  0.4039E+01  0.1796E+02
      1.522  0.5248E+01  0.1821E+02
      1.571  0.2292E+01  0.1833E+02
      1.620  0.2056E+01  0.1843E+02
      1.669  0.2653E+01  0.1856E+02
      1.718  0.2150E+01  0.1866E+02
      1.766  0.1773E+01  0.1875E+02
      1.815  0.2412E+01  0.1887E+02
      1.864  0.2592E+01  0.1899E+02
      1.913  0.3778E+01  0.1918E+02
      1.962  0.3700E+01  0.1936E+02
      2.011  0.3127E+01  0.1951E+02
      2.060  0.2846E+01  0.1965E+02
      2.109  0.2331E+01  0.1977E+02
      2.158  0.1468E+01  0.1984E+02
      2.207  0.1206E+01  0.1990E+02
      2.256  0.6061E+00  0.1993E+02
      2.305  0.6288E+00  0.1996E+02
      2.353  0.1520E+01  0.2003E+02
      2.402  0.3458E+01  0.2020E+02
      2.451  0.4093E+01  0.2040E+02
      2.500  0.3669E+01  0.2058E+02
      2.549  0.2998E+01  0.2073E+02
      2.598  0.3291E+01  0.2089E+02
      2.647  0.1880E+01  0.2098E+02
      2.696  0.1287E+01  0.2104E+02
      2.745  0.1337E+01  0.2111E+02
      2.794  0.1382E+01  0.2118E+02
      2.843  0.4064E+01  0.2137E+02
      2.892  0.7306E+01  0.2173E+02
      2.940  0.7118E+01  0.2208E+02
      2.989  0.5703E+01  0.2236E+02
      3.038  0.4130E+01  0.2256E+02
      3.087  0.1253E+01  0.2262E+02
      3.136  0.6380E+00  0.2265E+02
      3.185  0.1908E+01  0.2275E+02
      3.234  0.2323E+01  0.2286E+02
      3.283  0.1816E+01  0.2295E+02
      3.332  0.4028E+01  0.2315E+02
      3.381  0.5040E+01  0.2339E+02
      3.430  0.2975E+01  0.2354E+02
      3.479  0.3625E+01  0.2372E+02
      3.527  0.2165E+01  0.2382E+02
      3.576  0.1939E+01  0.2392E+02
      3.625  0.2722E+01  0.2405E+02
      3.674  0.1307E+01  0.2411E+02
      3.723  0.1560E+01  0.2419E+02
      3.772  0.1766E+01  0.2428E+02
      3.821  0.1933E+01  0.2437E+02
      3.870  0.1500E+01  0.2444E+02
      3.919  0.3081E+01  0.2459E+02
      3.968  0.6571E+01  0.2492E+02
      4.017  0.4532E+01  0.2514E+02
      4.065  0.1516E+01  0.2521E+02
      4.114  0.6139E+00  0.2524E+02
      4.163  0.1551E+00  0.2525E+02
      4.212  0.9306E-02  0.2525E+02
      4.261  0.1026E-03  0.2525E+02
      4.310  0.1877E-06  0.2525E+02
      4.359  0.5421E-10  0.2525E+02
      4.408  0.2383E-14  0.2525E+02
      4.457  0.0000E+00  0.2525E+02
      4.506  0.0000E+00  0.2525E+02
      4.555  0.0000E+00  0.2525E+02
      4.604  0.0000E+00  0.2525E+02
      4.652  0.0000E+00  0.2525E+02
      4.701  0.0000E+00  0.2525E+02
      4.750  0.0000E+00  0.2525E+02
