         260
 Energy:  -991.75696239999991     
 X   0.00000000       0.00000000       0.00000000    
 X   0.00000000      -17.1805725       0.00000000    
 X   0.00000000      -8.59028625      -14.8788128    
 X   30.0000000       0.00000000       0.00000000    
 X   0.00000000      -25.7708588      -14.8788128    
 X   30.0000000      -17.1805725       0.00000000    
 X   30.0000000      -8.59028625      -14.8788128    
 X   30.0000000      -25.7708588      -14.8788128    
 Al   2.33798003      -11.4537201      -6.61281013    
 Al   2.33798003      -14.3171396      -11.5724096    
 Al   2.33798003      -8.59029007      -1.65320003    
 Al   2.33798003      -17.1805706      -6.61281013    
 Al   2.33798003      -20.0440006      -11.5724096    
 Al   2.33798003      -14.3171396      -1.65320003    
 Al   2.33798003      -5.72686005      -6.61281013    
 Al   2.33798003      -8.59029007      -11.5724096    
 Al   2.33798003      -2.86343002      -1.65320003    
 Al   4.67596006      -14.3171396      -8.26601028    
 Al   4.67596006      -17.1805706      -13.2256098    
 Al   4.67596006      -11.4537201      -3.30640006    
 Al   4.67596006      -20.0440006      -8.26601028    
 Al   4.67596006      -22.9074306      -13.2256098    
 Al   4.67596006      -17.1805706      -3.30640006    
 Al   4.67596006      -8.59029007      -8.26601028    
 Al   4.67596006      -11.4537201      -13.2256098    
 Al   4.67596006      -5.72686005      -3.30640006    
 Al   7.01393986      -17.1805706      -9.91921043    
 Al   7.01393986      -11.4537201       0.00000000    
 Al   7.01393986      -14.3171396      -4.95959997    
 Al   7.01393986      -5.72686005      -9.91921043    
 Al   7.01393986       0.00000000       0.00000000    
 Al   7.01393986      -2.86343002      -4.95959997    
 Al   7.01393986      -11.4537201      -9.91921043    
 Al   7.01393986      -5.72686005       0.00000000    
 Al   7.01393986      -8.59029007      -4.95959997    
 Al   9.35192013      -20.0440006      -11.5724096    
 Al   9.35192013      -14.3171396      -1.65320003    
 Al   9.35192013      -17.1805706      -6.61281013    
 Al   9.35192013      -8.59029007      -11.5724096    
 Al   9.35192013      -2.86343002      -1.65320003    
 Al   9.35192013      -5.72686005      -6.61281013    
 Al   9.35192013      -14.3171396      -11.5724096    
 Al   9.35192013      -8.59029007      -1.65320003    
 Al   9.35192013      -11.4537201      -6.61281013    
 Al   11.6899004      -22.9074306      -13.2256098    
 Al   11.6899004      -17.1805706      -3.30640006    
 Al   11.6899004      -20.0440006      -8.26601028    
 Al   11.6899004      -11.4537201      -13.2256098    
 Al   11.6899004      -5.72686005      -3.30640006    
 Al   11.6899004      -8.59029007      -8.26601028    
 Al   11.6899004      -17.1805706      -13.2256098    
 Al   11.6899004      -11.4537201      -3.30640006    
 Al   11.6899004      -14.3171396      -8.26601028    
 Al   14.0278797       0.00000000       0.00000000    
 Al   14.0278797      -2.86343002      -4.95959997    
 Al   14.0278797      -5.72686005      -9.91921043    
 Al   14.0278797      -5.72686005       0.00000000    
 Al   14.0278797      -8.59029007      -4.95959997    
 Al   14.0278797      -11.4537201      -9.91921043    
 Al   14.0278797      -11.4537201       0.00000000    
 Al   14.0278797      -14.3171396      -4.95959997    
 Al   14.0278797      -17.1805706      -9.91921043    
 Al   16.3658600      -2.86343002      -1.65320003    
 Al   16.3658600      -5.72686005      -6.61281013    
 Al   16.3658600      -8.59029007      -11.5724096    
 Al   16.3658600      -8.59029007      -1.65320003    
 Al   16.3658600      -11.4537201      -6.61281013    
 Al   16.3658600      -14.3171396      -11.5724096    
 Al   16.3658600      -14.3171396      -1.65320003    
 Al   16.3658600      -17.1805706      -6.61281013    
 Al   16.3658600      -20.0440006      -11.5724096    
 Al   2.33798003      -7.15856981      -4.13299990    
 Al   2.33798003      -10.0220003      -9.09261036    
 Al   2.33798003      -12.8854303      -14.0522099    
 Al   2.33798003      -12.8854303      -4.13299990    
 Al   2.33798003      -15.7488604      -9.09261036    
 Al   2.33798003      -18.6122894      -14.0522099    
 Al   2.33798003      -18.6122894      -4.13299990    
 Al   2.33798003      -21.4757195      -9.09261036    
 Al   2.33798003      -24.3391495      -14.0522099    
 Al   4.67596006      -10.0220003      -5.78621006    
 Al   4.67596006      -12.8854303      -10.7458096    
 Al   4.67596006      -7.15856981     -0.826600015    
 Al   4.67596006      -15.7488604      -5.78621006    
 Al   4.67596006      -18.6122894      -10.7458096    
 Al   4.67596006      -12.8854303     -0.826600015    
 Al   4.67596006      -4.29513979      -5.78621006    
 Al   4.67596006      -7.15856981      -10.7458096    
 Al   4.67596006      -1.43171000     -0.826600015    
 Al   7.01393986      -12.8854303      -7.43941021    
 Al   7.01393986      -15.7488604      -12.3990097    
 Al   7.01393986      -10.0220003      -2.47979999    
 Al   7.01393986      -18.6122894      -7.43941021    
 Al   7.01393986      -21.4757195      -12.3990097    
 Al   7.01393986      -15.7488604      -2.47979999    
 Al   7.01393986      -7.15856981      -7.43941021    
 Al   7.01393986      -10.0220003      -12.3990097    
 Al   7.01393986      -4.29513979      -2.47979999    
 Al   9.35192013      -15.7488604      -9.09261036    
 Al   9.35192013      -18.6122894      -14.0522099    
 Al   9.35192013      -12.8854303      -4.13299990    
 Al   9.35192013      -21.4757195      -9.09261036    
 Al   9.35192013      -24.3391495      -14.0522099    
 Al   9.35192013      -18.6122894      -4.13299990    
 Al   9.35192013      -10.0220003      -9.09261036    
 Al   9.35192013      -12.8854303      -14.0522099    
 Al   9.35192013      -7.15856981      -4.13299990    
 Al   11.6899004      -18.6122894      -10.7458096    
 Al   11.6899004      -12.8854303     -0.826600015    
 Al   11.6899004      -15.7488604      -5.78621006    
 Al   11.6899004      -7.15856981      -10.7458096    
 Al   11.6899004      -1.43171000     -0.826600015    
 Al   11.6899004      -4.29513979      -5.78621006    
 Al   11.6899004      -12.8854303      -10.7458096    
 Al   11.6899004      -7.15856981     -0.826600015    
 Al   11.6899004      -10.0220003      -5.78621006    
 Al   14.0278797      -21.4757195      -12.3990097    
 Al   14.0278797      -15.7488604      -2.47979999    
 Al   14.0278797      -18.6122894      -7.43941021    
 Al   14.0278797      -10.0220003      -12.3990097    
 Al   14.0278797      -4.29513979      -2.47979999    
 Al   14.0278797      -7.15856981      -7.43941021    
 Al   14.0278797      -15.7488604      -12.3990097    
 Al   14.0278797      -10.0220003      -2.47979999    
 Al   14.0278797      -12.8854303      -7.43941021    
 Al   16.3658600      -24.3391495      -14.0522099    
 Al   16.3658600      -18.6122894      -4.13299990    
 Al   16.3658600      -21.4757195      -9.09261036    
 Al   16.3658600      -12.8854303      -14.0522099    
 Al   16.3658600      -7.15856981      -4.13299990    
 Al   16.3658600      -10.0220003      -9.09261036    
 Al   16.3658600      -18.6122894      -14.0522099    
 Al   16.3658600      -12.8854303      -4.13299990    
 Al   16.3658600      -15.7488604      -9.09261036    
 Al   2.33798003      -8.59029007      -6.61281013    
 Al   2.33798003      -11.4537201      -11.5724096    
 Al   2.33798003      -5.72686005      -1.65320003    
 Al   2.33798003      -14.3171396      -6.61281013    
 Al   2.33798003      -17.1805706      -11.5724096    
 Al   2.33798003      -11.4537201      -1.65320003    
 Al   2.33798003      -20.0440006      -6.61281013    
 Al   2.33798003      -22.9074306      -11.5724096    
 Al   2.33798003      -17.1805706      -1.65320003    
 Al   4.67596006      -11.4537201      -8.26601028    
 Al   4.67596006      -14.3171396      -13.2256098    
 Al   4.67596006      -8.59029007      -3.30640006    
 Al   4.67596006      -17.1805706      -8.26601028    
 Al   4.67596006      -20.0440006      -13.2256098    
 Al   4.67596006      -14.3171396      -3.30640006    
 Al   4.67596006      -5.72686005      -8.26601028    
 Al   4.67596006      -8.59029007      -13.2256098    
 Al   4.67596006      -2.86343002      -3.30640006    
 Al   7.01393986      -14.3171396      -9.91921043    
 Al   7.01393986      -8.59029007       0.00000000    
 Al   7.01393986      -11.4537201      -4.95959997    
 Al   7.01393986      -20.0440006      -9.91921043    
 Al   7.01393986      -14.3171396       0.00000000    
 Al   7.01393986      -17.1805706      -4.95959997    
 Al   7.01393986      -8.59029007      -9.91921043    
 Al   7.01393986      -2.86343002       0.00000000    
 Al   7.01393986      -5.72686005      -4.95959997    
 Al   9.35192013      -17.1805706      -11.5724096    
 Al   9.35192013      -11.4537201      -1.65320003    
 Al   9.35192013      -14.3171396      -6.61281013    
 Al   9.35192013      -22.9074306      -11.5724096    
 Al   9.35192013      -17.1805706      -1.65320003    
 Al   9.35192013      -20.0440006      -6.61281013    
 Al   9.35192013      -11.4537201      -11.5724096    
 Al   9.35192013      -5.72686005      -1.65320003    
 Al   9.35192013      -8.59029007      -6.61281013    
 Al   11.6899004      -20.0440006      -13.2256098    
 Al   11.6899004      -14.3171396      -3.30640006    
 Al   11.6899004      -17.1805706      -8.26601028    
 Al   11.6899004      -8.59029007      -13.2256098    
 Al   11.6899004      -2.86343002      -3.30640006    
 Al   11.6899004      -5.72686005      -8.26601028    
 Al   11.6899004      -14.3171396      -13.2256098    
 Al   11.6899004      -8.59029007      -3.30640006    
 Al   11.6899004      -11.4537201      -8.26601028    
 Al   14.0278797      -14.3171396       0.00000000    
 Al   14.0278797      -17.1805706      -4.95959997    
 Al   14.0278797      -20.0440006      -9.91921043    
 Al   14.0278797      -2.86343002       0.00000000    
 Al   14.0278797      -5.72686005      -4.95959997    
 Al   14.0278797      -8.59029007      -9.91921043    
 Al   14.0278797      -8.59029007       0.00000000    
 Al   14.0278797      -11.4537201      -4.95959997    
 Al   14.0278797      -14.3171396      -9.91921043    
 Al   16.3658600      -17.1805706      -1.65320003    
 Al   16.3658600      -20.0440006      -6.61281013    
 Al   16.3658600      -22.9074306      -11.5724096    
 Al   16.3658600      -5.72686005      -1.65320003    
 Al   16.3658600      -8.59029007      -6.61281013    
 Al   16.3658600      -11.4537201      -11.5724096    
 Al   16.3658600      -11.4537201      -1.65320003    
 Al   16.3658600      -14.3171396      -6.61281013    
 Al   16.3658600      -17.1805706      -11.5724096    
 Al   2.33798003      -10.0220003      -4.13299990    
 Al   2.33798003      -12.8854303      -9.09261036    
 Al   2.33798003      -15.7488604      -14.0522099    
 Al   2.33798003      -15.7488604      -4.13299990    
 Al   2.33798003      -18.6122894      -9.09261036    
 Al   2.33798003      -21.4757195      -14.0522099    
 Al   2.33798003      -4.29513979      -4.13299990    
 Al   2.33798003      -7.15856981      -9.09261036    
 Al   2.33798003      -10.0220003      -14.0522099    
 Al   4.67596006      -12.8854303      -5.78621006    
 Al   4.67596006      -15.7488604      -10.7458096    
 Al   4.67596006      -10.0220003     -0.826600015    
 Al   4.67596006      -18.6122894      -5.78621006    
 Al   4.67596006      -21.4757195      -10.7458096    
 Al   4.67596006      -15.7488604     -0.826600015    
 Al   4.67596006      -7.15856981      -5.78621006    
 Al   4.67596006      -10.0220003      -10.7458096    
 Al   4.67596006      -4.29513979     -0.826600015    
 Al   7.01393986      -15.7488604      -7.43941021    
 Al   7.01393986      -18.6122894      -12.3990097    
 Al   7.01393986      -12.8854303      -2.47979999    
 Al   7.01393986      -4.29513979      -7.43941021    
 Al   7.01393986      -7.15856981      -12.3990097    
 Al   7.01393986      -1.43171000      -2.47979999    
 Al   7.01393986      -10.0220003      -7.43941021    
 Al   7.01393986      -12.8854303      -12.3990097    
 Al   7.01393986      -7.15856981      -2.47979999    
 Al   9.35192013      -18.6122894      -9.09261036    
 Al   9.35192013      -21.4757195      -14.0522099    
 Al   9.35192013      -15.7488604      -4.13299990    
 Al   9.35192013      -7.15856981      -9.09261036    
 Al   9.35192013      -10.0220003      -14.0522099    
 Al   9.35192013      -4.29513979      -4.13299990    
 Al   9.35192013      -12.8854303      -9.09261036    
 Al   9.35192013      -15.7488604      -14.0522099    
 Al   9.35192013      -10.0220003      -4.13299990    
 Al   11.6899004      -21.4757195      -10.7458096    
 Al   11.6899004      -15.7488604     -0.826600015    
 Al   11.6899004      -18.6122894      -5.78621006    
 Al   11.6899004      -10.0220003      -10.7458096    
 Al   11.6899004      -4.29513979     -0.826600015    
 Al   11.6899004      -7.15856981      -5.78621006    
 Al   11.6899004      -15.7488604      -10.7458096    
 Al   11.6899004      -10.0220003     -0.826600015    
 Al   11.6899004      -12.8854303      -5.78621006    
 Al   14.0278797      -7.15856981      -12.3990097    
 Al   14.0278797      -1.43171000      -2.47979999    
 Al   14.0278797      -4.29513979      -7.43941021    
 Al   14.0278797      -12.8854303      -12.3990097    
 Al   14.0278797      -7.15856981      -2.47979999    
 Al   14.0278797      -10.0220003      -7.43941021    
 Al   14.0278797      -18.6122894      -12.3990097    
 Al   14.0278797      -12.8854303      -2.47979999    
 Al   14.0278797      -15.7488604      -7.43941021    
 Al   16.3658600      -10.0220003      -14.0522099    
 Al   16.3658600      -4.29513979      -4.13299990    
 Al   16.3658600      -7.15856981      -9.09261036    
 Al   16.3658600      -15.7488604      -14.0522099    
 Al   16.3658600      -10.0220003      -4.13299990    
 Al   16.3658600      -12.8854303      -9.09261036    
 Al   16.3658600      -21.4757195      -14.0522099    
 Al   16.3658600      -15.7488604      -4.13299990    
 Al   16.3658600      -18.6122894      -9.09261036    
         260
 Energy:  -991.82016030000000     
 X   0.00000000       0.00000000       0.00000000    
 X   0.00000000      -17.1805725       0.00000000    
 X   0.00000000      -8.59028625      -14.8788128    
 X   30.0000000       0.00000000       0.00000000    
 X   0.00000000      -25.7708588      -14.8788128    
 X   30.0000000      -17.1805725       0.00000000    
 X   30.0000000      -8.59028625      -14.8788128    
 X   30.0000000      -25.7708588      -14.8788128    
 Al   2.33934999      -11.4537201      -6.61281013    
 Al   2.33934999      -14.3171396      -11.5724096    
 Al   2.33934999      -8.59029007      -1.65320003    
 Al   2.33934999      -17.1805706      -6.61281013    
 Al   2.33934999      -20.0440006      -11.5724096    
 Al   2.33934999      -14.3171396      -1.65320003    
 Al   2.33934999      -5.72686005      -6.61281013    
 Al   2.33934999      -8.59029007      -11.5724096    
 Al   2.33934999      -2.86343002      -1.65320003    
 Al   4.67949009      -14.3171396      -8.26601028    
 Al   4.67949009      -17.1805706      -13.2256098    
 Al   4.67949009      -11.4537201      -3.30640006    
 Al   4.67949009      -20.0440006      -8.26601028    
 Al   4.67949009      -22.9074306      -13.2256098    
 Al   4.67949009      -17.1805706      -3.30640006    
 Al   4.67949009      -8.59029007      -8.26601028    
 Al   4.67949009      -11.4537201      -13.2256098    
 Al   4.67949009      -5.72686005      -3.30640006    
 Al   7.01205015      -17.1805706      -9.91921043    
 Al   7.01205015      -11.4537201       0.00000000    
 Al   7.01205015      -14.3171396      -4.95959997    
 Al   7.01205015      -5.72686005      -9.91921043    
 Al   7.01205015      -0.00000000       0.00000000    
 Al   7.01205015      -2.86343002      -4.95959997    
 Al   7.01205015      -11.4537201      -9.91921043    
 Al   7.01205015      -5.72686005       0.00000000    
 Al   7.01205015      -8.59029007      -4.95959997    
 Al   9.35192013      -20.0440006      -11.5724096    
 Al   9.35192013      -14.3171396      -1.65320003    
 Al   9.35192013      -17.1805706      -6.61281013    
 Al   9.35192013      -8.59029007      -11.5724096    
 Al   9.35192013      -2.86343002      -1.65320003    
 Al   9.35192013      -5.72686005      -6.61281013    
 Al   9.35192013      -14.3171396      -11.5724096    
 Al   9.35192013      -8.59029007      -1.65320003    
 Al   9.35192013      -11.4537201      -6.61281013    
 Al   11.6917896      -22.9074306      -13.2256098    
 Al   11.6917896      -17.1805706      -3.30640006    
 Al   11.6917896      -20.0440006      -8.26601028    
 Al   11.6917896      -11.4537201      -13.2256098    
 Al   11.6917896      -5.72686005      -3.30640006    
 Al   11.6917896      -8.59029007      -8.26601028    
 Al   11.6917896      -17.1805706      -13.2256098    
 Al   11.6917896      -11.4537201      -3.30640006    
 Al   11.6917896      -14.3171396      -8.26601028    
 Al   14.0243502       0.00000000       0.00000000    
 Al   14.0243502      -2.86343002      -4.95959997    
 Al   14.0243502      -5.72686005      -9.91921043    
 Al   14.0243502      -5.72686005       0.00000000    
 Al   14.0243502      -8.59029007      -4.95959997    
 Al   14.0243502      -11.4537201      -9.91921043    
 Al   14.0243502      -11.4537201       0.00000000    
 Al   14.0243502      -14.3171396      -4.95959997    
 Al   14.0243502      -17.1805706      -9.91921043    
 Al   16.3644905      -2.86343002      -1.65320003    
 Al   16.3644905      -5.72686005      -6.61281013    
 Al   16.3644905      -8.59029007      -11.5724096    
 Al   16.3644905      -8.59029007      -1.65320003    
 Al   16.3644905      -11.4537201      -6.61281013    
 Al   16.3644905      -14.3171396      -11.5724096    
 Al   16.3644905      -14.3171396      -1.65320003    
 Al   16.3644905      -17.1805706      -6.61281013    
 Al   16.3644905      -20.0440006      -11.5724096    
 Al   2.33934999      -7.15856981      -4.13299990    
 Al   2.33934999      -10.0220003      -9.09261036    
 Al   2.33934999      -12.8854303      -14.0522099    
 Al   2.33934999      -12.8854303      -4.13299990    
 Al   2.33934999      -15.7488604      -9.09261036    
 Al   2.33934999      -18.6122894      -14.0522099    
 Al   2.33934999      -18.6122894      -4.13299990    
 Al   2.33934999      -21.4757195      -9.09261036    
 Al   2.33934999      -24.3391495      -14.0522099    
 Al   4.67949009      -10.0220003      -5.78621006    
 Al   4.67949009      -12.8854303      -10.7458096    
 Al   4.67949009      -7.15856981     -0.826600015    
 Al   4.67949009      -15.7488604      -5.78621006    
 Al   4.67949009      -18.6122894      -10.7458096    
 Al   4.67949009      -12.8854303     -0.826600015    
 Al   4.67949009      -4.29513979      -5.78621006    
 Al   4.67949009      -7.15856981      -10.7458096    
 Al   4.67949009      -1.43171000     -0.826600015    
 Al   7.01205015      -12.8854303      -7.43941021    
 Al   7.01205015      -15.7488604      -12.3990097    
 Al   7.01205015      -10.0220003      -2.47979999    
 Al   7.01205015      -18.6122894      -7.43941021    
 Al   7.01205015      -21.4757195      -12.3990097    
 Al   7.01205015      -15.7488604      -2.47979999    
 Al   7.01205015      -7.15856981      -7.43941021    
 Al   7.01205015      -10.0220003      -12.3990097    
 Al   7.01205015      -4.29513979      -2.47979999    
 Al   9.35192013      -15.7488604      -9.09261036    
 Al   9.35192013      -18.6122894      -14.0522099    
 Al   9.35192013      -12.8854303      -4.13299990    
 Al   9.35192013      -21.4757195      -9.09261036    
 Al   9.35192013      -24.3391495      -14.0522099    
 Al   9.35192013      -18.6122894      -4.13299990    
 Al   9.35192013      -10.0220003      -9.09261036    
 Al   9.35192013      -12.8854303      -14.0522099    
 Al   9.35192013      -7.15856981      -4.13299990    
 Al   11.6917896      -18.6122894      -10.7458096    
 Al   11.6917896      -12.8854303     -0.826600015    
 Al   11.6917896      -15.7488604      -5.78621006    
 Al   11.6917896      -7.15856981      -10.7458096    
 Al   11.6917896      -1.43171000     -0.826600015    
 Al   11.6917896      -4.29513979      -5.78621006    
 Al   11.6917896      -12.8854303      -10.7458096    
 Al   11.6917896      -7.15856981     -0.826600015    
 Al   11.6917896      -10.0220003      -5.78621006    
 Al   14.0243502      -21.4757195      -12.3990097    
 Al   14.0243502      -15.7488604      -2.47979999    
 Al   14.0243502      -18.6122894      -7.43941021    
 Al   14.0243502      -10.0220003      -12.3990097    
 Al   14.0243502      -4.29513979      -2.47979999    
 Al   14.0243502      -7.15856981      -7.43941021    
 Al   14.0243502      -15.7488604      -12.3990097    
 Al   14.0243502      -10.0220003      -2.47979999    
 Al   14.0243502      -12.8854303      -7.43941021    
 Al   16.3644905      -24.3391495      -14.0522099    
 Al   16.3644905      -18.6122894      -4.13299990    
 Al   16.3644905      -21.4757195      -9.09261036    
 Al   16.3644905      -12.8854303      -14.0522099    
 Al   16.3644905      -7.15856981      -4.13299990    
 Al   16.3644905      -10.0220003      -9.09261036    
 Al   16.3644905      -18.6122894      -14.0522099    
 Al   16.3644905      -12.8854303      -4.13299990    
 Al   16.3644905      -15.7488604      -9.09261036    
 Al   2.33934999      -8.59029007      -6.61281013    
 Al   2.33934999      -11.4537201      -11.5724096    
 Al   2.33934999      -5.72686005      -1.65320003    
 Al   2.33934999      -14.3171396      -6.61281013    
 Al   2.33934999      -17.1805706      -11.5724096    
 Al   2.33934999      -11.4537201      -1.65320003    
 Al   2.33934999      -20.0440006      -6.61281013    
 Al   2.33934999      -22.9074306      -11.5724096    
 Al   2.33934999      -17.1805706      -1.65320003    
 Al   4.67949009      -11.4537201      -8.26601028    
 Al   4.67949009      -14.3171396      -13.2256098    
 Al   4.67949009      -8.59029007      -3.30640006    
 Al   4.67949009      -17.1805706      -8.26601028    
 Al   4.67949009      -20.0440006      -13.2256098    
 Al   4.67949009      -14.3171396      -3.30640006    
 Al   4.67949009      -5.72686005      -8.26601028    
 Al   4.67949009      -8.59029007      -13.2256098    
 Al   4.67949009      -2.86343002      -3.30640006    
 Al   7.01205015      -14.3171396      -9.91921043    
 Al   7.01205015      -8.59029007       0.00000000    
 Al   7.01205015      -11.4537201      -4.95959997    
 Al   7.01205015      -20.0440006      -9.91921043    
 Al   7.01205015      -14.3171396       0.00000000    
 Al   7.01205015      -17.1805706      -4.95959997    
 Al   7.01205015      -8.59029007      -9.91921043    
 Al   7.01205015      -2.86343002       0.00000000    
 Al   7.01205015      -5.72686005      -4.95959997    
 Al   9.35192013      -17.1805706      -11.5724096    
 Al   9.35192013      -11.4537201      -1.65320003    
 Al   9.35192013      -14.3171396      -6.61281013    
 Al   9.35192013      -22.9074306      -11.5724096    
 Al   9.35192013      -17.1805706      -1.65320003    
 Al   9.35192013      -20.0440006      -6.61281013    
 Al   9.35192013      -11.4537201      -11.5724096    
 Al   9.35192013      -5.72686005      -1.65320003    
 Al   9.35192013      -8.59029007      -6.61281013    
 Al   11.6917896      -20.0440006      -13.2256098    
 Al   11.6917896      -14.3171396      -3.30640006    
 Al   11.6917896      -17.1805706      -8.26601028    
 Al   11.6917896      -8.59029007      -13.2256098    
 Al   11.6917896      -2.86343002      -3.30640006    
 Al   11.6917896      -5.72686005      -8.26601028    
 Al   11.6917896      -14.3171396      -13.2256098    
 Al   11.6917896      -8.59029007      -3.30640006    
 Al   11.6917896      -11.4537201      -8.26601028    
 Al   14.0243502      -14.3171396       0.00000000    
 Al   14.0243502      -17.1805706      -4.95959997    
 Al   14.0243502      -20.0440006      -9.91921043    
 Al   14.0243502      -2.86343002       0.00000000    
 Al   14.0243502      -5.72686005      -4.95959997    
 Al   14.0243502      -8.59029007      -9.91921043    
 Al   14.0243502      -8.59029007       0.00000000    
 Al   14.0243502      -11.4537201      -4.95959997    
 Al   14.0243502      -14.3171396      -9.91921043    
 Al   16.3644905      -17.1805706      -1.65320003    
 Al   16.3644905      -20.0440006      -6.61281013    
 Al   16.3644905      -22.9074306      -11.5724096    
 Al   16.3644905      -5.72686005      -1.65320003    
 Al   16.3644905      -8.59029007      -6.61281013    
 Al   16.3644905      -11.4537201      -11.5724096    
 Al   16.3644905      -11.4537201      -1.65320003    
 Al   16.3644905      -14.3171396      -6.61281013    
 Al   16.3644905      -17.1805706      -11.5724096    
 Al   2.33934999      -10.0220003      -4.13299990    
 Al   2.33934999      -12.8854303      -9.09261036    
 Al   2.33934999      -15.7488604      -14.0522099    
 Al   2.33934999      -15.7488604      -4.13299990    
 Al   2.33934999      -18.6122894      -9.09261036    
 Al   2.33934999      -21.4757195      -14.0522099    
 Al   2.33934999      -4.29513979      -4.13299990    
 Al   2.33934999      -7.15856981      -9.09261036    
 Al   2.33934999      -10.0220003      -14.0522099    
 Al   4.67949009      -12.8854303      -5.78621006    
 Al   4.67949009      -15.7488604      -10.7458096    
 Al   4.67949009      -10.0220003     -0.826600015    
 Al   4.67949009      -18.6122894      -5.78621006    
 Al   4.67949009      -21.4757195      -10.7458096    
 Al   4.67949009      -15.7488604     -0.826600015    
 Al   4.67949009      -7.15856981      -5.78621006    
 Al   4.67949009      -10.0220003      -10.7458096    
 Al   4.67949009      -4.29513979     -0.826600015    
 Al   7.01205015      -15.7488604      -7.43941021    
 Al   7.01205015      -18.6122894      -12.3990097    
 Al   7.01205015      -12.8854303      -2.47979999    
 Al   7.01205015      -4.29513979      -7.43941021    
 Al   7.01205015      -7.15856981      -12.3990097    
 Al   7.01205015      -1.43171000      -2.47979999    
 Al   7.01205015      -10.0220003      -7.43941021    
 Al   7.01205015      -12.8854303      -12.3990097    
 Al   7.01205015      -7.15856981      -2.47979999    
 Al   9.35192013      -18.6122894      -9.09261036    
 Al   9.35192013      -21.4757195      -14.0522099    
 Al   9.35192013      -15.7488604      -4.13299990    
 Al   9.35192013      -7.15856981      -9.09261036    
 Al   9.35192013      -10.0220003      -14.0522099    
 Al   9.35192013      -4.29513979      -4.13299990    
 Al   9.35192013      -12.8854303      -9.09261036    
 Al   9.35192013      -15.7488604      -14.0522099    
 Al   9.35192013      -10.0220003      -4.13299990    
 Al   11.6917896      -21.4757195      -10.7458096    
 Al   11.6917896      -15.7488604     -0.826600015    
 Al   11.6917896      -18.6122894      -5.78621006    
 Al   11.6917896      -10.0220003      -10.7458096    
 Al   11.6917896      -4.29513979     -0.826600015    
 Al   11.6917896      -7.15856981      -5.78621006    
 Al   11.6917896      -15.7488604      -10.7458096    
 Al   11.6917896      -10.0220003     -0.826600015    
 Al   11.6917896      -12.8854303      -5.78621006    
 Al   14.0243502      -7.15856981      -12.3990097    
 Al   14.0243502      -1.43171000      -2.47979999    
 Al   14.0243502      -4.29513979      -7.43941021    
 Al   14.0243502      -12.8854303      -12.3990097    
 Al   14.0243502      -7.15856981      -2.47979999    
 Al   14.0243502      -10.0220003      -7.43941021    
 Al   14.0243502      -18.6122894      -12.3990097    
 Al   14.0243502      -12.8854303      -2.47979999    
 Al   14.0243502      -15.7488604      -7.43941021    
 Al   16.3644905      -10.0220003      -14.0522099    
 Al   16.3644905      -4.29513979      -4.13299990    
 Al   16.3644905      -7.15856981      -9.09261036    
 Al   16.3644905      -15.7488604      -14.0522099    
 Al   16.3644905      -10.0220003      -4.13299990    
 Al   16.3644905      -12.8854303      -9.09261036    
 Al   16.3644905      -21.4757195      -14.0522099    
 Al   16.3644905      -15.7488604      -4.13299990    
 Al   16.3644905      -18.6122894      -9.09261036    
         260
 Energy:  -991.96470820000002     
 X   0.00000000       0.00000000       0.00000000    
 X   0.00000000      -17.1805725       0.00000000    
 X   0.00000000      -8.59028625      -14.8788128    
 X   30.0000000       0.00000000       0.00000000    
 X   0.00000000      -25.7708588      -14.8788128    
 X   30.0000000      -17.1805725       0.00000000    
 X   30.0000000      -8.59028625      -14.8788128    
 X   30.0000000      -25.7708588      -14.8788128    
 Al   2.34346008      -11.4537201      -6.61281013    
 Al   2.34346008      -14.3171396      -11.5724096    
 Al   2.34346008      -8.59029007      -1.65320003    
 Al   2.34346008      -17.1805706      -6.61281013    
 Al   2.34346008      -20.0440006      -11.5724096    
 Al   2.34346008      -14.3171396      -1.65320003    
 Al   2.34346008      -5.72686005      -6.61281013    
 Al   2.34346008      -8.59029007      -11.5724096    
 Al   2.34346008      -2.86343002      -1.65320003    
 Al   4.69008017      -14.3171396      -8.26601028    
 Al   4.69008017      -17.1805706      -13.2256098    
 Al   4.69008017      -11.4537201      -3.30640006    
 Al   4.69008017      -20.0440006      -8.26601028    
 Al   4.69008017      -22.9074306      -13.2256098    
 Al   4.69008017      -17.1805706      -3.30640006    