         260
 Energy:  -992.63268540000001      en  -919.15762540000003      edisp  -73.475059999999999     
 X   0.00000000       0.00000000       0.00000000    
 X   0.00000000      -17.1805725       0.00000000    
 X   0.00000000      -8.59028625      -14.8788128    
 X   30.0000000       0.00000000       0.00000000    
 X   0.00000000      -25.7708588      -14.8788128    
 X   30.0000000      -17.1805725       0.00000000    
 X   30.0000000      -8.59028625      -14.8788128    
 X   30.0000000      -25.7708588      -14.8788128    
 Al   2.45778990      -11.4537201      -6.61281013    
 Al   2.45778990      -14.3171396      -11.5724096    
 Al   2.45778990      -8.59029007      -1.65320003    
 Al   2.45778990      -17.1805706      -6.61281013    
 Al   2.45778990      -20.0440006      -11.5724096    
 Al   2.45778990      -14.3171396      -1.65320003    
 Al   2.45778990      -5.72686005      -6.61281013    
 Al   2.45778990      -8.59029007      -11.5724096    
 Al   2.45778990      -2.86343002      -1.65320003    
 Al   4.78467989      -14.3171396      -8.26601028    
 Al   4.78467989      -17.1805706      -13.2256098    
 Al   4.78467989      -11.4537201      -3.30640006    
 Al   4.78467989      -20.0440006      -8.26601028    
 Al   4.78467989      -22.9074306      -13.2256098    
 Al   4.78467989      -17.1805706      -3.30640006    
 Al   4.78467989      -8.59029007      -8.26601028    
 Al   4.78467989      -11.4537201      -13.2256098    
 Al   4.78467989      -5.72686005      -3.30640006    
 Al   7.05493021      -17.1805706      -9.91921043    
 Al   7.05493021      -11.4537201      -0.00000000    
 Al   7.05493021      -14.3171396      -4.95959997    
 Al   7.05493021      -5.72686005      -9.91921043    
 Al   7.05493021      -0.00000000      -0.00000000    
 Al   7.05493021      -2.86343002      -4.95959997    
 Al   7.05493021      -11.4537201      -9.91921043    
 Al   7.05493021      -5.72686005      -0.00000000    
 Al   7.05493021      -8.59029007      -4.95959997    
 Al   9.35192013      -20.0440006      -11.5724096    
 Al   9.35192013      -14.3171396      -1.65320003    
 Al   9.35192013      -17.1805706      -6.61281013    
 Al   9.35192013      -8.59029007      -11.5724096    
 Al   9.35192013      -2.86343002      -1.65320003    
 Al   9.35192013      -5.72686005      -6.61281013    
 Al   9.35192013      -14.3171396      -11.5724096    
 Al   9.35192013      -8.59029007      -1.65320003    
 Al   9.35192013      -11.4537201      -6.61281013    
 Al   11.6489096      -22.9074306      -13.2256098    
 Al   11.6489096      -17.1805706      -3.30640006    
 Al   11.6489096      -20.0440006      -8.26601028    
 Al   11.6489096      -11.4537201      -13.2256098    
 Al   11.6489096      -5.72686005      -3.30640006    
 Al   11.6489096      -8.59029007      -8.26601028    
 Al   11.6489096      -17.1805706      -13.2256098    
 Al   11.6489096      -11.4537201      -3.30640006    
 Al   11.6489096      -14.3171396      -8.26601028    
 Al   13.9191504      -0.00000000       0.00000000    
 Al   13.9191504      -2.86343002      -4.95959997    
 Al   13.9191504      -5.72686005      -9.91921043    
 Al   13.9191504      -5.72686005       0.00000000    
 Al   13.9191504      -8.59029007      -4.95959997    
 Al   13.9191504      -11.4537201      -9.91921043    
 Al   13.9191504      -11.4537201      -0.00000000    
 Al   13.9191504      -14.3171396      -4.95959997    
 Al   13.9191504      -17.1805706      -9.91921043    
 Al   16.2460499      -2.86343002      -1.65320003    
 Al   16.2460499      -5.72686005      -6.61281013    
 Al   16.2460499      -8.59029007      -11.5724096    
 Al   16.2460499      -8.59029007      -1.65320003    
 Al   16.2460499      -11.4537201      -6.61281013    
 Al   16.2460499      -14.3171396      -11.5724096    
 Al   16.2460499      -14.3171396      -1.65320003    
 Al   16.2460499      -17.1805706      -6.61281013    
 Al   16.2460499      -20.0440006      -11.5724096    
 Al   2.45778990      -7.15856981      -4.13299990    
 Al   2.45778990      -10.0220003      -9.09261036    
 Al   2.45778990      -12.8854303      -14.0522099    
 Al   2.45778990      -12.8854303      -4.13299990    
 Al   2.45778990      -15.7488604      -9.09261036    
 Al   2.45778990      -18.6122894      -14.0522099    
 Al   2.45778990      -18.6122894      -4.13299990    
 Al   2.45778990      -21.4757195      -9.09261036    
 Al   2.45778990      -24.3391495      -14.0522099    
 Al   4.78467989      -10.0220003      -5.78621006    
 Al   4.78467989      -12.8854303      -10.7458096    
 Al   4.78467989      -7.15856981     -0.826600015    
 Al   4.78467989      -15.7488604      -5.78621006    
 Al   4.78467989      -18.6122894      -10.7458096    
 Al   4.78467989      -12.8854303     -0.826600015    
 Al   4.78467989      -4.29513979      -5.78621006    
 Al   4.78467989      -7.15856981      -10.7458096    
 Al   4.78467989      -1.43171000     -0.826600015    
 Al   7.05493021      -12.8854303      -7.43941021    
 Al   7.05493021      -15.7488604      -12.3990097    
 Al   7.05493021      -10.0220003      -2.47979999    
 Al   7.05493021      -18.6122894      -7.43941021    
 Al   7.05493021      -21.4757195      -12.3990097    
 Al   7.05493021      -15.7488604      -2.47979999    
 Al   7.05493021      -7.15856981      -7.43941021    
 Al   7.05493021      -10.0220003      -12.3990097    
 Al   7.05493021      -4.29513979      -2.47979999    
 Al   9.35192013      -15.7488604      -9.09261036    
 Al   9.35192013      -18.6122894      -14.0522099    
 Al   9.35192013      -12.8854303      -4.13299990    
 Al   9.35192013      -21.4757195      -9.09261036    
 Al   9.35192013      -24.3391495      -14.0522099    
 Al   9.35192013      -18.6122894      -4.13299990    
 Al   9.35192013      -10.0220003      -9.09261036    
 Al   9.35192013      -12.8854303      -14.0522099    
 Al   9.35192013      -7.15856981      -4.13299990    
 Al   11.6489096      -18.6122894      -10.7458096    
 Al   11.6489096      -12.8854303     -0.826600015    
 Al   11.6489096      -15.7488604      -5.78621006    
 Al   11.6489096      -7.15856981      -10.7458096    
 Al   11.6489096      -1.43171000     -0.826600015    
 Al   11.6489096      -4.29513979      -5.78621006    
 Al   11.6489096      -12.8854303      -10.7458096    
 Al   11.6489096      -7.15856981     -0.826600015    
 Al   11.6489096      -10.0220003      -5.78621006    
 Al   13.9191504      -21.4757195      -12.3990097    
 Al   13.9191504      -15.7488604      -2.47979999    
 Al   13.9191504      -18.6122894      -7.43941021    
 Al   13.9191504      -10.0220003      -12.3990097    
 Al   13.9191504      -4.29513979      -2.47979999    
 Al   13.9191504      -7.15856981      -7.43941021    
 Al   13.9191504      -15.7488604      -12.3990097    
 Al   13.9191504      -10.0220003      -2.47979999    
 Al   13.9191504      -12.8854303      -7.43941021    
 Al   16.2460499      -24.3391495      -14.0522099    
 Al   16.2460499      -18.6122894      -4.13299990    
 Al   16.2460499      -21.4757195      -9.09261036    
 Al   16.2460499      -12.8854303      -14.0522099    
 Al   16.2460499      -7.15856981      -4.13299990    
 Al   16.2460499      -10.0220003      -9.09261036    
 Al   16.2460499      -18.6122894      -14.0522099    
 Al   16.2460499      -12.8854303      -4.13299990    
 Al   16.2460499      -15.7488604      -9.09261036    
 Al   2.45778990      -8.59029007      -6.61281013    
 Al   2.45778990      -11.4537201      -11.5724096    
 Al   2.45778990      -5.72686005      -1.65320003    
 Al   2.45778990      -14.3171396      -6.61281013    
 Al   2.45778990      -17.1805706      -11.5724096    
 Al   2.45778990      -11.4537201      -1.65320003    
 Al   2.45778990      -20.0440006      -6.61281013    
 Al   2.45778990      -22.9074306      -11.5724096    
 Al   2.45778990      -17.1805706      -1.65320003    
 Al   4.78467989      -11.4537201      -8.26601028    
 Al   4.78467989      -14.3171396      -13.2256098    
 Al   4.78467989      -8.59029007      -3.30640006    
 Al   4.78467989      -17.1805706      -8.26601028    
 Al   4.78467989      -20.0440006      -13.2256098    
 Al   4.78467989      -14.3171396      -3.30640006    
 Al   4.78467989      -5.72686005      -8.26601028    
 Al   4.78467989      -8.59029007      -13.2256098    
 Al   4.78467989      -2.86343002      -3.30640006    
 Al   7.05493021      -14.3171396      -9.91921043    
 Al   7.05493021      -8.59029007       0.00000000    
 Al   7.05493021      -11.4537201      -4.95959997    
 Al   7.05493021      -20.0440006      -9.91921043    
 Al   7.05493021      -14.3171396      -0.00000000    
 Al   7.05493021      -17.1805706      -4.95959997    
 Al   7.05493021      -8.59029007      -9.91921043    
 Al   7.05493021      -2.86343002      -0.00000000    
 Al   7.05493021      -5.72686005      -4.95959997    
 Al   9.35192013      -17.1805706      -11.5724096    
 Al   9.35192013      -11.4537201      -1.65320003    
 Al   9.35192013      -14.3171396      -6.61281013    
 Al   9.35192013      -22.9074306      -11.5724096    
 Al   9.35192013      -17.1805706      -1.65320003    
 Al   9.35192013      -20.0440006      -6.61281013    
 Al   9.35192013      -11.4537201      -11.5724096    
 Al   9.35192013      -5.72686005      -1.65320003    
 Al   9.35192013      -8.59029007      -6.61281013    
 Al   11.6489096      -20.0440006      -13.2256098    
 Al   11.6489096      -14.3171396      -3.30640006    
 Al   11.6489096      -17.1805706      -8.26601028    
 Al   11.6489096      -8.59029007      -13.2256098    
 Al   11.6489096      -2.86343002      -3.30640006    
 Al   11.6489096      -5.72686005      -8.26601028    
 Al   11.6489096      -14.3171396      -13.2256098    
 Al   11.6489096      -8.59029007      -3.30640006    
 Al   11.6489096      -11.4537201      -8.26601028    
 Al   13.9191504      -14.3171396       0.00000000    
 Al   13.9191504      -17.1805706      -4.95959997    
 Al   13.9191504      -20.0440006      -9.91921043    
 Al   13.9191504      -2.86343002      -0.00000000    
 Al   13.9191504      -5.72686005      -4.95959997    
 Al   13.9191504      -8.59029007      -9.91921043    
 Al   13.9191504      -8.59029007      -0.00000000    
 Al   13.9191504      -11.4537201      -4.95959997    
 Al   13.9191504      -14.3171396      -9.91921043    
 Al   16.2460499      -17.1805706      -1.65320003    
 Al   16.2460499      -20.0440006      -6.61281013    
 Al   16.2460499      -22.9074306      -11.5724096    
 Al   16.2460499      -5.72686005      -1.65320003    
 Al   16.2460499      -8.59029007      -6.61281013    
 Al   16.2460499      -11.4537201      -11.5724096    
 Al   16.2460499      -11.4537201      -1.65320003    
 Al   16.2460499      -14.3171396      -6.61281013    
 Al   16.2460499      -17.1805706      -11.5724096    
 Al   2.45778990      -10.0220003      -4.13299990    
 Al   2.45778990      -12.8854303      -9.09261036    
 Al   2.45778990      -15.7488604      -14.0522099    
 Al   2.45778990      -15.7488604      -4.13299990    
 Al   2.45778990      -18.6122894      -9.09261036    
 Al   2.45778990      -21.4757195      -14.0522099    
 Al   2.45778990      -4.29513979      -4.13299990    
 Al   2.45778990      -7.15856981      -9.09261036    
 Al   2.45778990      -10.0220003      -14.0522099    
 Al   4.78467989      -12.8854303      -5.78621006    
 Al   4.78467989      -15.7488604      -10.7458096    
 Al   4.78467989      -10.0220003     -0.826600015    
 Al   4.78467989      -18.6122894      -5.78621006    
 Al   4.78467989      -21.4757195      -10.7458096    
 Al   4.78467989      -15.7488604     -0.826600015    
 Al   4.78467989      -7.15856981      -5.78621006    
 Al   4.78467989      -10.0220003      -10.7458096    
 Al   4.78467989      -4.29513979     -0.826600015    
 Al   7.05493021      -15.7488604      -7.43941021    
 Al   7.05493021      -18.6122894      -12.3990097    
 Al   7.05493021      -12.8854303      -2.47979999    
 Al   7.05493021      -4.29513979      -7.43941021    
 Al   7.05493021      -7.15856981      -12.3990097    
 Al   7.05493021      -1.43171000      -2.47979999    
 Al   7.05493021      -10.0220003      -7.43941021    
 Al   7.05493021      -12.8854303      -12.3990097    
 Al   7.05493021      -7.15856981      -2.47979999    
 Al   9.35192013      -18.6122894      -9.09261036    
 Al   9.35192013      -21.4757195      -14.0522099    
 Al   9.35192013      -15.7488604      -4.13299990    
 Al   9.35192013      -7.15856981      -9.09261036    
 Al   9.35192013      -10.0220003      -14.0522099    
 Al   9.35192013      -4.29513979      -4.13299990    
 Al   9.35192013      -12.8854303      -9.09261036    
 Al   9.35192013      -15.7488604      -14.0522099    
 Al   9.35192013      -10.0220003      -4.13299990    
 Al   11.6489096      -21.4757195      -10.7458096    
 Al   11.6489096      -15.7488604     -0.826600015    
 Al   11.6489096      -18.6122894      -5.78621006    
 Al   11.6489096      -10.0220003      -10.7458096    
 Al   11.6489096      -4.29513979     -0.826600015    
 Al   11.6489096      -7.15856981      -5.78621006    
 Al   11.6489096      -15.7488604      -10.7458096    
 Al   11.6489096      -10.0220003     -0.826600015    
 Al   11.6489096      -12.8854303      -5.78621006    
 Al   13.9191504      -7.15856981      -12.3990097    
 Al   13.9191504      -1.43171000      -2.47979999    
 Al   13.9191504      -4.29513979      -7.43941021    
 Al   13.9191504      -12.8854303      -12.3990097    
 Al   13.9191504      -7.15856981      -2.47979999    
 Al   13.9191504      -10.0220003      -7.43941021    
 Al   13.9191504      -18.6122894      -12.3990097    
 Al   13.9191504      -12.8854303      -2.47979999    
 Al   13.9191504      -15.7488604      -7.43941021    
 Al   16.2460499      -10.0220003      -14.0522099    
 Al   16.2460499      -4.29513979      -4.13299990    
 Al   16.2460499      -7.15856981      -9.09261036    
 Al   16.2460499      -15.7488604      -14.0522099    
 Al   16.2460499      -10.0220003      -4.13299990    
 Al   16.2460499      -12.8854303      -9.09261036    
 Al   16.2460499      -21.4757195      -14.0522099    
 Al   16.2460499      -15.7488604      -4.13299990    
 Al   16.2460499      -18.6122894      -9.09261036    
