 vasp.6.2.1 16May21 (build Jun 16 2021 03:23:30) complex                         
 executed on             LinuxPGI date 2022.04.25  11:32:39
 running on    1 total cores
 distrk:  each k-point on    1 cores,    1 groups
 distr:  one band on NCORE=   1 cores,    1 groups


--------------------------------------------------------------------------------------------------------


 INCAR:
   SYSTEM = NiAl
   ISTART = 0
   EDIFF = 5E-6
   NELMIN = 6
   ISIF = 1
   NSW = 40
   IBRION = 2
   POTIM = 0.2
   IVDW = 12
   LWAVE = .FALSE.
   LCHARG = .FALSE.
   LREAL = Auto
   NCORE = 1
   LPLANE = .TRUE.
   ENCUT = 360.00 eV
   ISMEAR = 0
   SIGMA = 0.05

 POTCAR:    PAW Al_GW 19Mar2012                   
 POTCAR:    PAW Al_GW 19Mar2012                   
   VRHFIN =Al: s2p1                                                                                 
   LEXCH  = PE                                                                                      
   EATOM  =    53.5387 eV,    3.9350 Ry                                                             
                                                                                                    
   TITEL  = PAW Al_GW 19Mar2012                                                                     
   LULTRA =        F    use ultrasoft PP ?                                                          
   IUNSCR =        1    unscreen: 0-lin 1-nonlin 2-no                                               
   RPACOR =    1.500    partial core radius                                                         
   POMASS =   26.982; ZVAL   =    3.000    mass and valenz                                          
   RCORE  =    2.000    outmost cutoff radius                                                       
   RWIGS  =    2.000; RWIGS  =    1.058    wigner-seitz radius (au A)                               
   ENMAX  =  240.300; ENMIN  =  180.225 eV                                                          
   ICORE  =        3    local potential                                                             
   LCOR   =        T    correct aug charges                                                         
   LPAW   =        T    paw PP                                                                      
   EAUG   =  482.059                                                                                
   DEXC   =    0.000                                                                                
   RMAX   =    2.051    core radius for proj-oper                                                   
   RAUG   =    1.300    factor for augmentation sphere                                              
   RDEP   =    2.096    radius for radial grids                                                     
   RDEPT  =    1.856    core radius for aug-charge                                                  
                                                                                                    
   Atomic configuration                                                                             
    7 entries                                                                                       
     n  l   j            E        occ.                                                              
     1  0  0.50     -1511.1048   2.0000                                                             
     2  0  0.50      -108.1629   2.0000                                                             
     2  1  1.50       -69.6402   6.0000                                                             
     3  0  0.50        -7.7528   2.0000                                                             
     3  1  1.50        -2.7121   1.0000                                                             
     3  2  2.50        -2.7212   0.0000                                                             
     4  3  2.50        -2.7212   0.0000                                                             
   Description                                                                                      
     l       E           TYP  RCUT    TYP  RCUT                                                     
     0     -7.7528455     23  1.900                                                                 
     0     68.0291300     23  1.900                                                                 
     1     -2.7120682     23  1.900                                                                 
     1     68.0291300     23  1.900                                                                 
     2     -1.3605826     23  1.900                                                                 
     2     81.6349560     23  1.900                                                                 
     3     74.8320430     23  2.000                                                                 
  local pseudopotential read in
  partial core-charges read in
  partial kinetic energy density read in
  kinetic energy density of atom read in
  atomic valenz-charges read in
  non local Contribution for L=            0  read in
    real space projection operators read in
  non local Contribution for L=            0  read in
    real space projection operators read in
  non local Contribution for L=            1  read in
    real space projection operators read in
  non local Contribution for L=            1  read in
    real space projection operators read in
  non local Contribution for L=            2  read in
    real space projection operators read in
  non local Contribution for L=            2  read in
    real space projection operators read in
    PAW grid and wavefunctions read in
 
   number of l-projection  operators is LMAX  =            6
   number of lm-projection operators is LMMAX =           18
 
 Optimization of the real space projectors (new method)

 maximal supplied QI-value         = 18.90
 optimisation between [QCUT,QGAM] = [  9.64, 19.28] = [ 26.01,104.04] Ry 
 Optimized for a Real-space Cutoff    1.46 Angstroem

   l    n(q)    QCUT    max X(q) W(low)/X(q) W(high)/X(q)  e(spline) 
   0      8     9.638    11.519    0.10E-03    0.23E-03    0.86E-07
   0      8     9.638     5.834    0.72E-04    0.17E-03    0.68E-07
   1      8     9.638    10.132    0.33E-03    0.11E-03    0.32E-06
   1      8     9.638     3.004    0.25E-03    0.10E-03    0.24E-06
   2      7     9.638     3.169    0.30E-03    0.50E-03    0.35E-06
   2      7     9.638     1.607    0.15E-03    0.13E-03    0.12E-06
  PAW Al_GW 19Mar2012                   :
 energy of atom  1       EATOM=  -53.5387
 kinetic energy error for atom=    0.0006 (will be added to EATOM!!)
 
 
 POSCAR: New structure
  positions in cartesian coordinates
  No initial velocities read in
 exchange correlation table for  LEXCH =        8
   RHO(1)=    0.500       N(1)  =     2000
   RHO(2)=  100.500       N(2)  =     4000

 VTST: version 4.1, (05/19/21)

 CHAIN: initializing optimizer
 
 OPT: Using VASP Conjugate-Gradient optimizer
 CHAIN: Read ICHAIN             0
 
 POSCAR: New structure
  positions in cartesian coordinates
  No initial velocities read in
 


--------------------------------------------------------------------------------------------------------


 ion  position               nearest neighbor table
   1  0.444  0.444  0.078-
   2  0.444  0.778  0.078-
   3  0.444  0.111  0.078-
   4  0.778  0.444  0.078-
   5  0.778  0.778  0.078-
   6  0.778  0.111  0.078-
   7  0.111  0.444  0.078-
   8  0.111  0.778  0.078-
   9  0.111  0.111  0.078-
  10  0.556  0.556  0.156-
  11  0.556  0.889  0.156-
  12  0.556  0.222  0.156-
  13  0.889  0.556  0.156-
  14  0.889  0.889  0.156-
  15  0.889  0.222  0.156-
  16  0.222  0.556  0.156-
  17  0.222  0.889  0.156-
  18  0.222  0.222  0.156-
  19  0.667  0.667  0.234-
  20  0.667  0.000  0.234-
  21  0.667  0.333  0.234-
  22  0.000  0.667  0.234-
  23  0.000  0.000  0.234-
  24  0.000  0.333  0.234-
  25  0.333  0.667  0.234-
  26  0.333  0.000  0.234-
  27  0.333  0.333  0.234-
  28  0.778  0.778  0.312-
  29  0.778  0.111  0.312-
  30  0.778  0.444  0.312-
  31  0.111  0.778  0.312-
  32  0.111  0.111  0.312-
  33  0.111  0.444  0.312-
  34  0.444  0.778  0.312-
  35  0.444  0.111  0.312-
  36  0.444  0.444  0.312-
  37  0.889  0.889  0.390-
  38  0.889  0.222  0.390-
  39  0.889  0.556  0.390-
  40  0.222  0.889  0.390-
  41  0.222  0.222  0.390-
  42  0.222  0.556  0.390-
  43  0.556  0.889  0.390-
  44  0.556  0.222  0.390-
  45  0.556  0.556  0.390-
  46  0.000  0.000  0.468-
  47  0.000  0.333  0.468-
  48  0.000  0.667  0.468-
  49  0.333  0.000  0.468-
  50  0.333  0.333  0.468-
  51  0.333  0.667  0.468-
  52  0.667  0.000  0.468-
  53  0.667  0.333  0.468-
  54  0.667  0.667  0.468-
  55  0.111  0.111  0.546-
  56  0.111  0.444  0.546-
  57  0.111  0.778  0.546-
  58  0.444  0.111  0.546-
  59  0.444  0.444  0.546-
  60  0.444  0.778  0.546-
  61  0.778  0.111  0.546-
  62  0.778  0.444  0.546-
  63  0.778  0.778  0.546-
  64  0.278  0.278  0.078-
  65  0.278  0.611  0.078-
  66  0.278  0.944  0.078-
  67  0.611  0.278  0.078-
  68  0.611  0.611  0.078-
  69  0.611  0.944  0.078-
  70  0.944  0.278  0.078-
  71  0.944  0.611  0.078-
  72  0.944  0.944  0.078-
  73  0.389  0.389  0.156-
  74  0.389  0.722  0.156-
  75  0.389  0.056  0.156-
  76  0.722  0.389  0.156-
  77  0.722  0.722  0.156-
  78  0.722  0.056  0.156-
  79  0.056  0.389  0.156-
  80  0.056  0.722  0.156-
  81  0.056  0.056  0.156-
  82  0.500  0.500  0.234-
  83  0.500  0.833  0.234-
  84  0.500  0.167  0.234-
  85  0.833  0.500  0.234-
  86  0.833  0.833  0.234-
  87  0.833  0.167  0.234-
  88  0.167  0.500  0.234-
  89  0.167  0.833  0.234-
  90  0.167  0.167  0.234-
  91  0.611  0.611  0.312-
  92  0.611  0.944  0.312-
  93  0.611  0.278  0.312-
  94  0.944  0.611  0.312-
  95  0.944  0.944  0.312-
  96  0.944  0.278  0.312-
  97  0.278  0.611  0.312-
  98  0.278  0.944  0.312-
  99  0.278  0.278  0.312-
 100  0.722  0.722  0.390-
 101  0.722  0.056  0.390-
 102  0.722  0.389  0.390-
 103  0.056  0.722  0.390-
 104  0.056  0.056  0.390-
 105  0.056  0.389  0.390-
 106  0.389  0.722  0.390-
 107  0.389  0.056  0.390-
 108  0.389  0.389  0.390-
 109  0.833  0.833  0.468-
 110  0.833  0.167  0.468-
 111  0.833  0.500  0.468-
 112  0.167  0.833  0.468-
 113  0.167  0.167  0.468-
 114  0.167  0.500  0.468-
 115  0.500  0.833  0.468-
 116  0.500  0.167  0.468-
 117  0.500  0.500  0.468-
 118  0.944  0.944  0.546-
 119  0.944  0.278  0.546-
 120  0.944  0.611  0.546-
 121  0.278  0.944  0.546-
 122  0.278  0.278  0.546-
 123  0.278  0.611  0.546-
 124  0.611  0.944  0.546-
 125  0.611  0.278  0.546-
 126  0.611  0.611  0.546-
 127  0.278  0.444  0.078-
 128  0.278  0.778  0.078-
 129  0.278  0.111  0.078-
 130  0.611  0.444  0.078-
 131  0.611  0.778  0.078-
 132  0.611  0.111  0.078-
 133  0.944  0.444  0.078-
 134  0.944  0.778  0.078-
 135  0.944  0.111  0.078-
 136  0.389  0.556  0.156-
 137  0.389  0.889  0.156-
 138  0.389  0.222  0.156-
 139  0.722  0.556  0.156-
 140  0.722  0.889  0.156-
 141  0.722  0.222  0.156-
 142  0.056  0.556  0.156-
 143  0.056  0.889  0.156-
 144  0.056  0.222  0.156-
 145  0.500  0.667  0.234-
 146  0.500  0.000  0.234-
 147  0.500  0.333  0.234-
 148  0.833  0.667  0.234-
 149  0.833  0.000  0.234-
 150  0.833  0.333  0.234-
 151  0.167  0.667  0.234-
 152  0.167  0.000  0.234-
 153  0.167  0.333  0.234-
 154  0.611  0.778  0.312-
 155  0.611  0.111  0.312-
 156  0.611  0.444  0.312-
 157  0.944  0.778  0.312-
 158  0.944  0.111  0.312-
 159  0.944  0.444  0.312-
 160  0.278  0.778  0.312-
 161  0.278  0.111  0.312-
 162  0.278  0.444  0.312-
 163  0.722  0.889  0.390-
 164  0.722  0.222  0.390-
 165  0.722  0.556  0.390-
 166  0.056  0.889  0.390-
 167  0.056  0.222  0.390-
 168  0.056  0.556  0.390-
 169  0.389  0.889  0.390-
 170  0.389  0.222  0.390-
 171  0.389  0.556  0.390-
 172  0.833  0.000  0.468-
 173  0.833  0.333  0.468-
 174  0.833  0.667  0.468-
 175  0.167  0.000  0.468-
 176  0.167  0.333  0.468-
 177  0.167  0.667  0.468-
 178  0.500  0.000  0.468-
 179  0.500  0.333  0.468-
 180  0.500  0.667  0.468-
 181  0.944  0.111  0.546-
 182  0.944  0.444  0.546-
 183  0.944  0.778  0.546-
 184  0.278  0.111  0.546-
 185  0.278  0.444  0.546-
 186  0.278  0.778  0.546-
 187  0.611  0.111  0.546-
 188  0.611  0.444  0.546-
 189  0.611  0.778  0.546-
 190  0.444  0.278  0.078-
 191  0.444  0.611  0.078-
 192  0.444  0.944  0.078-
 193  0.778  0.278  0.078-
 194  0.778  0.611  0.078-
 195  0.778  0.944  0.078-
 196  0.111  0.278  0.078-
 197  0.111  0.611  0.078-
 198  0.111  0.944  0.078-
 199  0.556  0.389  0.156-
 200  0.556  0.722  0.156-
 201  0.556  0.056  0.156-
 202  0.889  0.389  0.156-
 203  0.889  0.722  0.156-
 204  0.889  0.056  0.156-
 205  0.222  0.389  0.156-
 206  0.222  0.722  0.156-
 207  0.222  0.056  0.156-
 208  0.667  0.500  0.234-
 209  0.667  0.833  0.234-
 210  0.667  0.167  0.234-
 211  0.000  0.500  0.234-
 212  0.000  0.833  0.234-
 213  0.000  0.167  0.234-
 214  0.333  0.500  0.234-
 215  0.333  0.833  0.234-
 216  0.333  0.167  0.234-
 217  0.778  0.611  0.312-
 218  0.778  0.944  0.312-
 219  0.778  0.278  0.312-
 220  0.111  0.611  0.312-
 221  0.111  0.944  0.312-
 222  0.111  0.278  0.312-
 223  0.444  0.611  0.312-
 224  0.444  0.944  0.312-
 225  0.444  0.278  0.312-
 226  0.889  0.722  0.390-
 227  0.889  0.056  0.390-
 228  0.889  0.389  0.390-
 229  0.222  0.722  0.390-
 230  0.222  0.056  0.390-
 231  0.222  0.389  0.390-
 232  0.556  0.722  0.390-
 233  0.556  0.056  0.390-
 234  0.556  0.389  0.390-
 235  0.000  0.833  0.468-
 236  0.000  0.167  0.468-
 237  0.000  0.500  0.468-
 238  0.333  0.833  0.468-
 239  0.333  0.167  0.468-
 240  0.333  0.500  0.468-
 241  0.667  0.833  0.468-
 242  0.667  0.167  0.468-
 243  0.667  0.500  0.468-
 244  0.111  0.944  0.546-
 245  0.111  0.278  0.546-
 246  0.111  0.611  0.546-
 247  0.444  0.944  0.546-
 248  0.444  0.278  0.546-
 249  0.444  0.611  0.546-
 250  0.778  0.944  0.546-
 251  0.778  0.278  0.546-
 252  0.778  0.611  0.546-
 
  LATTYP: Found a hexagonal cell.
 ALAT       =    17.1805734625
 C/A-ratio  =     1.7461582447
  
  Lattice vectors:
  
 A1 = (   0.0000000000,   8.5902867312,  14.8788130701)
 A2 = (   0.0000000000, -17.1805734625,   0.0000000000)
 A3 = (  30.0000000000,   0.0000000000,   0.0000000000)


Analysis of symmetry for initial positions (statically):
=====================================================================
 Subroutine PRICEL returns following result:
 
  LATTYP: Found a hexagonal cell.
 ALAT       =     2.8634289104
 C/A-ratio  =    10.4769494681
  
  Lattice vectors:
  
 A1 = (   0.0000000000,   1.4317144552,   2.4798021784)
 A2 = (   0.0000000000,  -2.8634289104,   0.0000000000)
 A3 = (  30.0000000000,   0.0000000000,   0.0000000000)
 
  36 primitive cells build up your supercell.
 

 Routine SETGRP: Setting up the symmetry group for a 
 hexagonal supercell.


 Subroutine GETGRP returns: Found 12 space group operations
 (whereof  6 operations were pure point group operations)
 out of a pool of 24 trial point group operations.


The static configuration has the point symmetry C_3v.
 The point group associated with its full space group is D_3d.


Analysis of symmetry for dynamics (positions and initial velocities):
=====================================================================
 Subroutine PRICEL returns following result:
 
  LATTYP: Found a hexagonal cell.
 ALAT       =     2.8634289104
 C/A-ratio  =    10.4769494681
  
  Lattice vectors:
  
 A1 = (   0.0000000000,   1.4317144552,   2.4798021784)
 A2 = (   0.0000000000,  -2.8634289104,   0.0000000000)
 A3 = (  30.0000000000,   0.0000000000,   0.0000000000)
 
  36 primitive cells build up your supercell.
 

 Routine SETGRP: Setting up the symmetry group for a 
 hexagonal supercell.


 Subroutine GETGRP returns: Found 12 space group operations
 (whereof  6 operations were pure point group operations)
 out of a pool of 24 trial point group operations.


The dynamic configuration has the point symmetry C_3v.
 The point group associated with its full space group is D_3d.


 Subroutine INISYM returns: Found 12 space group operations
 (whereof  6 operations are pure point group operations),
 and found    36 'primitive' translations


----------------------------------------------------------------------------------------

                                     Primitive cell                                     

  volume of cell :     213.0221

  direct lattice vectors                    reciprocal lattice vectors
     0.000000000  1.431714455  2.479802178    -0.000000000  0.000000000  0.403257973
     0.000000000 -2.863428910  0.000000000     0.000000000 -0.349231649  0.201628987
    30.000000000  0.000000000  0.000000000     0.033333333  0.000000000 -0.000000000

  length of vectors
     2.863428910  2.863428910 30.000000000     0.403257973  0.403257973  0.033333333

  position of ions in fractional coordinates (direct lattice)
     0.333333333  0.666666667  0.077932664
     0.666666667  0.333333333  0.155865328
     0.000000000  1.000000000  0.233797992
     0.333333333  0.666666667  0.311730655
     0.666666667  0.333333333  0.389663319
     0.000000000  1.000000000  0.467595983
     0.333333333  0.666666667  0.545528647

  ion indices of the primitive-cell ions
   primitive index   ion index
                 1           1
                 2          73
                 3          82
                 4          36
                 5         108
                 6         117
                 7          59

----------------------------------------------------------------------------------------

 
 
 KPOINTS: Automatic generation                    

Automatic generation of k-mesh.
 Grid dimensions read from file:
 generate k-points for:    2    2    1

 Generating k-lattice:

  Cartesian coordinates                     Fractional coordinates (reciprocal lattice)
     0.000000000 -0.029102637  0.016802416     0.500000000  0.000000000  0.000000000
     0.000000000  0.000000000 -0.033604831     0.000000000  0.500000000  0.000000000
     0.033333333  0.000000000  0.000000000     0.000000000  0.000000000  1.000000000

  Length of vectors
     0.033604831  0.033604831  0.033333333

  Shift w.r.t. Gamma in fractional coordinates (k-lattice)
     0.000000000  0.000000000  0.000000000

 
 Subroutine IBZKPT returns following result:
 ===========================================
 
 Found      2 irreducible k-points:
 
 Following reciprocal coordinates:
            Coordinates               Weight
  0.000000  0.000000  0.000000      1.000000
  0.500000  0.000000  0.000000      3.000000
 
 Following cartesian coordinates:
            Coordinates               Weight
  0.000000 -0.000000 -0.000000      1.000000
  0.000000 -0.029103  0.016802      3.000000
 


--------------------------------------------------------------------------------------------------------




 Dimension of arrays:
   k-points           NKPTS =      2   k-points in BZ     NKDIM =      2   number of bands    NBANDS=    505
   number of dos      NEDOS =    301   number of ions     NIONS =    252
   non local maximal  LDIM  =      6   non local SUM 2l+1 LMDIM =     18
   total plane-waves  NPLWV = 896000
   max r-space proj   IRMAX =   1558   max aug-charges    IRDMAX=   4746
   dimension x,y,z NGX =    80 NGY =   80 NGZ =  140
   dimension x,y,z NGXF=   160 NGYF=  160 NGZF=  280
   support grid    NGXF=   160 NGYF=  160 NGZF=  280
   ions per type =             252
   NGX,Y,Z   is equivalent  to a cutoff of   7.74,  7.74,  7.76 a.u.
   NGXF,Y,Z  is equivalent  to a cutoff of  15.48, 15.48, 15.52 a.u.

 SYSTEM =  NiAl                                    
 POSCAR =  New structure                           

 Startparameter for this run:
   NWRITE =      2    write-flag & timer
   PREC   = normal    normal or accurate (medium, high low for compatibility)
   ISTART =      0    job   : 0-new  1-cont  2-samecut
   ICHARG =      2    charge: 1-file 2-atom 10-const
   ISPIN  =      1    spin polarized calculation?
   LNONCOLLINEAR =      F non collinear calculations
   LSORBIT =      F    spin-orbit coupling
   INIWAV =      1    electr: 0-lowe 1-rand  2-diag
   LASPH  =      F    aspherical Exc in radial PAW
 Electronic Relaxation 1
   ENCUT  =  360.0 eV  26.46 Ry    5.14 a.u.  26.58 26.58 46.41*2*pi/ulx,y,z
   ENINI  =  360.0     initial cutoff
   ENAUG  =  482.1 eV  augmentation charge cutoff
   NELM   =     60;   NELMIN=  6; NELMDL= -5     # of ELM steps 
   EDIFF  = 0.5E-05   stopping-criterion for ELM
   LREAL  =      T    real-space projection
   NLSPLINE    = F    spline interpolate recip. space projectors
   LCOMPAT=      F    compatible to vasp.4.4
   GGA_COMPAT  = T    GGA compatible to vasp.4.4-vasp.4.6
   LMAXPAW     = -100 max onsite density
   LMAXMIX     =    2 max onsite mixed and CHGCAR
   VOSKOWN=      0    Vosko Wilk Nusair interpolation
   ROPT   =   -0.00050
 Ionic relaxation
   EDIFFG = 0.5E-04   stopping-criterion for IOM
   NSW    =     40    number of steps for IOM
   NBLOCK =      1;   KBLOCK =     40    inner block; outer block 
   IBRION =      2    ionic relax: 0-MD 1-quasi-New 2-CG
   NFREE  =      1    steps in history (QN), initial steepest desc. (CG)
   ISIF   =      1    stress and relaxation
   IWAVPR =     11    prediction:  0-non 1-charg 2-wave 3-comb
   ISYM   =      2    0-nonsym 1-usesym 2-fastsym
   LCORR  =      T    Harris-Foulkes like correction to forces

   POTIM  = 0.2000    time-step for ionic-motion
   TEIN   =    0.0    initial temperature
   TEBEG  =    0.0;   TEEND  =   0.0 temperature during run
   SMASS  =  -3.00    Nose mass-parameter (am)
   estimated Nose-frequenzy (Omega)   =  0.10E-29 period in steps = 0.31E+47 mass=  -0.675E-26a.u.
   SCALEE = 1.0000    scale energy and forces
   NPACO  =    256;   APACO  = 16.0  distance and # of slots for P.C.
   PSTRESS=    0.0 pullay stress

  Mass of Ions in am
   POMASS =  26.98
  Ionic Valenz
   ZVAL   =   3.00
  Atomic Wigner-Seitz radii
   RWIGS  =  -1.00
  virtual crystal weights 
   VCA    =   1.00
   NELECT =     756.0000    total number of electrons
   NUPDOWN=      -1.0000    fix difference up-down

 DOS related values:
   EMIN   =  10.00;   EMAX   =-10.00  energy-range for DOS
   EFERMI =   0.00
   ISMEAR =     0;   SIGMA  =   0.05  broadening in eV -4-tet -1-fermi 0-gaus

 Electronic relaxation 2 (details)
   IALGO  =     38    algorithm
   LDIAG  =      T    sub-space diagonalisation (order eigenvalues)
   LSUBROT=      F    optimize rotation matrix (better conditioning)
   TURBO    =      0    0=normal 1=particle mesh
   IRESTART =      0    0=no restart 2=restart with 2 vectors
   NREBOOT  =      0    no. of reboots
   NMIN     =      0    reboot dimension
   EREF     =   0.00    reference energy to select bands
   IMIX   =      4    mixing-type and parameters
     AMIX     =   0.40;   BMIX     =  1.00
     AMIX_MAG =   1.60;   BMIX_MAG =  1.00
     AMIN     =   0.10
     WC   =   100.;   INIMIX=   1;  MIXPRE=   1;  MAXMIX= -45

 Intra band minimization:
   WEIMIN = 0.0010     energy-eigenvalue tresh-hold
   EBREAK =  0.25E-08  absolut break condition
   DEPER  =   0.30     relativ break condition  

   TIME   =   0.40     timestep for ELM

  volume/ion in A,a.u.               =      30.43       205.36
  Fermi-wavevector in a.u.,A,eV,Ry     =   0.756263  1.429130  7.781637  0.571934
  Thomas-Fermi vector in A             =   1.854344
 
 Write flags
   LWAVE        =      F    write WAVECAR
   LDOWNSAMPLE  =      F    k-point downsampling of WAVECAR
   LCHARG       =      F    write CHGCAR
   LVTOT        =      F    write LOCPOT, total local potential
   LVHAR        =      F    write LOCPOT, Hartree potential only
   LELF         =      F    write electronic localiz. function (ELF)
   LORBIT       =      0    0 simple, 1 ext, 2 COOP (PROOUT), +10 PAW based schemes


 Dipole corrections
   LMONO  =      F    monopole corrections only (constant potential shift)
   LDIPOL =      F    correct potential (dipole corrections)
   IDIPOL =      0    1-x, 2-y, 3-z, 4-all directions 
   EPSILON=  1.0000000 bulk dielectric constant

 Exchange correlation treatment:
   GGA     =    --    GGA type
   LEXCH   =     8    internal setting for exchange type
   VOSKOWN=      0    Vosko Wilk Nusair interpolation
   LHFCALC =     F    Hartree Fock is set to
   LHFONE  =     F    Hartree Fock one center treatment
   AEXX    =    0.0000 exact exchange contribution

 Linear response parameters
   LEPSILON=     F    determine dielectric tensor
   LRPA    =     F    only Hartree local field effects (RPA)
   LNABLA  =     F    use nabla operator in PAW spheres
   LVEL    =     F    velocity operator in full k-point grid
   LINTERFAST=   F  fast interpolation
   KINTER  =     0    interpolate to denser k-point grid
   CSHIFT  =0.1000    complex shift for real part using Kramers Kronig
   OMEGAMAX=  -1.0    maximum frequency
   DEG_THRESHOLD= 0.2000000E-02 threshold for treating states as degnerate
   RTIME   =   -0.100 relaxation time in fs
  (WPLASMAI=    0.000 imaginary part of plasma frequency in eV, 0.658/RTIME)
   DFIELD  = 0.0000000 0.0000000 0.0000000 field for delta impulse in time
 
 Orbital magnetization related:
   ORBITALMAG=     F  switch on orbital magnetization
   LCHIMAG   =     F  perturbation theory with respect to B field
   DQ        =  0.001000  dq finite difference perturbation B field
   LLRAUG    =     F  two centre corrections for induced B field



--------------------------------------------------------------------------------------------------------


 conjugate gradient relaxation of ions
 charge density and potential will be updated during run
 non-spin polarized calculation
 Variant of blocked Davidson
 Davidson routine will perform the subspace rotation
 perform sub-space diagonalisation
    after iterative eigenvector-optimisation
 modified Broyden-mixing scheme, WC =      100.0
 initial mixing is a Kerker type mixing with AMIX =  0.4000 and BMIX =      1.0000
 Hartree-type preconditioning will be used
 using additional bands           127
 real space projection scheme for non local part
 use partial core corrections
 calculate Harris-corrections to forces 
   (improved forces if not selfconsistent)
 use gradient corrections 
 use of overlap-Matrix (Vanderbilt PP)
 Gauss-broadening in eV      SIGMA  =   0.05


--------------------------------------------------------------------------------------------------------


  energy-cutoff  :      360.00
  volume of cell :     7668.80
      direct lattice vectors                 reciprocal lattice vectors
     0.000000000-17.180573462  0.000000000     0.000000000 -0.058205275  0.033604831
     0.000000000 -8.590286731-14.878813070     0.000000000  0.000000000 -0.067209662
    30.000000000  0.000000000  0.000000000     0.033333333  0.000000000  0.000000000

  length of vectors
    17.180573462 17.180573462 30.000000000     0.067209662  0.067209662  0.033333333


 
 k-points in units of 2pi/SCALE and weight: Automatic generation                    
   0.00000000 -0.00000000 -0.00000000       0.250
   0.00000000 -0.02910264  0.01680242       0.750
 
 k-points in reciprocal lattice and weights: Automatic generation                    
   0.00000000  0.00000000  0.00000000       0.250
   0.50000000  0.00000000  0.00000000       0.750
 
 position of ions in fractional coordinates (direct lattice) 
   0.44444444  0.44444444  0.07793266
   0.44444444  0.77777778  0.07793266
   0.44444444  0.11111111  0.07793266
   0.77777778  0.44444444  0.07793266
   0.77777778  0.77777778  0.07793266
   0.77777778  0.11111111  0.07793266
   0.11111111  0.44444444  0.07793266
   0.11111111  0.77777778  0.07793266
   0.11111111  0.11111111  0.07793266
   0.55555556  0.55555556  0.15586533
   0.55555556  0.88888889  0.15586533
   0.55555556  0.22222222  0.15586533
   0.88888889  0.55555556  0.15586533
   0.88888889  0.88888889  0.15586533
   0.88888889  0.22222222  0.15586533
   0.22222222  0.55555556  0.15586533
   0.22222222  0.88888889  0.15586533
   0.22222222  0.22222222  0.15586533
   0.66666667  0.66666667  0.23379799
   0.66666667  0.00000000  0.23379799
   0.66666667  0.33333333  0.23379799
   0.00000000  0.66666667  0.23379799
   0.00000000  0.00000000  0.23379799
   0.00000000  0.33333333  0.23379799
   0.33333333  0.66666667  0.23379799
   0.33333333  0.00000000  0.23379799
   0.33333333  0.33333333  0.23379799
   0.77777778  0.77777778  0.31173066
   0.77777778  0.11111111  0.31173066
   0.77777778  0.44444444  0.31173066
   0.11111111  0.77777778  0.31173066
   0.11111111  0.11111111  0.31173066
   0.11111111  0.44444444  0.31173066
   0.44444444  0.77777778  0.31173066
   0.44444444  0.11111111  0.31173066
   0.44444444  0.44444444  0.31173066
   0.88888889  0.88888889  0.38966332
   0.88888889  0.22222222  0.38966332
   0.88888889  0.55555556  0.38966332
   0.22222222  0.88888889  0.38966332
   0.22222222  0.22222222  0.38966332
   0.22222222  0.55555556  0.38966332
   0.55555556  0.88888889  0.38966332
   0.55555556  0.22222222  0.38966332
   0.55555556  0.55555556  0.38966332
   0.00000000  0.00000000  0.46759598
   0.00000000  0.33333333  0.46759598
   0.00000000  0.66666667  0.46759598
   0.33333333  0.00000000  0.46759598
   0.33333333  0.33333333  0.46759598
   0.33333333  0.66666667  0.46759598
   0.66666667  0.00000000  0.46759598
   0.66666667  0.33333333  0.46759598
   0.66666667  0.66666667  0.46759598
   0.11111111  0.11111111  0.54552865
   0.11111111  0.44444444  0.54552865
   0.11111111  0.77777778  0.54552865
   0.44444444  0.11111111  0.54552865
   0.44444444  0.44444444  0.54552865
   0.44444444  0.77777778  0.54552865
   0.77777778  0.11111111  0.54552865
   0.77777778  0.44444444  0.54552865
   0.77777778  0.77777778  0.54552865
   0.27777778  0.27777778  0.07793266
   0.27777778  0.61111111  0.07793266
   0.27777778  0.94444444  0.07793266
   0.61111111  0.27777778  0.07793266
   0.61111111  0.61111111  0.07793266
   0.61111111  0.94444444  0.07793266
   0.94444444  0.27777778  0.07793266
   0.94444444  0.61111111  0.07793266
   0.94444444  0.94444444  0.07793266
   0.38888889  0.38888889  0.15586533
   0.38888889  0.72222222  0.15586533
   0.38888889  0.05555556  0.15586533
   0.72222222  0.38888889  0.15586533
   0.72222222  0.72222222  0.15586533
   0.72222222  0.05555556  0.15586533
   0.05555556  0.38888889  0.15586533
   0.05555556  0.72222222  0.15586533
   0.05555556  0.05555556  0.15586533
   0.50000000  0.50000000  0.23379799
   0.50000000  0.83333333  0.23379799
   0.50000000  0.16666667  0.23379799
   0.83333333  0.50000000  0.23379799
   0.83333333  0.83333333  0.23379799
   0.83333333  0.16666667  0.23379799
   0.16666667  0.50000000  0.23379799
   0.16666667  0.83333333  0.23379799
   0.16666667  0.16666667  0.23379799
   0.61111111  0.61111111  0.31173066
   0.61111111  0.94444444  0.31173066
   0.61111111  0.27777778  0.31173066
   0.94444444  0.61111111  0.31173066
   0.94444444  0.94444444  0.31173066
   0.94444444  0.27777778  0.31173066
   0.27777778  0.61111111  0.31173066
   0.27777778  0.94444444  0.31173066
   0.27777778  0.27777778  0.31173066
   0.72222222  0.72222222  0.38966332
   0.72222222  0.05555556  0.38966332
   0.72222222  0.38888889  0.38966332
   0.05555556  0.72222222  0.38966332
   0.05555556  0.05555556  0.38966332
   0.05555556  0.38888889  0.38966332
   0.38888889  0.72222222  0.38966332
   0.38888889  0.05555556  0.38966332
   0.38888889  0.38888889  0.38966332
   0.83333333  0.83333333  0.46759598
   0.83333333  0.16666667  0.46759598
   0.83333333  0.50000000  0.46759598
   0.16666667  0.83333333  0.46759598
   0.16666667  0.16666667  0.46759598
   0.16666667  0.50000000  0.46759598
   0.50000000  0.83333333  0.46759598
   0.50000000  0.16666667  0.46759598
   0.50000000  0.50000000  0.46759598
   0.94444444  0.94444444  0.54552865
   0.94444444  0.27777778  0.54552865
   0.94444444  0.61111111  0.54552865
   0.27777778  0.94444444  0.54552865
   0.27777778  0.27777778  0.54552865
   0.27777778  0.61111111  0.54552865
   0.61111111  0.94444444  0.54552865
   0.61111111  0.27777778  0.54552865
   0.61111111  0.61111111  0.54552865
   0.27777778  0.44444444  0.07793266
   0.27777778  0.77777778  0.07793266
   0.27777778  0.11111111  0.07793266
   0.61111111  0.44444444  0.07793266
   0.61111111  0.77777778  0.07793266
   0.61111111  0.11111111  0.07793266
   0.94444444  0.44444444  0.07793266
   0.94444444  0.77777778  0.07793266
   0.94444444  0.11111111  0.07793266
   0.38888889  0.55555556  0.15586533
   0.38888889  0.88888889  0.15586533
   0.38888889  0.22222222  0.15586533
   0.72222222  0.55555556  0.15586533
   0.72222222  0.88888889  0.15586533
   0.72222222  0.22222222  0.15586533
   0.05555556  0.55555556  0.15586533
   0.05555556  0.88888889  0.15586533
   0.05555556  0.22222222  0.15586533
   0.50000000  0.66666667  0.23379799
   0.50000000  0.00000000  0.23379799
   0.50000000  0.33333333  0.23379799
   0.83333333  0.66666667  0.23379799
   0.83333333  0.00000000  0.23379799
   0.83333333  0.33333333  0.23379799
   0.16666667  0.66666667  0.23379799
   0.16666667  0.00000000  0.23379799
   0.16666667  0.33333333  0.23379799
   0.61111111  0.77777778  0.31173066
   0.61111111  0.11111111  0.31173066
   0.61111111  0.44444444  0.31173066
   0.94444444  0.77777778  0.31173066
   0.94444444  0.11111111  0.31173066
   0.94444444  0.44444444  0.31173066
   0.27777778  0.77777778  0.31173066
   0.27777778  0.11111111  0.31173066
   0.27777778  0.44444444  0.31173066
   0.72222222  0.88888889  0.38966332
   0.72222222  0.22222222  0.38966332
   0.72222222  0.55555556  0.38966332
   0.05555556  0.88888889  0.38966332
   0.05555556  0.22222222  0.38966332
   0.05555556  0.55555556  0.38966332
   0.38888889  0.88888889  0.38966332
   0.38888889  0.22222222  0.38966332
   0.38888889  0.55555556  0.38966332
   0.83333333  0.00000000  0.46759598
   0.83333333  0.33333333  0.46759598
   0.83333333  0.66666667  0.46759598
   0.16666667  0.00000000  0.46759598
   0.16666667  0.33333333  0.46759598
   0.16666667  0.66666667  0.46759598
   0.50000000  0.00000000  0.46759598
   0.50000000  0.33333333  0.46759598
   0.50000000  0.66666667  0.46759598
   0.94444444  0.11111111  0.54552865
   0.94444444  0.44444444  0.54552865
   0.94444444  0.77777778  0.54552865
   0.27777778  0.11111111  0.54552865
   0.27777778  0.44444444  0.54552865
   0.27777778  0.77777778  0.54552865
   0.61111111  0.11111111  0.54552865
   0.61111111  0.44444444  0.54552865
   0.61111111  0.77777778  0.54552865
   0.44444444  0.27777778  0.07793266
   0.44444444  0.61111111  0.07793266
   0.44444444  0.94444444  0.07793266
   0.77777778  0.27777778  0.07793266
   0.77777778  0.61111111  0.07793266
   0.77777778  0.94444444  0.07793266
   0.11111111  0.27777778  0.07793266
   0.11111111  0.61111111  0.07793266
   0.11111111  0.94444444  0.07793266
   0.55555556  0.38888889  0.15586533
   0.55555556  0.72222222  0.15586533
   0.55555556  0.05555556  0.15586533
   0.88888889  0.38888889  0.15586533
   0.88888889  0.72222222  0.15586533
   0.88888889  0.05555556  0.15586533
   0.22222222  0.38888889  0.15586533
   0.22222222  0.72222222  0.15586533
   0.22222222  0.05555556  0.15586533
   0.66666667  0.50000000  0.23379799
   0.66666667  0.83333333  0.23379799
   0.66666667  0.16666667  0.23379799
   0.00000000  0.50000000  0.23379799
   0.00000000  0.83333333  0.23379799
   0.00000000  0.16666667  0.23379799
   0.33333333  0.50000000  0.23379799
   0.33333333  0.83333333  0.23379799
   0.33333333  0.16666667  0.23379799
   0.77777778  0.61111111  0.31173066
   0.77777778  0.94444444  0.31173066
   0.77777778  0.27777778  0.31173066
   0.11111111  0.61111111  0.31173066
   0.11111111  0.94444444  0.31173066
   0.11111111  0.27777778  0.31173066
   0.44444444  0.61111111  0.31173066
   0.44444444  0.94444444  0.31173066
   0.44444444  0.27777778  0.31173066
   0.88888889  0.72222222  0.38966332
   0.88888889  0.05555556  0.38966332
   0.88888889  0.38888889  0.38966332
   0.22222222  0.72222222  0.38966332
   0.22222222  0.05555556  0.38966332
   0.22222222  0.38888889  0.38966332
   0.55555556  0.72222222  0.38966332
   0.55555556  0.05555556  0.38966332
   0.55555556  0.38888889  0.38966332
   0.00000000  0.83333333  0.46759598
   0.00000000  0.16666667  0.46759598
   0.00000000  0.50000000  0.46759598
   0.33333333  0.83333333  0.46759598
   0.33333333  0.16666667  0.46759598
   0.33333333  0.50000000  0.46759598
   0.66666667  0.83333333  0.46759598
   0.66666667  0.16666667  0.46759598
   0.66666667  0.50000000  0.46759598
   0.11111111  0.94444444  0.54552865
   0.11111111  0.27777778  0.54552865
   0.11111111  0.61111111  0.54552865
   0.44444444  0.94444444  0.54552865
   0.44444444  0.27777778  0.54552865
   0.44444444  0.61111111  0.54552865
   0.77777778  0.94444444  0.54552865
   0.77777778  0.27777778  0.54552865
   0.77777778  0.61111111  0.54552865
 
 position of ions in cartesian coordinates  (Angst):
   2.33797992-11.45371564 -6.61280581
   2.33797992-14.31714455-11.57241017
   2.33797992 -8.59028673 -1.65320145
   2.33797992-17.18057346 -6.61280581
   2.33797992-20.04400237-11.57241017
   2.33797992-14.31714455 -1.65320145
   2.33797992 -5.72685782 -6.61280581
   2.33797992 -8.59028673-11.57241017
   2.33797992 -2.86342891 -1.65320145
   4.67595983-14.31714455 -8.26600726
   4.67595983-17.18057346-13.22561162
   4.67595983-11.45371564 -3.30640290
   4.67595983-20.04400237 -8.26600726
   4.67595983-22.90743128-13.22561162
   4.67595983-17.18057346 -3.30640290
   4.67595983 -8.59028673 -8.26600726
   4.67595983-11.45371564-13.22561162
   4.67595983 -5.72685782 -3.30640290
   7.01393975-17.18057346 -9.91920871
   7.01393975-11.45371564  0.00000000
   7.01393975-14.31714455 -4.95960436
   7.01393975 -5.72685782 -9.91920871
   7.01393975  0.00000000  0.00000000
   7.01393975 -2.86342891 -4.95960436
   7.01393975-11.45371564 -9.91920871
   7.01393975 -5.72685782  0.00000000
   7.01393975 -8.59028673 -4.95960436
   9.35191966-20.04400237-11.57241017
   9.35191966-14.31714455 -1.65320145
   9.35191966-17.18057346 -6.61280581
   9.35191966 -8.59028673-11.57241017
   9.35191966 -2.86342891 -1.65320145
   9.35191966 -5.72685782 -6.61280581
   9.35191966-14.31714455-11.57241017
   9.35191966 -8.59028673 -1.65320145
   9.35191966-11.45371564 -6.61280581
  11.68989958-22.90743128-13.22561162
  11.68989958-17.18057346 -3.30640290
  11.68989958-20.04400237 -8.26600726
  11.68989958-11.45371564-13.22561162
  11.68989958 -5.72685782 -3.30640290
  11.68989958 -8.59028673 -8.26600726
  11.68989958-17.18057346-13.22561162
  11.68989958-11.45371564 -3.30640290
  11.68989958-14.31714455 -8.26600726
  14.02787949  0.00000000  0.00000000
  14.02787949 -2.86342891 -4.95960436
  14.02787949 -5.72685782 -9.91920871
  14.02787949 -5.72685782  0.00000000
  14.02787949 -8.59028673 -4.95960436
  14.02787949-11.45371564 -9.91920871
  14.02787949-11.45371564  0.00000000
  14.02787949-14.31714455 -4.95960436
  14.02787949-17.18057346 -9.91920871
  16.36585941 -2.86342891 -1.65320145
  16.36585941 -5.72685782 -6.61280581
  16.36585941 -8.59028673-11.57241017
  16.36585941 -8.59028673 -1.65320145
  16.36585941-11.45371564 -6.61280581
  16.36585941-14.31714455-11.57241017
  16.36585941-14.31714455 -1.65320145
  16.36585941-17.18057346 -6.61280581
  16.36585941-20.04400237-11.57241017
   2.33797992 -7.15857228 -4.13300363
   2.33797992-10.02200119 -9.09260799
   2.33797992-12.88543010-14.05221234
   2.33797992-12.88543010 -4.13300363
   2.33797992-15.74885901 -9.09260799
   2.33797992-18.61228792-14.05221234
   2.33797992-18.61228792 -4.13300363
   2.33797992-21.47571683 -9.09260799
   2.33797992-24.33914574-14.05221234
   4.67595983-10.02200119 -5.78620508
   4.67595983-12.88543010-10.74580944
   4.67595983 -7.15857228 -0.82660073
   4.67595983-15.74885901 -5.78620508
   4.67595983-18.61228792-10.74580944
   4.67595983-12.88543010 -0.82660073
   4.67595983 -4.29514337 -5.78620508
   4.67595983 -7.15857228-10.74580944
   4.67595983 -1.43171446 -0.82660073
   7.01393975-12.88543010 -7.43940654
   7.01393975-15.74885901-12.39901089
   7.01393975-10.02200119 -2.47980218
   7.01393975-18.61228792 -7.43940654
   7.01393975-21.47571683-12.39901089
   7.01393975-15.74885901 -2.47980218
   7.01393975 -7.15857228 -7.43940654
   7.01393975-10.02200119-12.39901089
   7.01393975 -4.29514337 -2.47980218
   9.35191966-15.74885901 -9.09260799
   9.35191966-18.61228792-14.05221234
   9.35191966-12.88543010 -4.13300363
   9.35191966-21.47571683 -9.09260799
   9.35191966-24.33914574-14.05221234
   9.35191966-18.61228792 -4.13300363
   9.35191966-10.02200119 -9.09260799
   9.35191966-12.88543010-14.05221234
   9.35191966 -7.15857228 -4.13300363
  11.68989958-18.61228792-10.74580944
  11.68989958-12.88543010 -0.82660073
  11.68989958-15.74885901 -5.78620508
  11.68989958 -7.15857228-10.74580944
  11.68989958 -1.43171446 -0.82660073
  11.68989958 -4.29514337 -5.78620508
  11.68989958-12.88543010-10.74580944
  11.68989958 -7.15857228 -0.82660073
  11.68989958-10.02200119 -5.78620508
  14.02787949-21.47571683-12.39901089
  14.02787949-15.74885901 -2.47980218
  14.02787949-18.61228792 -7.43940654
  14.02787949-10.02200119-12.39901089
  14.02787949 -4.29514337 -2.47980218
  14.02787949 -7.15857228 -7.43940654
  14.02787949-15.74885901-12.39901089
  14.02787949-10.02200119 -2.47980218
  14.02787949-12.88543010 -7.43940654
  16.36585941-24.33914574-14.05221234
  16.36585941-18.61228792 -4.13300363
  16.36585941-21.47571683 -9.09260799
  16.36585941-12.88543010-14.05221234
  16.36585941 -7.15857228 -4.13300363
  16.36585941-10.02200119 -9.09260799
  16.36585941-18.61228792-14.05221234
  16.36585941-12.88543010 -4.13300363
  16.36585941-15.74885901 -9.09260799
   2.33797992 -8.59028673 -6.61280581
   2.33797992-11.45371564-11.57241017
   2.33797992 -5.72685782 -1.65320145
   2.33797992-14.31714455 -6.61280581
   2.33797992-17.18057346-11.57241017
   2.33797992-11.45371564 -1.65320145
   2.33797992-20.04400237 -6.61280581
   2.33797992-22.90743128-11.57241017
   2.33797992-17.18057346 -1.65320145
   4.67595983-11.45371564 -8.26600726
   4.67595983-14.31714455-13.22561162
   4.67595983 -8.59028673 -3.30640290
   4.67595983-17.18057346 -8.26600726
   4.67595983-20.04400237-13.22561162
   4.67595983-14.31714455 -3.30640290
   4.67595983 -5.72685782 -8.26600726
   4.67595983 -8.59028673-13.22561162
   4.67595983 -2.86342891 -3.30640290
   7.01393975-14.31714455 -9.91920871
   7.01393975 -8.59028673  0.00000000
   7.01393975-11.45371564 -4.95960436
   7.01393975-20.04400237 -9.91920871
   7.01393975-14.31714455  0.00000000
   7.01393975-17.18057346 -4.95960436
   7.01393975 -8.59028673 -9.91920871
   7.01393975 -2.86342891  0.00000000
   7.01393975 -5.72685782 -4.95960436
   9.35191966-17.18057346-11.57241017
   9.35191966-11.45371564 -1.65320145
   9.35191966-14.31714455 -6.61280581
   9.35191966-22.90743128-11.57241017
   9.35191966-17.18057346 -1.65320145
   9.35191966-20.04400237 -6.61280581
   9.35191966-11.45371564-11.57241017
   9.35191966 -5.72685782 -1.65320145
   9.35191966 -8.59028673 -6.61280581
  11.68989958-20.04400237-13.22561162
  11.68989958-14.31714455 -3.30640290
  11.68989958-17.18057346 -8.26600726
  11.68989958 -8.59028673-13.22561162
  11.68989958 -2.86342891 -3.30640290
  11.68989958 -5.72685782 -8.26600726
  11.68989958-14.31714455-13.22561162
  11.68989958 -8.59028673 -3.30640290
  11.68989958-11.45371564 -8.26600726
  14.02787949-14.31714455  0.00000000
  14.02787949-17.18057346 -4.95960436
  14.02787949-20.04400237 -9.91920871
  14.02787949 -2.86342891  0.00000000
  14.02787949 -5.72685782 -4.95960436
  14.02787949 -8.59028673 -9.91920871
  14.02787949 -8.59028673  0.00000000
  14.02787949-11.45371564 -4.95960436
  14.02787949-14.31714455 -9.91920871
  16.36585941-17.18057346 -1.65320145
  16.36585941-20.04400237 -6.61280581
  16.36585941-22.90743128-11.57241017
  16.36585941 -5.72685782 -1.65320145
  16.36585941 -8.59028673 -6.61280581
  16.36585941-11.45371564-11.57241017
  16.36585941-11.45371564 -1.65320145
  16.36585941-14.31714455 -6.61280581
  16.36585941-17.18057346-11.57241017
   2.33797992-10.02200119 -4.13300363
   2.33797992-12.88543010 -9.09260799
   2.33797992-15.74885901-14.05221234
   2.33797992-15.74885901 -4.13300363
   2.33797992-18.61228792 -9.09260799
   2.33797992-21.47571683-14.05221234
   2.33797992 -4.29514337 -4.13300363
   2.33797992 -7.15857228 -9.09260799
   2.33797992-10.02200119-14.05221234
   4.67595983-12.88543010 -5.78620508
   4.67595983-15.74885901-10.74580944
   4.67595983-10.02200119 -0.82660073
   4.67595983-18.61228792 -5.78620508
   4.67595983-21.47571683-10.74580944
   4.67595983-15.74885901 -0.82660073
   4.67595983 -7.15857228 -5.78620508
   4.67595983-10.02200119-10.74580944
   4.67595983 -4.29514337 -0.82660073
   7.01393975-15.74885901 -7.43940654
   7.01393975-18.61228792-12.39901089
   7.01393975-12.88543010 -2.47980218
   7.01393975 -4.29514337 -7.43940654
   7.01393975 -7.15857228-12.39901089
   7.01393975 -1.43171446 -2.47980218
   7.01393975-10.02200119 -7.43940654
   7.01393975-12.88543010-12.39901089
   7.01393975 -7.15857228 -2.47980218
   9.35191966-18.61228792 -9.09260799
   9.35191966-21.47571683-14.05221234
   9.35191966-15.74885901 -4.13300363
   9.35191966 -7.15857228 -9.09260799
   9.35191966-10.02200119-14.05221234
   9.35191966 -4.29514337 -4.13300363
   9.35191966-12.88543010 -9.09260799
   9.35191966-15.74885901-14.05221234
   9.35191966-10.02200119 -4.13300363
  11.68989958-21.47571683-10.74580944
  11.68989958-15.74885901 -0.82660073
  11.68989958-18.61228792 -5.78620508
  11.68989958-10.02200119-10.74580944
  11.68989958 -4.29514337 -0.82660073
  11.68989958 -7.15857228 -5.78620508
  11.68989958-15.74885901-10.74580944
  11.68989958-10.02200119 -0.82660073
  11.68989958-12.88543010 -5.78620508
  14.02787949 -7.15857228-12.39901089
  14.02787949 -1.43171446 -2.47980218
  14.02787949 -4.29514337 -7.43940654
  14.02787949-12.88543010-12.39901089
  14.02787949 -7.15857228 -2.47980218
  14.02787949-10.02200119 -7.43940654
  14.02787949-18.61228792-12.39901089
  14.02787949-12.88543010 -2.47980218
  14.02787949-15.74885901 -7.43940654
  16.36585941-10.02200119-14.05221234
  16.36585941 -4.29514337 -4.13300363
  16.36585941 -7.15857228 -9.09260799
  16.36585941-15.74885901-14.05221234
  16.36585941-10.02200119 -4.13300363
  16.36585941-12.88543010 -9.09260799
  16.36585941-21.47571683-14.05221234
  16.36585941-15.74885901 -4.13300363
  16.36585941-18.61228792 -9.09260799
 


--------------------------------------------------------------------------------------------------------


 k-point   1 :   0.0000 0.0000 0.0000  plane waves:  119097
 k-point   2 :   0.5000 0.0000 0.0000  plane waves:  118852

 maximum and minimum number of plane-waves per node :    119097   118852

 maximum number of plane-waves:    119097
 maximum index in each direction: 
   IXMAX=   26   IYMAX=   26   IZMAX=   46
   IXMIN=  -27   IYMIN=  -26   IZMIN=  -46


 serial   3D FFT for wavefunctions
 parallel 3D FFT for charge:
    minimum data exchange during FFTs selected (reduces bandwidth)


 total amount of memory used by VASP MPI-rank0  2724057. kBytes
=======================================================================

   base      :      30000. kBytes
   nonlr-proj:      65037. kBytes
   fftplans  :     245548. kBytes
   grid      :     381644. kBytes
   one-center:       3919. kBytes
   wavefun   :    1997909. kBytes
 
     INWAV:  cpu time    0.0001: real time    0.0002
 Broyden mixing: mesh for mixing (old mesh)
   NGX = 53   NGY = 53   NGZ = 93
  (NGX  =160   NGY  =160   NGZ  =280)
  gives a total of 261237 points

 initial charge density was supplied:
 charge density of overlapping atoms calculated
 number of electron     756.0000000 magnetization 
 keeping initial charge density in first step


--------------------------------------------------------------------------------------------------------


 Maximum index for non-local projection operator          1485
 Maximum index for augmentation-charges          4472 (set IRDMAX)


--------------------------------------------------------------------------------------------------------


 First call to EWALD:  gamma=   0.090
 Maximum number of real-space cells 3x 3x 2
 Maximum number of reciprocal cells 2x 2x 4

    FEWALD:  cpu time    0.2550: real time    0.2550


--------------------------------------- Iteration      1(   1)  ---------------------------------------


    POTLOK:  cpu time    0.1074: real time    0.1173
    SETDIJ:  cpu time    0.3779: real time    0.3779
     EDDAV:  cpu time    4.3366: real time    4.3471
       DOS:  cpu time    0.0014: real time    0.0014
    --------------------------------------------
      LOOP:  cpu time    4.8232: real time    4.8437

 eigenvalue-minimisations  :  2044
 total energy-change (2. order) : 0.2252578E+04  (-0.2002666E+05)
 number of electron     756.0000000 magnetization 
 augmentation part      756.0000000 magnetization 

 Free energy of the ion-electron system (eV)
  ---------------------------------------------------
  alpha Z        PSCENC =       494.38529243
  Ewald energy   TEWEN  =     88537.98879136
  -Hartree energ DENC   =   -102102.12922603
  -exchange      EXHF   =         0.00000000
  -V(xc)+E(xc)   XCENC  =     -6645.32593543
  PAW double counting   =     16682.43960858    -8629.89643091
  entropy T*S    EENTRO =        -0.06634182
  eigenvalues    EBANDS =       423.57954093
  atomic energy  EATOM  =     13491.60232749
  Solvation  Ediel_sol  =         0.00000000
  ---------------------------------------------------
  free energy    TOTEN  =      2252.57762661 eV

  energy without entropy =     2252.64396843  energy(sigma->0) =     2252.61079752


--------------------------------------------------------------------------------------------------------




--------------------------------------- Iteration      1(   2)  ---------------------------------------


     EDDAV:  cpu time    5.4380: real time    5.4389
       DOS:  cpu time    0.0016: real time    0.0016
    --------------------------------------------
      LOOP:  cpu time    5.4395: real time    5.4405

 eigenvalue-minimisations  :  2720
 total energy-change (2. order) :-0.2979379E+04  (-0.2805059E+04)
 number of electron     756.0000000 magnetization 
 augmentation part      756.0000000 magnetization 

 Free energy of the ion-electron system (eV)
  ---------------------------------------------------
  alpha Z        PSCENC =       494.38529243
  Ewald energy   TEWEN  =     88537.98879136
  -Hartree energ DENC   =   -102102.12922603
  -exchange      EXHF   =         0.00000000
  -V(xc)+E(xc)   XCENC  =     -6645.32593543
  PAW double counting   =     16682.43960858    -8629.89643091
  entropy T*S    EENTRO =        -0.08200946
  eigenvalues    EBANDS =     -2555.78386570
  atomic energy  EATOM  =     13491.60232749
  Solvation  Ediel_sol  =         0.00000000
  ---------------------------------------------------
  free energy    TOTEN  =      -726.80144766 eV

  energy without entropy =     -726.71943820  energy(sigma->0) =     -726.76044293


--------------------------------------------------------------------------------------------------------




--------------------------------------- Iteration      1(   3)  ---------------------------------------


     EDDAV:  cpu time    5.4814: real time    5.4822
       DOS:  cpu time    0.0016: real time    0.0016
    --------------------------------------------
      LOOP:  cpu time    5.4829: real time    5.4838

 eigenvalue-minimisations  :  2752
 total energy-change (2. order) :-0.2094742E+03  (-0.2003627E+03)
 number of electron     756.0000000 magnetization 
 augmentation part      756.0000000 magnetization 

 Free energy of the ion-electron system (eV)
  ---------------------------------------------------
  alpha Z        PSCENC =       494.38529243
  Ewald energy   TEWEN  =     88537.98879136
  -Hartree energ DENC   =   -102102.12922603
  -exchange      EXHF   =         0.00000000
  -V(xc)+E(xc)   XCENC  =     -6645.32593543
  PAW double counting   =     16682.43960858    -8629.89643091
  entropy T*S    EENTRO =        -0.18738121
  eigenvalues    EBANDS =     -2765.15266090
  atomic energy  EATOM  =     13491.60232749
  Solvation  Ediel_sol  =         0.00000000
  ---------------------------------------------------
  free energy    TOTEN  =      -936.27561461 eV

  energy without entropy =     -936.08823340  energy(sigma->0) =     -936.18192401


--------------------------------------------------------------------------------------------------------




--------------------------------------- Iteration      1(   4)  ---------------------------------------


     EDDAV:  cpu time    5.7930: real time    5.7939
       DOS:  cpu time    0.0016: real time    0.0016
    --------------------------------------------
      LOOP:  cpu time    5.7947: real time    5.7955

 eigenvalue-minimisations  :  2944
 total energy-change (2. order) :-0.9753270E+01  (-0.9511906E+01)
 number of electron     756.0000000 magnetization 
 augmentation part      756.0000000 magnetization 

 Free energy of the ion-electron system (eV)
  ---------------------------------------------------
  alpha Z        PSCENC =       494.38529243
  Ewald energy   TEWEN  =     88537.98879136
  -Hartree energ DENC   =   -102102.12922603
  -exchange      EXHF   =         0.00000000
  -V(xc)+E(xc)   XCENC  =     -6645.32593543
  PAW double counting   =     16682.43960858    -8629.89643091
  entropy T*S    EENTRO =        -0.21870553
  eigenvalues    EBANDS =     -2774.87460707
  atomic energy  EATOM  =     13491.60232749
  Solvation  Ediel_sol  =         0.00000000
  ---------------------------------------------------
  free energy    TOTEN  =      -946.02888509 eV

  energy without entropy =     -945.81017957  energy(sigma->0) =     -945.91953233


--------------------------------------------------------------------------------------------------------




--------------------------------------- Iteration      1(   5)  ---------------------------------------


     EDDAV:  cpu time    6.2091: real time    6.2100
       DOS:  cpu time    0.0017: real time    0.0017
    CHARGE:  cpu time    0.7822: real time    0.7881
    MIXING:  cpu time    0.1104: real time    0.1105
    --------------------------------------------
      LOOP:  cpu time    7.1034: real time    7.1103

 eigenvalue-minimisations  :  3200
 total energy-change (2. order) :-0.4672213E+00  (-0.4653462E+00)
 number of electron     756.0000001 magnetization 
 augmentation part      -10.3268453 magnetization 

 Broyden mixing:
  rms(total) = 0.17517E+01    rms(broyden)= 0.17517E+01
  rms(prec ) = 0.25085E+01
  weight for this iteration     100.00

 Free energy of the ion-electron system (eV)
  ---------------------------------------------------
  alpha Z        PSCENC =       494.38529243
  Ewald energy   TEWEN  =     88537.98879136
  -Hartree energ DENC   =   -102102.12922603
  -exchange      EXHF   =         0.00000000
  -V(xc)+E(xc)   XCENC  =     -6645.32593543
  PAW double counting   =     16682.43960858    -8629.89643091
  entropy T*S    EENTRO =        -0.21805778
  eigenvalues    EBANDS =     -2775.34247606
  atomic energy  EATOM  =     13491.60232749
  Solvation  Ediel_sol  =         0.00000000
  ---------------------------------------------------
  free energy    TOTEN  =      -946.49610635 eV

  energy without entropy =     -946.27804856  energy(sigma->0) =     -946.38707745


--------------------------------------------------------------------------------------------------------




--------------------------------------- Iteration      1(   6)  ---------------------------------------


    POTLOK:  cpu time    0.0972: real time    0.0972
    SETDIJ:  cpu time    0.3783: real time    0.3784
     EDDAV:  cpu time    5.9939: real time    5.9948
       DOS:  cpu time    0.0017: real time    0.0017
    CHARGE:  cpu time    0.7675: real time    0.7677
    MIXING:  cpu time    0.1192: real time    0.1203
    --------------------------------------------
      LOOP:  cpu time    7.3579: real time    7.3600

 eigenvalue-minimisations  :  3063
 total energy-change (2. order) :-0.1465140E+02  (-0.1897217E+02)
 number of electron     756.0000004 magnetization 
 augmentation part      -10.2801506 magnetization 

 Broyden mixing:
  rms(total) = 0.18060E+01    rms(broyden)= 0.18060E+01
  rms(prec ) = 0.41205E+01
  weight for this iteration     100.00

 eigenvalues of (default mixing * dielectric matrix)
  average eigenvalue GAMMA=   0.7224
  0.7224

 Free energy of the ion-electron system (eV)
  ---------------------------------------------------
  alpha Z        PSCENC =       494.38529243
  Ewald energy   TEWEN  =     88537.98879136
  -Hartree energ DENC   =   -103008.53091085
  -exchange      EXHF   =         0.00000000
  -V(xc)+E(xc)   XCENC  =     -6635.63544371
  PAW double counting   =     18442.18390811   -10390.81145582
  entropy T*S    EENTRO =        -0.20325220
  eigenvalues    EBANDS =     -1892.12676390
  atomic energy  EATOM  =     13491.60232749
  Solvation  Ediel_sol  =         0.00000000
  ---------------------------------------------------
  free energy    TOTEN  =      -961.14750709 eV

  energy without entropy =     -960.94425489  energy(sigma->0) =     -961.04588099


--------------------------------------------------------------------------------------------------------




--------------------------------------- Iteration      1(   7)  ---------------------------------------


    POTLOK:  cpu time    0.0970: real time    0.0971
    SETDIJ:  cpu time    0.3788: real time    0.3789
     EDDAV:  cpu time    5.2480: real time    5.2488
       DOS:  cpu time    0.0016: real time    0.0015
    CHARGE:  cpu time    0.7427: real time    0.7428
    MIXING:  cpu time    0.1209: real time    0.1221
    --------------------------------------------
      LOOP:  cpu time    6.5889: real time    6.5911

 eigenvalue-minimisations  :  2615
 total energy-change (2. order) : 0.3895719E+02  (-0.1435670E+02)
 number of electron     756.0000002 magnetization 
 augmentation part      -10.3327557 magnetization 

 Broyden mixing:
  rms(total) = 0.90121E+00    rms(broyden)= 0.90121E+00
  rms(prec ) = 0.11506E+01
  weight for this iteration     100.00

 eigenvalues of (default mixing * dielectric matrix)
  average eigenvalue GAMMA=   1.1761
  2.0442  0.3081

 Free energy of the ion-electron system (eV)
  ---------------------------------------------------
  alpha Z        PSCENC =       494.38529243
  Ewald energy   TEWEN  =     88537.98879136
  -Hartree energ DENC   =   -102497.89013719
  -exchange      EXHF   =         0.00000000
  -V(xc)+E(xc)   XCENC  =     -6633.59153330
  PAW double counting   =     18775.19918874   -10723.92545819
  entropy T*S    EENTRO =        -0.05504955
  eigenvalues    EBANDS =     -2365.90374061
  atomic energy  EATOM  =     13491.60232749
  Solvation  Ediel_sol  =         0.00000000
  ---------------------------------------------------
  free energy    TOTEN  =      -922.19031882 eV

  energy without entropy =     -922.13526927  energy(sigma->0) =     -922.16279404


--------------------------------------------------------------------------------------------------------




--------------------------------------- Iteration      1(   8)  ---------------------------------------


    POTLOK:  cpu time    0.0856: real time    0.0856
    SETDIJ:  cpu time    0.3758: real time    0.3759
     EDDAV:  cpu time    4.9639: real time    4.9646
       DOS:  cpu time    0.0016: real time    0.0016
    CHARGE:  cpu time    0.7621: real time    0.7622
    MIXING:  cpu time    0.1305: real time    0.1309
    --------------------------------------------
      LOOP:  cpu time    6.3194: real time    6.3207

 eigenvalue-minimisations  :  2440
 total energy-change (2. order) : 0.7313246E+00  (-0.3855634E+01)
 number of electron     756.0000003 magnetization 
 augmentation part      -10.4871738 magnetization 

 Broyden mixing:
  rms(total) = 0.41966E+00    rms(broyden)= 0.41966E+00
  rms(prec ) = 0.54974E+00
  weight for this iteration     100.00

 eigenvalues of (default mixing * dielectric matrix)
  average eigenvalue GAMMA=   1.1613
  2.4805  0.7116  0.2917

 Free energy of the ion-electron system (eV)
  ---------------------------------------------------
  alpha Z        PSCENC =       494.38529243
  Ewald energy   TEWEN  =     88537.98879136
  -Hartree energ DENC   =   -102669.40673498
  -exchange      EXHF   =         0.00000000
  -V(xc)+E(xc)   XCENC  =     -6624.13628129
  PAW double counting   =     20175.94908757   -12125.45702300
  entropy T*S    EENTRO =        -0.05552916
  eigenvalues    EBANDS =     -2202.32892462
  atomic energy  EATOM  =     13491.60232749
  Solvation  Ediel_sol  =         0.00000000
  ---------------------------------------------------
  free energy    TOTEN  =      -921.45899420 eV

  energy without entropy =     -921.40346504  energy(sigma->0) =     -921.43122962


--------------------------------------------------------------------------------------------------------




--------------------------------------- Iteration      1(   9)  ---------------------------------------


    POTLOK:  cpu time    0.0968: real time    0.0969
    SETDIJ:  cpu time    0.3788: real time    0.3789
     EDDAV:  cpu time    4.9003: real time    4.9010
       DOS:  cpu time    0.0016: real time    0.0016
    CHARGE:  cpu time    0.7378: real time    0.7379
    MIXING:  cpu time    0.1311: real time    0.1311
    --------------------------------------------
      LOOP:  cpu time    6.2464: real time    6.2474

 eigenvalue-minimisations  :  2400
 total energy-change (2. order) : 0.1866120E+01  (-0.4659999E+00)
 number of electron     756.0000003 magnetization 
 augmentation part      -10.5409104 magnetization 

 Broyden mixing:
  rms(total) = 0.10699E+00    rms(broyden)= 0.10699E+00
  rms(prec ) = 0.15863E+00
  weight for this iteration     100.00

 eigenvalues of (default mixing * dielectric matrix)
  average eigenvalue GAMMA=   1.2181
  2.4604  1.4451  0.2936  0.6731

 Free energy of the ion-electron system (eV)
  ---------------------------------------------------
  alpha Z        PSCENC =       494.38529243
  Ewald energy   TEWEN  =     88537.98879136
  -Hartree energ DENC   =   -102837.72175106
  -exchange      EXHF   =         0.00000000
  -V(xc)+E(xc)   XCENC  =     -6616.65248184
  PAW double counting   =     21237.01593946   -13187.42674768
  entropy T*S    EENTRO =        -0.05845778
  eigenvalues    EBANDS =     -2038.72578631
  atomic energy  EATOM  =     13491.60232749
  Solvation  Ediel_sol  =         0.00000000
  ---------------------------------------------------
  free energy    TOTEN  =      -919.59287393 eV

  energy without entropy =     -919.53441615  energy(sigma->0) =     -919.56364504


--------------------------------------------------------------------------------------------------------




--------------------------------------- Iteration      1(  10)  ---------------------------------------


    POTLOK:  cpu time    0.0847: real time    0.0847
    SETDIJ:  cpu time    0.3759: real time    0.3760
     EDDAV:  cpu time    5.4190: real time    5.4198
       DOS:  cpu time    0.0017: real time    0.0017
    CHARGE:  cpu time    0.7480: real time    0.7482
    MIXING:  cpu time    0.1451: real time    0.1455
    --------------------------------------------
      LOOP:  cpu time    6.7745: real time    6.7759

 eigenvalue-minimisations  :  2720
 total energy-change (2. order) : 0.9126586E-01  (-0.1272430E+00)
 number of electron     756.0000003 magnetization 
 augmentation part      -10.5634402 magnetization 

 Broyden mixing:
  rms(total) = 0.67762E-01    rms(broyden)= 0.67762E-01
  rms(prec ) = 0.93002E-01
  weight for this iteration     100.00

 eigenvalues of (default mixing * dielectric matrix)
  average eigenvalue GAMMA=   1.2803
  2.2632  2.2632  0.2932  0.7910  0.7910

 Free energy of the ion-electron system (eV)
  ---------------------------------------------------
  alpha Z        PSCENC =       494.38529243
  Ewald energy   TEWEN  =     88537.98879136
  -Hartree energ DENC   =   -102901.76196657
  -exchange      EXHF   =         0.00000000
  -V(xc)+E(xc)   XCENC  =     -6615.44476636
  PAW double counting   =     21305.23894549   -13256.06206281
  entropy T*S    EENTRO =        -0.06054497
  eigenvalues    EBANDS =     -1975.38762413
  atomic energy  EATOM  =     13491.60232749
  Solvation  Ediel_sol  =         0.00000000
  ---------------------------------------------------
  free energy    TOTEN  =      -919.50160807 eV

  energy without entropy =     -919.44106310  energy(sigma->0) =     -919.47133559


--------------------------------------------------------------------------------------------------------




--------------------------------------- Iteration      1(  11)  ---------------------------------------


    POTLOK:  cpu time    0.0870: real time    0.0870
    SETDIJ:  cpu time    0.3776: real time    0.3777
     EDDAV:  cpu time    4.8571: real time    4.8578
       DOS:  cpu time    0.0016: real time    0.0016
    CHARGE:  cpu time    0.7567: real time    0.7569
    MIXING:  cpu time    0.1435: real time    0.1436
    --------------------------------------------
      LOOP:  cpu time    6.2237: real time    6.2247

 eigenvalue-minimisations  :  2376
 total energy-change (2. order) : 0.5154486E-01  (-0.1402950E-01)
 number of electron     756.0000003 magnetization 
 augmentation part      -10.5610137 magnetization 

 Broyden mixing:
  rms(total) = 0.35596E-01    rms(broyden)= 0.35596E-01
  rms(prec ) = 0.54681E-01
  weight for this iteration     100.00

 eigenvalues of (default mixing * dielectric matrix)
  average eigenvalue GAMMA=   1.3970
  2.6555  2.6555  0.2933  0.7090  1.0344  1.0344

 Free energy of the ion-electron system (eV)
  ---------------------------------------------------
  alpha Z        PSCENC =       494.38529243
  Ewald energy   TEWEN  =     88537.98879136
  -Hartree energ DENC   =   -102945.04492136
  -exchange      EXHF   =         0.00000000
  -V(xc)+E(xc)   XCENC  =     -6614.79408612
  PAW double counting   =     21314.96597225   -13266.06470435
  entropy T*S    EENTRO =        -0.06171105
  eigenvalues    EBANDS =     -1932.42702387
  atomic energy  EATOM  =     13491.60232749
  Solvation  Ediel_sol  =         0.00000000
  ---------------------------------------------------
  free energy    TOTEN  =      -919.45006322 eV

  energy without entropy =     -919.38835217  energy(sigma->0) =     -919.41920769


--------------------------------------------------------------------------------------------------------




--------------------------------------- Iteration      1(  12)  ---------------------------------------


    POTLOK:  cpu time    0.0951: real time    0.0951
    SETDIJ:  cpu time    0.3775: real time    0.3776
     EDDAV:  cpu time    5.0938: real time    5.0946
       DOS:  cpu time    0.0016: real time    0.0016
    CHARGE:  cpu time    0.7348: real time    0.7349
    MIXING:  cpu time    0.1507: real time    0.1508
    --------------------------------------------
      LOOP:  cpu time    6.4534: real time    6.4544

 eigenvalue-minimisations  :  2520
 total energy-change (2. order) : 0.2969745E-01  (-0.5742960E-02)
 number of electron     756.0000003 magnetization 
 augmentation part      -10.5563994 magnetization 

 Broyden mixing:
  rms(total) = 0.17048E-01    rms(broyden)= 0.17048E-01
  rms(prec ) = 0.26539E-01
  weight for this iteration     100.00

 eigenvalues of (default mixing * dielectric matrix)
  average eigenvalue GAMMA=   1.5639
  3.4816  2.6140  0.2933  1.7671  0.7196  1.0358  1.0358

 Free energy of the ion-electron system (eV)
  ---------------------------------------------------
  alpha Z        PSCENC =       494.38529243
  Ewald energy   TEWEN  =     88537.98879136
  -Hartree energ DENC   =   -103002.35524597
  -exchange      EXHF   =         0.00000000
  -V(xc)+E(xc)   XCENC  =     -6614.08041637
  PAW double counting   =     21316.94351413   -13268.21565450
  entropy T*S    EENTRO =        -0.06415868
  eigenvalues    EBANDS =     -1875.62481566
  atomic energy  EATOM  =     13491.60232749
  Solvation  Ediel_sol  =         0.00000000
  ---------------------------------------------------
  free energy    TOTEN  =      -919.42036577 eV

  energy without entropy =     -919.35620709  energy(sigma->0) =     -919.38828643


--------------------------------------------------------------------------------------------------------




--------------------------------------- Iteration      1(  13)  ---------------------------------------


    POTLOK:  cpu time    0.0852: real time    0.0852
    SETDIJ:  cpu time    0.3785: real time    0.3785
     EDDAV:  cpu time    4.8700: real time    4.8707
       DOS:  cpu time    0.0016: real time    0.0016
    CHARGE:  cpu time    0.7465: real time    0.7467
    MIXING:  cpu time    0.1718: real time    0.1719
    --------------------------------------------
      LOOP:  cpu time    6.2536: real time    6.2546

 eigenvalue-minimisations  :  2384
 total energy-change (2. order) :-0.1437673E-01  (-0.2238645E-02)
 number of electron     756.0000003 magnetization 
 augmentation part      -10.5549163 magnetization 

 Broyden mixing:
  rms(total) = 0.11716E-01    rms(broyden)= 0.11716E-01
  rms(prec ) = 0.17458E-01
  weight for this iteration     100.00

 eigenvalues of (default mixing * dielectric matrix)
  average eigenvalue GAMMA=   1.8106
  4.7657  3.0433  2.3344  0.2933  1.3723  0.7199  0.9780  0.9780

 Free energy of the ion-electron system (eV)
  ---------------------------------------------------
  alpha Z        PSCENC =       494.38529243
  Ewald energy   TEWEN  =     88537.98879136
  -Hartree energ DENC   =   -103035.25524172
  -exchange      EXHF   =         0.00000000
  -V(xc)+E(xc)   XCENC  =     -6613.90317448
  PAW double counting   =     21299.25215951   -13250.41191801
  entropy T*S    EENTRO =        -0.06603881
  eigenvalues    EBANDS =     -1843.02694027
  atomic energy  EATOM  =     13491.60232749
  Solvation  Ediel_sol  =         0.00000000
  ---------------------------------------------------
  free energy    TOTEN  =      -919.43474249 eV

  energy without entropy =     -919.36870369  energy(sigma->0) =     -919.40172309


--------------------------------------------------------------------------------------------------------




--------------------------------------- Iteration      1(  14)  ---------------------------------------


    POTLOK:  cpu time    0.0871: real time    0.0871
    SETDIJ:  cpu time    0.3800: real time    0.3801
     EDDAV:  cpu time    4.7803: real time    4.7810
       DOS:  cpu time    0.0016: real time    0.0016
    CHARGE:  cpu time    0.7593: real time    0.7594
    MIXING:  cpu time    0.1692: real time    0.1692
    --------------------------------------------
      LOOP:  cpu time    6.1775: real time    6.1784

 eigenvalue-minimisations  :  2328
 total energy-change (2. order) :-0.1255447E-01  (-0.6750476E-03)
 number of electron     756.0000003 magnetization 
 augmentation part      -10.5543465 magnetization 

 Broyden mixing:
  rms(total) = 0.45644E-02    rms(broyden)= 0.45644E-02
  rms(prec ) = 0.71854E-02
  weight for this iteration     100.00

 eigenvalues of (default mixing * dielectric matrix)
  average eigenvalue GAMMA=   1.9119
  4.8844  3.5720  2.6856  0.2933  1.9332  0.7203  0.9870  0.9870  1.1447

 Free energy of the ion-electron system (eV)
  ---------------------------------------------------
  alpha Z        PSCENC =       494.38529243
  Ewald energy   TEWEN  =     88537.98879136
  -Hartree energ DENC   =   -103050.21083215
  -exchange      EXHF   =         0.00000000
  -V(xc)+E(xc)   XCENC  =     -6613.91811567
  PAW double counting   =     21286.72554514   -13237.78354731
  entropy T*S    EENTRO =        -0.06669050
  eigenvalues    EBANDS =     -1828.17006777
  atomic energy  EATOM  =     13491.60232749
  Solvation  Ediel_sol  =         0.00000000
  ---------------------------------------------------
  free energy    TOTEN  =      -919.44729697 eV

  energy without entropy =     -919.38060647  energy(sigma->0) =     -919.41395172


--------------------------------------------------------------------------------------------------------




--------------------------------------- Iteration      1(  15)  ---------------------------------------


    POTLOK:  cpu time    0.0951: real time    0.0951
    SETDIJ:  cpu time    0.3750: real time    0.3751
     EDDAV:  cpu time    4.9841: real time    4.9848
       DOS:  cpu time    0.0016: real time    0.0016
    CHARGE:  cpu time    0.7371: real time    0.7373
    MIXING:  cpu time    0.1796: real time    0.1796
    --------------------------------------------
      LOOP:  cpu time    6.3725: real time    6.3735

 eigenvalue-minimisations  :  2456
 total energy-change (2. order) :-0.5001983E-02  (-0.1576948E-03)
 number of electron     756.0000003 magnetization 
 augmentation part      -10.5548764 magnetization 

 Broyden mixing:
  rms(total) = 0.33623E-02    rms(broyden)= 0.33623E-02
  rms(prec ) = 0.51631E-02
  weight for this iteration     100.00

 eigenvalues of (default mixing * dielectric matrix)
  average eigenvalue GAMMA=   2.0055
  4.8546  4.8546  2.6296  2.3017  0.2933  1.4377  0.7200  0.9718  0.9718  1.0204

 Free energy of the ion-electron system (eV)
  ---------------------------------------------------
  alpha Z        PSCENC =       494.38529243
  Ewald energy   TEWEN  =     88537.98879136
  -Hartree energ DENC   =   -103056.67774590
  -exchange      EXHF   =         0.00000000
  -V(xc)+E(xc)   XCENC  =     -6613.84676670
  PAW double counting   =     21298.78996633   -13249.86824204
  entropy T*S    EENTRO =        -0.06672981
  eigenvalues    EBANDS =     -1821.75919211
  atomic energy  EATOM  =     13491.60232749
  Solvation  Ediel_sol  =         0.00000000
  ---------------------------------------------------
  free energy    TOTEN  =      -919.45229895 eV

  energy without entropy =     -919.38556914  energy(sigma->0) =     -919.41893404


--------------------------------------------------------------------------------------------------------




--------------------------------------- Iteration      1(  16)  ---------------------------------------


    POTLOK:  cpu time    0.0851: real time    0.0852
    SETDIJ:  cpu time    0.3788: real time    0.3788
     EDDAV:  cpu time    4.7233: real time    4.7240
       DOS:  cpu time    0.0016: real time    0.0016
    CHARGE:  cpu time    0.7362: real time    0.7364
    MIXING:  cpu time    0.1903: real time    0.1907
    --------------------------------------------
      LOOP:  cpu time    6.1154: real time    6.1167

 eigenvalue-minimisations  :  2296
 total energy-change (2. order) :-0.7627585E-03  (-0.1660358E-03)
 number of electron     756.0000003 magnetization 
 augmentation part      -10.5548103 magnetization 

 Broyden mixing:
  rms(total) = 0.16979E-02    rms(broyden)= 0.16979E-02
  rms(prec ) = 0.30678E-02
  weight for this iteration     100.00

 eigenvalues of (default mixing * dielectric matrix)
  average eigenvalue GAMMA=   1.9958
  4.9977  4.9977  2.6044  2.6044  0.2933  1.5852  0.7200  1.2206  0.9665  0.9665
  0.9970

 Free energy of the ion-electron system (eV)
  ---------------------------------------------------
  alpha Z        PSCENC =       494.38529243
  Ewald energy   TEWEN  =     88537.98879136
  -Hartree energ DENC   =   -103059.52138225
  -exchange      EXHF   =         0.00000000
  -V(xc)+E(xc)   XCENC  =     -6613.85642325
  PAW double counting   =     21297.15677726   -13248.25932144
  entropy T*S    EENTRO =        -0.06654244
  eigenvalues    EBANDS =     -1818.88258087
  atomic energy  EATOM  =     13491.60232749
  Solvation  Ediel_sol  =         0.00000000
  ---------------------------------------------------
  free energy    TOTEN  =      -919.45306171 eV

  energy without entropy =     -919.38651927  energy(sigma->0) =     -919.41979049


--------------------------------------------------------------------------------------------------------




--------------------------------------- Iteration      1(  17)  ---------------------------------------


    POTLOK:  cpu time    0.0856: real time    0.0856
    SETDIJ:  cpu time    0.3789: real time    0.3790
     EDDAV:  cpu time    4.6212: real time    4.6218
       DOS:  cpu time    0.0016: real time    0.0016
    CHARGE:  cpu time    0.7382: real time    0.7384
    MIXING:  cpu time    0.1994: real time    0.1994
    --------------------------------------------
      LOOP:  cpu time    6.0249: real time    6.0258

 eigenvalue-minimisations  :  2232
 total energy-change (2. order) :-0.1881156E-02  (-0.3240339E-04)
 number of electron     756.0000003 magnetization 
 augmentation part      -10.5544836 magnetization 

 Broyden mixing:
  rms(total) = 0.11702E-02    rms(broyden)= 0.11702E-02
  rms(prec ) = 0.17859E-02
  weight for this iteration     100.00

 eigenvalues of (default mixing * dielectric matrix)
  average eigenvalue GAMMA=   2.0161
  5.6198  4.9928  2.6516  2.6516  0.2933  1.6763  1.6763  0.7199  1.0012  1.0012
  0.9546  0.9546

 Free energy of the ion-electron system (eV)
  ---------------------------------------------------
  alpha Z        PSCENC =       494.38529243
  Ewald energy   TEWEN  =     88537.98879136
  -Hartree energ DENC   =   -103062.64304443
  -exchange      EXHF   =         0.00000000
  -V(xc)+E(xc)   XCENC  =     -6613.84049378
  PAW double counting   =     21296.12305050   -13247.23319724
  entropy T*S    EENTRO =        -0.06675635
  eigenvalues    EBANDS =     -1815.77091283
  atomic energy  EATOM  =     13491.60232749
  Solvation  Ediel_sol  =         0.00000000
  ---------------------------------------------------
  free energy    TOTEN  =      -919.45494286 eV

  energy without entropy =     -919.38818651  energy(sigma->0) =     -919.42156469


--------------------------------------------------------------------------------------------------------




--------------------------------------- Iteration      1(  18)  ---------------------------------------


    POTLOK:  cpu time    0.0856: real time    0.0856
    SETDIJ:  cpu time    0.3763: real time    0.3763
     EDDAV:  cpu time    4.5622: real time    4.5629
       DOS:  cpu time    0.0016: real time    0.0016
    CHARGE:  cpu time    0.7390: real time    0.7391
    MIXING:  cpu time    0.2295: real time    0.2295
    --------------------------------------------
      LOOP:  cpu time    5.9942: real time    5.9951

 eigenvalue-minimisations  :  2192
 total energy-change (2. order) :-0.2150416E-02  (-0.3131951E-04)
 number of electron     756.0000003 magnetization 
 augmentation part      -10.5544418 magnetization 

 Broyden mixing:
  rms(total) = 0.97963E-03    rms(broyden)= 0.97963E-03
  rms(prec ) = 0.15293E-02
  weight for this iteration     100.00

 eigenvalues of (default mixing * dielectric matrix)
  average eigenvalue GAMMA=   2.3146
  7.6802  5.5899  3.6896  2.7405  2.4505  0.2933  1.6419  0.7200  0.9660  0.9660
  1.1630  1.1630  1.0258

 Free energy of the ion-electron system (eV)
  ---------------------------------------------------
  alpha Z        PSCENC =       494.38529243
  Ewald energy   TEWEN  =     88537.98879136
  -Hartree energ DENC   =   -103064.20703435
  -exchange      EXHF   =         0.00000000
  -V(xc)+E(xc)   XCENC  =     -6613.84506048
  PAW double counting   =     21295.41815922   -13246.51709634
  entropy T*S    EENTRO =        -0.06689145
  eigenvalues    EBANDS =     -1814.21558117
[...]
     13.91915     -5.72686     -9.91921         0.000078     -0.000000     -0.000000
     13.91915     -5.72686      0.00000         0.000078      0.000000     -0.000000
     13.91915     -8.59029     -4.95960         0.000078      0.000000     -0.000000
     13.91915    -11.45372     -9.91921         0.000078      0.000000     -0.000000
     13.91915    -11.45372     -0.00000         0.000078     -0.000000     -0.000000
     13.91915    -14.31714     -4.95960         0.000078      0.000000     -0.000000
     13.91915    -17.18057     -9.91921         0.000078     -0.000000     -0.000000
     16.24605     -2.86343     -1.65320        -0.001141      0.000000     -0.000000
     16.24605     -5.72686     -6.61281        -0.001141      0.000000     -0.000000
     16.24605     -8.59029    -11.57241        -0.001141      0.000000     -0.000000
     16.24605     -8.59029     -1.65320        -0.001141     -0.000000     -0.000000
     16.24605    -11.45372     -6.61281        -0.001141      0.000000     -0.000000
     16.24605    -14.31714    -11.57241        -0.001141      0.000000     -0.000000
     16.24605    -14.31714     -1.65320        -0.001141      0.000000      0.000000
     16.24605    -17.18057     -6.61281        -0.001141      0.000000      0.000000
     16.24605    -20.04400    -11.57241        -0.001141     -0.000000      0.000000
      2.45779     -7.15857     -4.13300         0.001141      0.000000     -0.000000
      2.45779    -10.02200     -9.09261         0.001141     -0.000000      0.000000
      2.45779    -12.88543    -14.05221         0.001141     -0.000000     -0.000000
      2.45779    -12.88543     -4.13300         0.001141     -0.000000      0.000000
      2.45779    -15.74886     -9.09261         0.001141      0.000000      0.000000
      2.45779    -18.61229    -14.05221         0.001141     -0.000000     -0.000000
      2.45779    -18.61229     -4.13300         0.001141     -0.000000     -0.000000
      2.45779    -21.47572     -9.09261         0.001141      0.000000      0.000000
      2.45779    -24.33915    -14.05221         0.001141      0.000000      0.000000
      4.78468    -10.02200     -5.78621        -0.000078      0.000000      0.000000
      4.78468    -12.88543    -10.74581        -0.000078      0.000000      0.000000
      4.78468     -7.15857     -0.82660        -0.000078      0.000000      0.000000
      4.78468    -15.74886     -5.78621        -0.000078      0.000000      0.000000
      4.78468    -18.61229    -10.74581        -0.000078      0.000000      0.000000
      4.78468    -12.88543     -0.82660        -0.000078     -0.000000     -0.000000
      4.78468     -4.29514     -5.78621        -0.000078      0.000000      0.000000
      4.78468     -7.15857    -10.74581        -0.000078      0.000000      0.000000
      4.78468     -1.43171     -0.82660        -0.000078     -0.000000      0.000000
      7.05493    -12.88543     -7.43941         0.000657     -0.000000      0.000000
      7.05493    -15.74886    -12.39901         0.000657     -0.000000      0.000000
      7.05493    -10.02200     -2.47980         0.000657     -0.000000      0.000000
      7.05493    -18.61229     -7.43941         0.000657     -0.000000      0.000000
      7.05493    -21.47572    -12.39901         0.000657     -0.000000      0.000000
      7.05493    -15.74886     -2.47980         0.000657     -0.000000      0.000000
      7.05493     -7.15857     -7.43941         0.000657      0.000000     -0.000000
      7.05493    -10.02200    -12.39901         0.000657     -0.000000     -0.000000
      7.05493     -4.29514     -2.47980         0.000657      0.000000     -0.000000
      9.35192    -15.74886     -9.09261         0.000000      0.000000      0.000000
      9.35192    -18.61229    -14.05221         0.000000     -0.000000      0.000000
      9.35192    -12.88543     -4.13300         0.000000      0.000000     -0.000000
      9.35192    -21.47572     -9.09261         0.000000      0.000000      0.000000
      9.35192    -24.33915    -14.05221         0.000000     -0.000000      0.000000
      9.35192    -18.61229     -4.13300         0.000000      0.000000      0.000000
      9.35192    -10.02200     -9.09261         0.000000     -0.000000     -0.000000
      9.35192    -12.88543    -14.05221         0.000000     -0.000000     -0.000000
      9.35192     -7.15857     -4.13300         0.000000      0.000000     -0.000000
     11.64891    -18.61229    -10.74581        -0.000657     -0.000000      0.000000
     11.64891    -12.88543     -0.82660        -0.000657      0.000000      0.000000
     11.64891    -15.74886     -5.78621        -0.000657      0.000000     -0.000000
     11.64891     -7.15857    -10.74581        -0.000657      0.000000     -0.000000
     11.64891     -1.43171     -0.82660        -0.000657      0.000000     -0.000000
     11.64891     -4.29514     -5.78621        -0.000657     -0.000000     -0.000000
     11.64891    -12.88543    -10.74581        -0.000657     -0.000000     -0.000000
     11.64891     -7.15857     -0.82660        -0.000657     -0.000000      0.000000
     11.64891    -10.02200     -5.78621        -0.000657      0.000000      0.000000
     13.91915    -21.47572    -12.39901         0.000078      0.000000     -0.000000
     13.91915    -15.74886     -2.47980         0.000078      0.000000     -0.000000
     13.91915    -18.61229     -7.43941         0.000078      0.000000     -0.000000
     13.91915    -10.02200    -12.39901         0.000078     -0.000000     -0.000000
     13.91915     -4.29514     -2.47980         0.000078     -0.000000      0.000000
     13.91915     -7.15857     -7.43941         0.000078     -0.000000     -0.000000
     13.91915    -15.74886    -12.39901         0.000078     -0.000000     -0.000000
     13.91915    -10.02200     -2.47980         0.000078      0.000000     -0.000000
     13.91915    -12.88543     -7.43941         0.000078      0.000000     -0.000000
     16.24605    -24.33915    -14.05221        -0.001141      0.000000     -0.000000
     16.24605    -18.61229     -4.13300        -0.001141     -0.000000      0.000000
     16.24605    -21.47572     -9.09261        -0.001141     -0.000000     -0.000000
     16.24605    -12.88543    -14.05221        -0.001141      0.000000     -0.000000
     16.24605     -7.15857     -4.13300        -0.001141      0.000000      0.000000
     16.24605    -10.02200     -9.09261        -0.001141      0.000000     -0.000000
     16.24605    -18.61229    -14.05221        -0.001141      0.000000      0.000000
     16.24605    -12.88543     -4.13300        -0.001141      0.000000      0.000000
     16.24605    -15.74886     -9.09261        -0.001141      0.000000     -0.000000
      2.45779     -8.59029     -6.61281         0.001141     -0.000000      0.000000
      2.45779    -11.45372    -11.57241         0.001141     -0.000000      0.000000
      2.45779     -5.72686     -1.65320         0.001141     -0.000000     -0.000000
      2.45779    -14.31714     -6.61281         0.001141     -0.000000      0.000000
      2.45779    -17.18057    -11.57241         0.001141     -0.000000     -0.000000
      2.45779    -11.45372     -1.65320         0.001141     -0.000000     -0.000000
      2.45779    -20.04400     -6.61281         0.001141      0.000000      0.000000
      2.45779    -22.90743    -11.57241         0.001141     -0.000000      0.000000
      2.45779    -17.18057     -1.65320         0.001141     -0.000000      0.000000
      4.78468    -11.45372     -8.26601        -0.000078      0.000000      0.000000
      4.78468    -14.31714    -13.22561        -0.000078      0.000000      0.000000
      4.78468     -8.59029     -3.30640        -0.000078      0.000000      0.000000
      4.78468    -17.18057     -8.26601        -0.000078      0.000000      0.000000
      4.78468    -20.04400    -13.22561        -0.000078     -0.000000      0.000000
      4.78468    -14.31714     -3.30640        -0.000078      0.000000     -0.000000
      4.78468     -5.72686     -8.26601        -0.000078      0.000000      0.000000
      4.78468     -8.59029    -13.22561        -0.000078      0.000000      0.000000
      4.78468     -2.86343     -3.30640        -0.000078     -0.000000      0.000000
      7.05493    -14.31714     -9.91921         0.000657      0.000000     -0.000000
      7.05493     -8.59029      0.00000         0.000657     -0.000000      0.000000
      7.05493    -11.45372     -4.95960         0.000657      0.000000     -0.000000
      7.05493    -20.04400     -9.91921         0.000657      0.000000     -0.000000
      7.05493    -14.31714     -0.00000         0.000657     -0.000000      0.000000
      7.05493    -17.18057     -4.95960         0.000657      0.000000      0.000000
      7.05493     -8.59029     -9.91921         0.000657     -0.000000     -0.000000
      7.05493     -2.86343     -0.00000         0.000657      0.000000     -0.000000
      7.05493     -5.72686     -4.95960         0.000657      0.000000     -0.000000
      9.35192    -17.18057    -11.57241         0.000000     -0.000000     -0.000000
      9.35192    -11.45372     -1.65320         0.000000     -0.000000      0.000000
      9.35192    -14.31714     -6.61281         0.000000      0.000000     -0.000000
      9.35192    -22.90743    -11.57241         0.000000      0.000000      0.000000
      9.35192    -17.18057     -1.65320         0.000000     -0.000000      0.000000
      9.35192    -20.04400     -6.61281         0.000000      0.000000     -0.000000
      9.35192    -11.45372    -11.57241         0.000000     -0.000000      0.000000
      9.35192     -5.72686     -1.65320         0.000000      0.000000     -0.000000
      9.35192     -8.59029     -6.61281         0.000000      0.000000      0.000000
     11.64891    -20.04400    -13.22561        -0.000657     -0.000000      0.000000
     11.64891    -14.31714     -3.30640        -0.000657      0.000000      0.000000
     11.64891    -17.18057     -8.26601        -0.000657      0.000000      0.000000
     11.64891     -8.59029    -13.22561        -0.000657     -0.000000     -0.000000
     11.64891     -2.86343     -3.30640        -0.000657      0.000000     -0.000000
     11.64891     -5.72686     -8.26601        -0.000657      0.000000     -0.000000
     11.64891    -14.31714    -13.22561        -0.000657     -0.000000      0.000000
     11.64891     -8.59029     -3.30640        -0.000657      0.000000     -0.000000
     11.64891    -11.45372     -8.26601        -0.000657     -0.000000     -0.000000
     13.91915    -14.31714      0.00000         0.000078      0.000000     -0.000000
     13.91915    -17.18057     -4.95960         0.000078      0.000000     -0.000000
     13.91915    -20.04400     -9.91921         0.000078      0.000000     -0.000000
     13.91915     -2.86343     -0.00000         0.000078     -0.000000     -0.000000
     13.91915     -5.72686     -4.95960         0.000078     -0.000000     -0.000000
     13.91915     -8.59029     -9.91921         0.000078     -0.000000     -0.000000
     13.91915     -8.59029     -0.00000         0.000078      0.000000     -0.000000
     13.91915    -11.45372     -4.95960         0.000078      0.000000     -0.000000
     13.91915    -14.31714     -9.91921         0.000078      0.000000     -0.000000
     16.24605    -17.18057     -1.65320        -0.001141     -0.000000     -0.000000
     16.24605    -20.04400     -6.61281        -0.001141      0.000000     -0.000000
     16.24605    -22.90743    -11.57241        -0.001141     -0.000000     -0.000000
     16.24605     -5.72686     -1.65320        -0.001141      0.000000      0.000000
     16.24605     -8.59029     -6.61281        -0.001141     -0.000000      0.000000
     16.24605    -11.45372    -11.57241        -0.001141      0.000000      0.000000
     16.24605    -11.45372     -1.65320        -0.001141      0.000000     -0.000000
     16.24605    -14.31714     -6.61281        -0.001141     -0.000000     -0.000000
     16.24605    -17.18057    -11.57241        -0.001141      0.000000      0.000000
      2.45779    -10.02200     -4.13300         0.001141     -0.000000      0.000000
      2.45779    -12.88543     -9.09261         0.001141      0.000000      0.000000
      2.45779    -15.74886    -14.05221         0.001141      0.000000      0.000000
      2.45779    -15.74886     -4.13300         0.001141     -0.000000      0.000000
      2.45779    -18.61229     -9.09261         0.001141     -0.000000     -0.000000
      2.45779    -21.47572    -14.05221         0.001141     -0.000000     -0.000000
      2.45779     -4.29514     -4.13300         0.001141     -0.000000      0.000000
      2.45779     -7.15857     -9.09261         0.001141      0.000000     -0.000000
      2.45779    -10.02200    -14.05221         0.001141     -0.000000     -0.000000
      4.78468    -12.88543     -5.78621        -0.000078      0.000000      0.000000
      4.78468    -15.74886    -10.74581        -0.000078      0.000000      0.000000
      4.78468    -10.02200     -0.82660        -0.000078     -0.000000      0.000000
      4.78468    -18.61229     -5.78621        -0.000078      0.000000      0.000000
      4.78468    -21.47572    -10.74581        -0.000078      0.000000      0.000000
      4.78468    -15.74886     -0.82660        -0.000078      0.000000      0.000000
      4.78468     -7.15857     -5.78621        -0.000078      0.000000      0.000000
      4.78468    -10.02200    -10.74581        -0.000078     -0.000000      0.000000
      4.78468     -4.29514     -0.82660        -0.000078     -0.000000     -0.000000
      7.05493    -15.74886     -7.43941         0.000657      0.000000     -0.000000
      7.05493    -18.61229    -12.39901         0.000657      0.000000     -0.000000
      7.05493    -12.88543     -2.47980         0.000657      0.000000     -0.000000
      7.05493     -4.29514     -7.43941         0.000657     -0.000000      0.000000
      7.05493     -7.15857    -12.39901         0.000657      0.000000      0.000000
      7.05493     -1.43171     -2.47980         0.000657     -0.000000     -0.000000
      7.05493    -10.02200     -7.43941         0.000657     -0.000000      0.000000
      7.05493    -12.88543    -12.39901         0.000657     -0.000000      0.000000
      7.05493     -7.15857     -2.47980         0.000657     -0.000000      0.000000
      9.35192    -18.61229     -9.09261         0.000000     -0.000000      0.000000
      9.35192    -21.47572    -14.05221         0.000000     -0.000000     -0.000000
      9.35192    -15.74886     -4.13300         0.000000      0.000000      0.000000
      9.35192     -7.15857     -9.09261         0.000000      0.000000      0.000000
      9.35192    -10.02200    -14.05221         0.000000      0.000000      0.000000
      9.35192     -4.29514     -4.13300         0.000000      0.000000      0.000000
      9.35192    -12.88543     -9.09261         0.000000      0.000000      0.000000
      9.35192    -15.74886    -14.05221         0.000000     -0.000000     -0.000000
      9.35192    -10.02200     -4.13300         0.000000      0.000000      0.000000
     11.64891    -21.47572    -10.74581        -0.000657     -0.000000     -0.000000
     11.64891    -15.74886     -0.82660        -0.000657     -0.000000     -0.000000
     11.64891    -18.61229     -5.78621        -0.000657     -0.000000      0.000000
     11.64891    -10.02200    -10.74581        -0.000657     -0.000000      0.000000
     11.64891     -4.29514     -0.82660        -0.000657     -0.000000      0.000000
     11.64891     -7.15857     -5.78621        -0.000657      0.000000     -0.000000
     11.64891    -15.74886    -10.74581        -0.000657      0.000000     -0.000000
     11.64891    -10.02200     -0.82660        -0.000657      0.000000     -0.000000
     11.64891    -12.88543     -5.78621        -0.000657      0.000000     -0.000000
     13.91915     -7.15857    -12.39901         0.000078      0.000000     -0.000000
     13.91915     -1.43171     -2.47980         0.000078      0.000000     -0.000000
     13.91915     -4.29514     -7.43941         0.000078      0.000000     -0.000000
     13.91915    -12.88543    -12.39901         0.000078      0.000000     -0.000000
     13.91915     -7.15857     -2.47980         0.000078      0.000000     -0.000000
     13.91915    -10.02200     -7.43941         0.000078      0.000000     -0.000000
     13.91915    -18.61229    -12.39901         0.000078     -0.000000     -0.000000
     13.91915    -12.88543     -2.47980         0.000078     -0.000000      0.000000
     13.91915    -15.74886     -7.43941         0.000078     -0.000000     -0.000000
     16.24605    -10.02200    -14.05221        -0.001141      0.000000      0.000000
     16.24605     -4.29514     -4.13300        -0.001141      0.000000      0.000000
     16.24605     -7.15857     -9.09261        -0.001141      0.000000     -0.000000
     16.24605    -15.74886    -14.05221        -0.001141      0.000000     -0.000000
     16.24605    -10.02200     -4.13300        -0.001141      0.000000     -0.000000
     16.24605    -12.88543     -9.09261        -0.001141     -0.000000     -0.000000
     16.24605    -21.47572    -14.05221        -0.001141      0.000000      0.000000
     16.24605    -15.74886     -4.13300        -0.001141      0.000000      0.000000
     16.24605    -18.61229     -9.09261        -0.001141     -0.000000     -0.000000
 -----------------------------------------------------------------------------------
    total drift:                               -0.043363     -0.000003     -0.000002


--------------------------------------------------------------------------------------------------------



  FREE ENERGIE OF THE ION-ELECTRON SYSTEM (eV)
  ---------------------------------------------------
  free  energy   TOTEN  =      -992.63268863 eV

  energy  without entropy=     -992.51315033  energy(sigma->0) =     -992.57291948
 
 d Force = 0.1278213E-05[ 0.200E-06, 0.236E-05]  d Energy = 0.1805785E-05-0.528E-06
 d Force =-0.1061307E+01[-0.106E+01,-0.106E+01]  d Ewald  =-0.1061307E+01 0.175E-06


--------------------------------------------------------------------------------------------------------


    POTLOK:  cpu time    0.5155: real time    0.5156


--------------------------------------------------------------------------------------------------------


 stress matrix after NEB project (eV)
     16.08756     -0.00000      0.00000
      0.00000   -130.90131      0.00000
     -0.00000     -0.00000   -130.90131
  FORCES: max atom, RMS     0.001141    0.000705
  FORCE total and by dimension    0.011190    0.001141
  Stress total and by dimension  185.820113  130.901308


--------------------------------------------------------------------------------------------------------


  
 reached required accuracy - stopping structural energy minimisation
     LOOP+:  cpu time   32.5548: real time   32.5610
    4ORBIT:  cpu time    0.0000: real time    0.0000

 total amount of memory used by VASP MPI-rank0  2724057. kBytes
=======================================================================

   base      :      30000. kBytes
   nonlr-proj:      65037. kBytes
   fftplans  :     245548. kBytes
   grid      :     381644. kBytes
   one-center:       3919. kBytes
   wavefun   :    1997909. kBytes
 
  
  
 General timing and accounting informations for this job:
 ========================================================
  
                  Total CPU time used (sec):     1210.135
                            User time (sec):     1191.132
                          System time (sec):       19.003
                         Elapsed time (sec):     1210.802
  
                   Maximum memory used (kb):     4474892.
                   Average memory used (kb):          N/A
  
                          Minor page faults:     20922805
                          Major page faults:            0
                 Voluntary context switches:        17828
