<?xml version="1.0" encoding="ISO-8859-1"?>
<modeling>
 <generator>
  <i name="program" type="string">vasp </i>
  <i name="version" type="string">6.2.1  </i>
  <i name="subversion" type="string">16May21 (build Jun 16 2021 03:23:30) complex                          parallel </i>
  <i name="platform" type="string">LinuxPGI </i>
  <i name="date" type="string">2022 04 25 </i>
  <i name="time" type="string">11:32:39 </i>
 </generator>
 <incar>
  <i type="string" name="SYSTEM">NiAl</i>
  <i type="int" name="ISTART">     0</i>
  <i type="int" name="NELMIN">     6</i>
  <i type="int" name="IBRION">     2</i>
  <i name="EDIFF">      0.00000500</i>
  <i type="int" name="NSW">    40</i>
  <i type="int" name="ISIF">     1</i>
  <i name="ENCUT">    360.00000000</i>
  <i name="POTIM">      0.20000000</i>
  <i type="string" name="LREAL">Auto</i>
  <i type="logical" name="LPLANE"> T  </i>
  <i type="int" name="ISMEAR">     0</i>
  <i name="SIGMA">      0.05000000</i>
  <i type="logical" name="LWAVE"> F  </i>
  <i type="logical" name="LCHARG"> F  </i>
  <i type="int" name="IVDW">    12</i>
 </incar>
 <primitive_cell>
  <structure name="primitive_cell" >
   <crystal>
    <varray name="basis" >
     <v>       0.00000000       1.43171446       2.47980218 </v>
     <v>       0.00000000      -2.86342891       0.00000000 </v>
     <v>      30.00000000       0.00000000       0.00000000 </v>
    </varray>
    <i name="volume">    213.02211749 </i>
    <varray name="rec_basis" >
     <v>      -0.00000000       0.00000000       0.40325797 </v>
     <v>       0.00000000      -0.34923165       0.20162899 </v>
     <v>       0.03333333       0.00000000      -0.00000000 </v>
    </varray>
   </crystal>
   <varray name="positions" >
    <v>       0.33333333       0.66666667       0.07793266 </v>
    <v>       0.66666667       0.33333333       0.15586533 </v>
    <v>       0.00000000       1.00000000       0.23379799 </v>
    <v>       0.33333333       0.66666667       0.31173066 </v>
    <v>       0.66666667       0.33333333       0.38966332 </v>
    <v>       0.00000000       1.00000000       0.46759598 </v>
    <v>       0.33333333       0.66666667       0.54552865 </v>
   </varray>
  </structure>
  <varray name="primitive_index" >
   <v type="int" >        1 </v>
   <v type="int" >       73 </v>
   <v type="int" >       82 </v>
   <v type="int" >       36 </v>
   <v type="int" >      108 </v>
   <v type="int" >      117 </v>
   <v type="int" >       59 </v>
  </varray>
 </primitive_cell>
 <kpoints>
  <generation param="Gamma">
   <v type="int" name="divisions">       2        2        1 </v>
   <v name="usershift">      0.00000000       0.00000000       0.00000000 </v>
   <v name="genvec1">      0.50000000       0.00000000       0.00000000 </v>
   <v name="genvec2">      0.00000000       0.50000000       0.00000000 </v>
   <v name="genvec3">      0.00000000       0.00000000       1.00000000 </v>
   <v name="shift">      0.00000000       0.00000000       0.00000000 </v>
  </generation>
  <varray name="kpointlist" >
   <v>       0.00000000       0.00000000       0.00000000 </v>
   <v>       0.50000000       0.00000000       0.00000000 </v>
  </varray>
  <varray name="weights" >
   <v>       0.25000000 </v>
   <v>       0.75000000 </v>
  </varray>
 </kpoints>
 <parameters>
  <separator name="general" >
   <i type="string" name="SYSTEM">NiAl</i>
   <i type="logical" name="LCOMPAT"> F  </i>
  </separator>
  <separator name="electronic" >
   <i type="string" name="PREC">normal</i>
   <i name="ENMAX">    360.00000000</i>
   <i name="ENAUG">    482.05900000</i>
   <i name="EDIFF">      0.00000500</i>
   <i type="int" name="IALGO">    38</i>
   <i type="int" name="IWAVPR">    11</i>
   <i type="int" name="NBANDS">   505</i>
   <i type="int" name="NBANDSLOW">    -1</i>
   <i type="int" name="NBANDSHIGH">    -1</i>
   <i name="NELECT">    756.00000000</i>
   <i type="int" name="TURBO">     0</i>
   <i type="int" name="IRESTART">     0</i>
   <i type="int" name="NREBOOT">     0</i>
   <i type="int" name="NMIN">     0</i>
   <i name="EREF">      0.00000000</i>
   <separator name="electronic smearing" >
    <i type="int" name="ISMEAR">     0</i>
    <i name="SIGMA">      0.05000000</i>
    <i name="KSPACING">      0.50000000</i>
    <i type="logical" name="KGAMMA"> T  </i>
    <i type="logical" name="KBLOWUP"> T  </i>
   </separator>
   <separator name="electronic projectors" >
    <i type="logical" name="LREAL"> T  </i>
    <v name="ROPT">     -0.00050000</v>
    <i type="int" name="LMAXPAW">  -100</i>
    <i type="int" name="LMAXMIX">     2</i>
    <i type="logical" name="NLSPLINE"> F  </i>
   </separator>
   <separator name="electronic startup" >
    <i type="int" name="ISTART">     0</i>
    <i type="int" name="ICHARG">     2</i>
    <i type="int" name="INIWAV">     1</i>
   </separator>
   <separator name="electronic spin" >
    <i type="int" name="ISPIN">     1</i>
    <i type="logical" name="LNONCOLLINEAR"> F  </i>
    <v name="MAGMOM">      1.00000000      1.00000000      1.00000000      1.00000000      1.00000000      1.00000000      1.00000000      1.00000000      1.00000000      1.00000000      1.00000000      1.00000000      1.00000000      1.00000000      1.00000000      1.00000000      1.00000000      1.00000000      1.00000000      1.00000000
      1.00000000      1.00000000      1.00000000      1.00000000      1.00000000      1.00000000      1.00000000      1.00000000      1.00000000      1.00000000      1.00000000      1.00000000      1.00000000      1.00000000      1.00000000      1.00000000      1.00000000      1.00000000      1.00000000      1.00000000
      1.00000000      1.00000000      1.00000000      1.00000000      1.00000000      1.00000000      1.00000000      1.00000000      1.00000000      1.00000000      1.00000000      1.00000000      1.00000000      1.00000000      1.00000000      1.00000000      1.00000000      1.00000000      1.00000000      1.00000000
      1.00000000      1.00000000      1.00000000      1.00000000      1.00000000      1.00000000      1.00000000      1.00000000      1.00000000      1.00000000      1.00000000      1.00000000      1.00000000      1.00000000      1.00000000      1.00000000      1.00000000      1.00000000      1.00000000      1.00000000
      1.00000000      1.00000000      1.00000000      1.00000000      1.00000000      1.00000000      1.00000000      1.00000000      1.00000000      1.00000000      1.00000000      1.00000000      1.00000000      1.00000000      1.00000000      1.00000000      1.00000000      1.00000000      1.00000000      1.00000000
      1.00000000      1.00000000      1.00000000      1.00000000      1.00000000      1.00000000      1.00000000      1.00000000      1.00000000      1.00000000      1.00000000      1.00000000      1.00000000      1.00000000      1.00000000      1.00000000      1.00000000      1.00000000      1.00000000      1.00000000
      1.00000000      1.00000000      1.00000000      1.00000000      1.00000000      1.00000000      1.00000000      1.00000000      1.00000000      1.00000000      1.00000000      1.00000000      1.00000000      1.00000000      1.00000000      1.00000000      1.00000000      1.00000000      1.00000000      1.00000000
      1.00000000      1.00000000      1.00000000      1.00000000      1.00000000      1.00000000      1.00000000      1.00000000      1.00000000      1.00000000      1.00000000      1.00000000      1.00000000      1.00000000      1.00000000      1.00000000      1.00000000      1.00000000      1.00000000      1.00000000
      1.00000000      1.00000000      1.00000000      1.00000000      1.00000000      1.00000000      1.00000000      1.00000000      1.00000000      1.00000000      1.00000000      1.00000000      1.00000000      1.00000000      1.00000000      1.00000000      1.00000000      1.00000000      1.00000000      1.00000000
      1.00000000      1.00000000      1.00000000      1.00000000      1.00000000      1.00000000      1.00000000      1.00000000      1.00000000      1.00000000      1.00000000      1.00000000      1.00000000      1.00000000      1.00000000      1.00000000      1.00000000      1.00000000      1.00000000      1.00000000
      1.00000000      1.00000000      1.00000000      1.00000000      1.00000000      1.00000000      1.00000000      1.00000000      1.00000000      1.00000000      1.00000000      1.00000000      1.00000000      1.00000000      1.00000000      1.00000000      1.00000000      1.00000000      1.00000000      1.00000000
      1.00000000      1.00000000      1.00000000      1.00000000      1.00000000      1.00000000      1.00000000      1.00000000      1.00000000      1.00000000      1.00000000      1.00000000      1.00000000      1.00000000      1.00000000      1.00000000      1.00000000      1.00000000      1.00000000      1.00000000
      1.00000000      1.00000000      1.00000000      1.00000000      1.00000000      1.00000000      1.00000000      1.00000000      1.00000000      1.00000000      1.00000000      1.00000000</v>
    <i name="NUPDOWN">     -1.00000000</i>
    <i type="logical" name="LSORBIT"> F  </i>
    <v name="SAXIS">      0.00000000      0.00000000      1.00000000</v>
    <i type="logical" name="LSPIRAL"> F  </i>
    <v name="QSPIRAL">      0.00000000      0.00000000      0.00000000</v>
    <i type="logical" name="LZEROZ"> F  </i>
   </separator>
   <separator name="electronic exchange-correlation" >
    <i type="logical" name="LASPH"> F  </i>
    <i type="logical" name="LMETAGGA"> F  </i>
   </separator>
   <separator name="electronic convergence" >
    <i type="int" name="NELM">    60</i>
    <i type="int" name="NELMDL">    -5</i>
    <i type="int" name="NELMIN">     6</i>
    <i name="ENINI">    360.00000000</i>
    <separator name="electronic convergence detail" >
     <i type="logical" name="LDIAG"> T  </i>
     <i type="logical" name="LSUBROT"> F  </i>
     <i name="WEIMIN">      0.00100000</i>
     <i name="EBREAK">      0.00000000</i>
     <i name="DEPER">      0.30000000</i>
     <i type="int" name="NRMM">     4</i>
     <i name="TIME">      0.40000000</i>
    </separator>
   </separator>
   <separator name="electronic mixer" >
    <i name="AMIX">      0.40000000</i>
    <i name="BMIX">      1.00000000</i>
    <i name="AMIN">      0.10000000</i>
    <i name="AMIX_MAG">      1.60000000</i>
    <i name="BMIX_MAG">      1.00000000</i>
    <separator name="electronic mixer details" >
     <i type="int" name="IMIX">     4</i>
     <i type="logical" name="MIXFIRST"> F  </i>
     <i type="int" name="MAXMIX">   -45</i>
     <i name="WC">    100.00000000</i>
     <i type="int" name="INIMIX">     1</i>
     <i type="int" name="MIXPRE">     1</i>
     <i type="int" name="MREMOVE">     5</i>
    </separator>
   </separator>
   <separator name="electronic dipolcorrection" >
    <i type="logical" name="LDIPOL"> F  </i>
    <i type="logical" name="LMONO"> F  </i>
    <i type="int" name="IDIPOL">     0</i>
    <i name="EPSILON">      1.00000000</i>
    <v name="DIPOL">   -100.00000000   -100.00000000   -100.00000000</v>
    <i name="EFIELD">      0.00000000</i>
   </separator>
  </separator>
  <separator name="grids" >
   <i type="int" name="NGX">    80</i>
   <i type="int" name="NGY">    80</i>
   <i type="int" name="NGZ">   140</i>
   <i type="int" name="NGXF">   160</i>
   <i type="int" name="NGYF">   160</i>
   <i type="int" name="NGZF">   280</i>
   <i type="logical" name="ADDGRID"> F  </i>
  </separator>
  <separator name="ionic" >
   <i type="int" name="NSW">    40</i>
   <i type="int" name="IBRION">     2</i>
   <i type="int" name="MDALGO">     0</i>
   <i type="int" name="ISIF">     1</i>
   <i name="PSTRESS">      0.00000000</i>
   <i name="EDIFFG">      0.00005000</i>
   <i type="int" name="NFREE">     1</i>
   <i name="POTIM">      0.20000000</i>
   <i name="SMASS">     -3.00000000</i>
   <i name="SCALEE">      1.00000000</i>
  </separator>
  <separator name="ionic md" >
   <i name="TEBEG">      0.00010000</i>
   <i name="TEEND">      0.00010000</i>
   <i type="int" name="NBLOCK">     1</i>
   <i type="int" name="KBLOCK">    40</i>
   <i type="int" name="NPACO">   256</i>
   <i name="APACO">     16.00000000</i>
  </separator>
  <separator name="symmetry" >
   <i type="int" name="ISYM">     2</i>
   <i name="SYMPREC">      0.00001000</i>
  </separator>
  <separator name="dos" >
   <i type="int" name="LORBIT">     0</i>
   <v name="RWIGS">     -1.00000000</v>
   <i type="int" name="NEDOS">   301</i>
   <i name="EMIN">     10.00000000</i>
   <i name="EMAX">    -10.00000000</i>
   <i name="EFERMI">      0.00000000</i>
  </separator>
  <separator name="writing" >
   <i type="int" name="NWRITE">     2</i>
   <i type="logical" name="LWAVE"> F  </i>
   <i type="logical" name="LDOWNSAMPLE"> F  </i>
   <i type="logical" name="LCHARG"> F  </i>
   <i type="logical" name="LPARD"> F  </i>
   <i type="logical" name="LVTOT"> F  </i>
   <i type="logical" name="LVHAR"> F  </i>
   <i type="logical" name="LELF"> F  </i>
   <i type="logical" name="LOPTICS"> F  </i>
   <v name="STM">      0.00000000      0.00000000      0.00000000      0.00000000      0.00000000      0.00000000      0.00000000</v>
  </separator>
  <separator name="performance" >
   <i type="int" name="NPAR">     1</i>
   <i type="int" name="NSIM">     4</i>
   <i type="int" name="NBLK">    -1</i>
   <i type="logical" name="LPLANE"> T  </i>
   <i type="logical" name="LSCALAPACK"> T  </i>
   <i type="logical" name="LSCAAWARE"> F  </i>
   <i type="logical" name="LSCALU"> F  </i>
   <i type="logical" name="LASYNC"> F  </i>
   <i type="logical" name="LORBITALREAL"> F  </i>
  </separator>
  <separator name="miscellaneous" >
   <i type="int" name="IDIOT">     3</i>
   <i type="int" name="PHON_NSTRUCT">    -1</i>
   <i type="logical" name="LMUSIC"> F  </i>
   <v name="POMASS">     26.98200000</v>
   <v name="DARWINR">      0.00000000</v>
   <v name="DARWINV">      1.00000000</v>
   <i type="logical" name="LCORR"> T  </i>
  </separator>
  <i type="logical" name="GGA_COMPAT"> T  </i>
  <i type="logical" name="LBERRY"> F  </i>
  <i type="int" name="ICORELEVEL">     0</i>
  <i type="logical" name="LDAU"> F  </i>
  <i type="int" name="I_CONSTRAINED_M">     0</i>
  <separator name="electronic exchange-correlation" >
   <i type="string" name="GGA">--</i>
   <i type="int" name="VOSKOWN">     0</i>
   <i type="logical" name="LHFCALC"> F  </i>
   <i type="string" name="PRECFOCK"></i>
   <i type="logical" name="LSYMGRAD"> F  </i>
   <i type="logical" name="LHFONE"> F  </i>
   <i type="logical" name="LRHFCALC"> F  </i>
   <i type="logical" name="LTHOMAS"> F  </i>
   <i type="logical" name="LMODELHF"> F  </i>
   <i type="logical" name="LFOCKACE"> F  </i>
   <i name="ENCUT4O">     -1.00000000</i>
   <i type="int" name="EXXOEP">     0</i>
   <i type="int" name="FOURORBIT">     0</i>
   <i name="AEXX">      0.00000000</i>
   <i name="HFALPHA">      0.00000000</i>
   <i name="MCALPHA">      0.00000000</i>
   <i name="ALDAX">      1.00000000</i>
   <i name="AGGAX">      1.00000000</i>
   <i name="ALDAC">      1.00000000</i>
   <i name="AGGAC">      1.00000000</i>
   <i type="int" name="NKREDX">     1</i>
   <i type="int" name="NKREDY">     1</i>
   <i type="int" name="NKREDZ">     1</i>
   <i type="logical" name="SHIFTRED"> F  </i>
   <i type="logical" name="ODDONLY"> F  </i>
   <i type="logical" name="EVENONLY"> F  </i>
   <i type="int" name="LMAXFOCK">     0</i>
   <i type="int" name="NMAXFOCKAE">     0</i>
   <i type="logical" name="LFOCKAEDFT"> F  </i>
   <i name="HFSCREEN">      0.00000000</i>
   <i name="HFSCREENC">      0.00000000</i>
   <i type="int" name="NBANDSGWLOW">     0</i>
  </separator>
  <separator name="vdW DFT" >
   <i type="logical" name="LUSE_VDW"> F  </i>
   <i name="Zab_VDW">     -0.84910000</i>
   <i name="PARAM1">      0.12340000</i>
   <i name="PARAM2">      1.00000000</i>
   <i name="PARAM3">      0.00000000</i>
  </separator>
  <separator name="model GW" >
   <i type="int" name="MODEL_GW">     0</i>
   <i name="MODEL_EPS0">     18.25903864</i>
   <i name="MODEL_ALPHA">      1.00000000</i>
  </separator>
  <separator name="linear response parameters" >
   <i type="logical" name="LEPSILON"> F  </i>
   <i type="logical" name="LRPA"> F  </i>
   <i type="logical" name="LNABLA"> F  </i>
   <i type="logical" name="LVEL"> F  </i>
   <i type="int" name="KINTER">     0</i>
   <i name="CSHIFT">      0.10000000</i>
   <i name="OMEGAMAX">     -1.00000000</i>
   <i name="DEG_THRESHOLD">      0.00200000</i>
   <i name="RTIME">     -0.10000000</i>
   <i name="WPLASMAI">      0.00000000</i>
   <v name="DFIELD">      0.00000000      0.00000000      0.00000000</v>
   <v name="WPLASMA">      0.00000000      0.00000000      0.00000000      0.00000000      0.00000000      0.00000000      0.00000000      0.00000000      0.00000000</v>
  </separator>
  <separator name="orbital magnetization" >
   <i type="logical" name="NUCIND"> F  </i>
   <v name="MAGPOS">      0.00000000      0.00000000      0.00000000</v>
   <i type="logical" name="LNICSALL"> T  </i>
   <i type="logical" name="ORBITALMAG"> F  </i>
   <i type="logical" name="LMAGBLOCH"> F  </i>
   <i type="logical" name="LCHIMAG"> F  </i>
   <i type="logical" name="LGAUGE"> T  </i>
   <i type="int" name="MAGATOM">     0</i>
   <v name="MAGDIPOL">      0.00000000      0.00000000      0.00000000</v>
   <v name="AVECCONST">      0.00000000      0.00000000      0.00000000</v>
  </separator>
  <separator name="response functions" >
   <i type="logical" name="LFINITE_TEMPERATURE"> F  </i>
   <i type="logical" name="LADDER"> F  </i>
   <i type="logical" name="LRPAFORCE"> F  </i>
   <i type="logical" name="LFXC"> F  </i>
   <i type="logical" name="LHARTREE"> T  </i>
   <i type="int" name="IBSE">     0</i>
   <v type="int" name="KPOINT">    -1     0     0     0</v>
   <i type="logical" name="LTCTC"> F  </i>
   <i type="logical" name="LTCTE"> F  </i>
   <i type="logical" name="LTETE"> F  </i>
   <i type="logical" name="LTRIPLET"> F  </i>
   <i type="logical" name="LFXCEPS"> F  </i>
   <i type="logical" name="LFXHEG"> F  </i>
   <i type="int" name="NATURALO">     2</i>
   <i type="logical" name="LHOLEGF"> F  </i>
   <i type="logical" name="L2ORDER"> F  </i>
   <i type="logical" name="LDMP1"> F  </i>
   <i type="logical" name="LMP2LT"> F  </i>
   <i type="logical" name="LSMP2LT"> F  </i>
   <i type="logical" name="LGWLF"> F  </i>
   <i name="ENCUTGW">     -2.00000000</i>
   <i name="ENCUTGWSOFT">     -2.00000000</i>
   <i name="ENCUTLF">     -1.00000000</i>
   <i type="logical" name="LESF_SPLINES"> F  </i>
   <i type="int" name="LMAXMP2">    -1</i>
   <i name="SCISSOR">      0.00000000</i>
   <i type="int" name="NOMEGA">     0</i>
   <i type="int" name="NOMEGAR">     0</i>
   <i type="int" name="NBANDSGW">    -1</i>
   <i type="int" name="NBANDSO">    -1</i>
   <i type="int" name="NBANDSV">    -1</i>
   <i type="int" name="NELM">     1</i>
   <i type="int" name="NELMHF">     1</i>
   <i type="int" name="DIM">     3</i>
   <i type="int" name="IESPILON">     4</i>
   <i type="int" name="ANTIRES">     0</i>
   <i name="OMEGAMAX">    -30.00000000</i>
   <i name="OMEGAMIN">    -30.00000000</i>
   <i name="OMEGATL">   -200.00000000</i>
   <i type="int" name="OMEGAGRID">     0</i>
   <i name="CSHIFT">     -0.10000000</i>
   <i type="logical" name="LSELFENERGY"> F  </i>
   <i type="logical" name="LSPECTRAL"> F  </i>
   <i type="logical" name="LSPECTRALGW"> F  </i>
   <i type="logical" name="LSINGLES"> F  </i>
   <i type="logical" name="LFERMIGW"> F  </i>
   <i type="logical" name="ODDONLYGW"> F  </i>
   <i type="logical" name="EVENONLYGW"> F  </i>
   <i type="int" name="NKREDLFX">     1</i>
   <i type="int" name="NKREDLFY">     1</i>
   <i type="int" name="NKREDLFZ">     1</i>
   <i type="int" name="MAXMEM">  2800</i>
   <i type="int" name="TELESCOPE">     0</i>
   <i type="int" name="NTAUPAR">    -1</i>
   <i type="int" name="NOMEGAPAR">    -1</i>
   <i name="DAMP_NEWTON">      0.80000001</i>
   <i name="LAMBDA">      1.00000000</i>
  </separator>
  <separator name="External order field" >
   <i name="OFIELD_KAPPA">      0.00000000</i>
   <v name="OFIELD_K">      0.00000000      0.00000000      0.00000000</v>
   <i name="OFIELD_Q6_NEAR">      0.00000000</i>
   <i name="OFIELD_Q6_FAR">      0.00000000</i>
   <i name="OFIELD_A">      0.00000000</i>
  </separator>
  <separator name="solvation model" >
   <i type="logical" name="LSOL"> F  </i>
  </separator>
 </parameters>
 <atominfo>
  <atoms>     252 </atoms>
  <types>       1 </types>
  <array name="atoms" >
   <dimension dim="1">ion</dimension>
   <field type="string">element</field>
   <field type="int">atomtype</field>
   <set>
    <rc><c>Al</c><c>   1</c></rc>
    <rc><c>Al</c><c>   1</c></rc>
    <rc><c>Al</c><c>   1</c></rc>
    <rc><c>Al</c><c>   1</c></rc>
    <rc><c>Al</c><c>   1</c></rc>
    <rc><c>Al</c><c>   1</c></rc>
    <rc><c>Al</c><c>   1</c></rc>
    <rc><c>Al</c><c>   1</c></rc>
    <rc><c>Al</c><c>   1</c></rc>
    <rc><c>Al</c><c>   1</c></rc>
    <rc><c>Al</c><c>   1</c></rc>
    <rc><c>Al</c><c>   1</c></rc>
    <rc><c>Al</c><c>   1</c></rc>
    <rc><c>Al</c><c>   1</c></rc>
    <rc><c>Al</c><c>   1</c></rc>
    <rc><c>Al</c><c>   1</c></rc>
    <rc><c>Al</c><c>   1</c></rc>
    <rc><c>Al</c><c>   1</c></rc>
    <rc><c>Al</c><c>   1</c></rc>
    <rc><c>Al</c><c>   1</c></rc>
    <rc><c>Al</c><c>   1</c></rc>
    <rc><c>Al</c><c>   1</c></rc>
    <rc><c>Al</c><c>   1</c></rc>
    <rc><c>Al</c><c>   1</c></rc>
    <rc><c>Al</c><c>   1</c></rc>
    <rc><c>Al</c><c>   1</c></rc>
    <rc><c>Al</c><c>   1</c></rc>
    <rc><c>Al</c><c>   1</c></rc>
    <rc><c>Al</c><c>   1</c></rc>
    <rc><c>Al</c><c>   1</c></rc>
    <rc><c>Al</c><c>   1</c></rc>
    <rc><c>Al</c><c>   1</c></rc>
    <rc><c>Al</c><c>   1</c></rc>
    <rc><c>Al</c><c>   1</c></rc>
    <rc><c>Al</c><c>   1</c></rc>
    <rc><c>Al</c><c>   1</c></rc>
    <rc><c>Al</c><c>   1</c></rc>
    <rc><c>Al</c><c>   1</c></rc>
    <rc><c>Al</c><c>   1</c></rc>
    <rc><c>Al</c><c>   1</c></rc>
    <rc><c>Al</c><c>   1</c></rc>
    <rc><c>Al</c><c>   1</c></rc>
    <rc><c>Al</c><c>   1</c></rc>
    <rc><c>Al</c><c>   1</c></rc>
    <rc><c>Al</c><c>   1</c></rc>
    <rc><c>Al</c><c>   1</c></rc>
    <rc><c>Al</c><c>   1</c></rc>
    <rc><c>Al</c><c>   1</c></rc>
    <rc><c>Al</c><c>   1</c></rc>
    <rc><c>Al</c><c>   1</c></rc>
    <rc><c>Al</c><c>   1</c></rc>
    <rc><c>Al</c><c>   1</c></rc>
    <rc><c>Al</c><c>   1</c></rc>
    <rc><c>Al</c><c>   1</c></rc>
    <rc><c>Al</c><c>   1</c></rc>
    <rc><c>Al</c><c>   1</c></rc>
    <rc><c>Al</c><c>   1</c></rc>
    <rc><c>Al</c><c>   1</c></rc>
    <rc><c>Al</c><c>   1</c></rc>
    <rc><c>Al</c><c>   1</c></rc>
    <rc><c>Al</c><c>   1</c></rc>
    <rc><c>Al</c><c>   1</c></rc>
    <rc><c>Al</c><c>   1</c></rc>
    <rc><c>Al</c><c>   1</c></rc>
    <rc><c>Al</c><c>   1</c></rc>
    <rc><c>Al</c><c>   1</c></rc>
    <rc><c>Al</c><c>   1</c></rc>
    <rc><c>Al</c><c>   1</c></rc>
    <rc><c>Al</c><c>   1</c></rc>
    <rc><c>Al</c><c>   1</c></rc>
    <rc><c>Al</c><c>   1</c></rc>
    <rc><c>Al</c><c>   1</c></rc>
    <rc><c>Al</c><c>   1</c></rc>
    <rc><c>Al</c><c>   1</c></rc>
    <rc><c>Al</c><c>   1</c></rc>
    <rc><c>Al</c><c>   1</c></rc>
    <rc><c>Al</c><c>   1</c></rc>
    <rc><c>Al</c><c>   1</c></rc>
    <rc><c>Al</c><c>   1</c></rc>
    <rc><c>Al</c><c>   1</c></rc>
    <rc><c>Al</c><c>   1</c></rc>
    <rc><c>Al</c><c>   1</c></rc>
    <rc><c>Al</c><c>   1</c></rc>
    <rc><c>Al</c><c>   1</c></rc>
    <rc><c>Al</c><c>   1</c></rc>
    <rc><c>Al</c><c>   1</c></rc>
    <rc><c>Al</c><c>   1</c></rc>
    <rc><c>Al</c><c>   1</c></rc>
    <rc><c>Al</c><c>   1</c></rc>
    <rc><c>Al</c><c>   1</c></rc>
    <rc><c>Al</c><c>   1</c></rc>
    <rc><c>Al</c><c>   1</c></rc>
    <rc><c>Al</c><c>   1</c></rc>
    <rc><c>Al</c><c>   1</c></rc>
    <rc><c>Al</c><c>   1</c></rc>
    <rc><c>Al</c><c>   1</c></rc>
    <rc><c>Al</c><c>   1</c></rc>
    <rc><c>Al</c><c>   1</c></rc>
    <rc><c>Al</c><c>   1</c></rc>
    <rc><c>Al</c><c>   1</c></rc>
    <rc><c>Al</c><c>   1</c></rc>
    <rc><c>Al</c><c>   1</c></rc>
    <rc><c>Al</c><c>   1</c></rc>
    <rc><c>Al</c><c>   1</c></rc>
    <rc><c>Al</c><c>   1</c></rc>
    <rc><c>Al</c><c>   1</c></rc>
    <rc><c>Al</c><c>   1</c></rc>
    <rc><c>Al</c><c>   1</c></rc>
    <rc><c>Al</c><c>   1</c></rc>
    <rc><c>Al</c><c>   1</c></rc>
    <rc><c>Al</c><c>   1</c></rc>
    <rc><c>Al</c><c>   1</c></rc>
    <rc><c>Al</c><c>   1</c></rc>
    <rc><c>Al</c><c>   1</c></rc>
    <rc><c>Al</c><c>   1</c></rc>
    <rc><c>Al</c><c>   1</c></rc>
    <rc><c>Al</c><c>   1</c></rc>
    <rc><c>Al</c><c>   1</c></rc>
    <rc><c>Al</c><c>   1</c></rc>
    <rc><c>Al</c><c>   1</c></rc>
    <rc><c>Al</c><c>   1</c></rc>
    <rc><c>Al</c><c>   1</c></rc>
    <rc><c>Al</c><c>   1</c></rc>
    <rc><c>Al</c><c>   1</c></rc>
    <rc><c>Al</c><c>   1</c></rc>
    <rc><c>Al</c><c>   1</c></rc>
    <rc><c>Al</c><c>   1</c></rc>
    <rc><c>Al</c><c>   1</c></rc>
    <rc><c>Al</c><c>   1</c></rc>
    <rc><c>Al</c><c>   1</c></rc>
    <rc><c>Al</c><c>   1</c></rc>
    <rc><c>Al</c><c>   1</c></rc>
    <rc><c>Al</c><c>   1</c></rc>
    <rc><c>Al</c><c>   1</c></rc>
    <rc><c>Al</c><c>   1</c></rc>
    <rc><c>Al</c><c>   1</c></rc>
    <rc><c>Al</c><c>   1</c></rc>
    <rc><c>Al</c><c>   1</c></rc>
    <rc><c>Al</c><c>   1</c></rc>
    <rc><c>Al</c><c>   1</c></rc>
    <rc><c>Al</c><c>   1</c></rc>
    <rc><c>Al</c><c>   1</c></rc>
    <rc><c>Al</c><c>   1</c></rc>
    <rc><c>Al</c><c>   1</c></rc>
    <rc><c>Al</c><c>   1</c></rc>
    <rc><c>Al</c><c>   1</c></rc>
    <rc><c>Al</c><c>   1</c></rc>
    <rc><c>Al</c><c>   1</c></rc>
    <rc><c>Al</c><c>   1</c></rc>
    <rc><c>Al</c><c>   1</c></rc>
    <rc><c>Al</c><c>   1</c></rc>
    <rc><c>Al</c><c>   1</c></rc>
    <rc><c>Al</c><c>   1</c></rc>
    <rc><c>Al</c><c>   1</c></rc>
    <rc><c>Al</c><c>   1</c></rc>
    <rc><c>Al</c><c>   1</c></rc>
    <rc><c>Al</c><c>   1</c></rc>
    <rc><c>Al</c><c>   1</c></rc>
    <rc><c>Al</c><c>   1</c></rc>
    <rc><c>Al</c><c>   1</c></rc>
    <rc><c>Al</c><c>   1</c></rc>
    <rc><c>Al</c><c>   1</c></rc>
    <rc><c>Al</c><c>   1</c></rc>
    <rc><c>Al</c><c>   1</c></rc>
    <rc><c>Al</c><c>   1</c></rc>
    <rc><c>Al</c><c>   1</c></rc>
    <rc><c>Al</c><c>   1</c></rc>
    <rc><c>Al</c><c>   1</c></rc>
    <rc><c>Al</c><c>   1</c></rc>
    <rc><c>Al</c><c>   1</c></rc>
    <rc><c>Al</c><c>   1</c></rc>
    <rc><c>Al</c><c>   1</c></rc>
    <rc><c>Al</c><c>   1</c></rc>
    <rc><c>Al</c><c>   1</c></rc>
    <rc><c>Al</c><c>   1</c></rc>
    <rc><c>Al</c><c>   1</c></rc>
    <rc><c>Al</c><c>   1</c></rc>
    <rc><c>Al</c><c>   1</c></rc>
    <rc><c>Al</c><c>   1</c></rc>
    <rc><c>Al</c><c>   1</c></rc>
    <rc><c>Al</c><c>   1</c></rc>
    <rc><c>Al</c><c>   1</c></rc>
    <rc><c>Al</c><c>   1</c></rc>
    <rc><c>Al</c><c>   1</c></rc>
    <rc><c>Al</c><c>   1</c></rc>
    <rc><c>Al</c><c>   1</c></rc>
    <rc><c>Al</c><c>   1</c></rc>
    <rc><c>Al</c><c>   1</c></rc>
    <rc><c>Al</c><c>   1</c></rc>
    <rc><c>Al</c><c>   1</c></rc>
    <rc><c>Al</c><c>   1</c></rc>
    <rc><c>Al</c><c>   1</c></rc>
    <rc><c>Al</c><c>   1</c></rc>
    <rc><c>Al</c><c>   1</c></rc>
    <rc><c>Al</c><c>   1</c></rc>
    <rc><c>Al</c><c>   1</c></rc>
    <rc><c>Al</c><c>   1</c></rc>
    <rc><c>Al</c><c>   1</c></rc>
    <rc><c>Al</c><c>   1</c></rc>
    <rc><c>Al</c><c>   1</c></rc>
    <rc><c>Al</c><c>   1</c></rc>
    <rc><c>Al</c><c>   1</c></rc>
    <rc><c>Al</c><c>   1</c></rc>
    <rc><c>Al</c><c>   1</c></rc>
    <rc><c>Al</c><c>   1</c></rc>
    <rc><c>Al</c><c>   1</c></rc>
    <rc><c>Al</c><c>   1</c></rc>
    <rc><c>Al</c><c>   1</c></rc>
    <rc><c>Al</c><c>   1</c></rc>
    <rc><c>Al</c><c>   1</c></rc>
    <rc><c>Al</c><c>   1</c></rc>
    <rc><c>Al</c><c>   1</c></rc>
    <rc><c>Al</c><c>   1</c></rc>
    <rc><c>Al</c><c>   1</c></rc>
    <rc><c>Al</c><c>   1</c></rc>
    <rc><c>Al</c><c>   1</c></rc>
    <rc><c>Al</c><c>   1</c></rc>
    <rc><c>Al</c><c>   1</c></rc>
    <rc><c>Al</c><c>   1</c></rc>
    <rc><c>Al</c><c>   1</c></rc>
    <rc><c>Al</c><c>   1</c></rc>
    <rc><c>Al</c><c>   1</c></rc>
    <rc><c>Al</c><c>   1</c></rc>
    <rc><c>Al</c><c>   1</c></rc>
    <rc><c>Al</c><c>   1</c></rc>
    <rc><c>Al</c><c>   1</c></rc>
    <rc><c>Al</c><c>   1</c></rc>
    <rc><c>Al</c><c>   1</c></rc>
    <rc><c>Al</c><c>   1</c></rc>
    <rc><c>Al</c><c>   1</c></rc>
    <rc><c>Al</c><c>   1</c></rc>
    <rc><c>Al</c><c>   1</c></rc>
    <rc><c>Al</c><c>   1</c></rc>
    <rc><c>Al</c><c>   1</c></rc>
    <rc><c>Al</c><c>   1</c></rc>
    <rc><c>Al</c><c>   1</c></rc>
    <rc><c>Al</c><c>   1</c></rc>
    <rc><c>Al</c><c>   1</c></rc>
    <rc><c>Al</c><c>   1</c></rc>
    <rc><c>Al</c><c>   1</c></rc>
    <rc><c>Al</c><c>   1</c></rc>
    <rc><c>Al</c><c>   1</c></rc>
    <rc><c>Al</c><c>   1</c></rc>
    <rc><c>Al</c><c>   1</c></rc>
    <rc><c>Al</c><c>   1</c></rc>
    <rc><c>Al</c><c>   1</c></rc>
    <rc><c>Al</c><c>   1</c></rc>
    <rc><c>Al</c><c>   1</c></rc>
    <rc><c>Al</c><c>   1</c></rc>
    <rc><c>Al</c><c>   1</c></rc>
    <rc><c>Al</c><c>   1</c></rc>
    <rc><c>Al</c><c>   1</c></rc>
   </set>
  </array>
  <array name="atomtypes" >
   <dimension dim="1">type</dimension>
   <field type="int">atomspertype</field>
   <field type="string">element</field>
   <field>mass</field>
   <field>valence</field>
   <field type="string">pseudopotential</field>
   <set>
    <rc><c> 252</c><c>Al</c><c>     26.98200000</c><c>      3.00000000</c><c>  PAW Al_GW 19Mar2012                   </c></rc>
   </set>
  </array>
 </atominfo>
 <structure name="initialpos" >
  <crystal>
   <varray name="basis" >
    <v>       0.00000000     -17.18057346       0.00000000 </v>
    <v>       0.00000000      -8.59028673     -14.87881307 </v>
    <v>      30.00000000       0.00000000       0.00000000 </v>
   </varray>
   <i name="volume">   7668.79622957 </i>
   <varray name="rec_basis" >
    <v>       0.00000000      -0.05820527       0.03360483 </v>
    <v>       0.00000000       0.00000000      -0.06720966 </v>
    <v>       0.03333333       0.00000000       0.00000000 </v>
   </varray>
  </crystal>
  <varray name="positions" >
   <v>       0.44444444       0.44444444       0.07793266 </v>
   <v>       0.44444444       0.77777778       0.07793266 </v>
   <v>       0.44444444       0.11111111       0.07793266 </v>
   <v>       0.77777778       0.44444444       0.07793266 </v>
   <v>       0.77777778       0.77777778       0.07793266 </v>
   <v>       0.77777778       0.11111111       0.07793266 </v>
   <v>       0.11111111       0.44444444       0.07793266 </v>
   <v>       0.11111111       0.77777778       0.07793266 </v>
   <v>       0.11111111       0.11111111       0.07793266 </v>
   <v>       0.55555556       0.55555556       0.15586533 </v>
   <v>       0.55555556       0.88888889       0.15586533 </v>
   <v>       0.55555556       0.22222222       0.15586533 </v>
   <v>       0.88888889       0.55555556       0.15586533 </v>
   <v>       0.88888889       0.88888889       0.15586533 </v>
   <v>       0.88888889       0.22222222       0.15586533 </v>
   <v>       0.22222222       0.55555556       0.15586533 </v>
   <v>       0.22222222       0.88888889       0.15586533 </v>
   <v>       0.22222222       0.22222222       0.15586533 </v>
   <v>       0.66666667       0.66666667       0.23379799 </v>
   <v>       0.66666667       0.00000000       0.23379799 </v>
   <v>       0.66666667       0.33333333       0.23379799 </v>
   <v>       0.00000000       0.66666667       0.23379799 </v>
   <v>       0.00000000       0.00000000       0.23379799 </v>
   <v>       0.00000000       0.33333333       0.23379799 </v>
   <v>       0.33333333       0.66666667       0.23379799 </v>
   <v>       0.33333333       0.00000000       0.23379799 </v>
   <v>       0.33333333       0.33333333       0.23379799 </v>
   <v>       0.77777778       0.77777778       0.31173066 </v>
   <v>       0.77777778       0.11111111       0.31173066 </v>
   <v>       0.77777778       0.44444444       0.31173066 </v>
   <v>       0.11111111       0.77777778       0.31173066 </v>
   <v>       0.11111111       0.11111111       0.31173066 </v>
   <v>       0.11111111       0.44444444       0.31173066 </v>
   <v>       0.44444444       0.77777778       0.31173066 </v>
   <v>       0.44444444       0.11111111       0.31173066 </v>
   <v>       0.44444444       0.44444444       0.31173066 </v>
   <v>       0.88888889       0.88888889       0.38966332 </v>
   <v>       0.88888889       0.22222222       0.38966332 </v>
   <v>       0.88888889       0.55555556       0.38966332 </v>
   <v>       0.22222222       0.88888889       0.38966332 </v>
   <v>       0.22222222       0.22222222       0.38966332 </v>
   <v>       0.22222222       0.55555556       0.38966332 </v>
   <v>       0.55555556       0.88888889       0.38966332 </v>
   <v>       0.55555556       0.22222222       0.38966332 </v>
   <v>       0.55555556       0.55555556       0.38966332 </v>
   <v>       0.00000000       0.00000000       0.46759598 </v>
   <v>       0.00000000       0.33333333       0.46759598 </v>
   <v>       0.00000000       0.66666667       0.46759598 </v>
   <v>       0.33333333       0.00000000       0.46759598 </v>
   <v>       0.33333333       0.33333333       0.46759598 </v>
   <v>       0.33333333       0.66666667       0.46759598 </v>
   <v>       0.66666667       0.00000000       0.46759598 </v>
   <v>       0.66666667       0.33333333       0.46759598 </v>
   <v>       0.66666667       0.66666667       0.46759598 </v>
   <v>       0.11111111       0.11111111       0.54552865 </v>
   <v>       0.11111111       0.44444444       0.54552865 </v>
   <v>       0.11111111       0.77777778       0.54552865 </v>
   <v>       0.44444444       0.11111111       0.54552865 </v>
   <v>       0.44444444       0.44444444       0.54552865 </v>
   <v>       0.44444444       0.77777778       0.54552865 </v>
   <v>       0.77777778       0.11111111       0.54552865 </v>
   <v>       0.77777778       0.44444444       0.54552865 </v>
   <v>       0.77777778       0.77777778       0.54552865 </v>
   <v>       0.27777778       0.27777778       0.07793266 </v>
   <v>       0.27777778       0.61111111       0.07793266 </v>
   <v>       0.27777778       0.94444444       0.07793266 </v>
   <v>       0.61111111       0.27777778       0.07793266 </v>
   <v>       0.61111111       0.61111111       0.07793266 </v>
   <v>       0.61111111       0.94444444       0.07793266 </v>
   <v>       0.94444444       0.27777778       0.07793266 </v>
   <v>       0.94444444       0.61111111       0.07793266 </v>
   <v>       0.94444444       0.94444444       0.07793266 </v>
   <v>       0.38888889       0.38888889       0.15586533 </v>
   <v>       0.38888889       0.72222222       0.15586533 </v>
   <v>       0.38888889       0.05555556       0.15586533 </v>
   <v>       0.72222222       0.38888889       0.15586533 </v>
   <v>       0.72222222       0.72222222       0.15586533 </v>
   <v>       0.72222222       0.05555556       0.15586533 </v>
   <v>       0.05555556       0.38888889       0.15586533 </v>
   <v>       0.05555556       0.72222222       0.15586533 </v>
   <v>       0.05555556       0.05555556       0.15586533 </v>
   <v>       0.50000000       0.50000000       0.23379799 </v>
   <v>       0.50000000       0.83333333       0.23379799 </v>
   <v>       0.50000000       0.16666667       0.23379799 </v>
   <v>       0.83333333       0.50000000       0.23379799 </v>
   <v>       0.83333333       0.83333333       0.23379799 </v>
   <v>       0.83333333       0.16666667       0.23379799 </v>
   <v>       0.16666667       0.50000000       0.23379799 </v>
   <v>       0.16666667       0.83333333       0.23379799 </v>
   <v>       0.16666667       0.16666667       0.23379799 </v>
   <v>       0.61111111       0.61111111       0.31173066 </v>
   <v>       0.61111111       0.94444444       0.31173066 </v>
   <v>       0.61111111       0.27777778       0.31173066 </v>
   <v>       0.94444444       0.61111111       0.31173066 </v>
   <v>       0.94444444       0.94444444       0.31173066 </v>
   <v>       0.94444444       0.27777778       0.31173066 </v>
   <v>       0.27777778       0.61111111       0.31173066 </v>
   <v>       0.27777778       0.94444444       0.31173066 </v>
   <v>       0.27777778       0.27777778       0.31173066 </v>
   <v>       0.72222222       0.72222222       0.38966332 </v>
   <v>       0.72222222       0.05555556       0.38966332 </v>
   <v>       0.72222222       0.38888889       0.38966332 </v>
   <v>       0.05555556       0.72222222       0.38966332 </v>
   <v>       0.05555556       0.05555556       0.38966332 </v>
   <v>       0.05555556       0.38888889       0.38966332 </v>
   <v>       0.38888889       0.72222222       0.38966332 </v>
   <v>       0.38888889       0.05555556       0.38966332 </v>
   <v>       0.38888889       0.38888889       0.38966332 </v>
   <v>       0.83333333       0.83333333       0.46759598 </v>
   <v>       0.83333333       0.16666667       0.46759598 </v>
   <v>       0.83333333       0.50000000       0.46759598 </v>
   <v>       0.16666667       0.83333333       0.46759598 </v>
   <v>       0.16666667       0.16666667       0.46759598 </v>
   <v>       0.16666667       0.50000000       0.46759598 </v>
   <v>       0.50000000       0.83333333       0.46759598 </v>
   <v>       0.50000000       0.16666667       0.46759598 </v>
   <v>       0.50000000       0.50000000       0.46759598 </v>
   <v>       0.94444444       0.94444444       0.54552865 </v>
   <v>       0.94444444       0.27777778       0.54552865 </v>
   <v>       0.94444444       0.61111111       0.54552865 </v>
   <v>       0.27777778       0.94444444       0.54552865 </v>
   <v>       0.27777778       0.27777778       0.54552865 </v>
   <v>       0.27777778       0.61111111       0.54552865 </v>
   <v>       0.61111111       0.94444444       0.54552865 </v>
   <v>       0.61111111       0.27777778       0.54552865 </v>
   <v>       0.61111111       0.61111111       0.54552865 </v>
   <v>       0.27777778       0.44444444       0.07793266 </v>
   <v>       0.27777778       0.77777778       0.07793266 </v>
   <v>       0.27777778       0.11111111       0.07793266 </v>
   <v>       0.61111111       0.44444444       0.07793266 </v>
   <v>       0.61111111       0.77777778       0.07793266 </v>
   <v>       0.61111111       0.11111111       0.07793266 </v>
   <v>       0.94444444       0.44444444       0.07793266 </v>
   <v>       0.94444444       0.77777778       0.07793266 </v>
   <v>       0.94444444       0.11111111       0.07793266 </v>
   <v>       0.38888889       0.55555556       0.15586533 </v>
   <v>       0.38888889       0.88888889       0.15586533 </v>
   <v>       0.38888889       0.22222222       0.15586533 </v>
   <v>       0.72222222       0.55555556       0.15586533 </v>
   <v>       0.72222222       0.88888889       0.15586533 </v>
   <v>       0.72222222       0.22222222       0.15586533 </v>
   <v>       0.05555556       0.55555556       0.15586533 </v>
   <v>       0.05555556       0.88888889       0.15586533 </v>
   <v>       0.05555556       0.22222222       0.15586533 </v>
   <v>       0.50000000       0.66666667       0.23379799 </v>
   <v>       0.50000000       0.00000000       0.23379799 </v>
   <v>       0.50000000       0.33333333       0.23379799 </v>
   <v>       0.83333333       0.66666667       0.23379799 </v>
   <v>       0.83333333       0.00000000       0.23379799 </v>
   <v>       0.83333333       0.33333333       0.23379799 </v>
   <v>       0.16666667       0.66666667       0.23379799 </v>
   <v>       0.16666667       0.00000000       0.23379799 </v>
   <v>       0.16666667       0.33333333       0.23379799 </v>
   <v>       0.61111111       0.77777778       0.31173066 </v>
   <v>       0.61111111       0.11111111       0.31173066 </v>
   <v>       0.61111111       0.44444444       0.31173066 </v>
   <v>       0.94444444       0.77777778       0.31173066 </v>
   <v>       0.94444444       0.11111111       0.31173066 </v>
   <v>       0.94444444       0.44444444       0.31173066 </v>
   <v>       0.27777778       0.77777778       0.31173066 </v>
   <v>       0.27777778       0.11111111       0.31173066 </v>
   <v>       0.27777778       0.44444444       0.31173066 </v>
   <v>       0.72222222       0.88888889       0.38966332 </v>
   <v>       0.72222222       0.22222222       0.38966332 </v>
   <v>       0.72222222       0.55555556       0.38966332 </v>
   <v>       0.05555556       0.88888889       0.38966332 </v>
   <v>       0.05555556       0.22222222       0.38966332 </v>
   <v>       0.05555556       0.55555556       0.38966332 </v>
   <v>       0.38888889       0.88888889       0.38966332 </v>
   <v>       0.38888889       0.22222222       0.38966332 </v>
   <v>       0.38888889       0.55555556       0.38966332 </v>
   <v>       0.83333333       0.00000000       0.46759598 </v>
   <v>       0.83333333       0.33333333       0.46759598 </v>
   <v>       0.83333333       0.66666667       0.46759598 </v>
   <v>       0.16666667       0.00000000       0.46759598 </v>
   <v>       0.16666667       0.33333333       0.46759598 </v>
   <v>       0.16666667       0.66666667       0.46759598 </v>
   <v>       0.50000000       0.00000000       0.46759598 </v>
   <v>       0.50000000       0.33333333       0.46759598 </v>
   <v>       0.50000000       0.66666667       0.46759598 </v>
   <v>       0.94444444       0.11111111       0.54552865 </v>
   <v>       0.94444444       0.44444444       0.54552865 </v>
   <v>       0.94444444       0.77777778       0.54552865 </v>
   <v>       0.27777778       0.11111111       0.54552865 </v>
   <v>       0.27777778       0.44444444       0.54552865 </v>
   <v>       0.27777778       0.77777778       0.54552865 </v>
   <v>       0.61111111       0.11111111       0.54552865 </v>
   <v>       0.61111111       0.44444444       0.54552865 </v>
   <v>       0.61111111       0.77777778       0.54552865 </v>
   <v>       0.44444444       0.27777778       0.07793266 </v>
   <v>       0.44444444       0.61111111       0.07793266 </v>
   <v>       0.44444444       0.94444444       0.07793266 </v>
   <v>       0.77777778       0.27777778       0.07793266 </v>
   <v>       0.77777778       0.61111111       0.07793266 </v>
   <v>       0.77777778       0.94444444       0.07793266 </v>
   <v>       0.11111111       0.27777778       0.07793266 </v>
   <v>       0.11111111       0.61111111       0.07793266 </v>
   <v>       0.11111111       0.94444444       0.07793266 </v>
   <v>       0.55555556       0.38888889       0.15586533 </v>
   <v>       0.55555556       0.72222222       0.15586533 </v>
   <v>       0.55555556       0.05555556       0.15586533 </v>
   <v>       0.88888889       0.38888889       0.15586533 </v>
   <v>       0.88888889       0.72222222       0.15586533 </v>
   <v>       0.88888889       0.05555556       0.15586533 </v>
   <v>       0.22222222       0.38888889       0.15586533 </v>
   <v>       0.22222222       0.72222222       0.15586533 </v>
   <v>       0.22222222       0.05555556       0.15586533 </v>
   <v>       0.66666667       0.50000000       0.23379799 </v>
   <v>       0.66666667       0.83333333       0.23379799 </v>
   <v>       0.66666667       0.16666667       0.23379799 </v>
   <v>       0.00000000       0.50000000       0.23379799 </v>
   <v>       0.00000000       0.83333333       0.23379799 </v>
   <v>       0.00000000       0.16666667       0.23379799 </v>
   <v>       0.33333333       0.50000000       0.23379799 </v>
   <v>       0.33333333       0.83333333       0.23379799 </v>
   <v>       0.33333333       0.16666667       0.23379799 </v>
   <v>       0.77777778       0.61111111       0.31173066 </v>
   <v>       0.77777778       0.94444444       0.31173066 </v>
   <v>       0.77777778       0.27777778       0.31173066 </v>
   <v>       0.11111111       0.61111111       0.31173066 </v>
   <v>       0.11111111       0.94444444       0.31173066 </v>
   <v>       0.11111111       0.27777778       0.31173066 </v>
   <v>       0.44444444       0.61111111       0.31173066 </v>
   <v>       0.44444444       0.94444444       0.31173066 </v>
   <v>       0.44444444       0.27777778       0.31173066 </v>
   <v>       0.88888889       0.72222222       0.38966332 </v>
   <v>       0.88888889       0.05555556       0.38966332 </v>
   <v>       0.88888889       0.38888889       0.38966332 </v>
   <v>       0.22222222       0.72222222       0.38966332 </v>
   <v>       0.22222222       0.05555556       0.38966332 </v>
   <v>       0.22222222       0.38888889       0.38966332 </v>
   <v>       0.55555556       0.72222222       0.38966332 </v>
   <v>       0.55555556       0.05555556       0.38966332 </v>
   <v>       0.55555556       0.38888889       0.38966332 </v>
   <v>       0.00000000       0.83333333       0.46759598 </v>
   <v>       0.00000000       0.16666667       0.46759598 </v>
   <v>       0.00000000       0.50000000       0.46759598 </v>
   <v>       0.33333333       0.83333333       0.46759598 </v>
   <v>       0.33333333       0.16666667       0.46759598 </v>
   <v>       0.33333333       0.50000000       0.46759598 </v>
   <v>       0.66666667       0.83333333       0.46759598 </v>
   <v>       0.66666667       0.16666667       0.46759598 </v>
   <v>       0.66666667       0.50000000       0.46759598 </v>
   <v>       0.11111111       0.94444444       0.54552865 </v>
   <v>       0.11111111       0.27777778       0.54552865 </v>
   <v>       0.11111111       0.61111111       0.54552865 </v>
   <v>       0.44444444       0.94444444       0.54552865 </v>
   <v>       0.44444444       0.27777778       0.54552865 </v>
   <v>       0.44444444       0.61111111       0.54552865 </v>
   <v>       0.77777778       0.94444444       0.54552865 </v>
   <v>       0.77777778       0.27777778       0.54552865 </v>
   <v>       0.77777778       0.61111111       0.54552865 </v>
  </varray>
 </structure>
 <calculation>
  <scstep>
   <time name="dav">    4.34    4.35</time>
   <time name="total">    4.82    4.84</time>
   <energy>
    <i name="alphaZ">    494.38529243 </i>
    <i name="ewald">  88537.98879136 </i>
    <i name="hartreedc">-102102.12922603 </i>
    <i name="XCdc">  -6645.32593543 </i>
    <i name="pawpsdc">  16682.43960858 </i>
    <i name="pawaedc">  -8629.89643091 </i>
    <i name="eentropy">     -0.06634182 </i>
    <i name="bandstr">    423.57954093 </i>
    <i name="atom">  13491.60232749 </i>
    <i name="e_fr_energy">   2252.57762661 </i>
    <i name="e_wo_entrp">   2252.64396843 </i>
    <i name="e_0_energy">   2252.61079752 </i>
   </energy>
  </scstep>
  <scstep>
   <time name="dav">    5.44    5.44</time>
   <time name="total">    5.44    5.44</time>
   <energy>
    <i name="e_fr_energy">   -726.80144766 </i>
    <i name="e_wo_entrp">   -726.71943820 </i>
    <i name="e_0_energy">   -726.76044293 </i>
   </energy>
  </scstep>
  <scstep>
   <time name="dav">    5.48    5.48</time>
   <time name="total">    5.48    5.48</time>
   <energy>
    <i name="e_fr_energy">   -936.27561461 </i>
    <i name="e_wo_entrp">   -936.08823340 </i>
    <i name="e_0_energy">   -936.18192401 </i>
   </energy>
  </scstep>
  <scstep>
   <time name="dav">    5.79    5.79</time>
   <time name="total">    5.79    5.80</time>
   <energy>
    <i name="e_fr_energy">   -946.02888509 </i>
    <i name="e_wo_entrp">   -945.81017957 </i>
    <i name="e_0_energy">   -945.91953233 </i>
   </energy>
  </scstep>
  <scstep>
   <time name="dav">    6.21    6.21</time>
   <time name="total">    7.10    7.11</time>
   <energy>
    <i name="e_fr_energy">   -946.49610635 </i>
    <i name="e_wo_entrp">   -946.27804856 </i>
    <i name="e_0_energy">   -946.38707745 </i>
   </energy>
  </scstep>
  <scstep>
   <time name="dav">    5.99    5.99</time>
   <time name="total">    7.36    7.36</time>
   <energy>
    <i name="e_fr_energy">   -961.14750709 </i>
    <i name="e_wo_entrp">   -960.94425489 </i>
    <i name="e_0_energy">   -961.04588099 </i>
   </energy>
  </scstep>
  <scstep>
   <time name="dav">    5.25    5.25</time>
   <time name="total">    6.59    6.59</time>
   <energy>
    <i name="e_fr_energy">   -922.19031882 </i>
    <i name="e_wo_entrp">   -922.13526927 </i>
    <i name="e_0_energy">   -922.16279404 </i>
   </energy>
  </scstep>
  <scstep>
   <time name="dav">    4.96    4.96</time>
   <time name="total">    6.32    6.32</time>
   <energy>
    <i name="e_fr_energy">   -921.45899420 </i>
    <i name="e_wo_entrp">   -921.40346504 </i>
    <i name="e_0_energy">   -921.43122962 </i>
   </energy>
  </scstep>
  <scstep>
   <time name="dav">    4.90    4.90</time>
   <time name="total">    6.25    6.25</time>
   <energy>
    <i name="e_fr_energy">   -919.59287393 </i>
    <i name="e_wo_entrp">   -919.53441615 </i>
    <i name="e_0_energy">   -919.56364504 </i>
   </energy>
  </scstep>
  <scstep>
   <time name="dav">    5.42    5.42</time>
   <time name="total">    6.77    6.78</time>
   <energy>
    <i name="e_fr_energy">   -919.50160807 </i>
    <i name="e_wo_entrp">   -919.44106310 </i>
    <i name="e_0_energy">   -919.47133559 </i>
   </energy>
  </scstep>
  <scstep>
   <time name="dav">    4.86    4.86</time>
   <time name="total">    6.22    6.22</time>
   <energy>
    <i name="e_fr_energy">   -919.45006322 </i>
    <i name="e_wo_entrp">   -919.38835217 </i>
    <i name="e_0_energy">   -919.41920769 </i>
   </energy>
  </scstep>
  <scstep>
   <time name="dav">    5.09    5.09</time>
   <time name="total">    6.45    6.45</time>
   <energy>
    <i name="e_fr_energy">   -919.42036577 </i>
    <i name="e_wo_entrp">   -919.35620709 </i>
    <i name="e_0_energy">   -919.38828643 </i>
   </energy>
  </scstep>
  <scstep>
   <time name="dav">    4.87    4.87</time>
   <time name="total">    6.25    6.25</time>
   <energy>
    <i name="e_fr_energy">   -919.43474249 </i>
    <i name="e_wo_entrp">   -919.36870369 </i>
    <i name="e_0_energy">   -919.40172309 </i>
   </energy>
  </scstep>
  <scstep>
   <time name="dav">    4.78    4.78</time>
   <time name="total">    6.18    6.18</time>
   <energy>
    <i name="e_fr_energy">   -919.44729697 </i>
    <i name="e_wo_entrp">   -919.38060647 </i>
    <i name="e_0_energy">   -919.41395172 </i>
   </energy>
  </scstep>
  <scstep>
   <time name="dav">    4.98    4.98</time>
   <time name="total">    6.37    6.37</time>
   <energy>
    <i name="e_fr_energy">   -919.45229895 </i>
    <i name="e_wo_entrp">   -919.38556914 </i>
    <i name="e_0_energy">   -919.41893404 </i>
   </energy>
  </scstep>
  <scstep>
   <time name="dav">    4.72    4.72</time>
   <time name="total">    6.12    6.12</time>
   <energy>
    <i name="e_fr_energy">   -919.45306171 </i>
    <i name="e_wo_entrp">   -919.38651927 </i>
    <i name="e_0_energy">   -919.41979049 </i>
   </energy>
  </scstep>
  <scstep>
   <time name="dav">    4.62    4.62</time>
   <time name="total">    6.02    6.03</time>
   <energy>
    <i name="e_fr_energy">   -919.45494286 </i>
    <i name="e_wo_entrp">   -919.38818651 </i>
    <i name="e_0_energy">   -919.42156469 </i>
   </energy>
  </scstep>
  <scstep>
   <time name="dav">    4.56    4.56</time>
   <time name="total">    5.99    6.00</time>
   <energy>
    <i name="e_fr_energy">   -919.45709328 </i>
    <i name="e_wo_entrp">   -919.39020183 </i>
    <i name="e_0_energy">   -919.42364756 </i>
   </energy>
  </scstep>
  <scstep>
   <time name="dav">    4.47    4.47</time>
   <time name="total">    5.91    5.91</time>
   <energy>
    <i name="e_fr_energy">   -919.45870035 </i>
    <i name="e_wo_entrp">   -919.39174184 </i>
    <i name="e_0_energy">   -919.42522110 </i>
   </energy>
  </scstep>
  <scstep>
   <time name="dav">    4.38    4.38</time>
   <time name="total">    5.84    5.84</time>
   <energy>
    <i name="e_fr_energy">   -919.45900936 </i>
    <i name="e_wo_entrp">   -919.39206940 </i>
    <i name="e_0_energy">   -919.42553938 </i>
   </energy>
  </scstep>
  <scstep>
   <time name="dav">    3.37    3.37</time>
   <time name="total">    4.82    4.82</time>
   <energy>
    <i name="e_fr_energy">   -919.45911215 </i>
    <i name="e_wo_entrp">   -919.39217237 </i>
    <i name="e_0_energy">   -919.42564226 </i>
   </energy>
  </scstep>
  <scstep>
   <time name="dav">    3.23    3.23</time>
   <time name="total">    4.70    4.70</time>
   <energy>
    <i name="e_fr_energy">   -919.45912075 </i>
    <i name="e_wo_entrp">   -919.39216916 </i>
    <i name="e_0_energy">   -919.42564495 </i>
   </energy>
  </scstep>
  <scstep>
   <time name="dav">    3.01    3.01</time>
   <time name="total">    3.48    3.48</time>
   <energy>
    <i name="alphaZ">    494.38529243 </i>
    <i name="ewald">  88537.98879136 </i>
    <i name="hartreedc">-103064.82933932 </i>
    <i name="XCdc">  -6613.84462536 </i>
    <i name="pawpsdc">  21295.56021775 </i>
    <i name="pawaedc"> -13246.65659002 </i>
    <i name="eentropy">     -0.06695164 </i>
    <i name="bandstr">  -1813.59824509 </i>
    <i name="atom">  13491.60232749 </i>
    <i name="e_fr_energy">   -919.45912241 </i>
    <i name="e_wo_entrp">   -919.39217077 </i>
    <i name="e_0_energy">   -919.42564659 </i>
   </energy>
  </scstep>
  <structure>
   <crystal>
    <varray name="basis" >
     <v>       0.00000000     -17.18057346       0.00000000 </v>
     <v>       0.00000000      -8.59028673     -14.87881307 </v>
     <v>      30.00000000       0.00000000       0.00000000 </v>
    </varray>
    <i name="volume">   7668.79622957 </i>
    <varray name="rec_basis" >
     <v>       0.00000000      -0.05820527       0.03360483 </v>
     <v>       0.00000000       0.00000000      -0.06720966 </v>
     <v>       0.03333333       0.00000000       0.00000000 </v>
    </varray>
   </crystal>
   <varray name="positions" >
    <v>       0.44444444       0.44444444       0.07793266 </v>
    <v>       0.44444444       0.77777778       0.07793266 </v>
    <v>       0.44444444       0.11111111       0.07793266 </v>
    <v>       0.77777778       0.44444444       0.07793266 </v>
    <v>       0.77777778       0.77777778       0.07793266 </v>
    <v>       0.77777778       0.11111111       0.07793266 </v>
    <v>       0.11111111       0.44444444       0.07793266 </v>
    <v>       0.11111111       0.77777778       0.07793266 </v>
    <v>       0.11111111       0.11111111       0.07793266 </v>
    <v>       0.55555556       0.55555556       0.15586533 </v>
    <v>       0.55555556       0.88888889       0.15586533 </v>
    <v>       0.55555556       0.22222222       0.15586533 </v>
    <v>       0.88888889       0.55555556       0.15586533 </v>
    <v>       0.88888889       0.88888889       0.15586533 </v>
    <v>       0.88888889       0.22222222       0.15586533 </v>
    <v>       0.22222222       0.55555556       0.15586533 </v>
    <v>       0.22222222       0.88888889       0.15586533 </v>
    <v>       0.22222222       0.22222222       0.15586533 </v>
    <v>       0.66666667       0.66666667       0.23379799 </v>
    <v>       0.66666667       0.00000000       0.23379799 </v>
    <v>       0.66666667       0.33333333       0.23379799 </v>
    <v>       0.00000000       0.66666667       0.23379799 </v>
    <v>       0.00000000       0.00000000       0.23379799 </v>
    <v>       0.00000000       0.33333333       0.23379799 </v>
    <v>       0.33333333       0.66666667       0.23379799 </v>
    <v>       0.33333333       0.00000000       0.23379799 </v>
    <v>       0.33333333       0.33333333       0.23379799 </v>
    <v>       0.77777778       0.77777778       0.31173066 </v>
    <v>       0.77777778       0.11111111       0.31173066 </v>
    <v>       0.77777778       0.44444444       0.31173066 </v>
    <v>       0.11111111       0.77777778       0.31173066 </v>
    <v>       0.11111111       0.11111111       0.31173066 </v>
    <v>       0.11111111       0.44444444       0.31173066 </v>
    <v>       0.44444444       0.77777778       0.31173066 </v>
    <v>       0.44444444       0.11111111       0.31173066 </v>
    <v>       0.44444444       0.44444444       0.31173066 </v>
    <v>       0.88888889       0.88888889       0.38966332 </v>
    <v>       0.88888889       0.22222222       0.38966332 </v>
    <v>       0.88888889       0.55555556       0.38966332 </v>
    <v>       0.22222222       0.88888889       0.38966332 </v>
    <v>       0.22222222       0.22222222       0.38966332 </v>
    <v>       0.22222222       0.55555556       0.38966332 </v>
    <v>       0.55555556       0.88888889       0.38966332 </v>
    <v>       0.55555556       0.22222222       0.38966332 </v>
    <v>       0.55555556       0.55555556       0.38966332 </v>
    <v>       0.00000000       0.00000000       0.46759598 </v>
    <v>       0.00000000       0.33333333       0.46759598 </v>
    <v>       0.00000000       0.66666667       0.46759598 </v>
    <v>       0.33333333       0.00000000       0.46759598 </v>
    <v>       0.33333333       0.33333333       0.46759598 </v>
    <v>       0.33333333       0.66666667       0.46759598 </v>
    <v>       0.66666667       0.00000000       0.46759598 </v>
    <v>       0.66666667       0.33333333       0.46759598 </v>
    <v>       0.66666667       0.66666667       0.46759598 </v>
    <v>       0.11111111       0.11111111       0.54552865 </v>
    <v>       0.11111111       0.44444444       0.54552865 </v>
    <v>       0.11111111       0.77777778       0.54552865 </v>
    <v>       0.44444444       0.11111111       0.54552865 </v>
    <v>       0.44444444       0.44444444       0.54552865 </v>
    <v>       0.44444444       0.77777778       0.54552865 </v>
    <v>       0.77777778       0.11111111       0.54552865 </v>
    <v>       0.77777778       0.44444444       0.54552865 </v>
    <v>       0.77777778       0.77777778       0.54552865 </v>
    <v>       0.27777778       0.27777778       0.07793266 </v>
    <v>       0.27777778       0.61111111       0.07793266 </v>
    <v>       0.27777778       0.94444444       0.07793266 </v>
    <v>       0.61111111       0.27777778       0.07793266 </v>
    <v>       0.61111111       0.61111111       0.07793266 </v>
    <v>       0.61111111       0.94444444       0.07793266 </v>
    <v>       0.94444444       0.27777778       0.07793266 </v>
    <v>       0.94444444       0.61111111       0.07793266 </v>
    <v>       0.94444444       0.94444444       0.07793266 </v>
    <v>       0.38888889       0.38888889       0.15586533 </v>
    <v>       0.38888889       0.72222222       0.15586533 </v>
    <v>       0.38888889       0.05555556       0.15586533 </v>
    <v>       0.72222222       0.38888889       0.15586533 </v>
    <v>       0.72222222       0.72222222       0.15586533 </v>
    <v>       0.72222222       0.05555556       0.15586533 </v>
    <v>       0.05555556       0.38888889       0.15586533 </v>
    <v>       0.05555556       0.72222222       0.15586533 </v>
    <v>       0.05555556       0.05555556       0.15586533 </v>
    <v>       0.50000000       0.50000000       0.23379799 </v>
    <v>       0.50000000       0.83333333       0.23379799 </v>
    <v>       0.50000000       0.16666667       0.23379799 </v>
    <v>       0.83333333       0.50000000       0.23379799 </v>
    <v>       0.83333333       0.83333333       0.23379799 </v>
    <v>       0.83333333       0.16666667       0.23379799 </v>
    <v>       0.16666667       0.50000000       0.23379799 </v>
    <v>       0.16666667       0.83333333       0.23379799 </v>
    <v>       0.16666667       0.16666667       0.23379799 </v>
    <v>       0.61111111       0.61111111       0.31173066 </v>
    <v>       0.61111111       0.94444444       0.31173066 </v>
    <v>       0.61111111       0.27777778       0.31173066 </v>
    <v>       0.94444444       0.61111111       0.31173066 </v>
    <v>       0.94444444       0.94444444       0.31173066 </v>
    <v>       0.94444444       0.27777778       0.31173066 </v>
    <v>       0.27777778       0.61111111       0.31173066 </v>
    <v>       0.27777778       0.94444444       0.31173066 </v>
    <v>       0.27777778       0.27777778       0.31173066 </v>
    <v>       0.72222222       0.72222222       0.38966332 </v>
    <v>       0.72222222       0.05555556       0.38966332 </v>
    <v>       0.72222222       0.38888889       0.38966332 </v>
    <v>       0.05555556       0.72222222       0.38966332 </v>
    <v>       0.05555556       0.05555556       0.38966332 </v>
    <v>       0.05555556       0.38888889       0.38966332 </v>
    <v>       0.38888889       0.72222222       0.38966332 </v>
    <v>       0.38888889       0.05555556       0.38966332 </v>
    <v>       0.38888889       0.38888889       0.38966332 </v>
    <v>       0.83333333       0.83333333       0.46759598 </v>
    <v>       0.83333333       0.16666667       0.46759598 </v>
    <v>       0.83333333       0.50000000       0.46759598 </v>
    <v>       0.16666667       0.83333333       0.46759598 </v>
    <v>       0.16666667       0.16666667       0.46759598 </v>
    <v>       0.16666667       0.50000000       0.46759598 </v>
    <v>       0.50000000       0.83333333       0.46759598 </v>
    <v>       0.50000000       0.16666667       0.46759598 </v>
    <v>       0.50000000       0.50000000       0.46759598 </v>
    <v>       0.94444444       0.94444444       0.54552865 </v>
    <v>       0.94444444       0.27777778       0.54552865 </v>
    <v>       0.94444444       0.61111111       0.54552865 </v>
    <v>       0.27777778       0.94444444       0.54552865 </v>
    <v>       0.27777778       0.27777778       0.54552865 </v>
    <v>       0.27777778       0.61111111       0.54552865 </v>
    <v>       0.61111111       0.94444444       0.54552865 </v>
    <v>       0.61111111       0.27777778       0.54552865 </v>
    <v>       0.61111111       0.61111111       0.54552865 </v>
    <v>       0.27777778       0.44444444       0.07793266 </v>
    <v>       0.27777778       0.77777778       0.07793266 </v>
    <v>       0.27777778       0.11111111       0.07793266 </v>
    <v>       0.61111111       0.44444444       0.07793266 </v>
    <v>       0.61111111       0.77777778       0.07793266 </v>
    <v>       0.61111111       0.11111111       0.07793266 </v>
    <v>       0.94444444       0.44444444       0.07793266 </v>
    <v>       0.94444444       0.77777778       0.07793266 </v>
    <v>       0.94444444       0.11111111       0.07793266 </v>
    <v>       0.38888889       0.55555556       0.15586533 </v>
    <v>       0.38888889       0.88888889       0.15586533 </v>
    <v>       0.38888889       0.22222222       0.15586533 </v>
    <v>       0.72222222       0.55555556       0.15586533 </v>
    <v>       0.72222222       0.88888889       0.15586533 </v>
    <v>       0.72222222       0.22222222       0.15586533 </v>
    <v>       0.05555556       0.55555556       0.15586533 </v>
    <v>       0.05555556       0.88888889       0.15586533 </v>
    <v>       0.05555556       0.22222222       0.15586533 </v>
    <v>       0.50000000       0.66666667       0.23379799 </v>
    <v>       0.50000000       0.00000000       0.23379799 </v>
    <v>       0.50000000       0.33333333       0.23379799 </v>
    <v>       0.83333333       0.66666667       0.23379799 </v>
    <v>       0.83333333       0.00000000       0.23379799 </v>
    <v>       0.83333333       0.33333333       0.23379799 </v>
    <v>       0.16666667       0.66666667       0.23379799 </v>
    <v>       0.16666667       0.00000000       0.23379799 </v>
    <v>       0.16666667       0.33333333       0.23379799 </v>
    <v>       0.61111111       0.77777778       0.31173066 </v>
    <v>       0.61111111       0.11111111       0.31173066 </v>
    <v>       0.61111111       0.44444444       0.31173066 </v>
    <v>       0.94444444       0.77777778       0.31173066 </v>
    <v>       0.94444444       0.11111111       0.31173066 </v>
    <v>       0.94444444       0.44444444       0.31173066 </v>
    <v>       0.27777778       0.77777778       0.31173066 </v>
    <v>       0.27777778       0.11111111       0.31173066 </v>
    <v>       0.27777778       0.44444444       0.31173066 </v>
    <v>       0.72222222       0.88888889       0.38966332 </v>
    <v>       0.72222222       0.22222222       0.38966332 </v>
    <v>       0.72222222       0.55555556       0.38966332 </v>
    <v>       0.05555556       0.88888889       0.38966332 </v>
    <v>       0.05555556       0.22222222       0.38966332 </v>
    <v>       0.05555556       0.55555556       0.38966332 </v>
    <v>       0.38888889       0.88888889       0.38966332 </v>
    <v>       0.38888889       0.22222222       0.38966332 </v>
    <v>       0.38888889       0.55555556       0.38966332 </v>
    <v>       0.83333333       0.00000000       0.46759598 </v>
    <v>       0.83333333       0.33333333       0.46759598 </v>
    <v>       0.83333333       0.66666667       0.46759598 </v>
    <v>       0.16666667       0.00000000       0.46759598 </v>
    <v>       0.16666667       0.33333333       0.46759598 </v>
    <v>       0.16666667       0.66666667       0.46759598 </v>
    <v>       0.50000000       0.00000000       0.46759598 </v>
    <v>       0.50000000       0.33333333       0.46759598 </v>
    <v>       0.50000000       0.66666667       0.46759598 </v>
    <v>       0.94444444       0.11111111       0.54552865 </v>
    <v>       0.94444444       0.44444444       0.54552865 </v>
    <v>       0.94444444       0.77777778       0.54552865 </v>
    <v>       0.27777778       0.11111111       0.54552865 </v>
    <v>       0.27777778       0.44444444       0.54552865 </v>
    <v>       0.27777778       0.77777778       0.54552865 </v>
    <v>       0.61111111       0.11111111       0.54552865 </v>
    <v>       0.61111111       0.44444444       0.54552865 </v>
    <v>       0.61111111       0.77777778       0.54552865 </v>
    <v>       0.44444444       0.27777778       0.07793266 </v>
    <v>       0.44444444       0.61111111       0.07793266 </v>
    <v>       0.44444444       0.94444444       0.07793266 </v>
    <v>       0.77777778       0.27777778       0.07793266 </v>
    <v>       0.77777778       0.61111111       0.07793266 </v>
    <v>       0.77777778       0.94444444       0.07793266 </v>
    <v>       0.11111111       0.27777778       0.07793266 </v>
    <v>       0.11111111       0.61111111       0.07793266 </v>
    <v>       0.11111111       0.94444444       0.07793266 </v>
    <v>       0.55555556       0.38888889       0.15586533 </v>
    <v>       0.55555556       0.72222222       0.15586533 </v>
    <v>       0.55555556       0.05555556       0.15586533 </v>
    <v>       0.88888889       0.38888889       0.15586533 </v>
    <v>       0.88888889       0.72222222       0.15586533 </v>
    <v>       0.88888889       0.05555556       0.15586533 </v>
    <v>       0.22222222       0.38888889       0.15586533 </v>
    <v>       0.22222222       0.72222222       0.15586533 </v>
    <v>       0.22222222       0.05555556       0.15586533 </v>
    <v>       0.66666667       0.50000000       0.23379799 </v>
    <v>       0.66666667       0.83333333       0.23379799 </v>
    <v>       0.66666667       0.16666667       0.23379799 </v>
    <v>       0.00000000       0.50000000       0.23379799 </v>
    <v>       0.00000000       0.83333333       0.23379799 </v>
    <v>       0.00000000       0.16666667       0.23379799 </v>
    <v>       0.33333333       0.50000000       0.23379799 </v>
    <v>       0.33333333       0.83333333       0.23379799 </v>
    <v>       0.33333333       0.16666667       0.23379799 </v>
    <v>       0.77777778       0.61111111       0.31173066 </v>
    <v>       0.77777778       0.94444444       0.31173066 </v>
    <v>       0.77777778       0.27777778       0.31173066 </v>
    <v>       0.11111111       0.61111111       0.31173066 </v>
    <v>       0.11111111       0.94444444       0.31173066 </v>
    <v>       0.11111111       0.27777778       0.31173066 </v>
    <v>       0.44444444       0.61111111       0.31173066 </v>
    <v>       0.44444444       0.94444444       0.31173066 </v>
    <v>       0.44444444       0.27777778       0.31173066 </v>
    <v>       0.88888889       0.72222222       0.38966332 </v>
    <v>       0.88888889       0.05555556       0.38966332 </v>
    <v>       0.88888889       0.38888889       0.38966332 </v>
    <v>       0.22222222       0.72222222       0.38966332 </v>
    <v>       0.22222222       0.05555556       0.38966332 </v>
    <v>       0.22222222       0.38888889       0.38966332 </v>
    <v>       0.55555556       0.72222222       0.38966332 </v>
    <v>       0.55555556       0.05555556       0.38966332 </v>
    <v>       0.55555556       0.38888889       0.38966332 </v>
    <v>       0.00000000       0.83333333       0.46759598 </v>
    <v>       0.00000000       0.16666667       0.46759598 </v>
    <v>       0.00000000       0.50000000       0.46759598 </v>
    <v>       0.33333333       0.83333333       0.46759598 </v>
    <v>       0.33333333       0.16666667       0.46759598 </v>
    <v>       0.33333333       0.50000000       0.46759598 </v>
    <v>       0.66666667       0.83333333       0.46759598 </v>
    <v>       0.66666667       0.16666667       0.46759598 </v>
    <v>       0.66666667       0.50000000       0.46759598 </v>
    <v>       0.11111111       0.94444444       0.54552865 </v>
    <v>       0.11111111       0.27777778       0.54552865 </v>
    <v>       0.11111111       0.61111111       0.54552865 </v>
    <v>       0.44444444       0.94444444       0.54552865 </v>
    <v>       0.44444444       0.27777778       0.54552865 </v>
    <v>       0.44444444       0.61111111       0.54552865 </v>
    <v>       0.77777778       0.94444444       0.54552865 </v>
    <v>       0.77777778       0.27777778       0.54552865 </v>
    <v>       0.77777778       0.61111111       0.54552865 </v>
   </varray>
  </structure>
  <varray name="forces" >
   <v>       0.07100570       0.00000000       0.00000000 </v>
   <v>       0.07100570       0.00000000       0.00000000 </v>
   <v>       0.07100570       0.00000000       0.00000000 </v>
   <v>       0.07100570      -0.00000000       0.00000000 </v>
   <v>       0.07100570       0.00000000       0.00000000 </v>
   <v>       0.07100570       0.00000000       0.00000000 </v>
   <v>       0.07100570       0.00000000       0.00000000 </v>
   <v>       0.07100570       0.00000000       0.00000000 </v>
   <v>       0.07100570       0.00000000       0.00000000 </v>
   <v>       0.18291229       0.00000000      -0.00000000 </v>
   <v>       0.18291229      -0.00000000      -0.00000000 </v>
   <v>       0.18291229      -0.00000000      -0.00000000 </v>
   <v>       0.18291229      -0.00000000      -0.00000000 </v>
   <v>       0.18291229      -0.00000000      -0.00000000 </v>
   <v>       0.18291229      -0.00000000      -0.00000000 </v>
   <v>       0.18291229      -0.00000000       0.00000000 </v>
   <v>       0.18291229       0.00000000       0.00000000 </v>
   <v>       0.18291229      -0.00000000       0.00000000 </v>
   <v>      -0.09803757       0.00000000       0.00000000 </v>
   <v>      -0.09803757       0.00000000       0.00000000 </v>
   <v>      -0.09803757       0.00000000      -0.00000000 </v>
   <v>      -0.09803757      -0.00000000      -0.00000000 </v>
   <v>      -0.09803757      -0.00000000       0.00000000 </v>
   <v>      -0.09803757       0.00000000      -0.00000000 </v>
   <v>      -0.09803757      -0.00000000       0.00000000 </v>
   <v>      -0.09803757       0.00000000       0.00000000 </v>
   <v>      -0.09803757       0.00000000       0.00000000 </v>
   <v>      -0.00000000       0.00000000       0.00000000 </v>
   <v>      -0.00000000       0.00000000      -0.00000000 </v>
   <v>      -0.00000000       0.00000000       0.00000000 </v>
   <v>      -0.00000000       0.00000000       0.00000000 </v>
   <v>      -0.00000000       0.00000000       0.00000000 </v>
   <v>      -0.00000000       0.00000000      -0.00000000 </v>
   <v>      -0.00000000      -0.00000000      -0.00000000 </v>
   <v>      -0.00000000      -0.00000000      -0.00000000 </v>
   <v>      -0.00000000       0.00000000      -0.00000000 </v>
   <v>       0.09803757      -0.00000000      -0.00000000 </v>
   <v>       0.09803757       0.00000000      -0.00000000 </v>
   <v>       0.09803757      -0.00000000      -0.00000000 </v>
   <v>       0.09803757      -0.00000000      -0.00000000 </v>
   <v>       0.09803757       0.00000000      -0.00000000 </v>
   <v>       0.09803757      -0.00000000      -0.00000000 </v>
   <v>       0.09803757      -0.00000000      -0.00000000 </v>
   <v>       0.09803757      -0.00000000      -0.00000000 </v>
   <v>       0.09803757       0.00000000      -0.00000000 </v>
   <v>      -0.18291229       0.00000000       0.00000000 </v>
   <v>      -0.18291229      -0.00000000       0.00000000 </v>
   <v>      -0.18291229       0.00000000       0.00000000 </v>
   <v>      -0.18291229       0.00000000       0.00000000 </v>
   <v>      -0.18291229      -0.00000000       0.00000000 </v>
   <v>      -0.18291229       0.00000000       0.00000000 </v>
   <v>      -0.18291229       0.00000000       0.00000000 </v>
   <v>      -0.18291229       0.00000000      -0.00000000 </v>
   <v>      -0.18291229       0.00000000       0.00000000 </v>
   <v>      -0.07100570      -0.00000000      -0.00000000 </v>
   <v>      -0.07100570      -0.00000000       0.00000000 </v>
   <v>      -0.07100570       0.00000000      -0.00000000 </v>
   <v>      -0.07100570      -0.00000000      -0.00000000 </v>
   <v>      -0.07100570      -0.00000000      -0.00000000 </v>
   <v>      -0.07100570      -0.00000000      -0.00000000 </v>
   <v>      -0.07100570       0.00000000      -0.00000000 </v>
   <v>      -0.07100570      -0.00000000      -0.00000000 </v>
   <v>      -0.07100570      -0.00000000       0.00000000 </v>
   <v>       0.07100570       0.00000000       0.00000000 </v>
   <v>       0.07100570       0.00000000       0.00000000 </v>
   <v>       0.07100570       0.00000000       0.00000000 </v>
   <v>       0.07100570       0.00000000       0.00000000 </v>
   <v>       0.07100570       0.00000000       0.00000000 </v>
   <v>       0.07100570      -0.00000000       0.00000000 </v>
   <v>       0.07100570       0.00000000       0.00000000 </v>
   <v>       0.07100570       0.00000000       0.00000000 </v>
   <v>       0.07100570       0.00000000       0.00000000 </v>
   <v>       0.18291229      -0.00000000      -0.00000000 </v>
   <v>       0.18291229      -0.00000000      -0.00000000 </v>
   <v>       0.18291229      -0.00000000      -0.00000000 </v>
   <v>       0.18291229       0.00000000       0.00000000 </v>
   <v>       0.18291229       0.00000000      -0.00000000 </v>
   <v>       0.18291229       0.00000000      -0.00000000 </v>
   <v>       0.18291229      -0.00000000      -0.00000000 </v>
   <v>       0.18291229      -0.00000000      -0.00000000 </v>
   <v>       0.18291229      -0.00000000      -0.00000000 </v>
   <v>      -0.09803757      -0.00000000       0.00000000 </v>
   <v>      -0.09803757      -0.00000000       0.00000000 </v>
   <v>      -0.09803757      -0.00000000       0.00000000 </v>
   <v>      -0.09803757      -0.00000000       0.00000000 </v>
   <v>      -0.09803757      -0.00000000       0.00000000 </v>
   <v>      -0.09803757       0.00000000      -0.00000000 </v>
   <v>      -0.09803757       0.00000000       0.00000000 </v>
   <v>      -0.09803757      -0.00000000       0.00000000 </v>
   <v>      -0.09803757      -0.00000000       0.00000000 </v>
   <v>      -0.00000000      -0.00000000       0.00000000 </v>
   <v>      -0.00000000       0.00000000       0.00000000 </v>
   <v>      -0.00000000       0.00000000      -0.00000000 </v>
   <v>      -0.00000000      -0.00000000      -0.00000000 </v>
   <v>      -0.00000000      -0.00000000       0.00000000 </v>
   <v>      -0.00000000       0.00000000       0.00000000 </v>
   <v>      -0.00000000       0.00000000       0.00000000 </v>
   <v>      -0.00000000       0.00000000      -0.00000000 </v>
   <v>      -0.00000000       0.00000000       0.00000000 </v>
   <v>       0.09803757      -0.00000000      -0.00000000 </v>
   <v>       0.09803757      -0.00000000      -0.00000000 </v>
   <v>       0.09803757       0.00000000      -0.00000000 </v>
   <v>       0.09803757       0.00000000      -0.00000000 </v>
   <v>       0.09803757      -0.00000000      -0.00000000 </v>
   <v>       0.09803757       0.00000000      -0.00000000 </v>
   <v>       0.09803757       0.00000000      -0.00000000 </v>
   <v>       0.09803757      -0.00000000      -0.00000000 </v>
   <v>       0.09803757      -0.00000000       0.00000000 </v>
   <v>      -0.18291229       0.00000000       0.00000000 </v>
   <v>      -0.18291229       0.00000000       0.00000000 </v>
   <v>      -0.18291229      -0.00000000      -0.00000000 </v>
   <v>      -0.18291229       0.00000000      -0.00000000 </v>
   <v>      -0.18291229      -0.00000000       0.00000000 </v>
   <v>      -0.18291229       0.00000000       0.00000000 </v>
   <v>      -0.18291229       0.00000000       0.00000000 </v>
   <v>      -0.18291229       0.00000000       0.00000000 </v>
   <v>      -0.18291229      -0.00000000       0.00000000 </v>
   <v>      -0.07100570      -0.00000000      -0.00000000 </v>
   <v>      -0.07100570      -0.00000000      -0.00000000 </v>
   <v>      -0.07100570      -0.00000000      -0.00000000 </v>
   <v>      -0.07100570      -0.00000000      -0.00000000 </v>
   <v>      -0.07100570      -0.00000000      -0.00000000 </v>
   <v>      -0.07100570      -0.00000000       0.00000000 </v>
   <v>      -0.07100570      -0.00000000      -0.00000000 </v>
   <v>      -0.07100570      -0.00000000       0.00000000 </v>
   <v>      -0.07100570      -0.00000000       0.00000000 </v>
   <v>       0.07100570      -0.00000000       0.00000000 </v>
   <v>       0.07100570       0.00000000       0.00000000 </v>
   <v>       0.07100570       0.00000000       0.00000000 </v>
   <v>       0.07100570       0.00000000       0.00000000 </v>
   <v>       0.07100570       0.00000000       0.00000000 </v>
   <v>       0.07100570       0.00000000       0.00000000 </v>
   <v>       0.07100570       0.00000000       0.00000000 </v>
   <v>       0.07100570       0.00000000      -0.00000000 </v>
   <v>       0.07100570       0.00000000       0.00000000 </v>
   <v>       0.18291229      -0.00000000      -0.00000000 </v>
   <v>       0.18291229      -0.00000000      -0.00000000 </v>
   <v>       0.18291229      -0.00000000      -0.00000000 </v>
   <v>       0.18291229      -0.00000000      -0.00000000 </v>
   <v>       0.18291229       0.00000000       0.00000000 </v>
   <v>       0.18291229       0.00000000      -0.00000000 </v>
   <v>       0.18291229      -0.00000000      -0.00000000 </v>
   <v>       0.18291229       0.00000000      -0.00000000 </v>
   <v>       0.18291229      -0.00000000      -0.00000000 </v>
   <v>      -0.09803757      -0.00000000      -0.00000000 </v>
   <v>      -0.09803757      -0.00000000       0.00000000 </v>
   <v>      -0.09803757       0.00000000      -0.00000000 </v>
   <v>      -0.09803757      -0.00000000       0.00000000 </v>
   <v>      -0.09803757      -0.00000000       0.00000000 </v>
   <v>      -0.09803757       0.00000000       0.00000000 </v>
   <v>      -0.09803757       0.00000000       0.00000000 </v>
   <v>      -0.09803757       0.00000000       0.00000000 </v>
   <v>      -0.09803757       0.00000000      -0.00000000 </v>
   <v>      -0.00000000      -0.00000000       0.00000000 </v>
   <v>      -0.00000000       0.00000000       0.00000000 </v>
[...]
       <r>     1.4241   143.7949   710.4140 </r>
       <r>     1.4730   161.5499   718.3162 </r>
       <r>     1.5219   209.9150   728.5842 </r>
       <r>     1.5708    91.6828   733.0688 </r>
       <r>     1.6197    82.2538   737.0922 </r>
       <r>     1.6687   106.1345   742.2838 </r>
       <r>     1.7176    86.0097   746.4909 </r>
       <r>     1.7665    70.9090   749.9594 </r>
       <r>     1.8154    96.4703   754.6782 </r>
       <r>     1.8643   103.6880   759.7501 </r>
       <r>     1.9132   151.1101   767.1416 </r>
       <r>     1.9622   147.9848   774.3802 </r>
       <r>     2.0111   125.0663   780.4978 </r>
       <r>     2.0600   113.8501   786.0667 </r>
       <r>     2.1089    93.2357   790.6273 </r>
       <r>     2.1578    58.7367   793.5004 </r>
       <r>     2.2067    48.2260   795.8594 </r>
       <r>     2.2556    24.2444   797.0453 </r>
       <r>     2.3046    25.1524   798.2756 </r>
       <r>     2.3535    60.8065   801.2500 </r>
       <r>     2.4024   138.3183   808.0158 </r>
       <r>     2.4513   163.7371   816.0249 </r>
       <r>     2.5002   146.7425   823.2028 </r>
       <r>     2.5491   119.9317   829.0692 </r>
       <r>     2.5980   131.6275   835.5077 </r>
       <r>     2.6470    75.2092   839.1866 </r>
       <r>     2.6959    51.4668   841.7041 </r>
       <r>     2.7448    53.4758   844.3198 </r>
       <r>     2.7937    55.2980   847.0247 </r>
       <r>     2.8426   162.5792   854.9772 </r>
       <r>     2.8915   292.2415   869.2721 </r>
       <r>     2.9404   284.7052   883.1984 </r>
       <r>     2.9894   228.1297   894.3573 </r>
       <r>     3.0383   165.1824   902.4372 </r>
       <r>     3.0872    50.1129   904.8884 </r>
       <r>     3.1361    25.5203   906.1367 </r>
       <r>     3.1850    76.3069   909.8693 </r>
       <r>     3.2339    92.9339   914.4151 </r>
       <r>     3.2828    72.6532   917.9689 </r>
       <r>     3.3318   161.1174   925.8499 </r>
       <r>     3.3807   201.6036   935.7113 </r>
       <r>     3.4296   118.9959   941.5320 </r>
       <r>     3.4785   144.9802   948.6236 </r>
       <r>     3.5274    86.5862   952.8590 </r>
       <r>     3.5763    77.5754   956.6535 </r>
       <r>     3.6253   108.8647   961.9786 </r>
       <r>     3.6742    52.2841   964.5361 </r>
       <r>     3.7231    62.4173   967.5892 </r>
       <r>     3.7720    70.6291   971.0440 </r>
       <r>     3.8209    77.3039   974.8253 </r>
       <r>     3.8698    59.9841   977.7594 </r>
       <r>     3.9187   123.2433   983.7878 </r>
       <r>     3.9677   262.8220   996.6437 </r>
       <r>     4.0166   181.2743  1005.5107 </r>
       <r>     4.0655    60.6428  1008.4770 </r>
       <r>     4.1144    24.5571  1009.6782 </r>
       <r>     4.1633     6.2023  1009.9816 </r>
       <r>     4.2122     0.3722  1009.9998 </r>
       <r>     4.2611     0.0041  1010.0000 </r>
       <r>     4.3101     0.0000  1010.0000 </r>
       <r>     4.3590     0.0000  1010.0000 </r>
       <r>     4.4079     0.0000  1010.0000 </r>
       <r>     4.4568     0.0000  1010.0000 </r>
       <r>     4.5057     0.0000  1010.0000 </r>
       <r>     4.5546     0.0000  1010.0000 </r>
       <r>     4.6035     0.0000  1010.0000 </r>
       <r>     4.6525     0.0000  1010.0000 </r>
       <r>     4.7014     0.0000  1010.0000 </r>
       <r>     4.7503     0.0000  1010.0000 </r>
      </set>
     </set>
    </array>
   </total>
  </dos>
 </calculation>
 <structure name="finalpos" >
  <crystal>
   <varray name="basis" >
    <v>       0.00000000     -17.18057346       0.00000000 </v>
    <v>       0.00000000      -8.59028673     -14.87881307 </v>
    <v>      30.00000000       0.00000000       0.00000000 </v>
   </varray>
   <i name="volume">   7668.79622957 </i>
   <varray name="rec_basis" >
    <v>       0.00000000      -0.05820527       0.03360483 </v>
    <v>       0.00000000       0.00000000      -0.06720966 </v>
    <v>       0.03333333       0.00000000       0.00000000 </v>
   </varray>
  </crystal>
  <varray name="positions" >
   <v>       0.44444444       0.44444444       0.08192638 </v>
   <v>       0.44444444       0.77777778       0.08192638 </v>
   <v>       0.44444444       0.11111111       0.08192638 </v>
   <v>       0.77777778       0.44444444       0.08192638 </v>
   <v>       0.77777778       0.77777778       0.08192638 </v>
   <v>       0.77777778       0.11111111       0.08192638 </v>
   <v>       0.11111111       0.44444444       0.08192638 </v>
   <v>       0.11111111       0.77777778       0.08192638 </v>
   <v>       0.11111111       0.11111111       0.08192638 </v>
   <v>       0.55555556       0.55555556       0.15948949 </v>
   <v>       0.55555556       0.88888889       0.15948949 </v>
   <v>       0.55555556       0.22222222       0.15948949 </v>
   <v>       0.88888889       0.55555556       0.15948949 </v>
   <v>       0.88888889       0.88888889       0.15948949 </v>
   <v>       0.88888889       0.22222222       0.15948949 </v>
   <v>       0.22222222       0.55555556       0.15948949 </v>
   <v>       0.22222222       0.88888889       0.15948949 </v>
   <v>       0.22222222       0.22222222       0.15948949 </v>
   <v>       0.66666667       0.66666667       0.23516427 </v>
   <v>       0.66666667       0.00000000       0.23516427 </v>
   <v>       0.66666667       0.33333333       0.23516427 </v>
   <v>       0.00000000       0.66666667       0.23516427 </v>
   <v>       0.00000000       0.00000000       0.23516427 </v>
   <v>       0.00000000       0.33333333       0.23516427 </v>
   <v>       0.33333333       0.66666667       0.23516427 </v>
   <v>       0.33333333       0.00000000       0.23516427 </v>
   <v>       0.33333333       0.33333333       0.23516427 </v>
   <v>       0.77777778       0.77777778       0.31173066 </v>
   <v>       0.77777778       0.11111111       0.31173066 </v>
   <v>       0.77777778       0.44444444       0.31173066 </v>
   <v>       0.11111111       0.77777778       0.31173066 </v>
   <v>       0.11111111       0.11111111       0.31173066 </v>
   <v>       0.11111111       0.44444444       0.31173066 </v>
   <v>       0.44444444       0.77777778       0.31173066 </v>
   <v>       0.44444444       0.11111111       0.31173066 </v>
   <v>       0.44444444       0.44444444       0.31173066 </v>
   <v>       0.88888889       0.88888889       0.38829704 </v>
   <v>       0.88888889       0.22222222       0.38829704 </v>
   <v>       0.88888889       0.55555556       0.38829704 </v>
   <v>       0.22222222       0.88888889       0.38829704 </v>
   <v>       0.22222222       0.22222222       0.38829704 </v>
   <v>       0.22222222       0.55555556       0.38829704 </v>
   <v>       0.55555556       0.88888889       0.38829704 </v>
   <v>       0.55555556       0.22222222       0.38829704 </v>
   <v>       0.55555556       0.55555556       0.38829704 </v>
   <v>       0.00000000      -0.00000000       0.46397182 </v>
   <v>       0.00000000       0.33333333       0.46397182 </v>
   <v>       0.00000000       0.66666667       0.46397182 </v>
   <v>       0.33333333      -0.00000000       0.46397182 </v>
   <v>       0.33333333       0.33333333       0.46397182 </v>
   <v>       0.33333333       0.66666667       0.46397182 </v>
   <v>       0.66666667       0.00000000       0.46397182 </v>
   <v>       0.66666667       0.33333333       0.46397182 </v>
   <v>       0.66666667       0.66666667       0.46397182 </v>
   <v>       0.11111111       0.11111111       0.54153493 </v>
   <v>       0.11111111       0.44444444       0.54153493 </v>
   <v>       0.11111111       0.77777778       0.54153493 </v>
   <v>       0.44444444       0.11111111       0.54153493 </v>
   <v>       0.44444444       0.44444444       0.54153493 </v>
   <v>       0.44444444       0.77777778       0.54153493 </v>
   <v>       0.77777778       0.11111111       0.54153493 </v>
   <v>       0.77777778       0.44444444       0.54153493 </v>
   <v>       0.77777778       0.77777778       0.54153493 </v>
   <v>       0.27777778       0.27777778       0.08192638 </v>
   <v>       0.27777778       0.61111111       0.08192638 </v>
   <v>       0.27777778       0.94444444       0.08192638 </v>
   <v>       0.61111111       0.27777778       0.08192638 </v>
   <v>       0.61111111       0.61111111       0.08192638 </v>
   <v>       0.61111111       0.94444444       0.08192638 </v>
   <v>       0.94444444       0.27777778       0.08192638 </v>
   <v>       0.94444444       0.61111111       0.08192638 </v>
   <v>       0.94444444       0.94444444       0.08192638 </v>
   <v>       0.38888889       0.38888889       0.15948949 </v>
   <v>       0.38888889       0.72222222       0.15948949 </v>
   <v>       0.38888889       0.05555556       0.15948949 </v>
   <v>       0.72222222       0.38888889       0.15948949 </v>
   <v>       0.72222222       0.72222222       0.15948949 </v>
   <v>       0.72222222       0.05555556       0.15948949 </v>
   <v>       0.05555556       0.38888889       0.15948949 </v>
   <v>       0.05555556       0.72222222       0.15948949 </v>
   <v>       0.05555556       0.05555556       0.15948949 </v>
   <v>       0.50000000       0.50000000       0.23516427 </v>
   <v>       0.50000000       0.83333333       0.23516427 </v>
   <v>       0.50000000       0.16666667       0.23516427 </v>
   <v>       0.83333333       0.50000000       0.23516427 </v>
   <v>       0.83333333       0.83333333       0.23516427 </v>
   <v>       0.83333333       0.16666667       0.23516427 </v>
   <v>       0.16666667       0.50000000       0.23516427 </v>
   <v>       0.16666667       0.83333333       0.23516427 </v>
   <v>       0.16666667       0.16666667       0.23516427 </v>
   <v>       0.61111111       0.61111111       0.31173066 </v>
   <v>       0.61111111       0.94444444       0.31173066 </v>
   <v>       0.61111111       0.27777778       0.31173066 </v>
   <v>       0.94444444       0.61111111       0.31173066 </v>
   <v>       0.94444444       0.94444444       0.31173066 </v>
   <v>       0.94444444       0.27777778       0.31173066 </v>
   <v>       0.27777778       0.61111111       0.31173066 </v>
   <v>       0.27777778       0.94444444       0.31173066 </v>
   <v>       0.27777778       0.27777778       0.31173066 </v>
   <v>       0.72222222       0.72222222       0.38829704 </v>
   <v>       0.72222222       0.05555556       0.38829704 </v>
   <v>       0.72222222       0.38888889       0.38829704 </v>
   <v>       0.05555556       0.72222222       0.38829704 </v>
   <v>       0.05555556       0.05555556       0.38829704 </v>
   <v>       0.05555556       0.38888889       0.38829704 </v>
   <v>       0.38888889       0.72222222       0.38829704 </v>
   <v>       0.38888889       0.05555556       0.38829704 </v>
   <v>       0.38888889       0.38888889       0.38829704 </v>
   <v>       0.83333333       0.83333333       0.46397182 </v>
   <v>       0.83333333       0.16666667       0.46397182 </v>
   <v>       0.83333333       0.50000000       0.46397182 </v>
   <v>       0.16666667       0.83333333       0.46397182 </v>
   <v>       0.16666667       0.16666667       0.46397182 </v>
   <v>       0.16666667       0.50000000       0.46397182 </v>
   <v>       0.50000000       0.83333333       0.46397182 </v>
   <v>       0.50000000       0.16666667       0.46397182 </v>
   <v>       0.50000000       0.50000000       0.46397182 </v>
   <v>       0.94444444       0.94444444       0.54153493 </v>
   <v>       0.94444444       0.27777778       0.54153493 </v>
   <v>       0.94444444       0.61111111       0.54153493 </v>
   <v>       0.27777778       0.94444444       0.54153493 </v>
   <v>       0.27777778       0.27777778       0.54153493 </v>
   <v>       0.27777778       0.61111111       0.54153493 </v>
   <v>       0.61111111       0.94444444       0.54153493 </v>
   <v>       0.61111111       0.27777778       0.54153493 </v>
   <v>       0.61111111       0.61111111       0.54153493 </v>
   <v>       0.27777778       0.44444444       0.08192638 </v>
   <v>       0.27777778       0.77777778       0.08192638 </v>
   <v>       0.27777778       0.11111111       0.08192638 </v>
   <v>       0.61111111       0.44444444       0.08192638 </v>
   <v>       0.61111111       0.77777778       0.08192638 </v>
   <v>       0.61111111       0.11111111       0.08192638 </v>
   <v>       0.94444444       0.44444444       0.08192638 </v>
   <v>       0.94444444       0.77777778       0.08192638 </v>
   <v>       0.94444444       0.11111111       0.08192638 </v>
   <v>       0.38888889       0.55555556       0.15948949 </v>
   <v>       0.38888889       0.88888889       0.15948949 </v>
   <v>       0.38888889       0.22222222       0.15948949 </v>
   <v>       0.72222222       0.55555556       0.15948949 </v>
   <v>       0.72222222       0.88888889       0.15948949 </v>
   <v>       0.72222222       0.22222222       0.15948949 </v>
   <v>       0.05555556       0.55555556       0.15948949 </v>
   <v>       0.05555556       0.88888889       0.15948949 </v>
   <v>       0.05555556       0.22222222       0.15948949 </v>
   <v>       0.50000000       0.66666667       0.23516427 </v>
   <v>       0.50000000      -0.00000000       0.23516427 </v>
   <v>       0.50000000       0.33333333       0.23516427 </v>
   <v>       0.83333333       0.66666667       0.23516427 </v>
   <v>       0.83333333       0.00000000       0.23516427 </v>
   <v>       0.83333333       0.33333333       0.23516427 </v>
   <v>       0.16666667       0.66666667       0.23516427 </v>
   <v>       0.16666667       0.00000000       0.23516427 </v>
   <v>       0.16666667       0.33333333       0.23516427 </v>
   <v>       0.61111111       0.77777778       0.31173066 </v>
   <v>       0.61111111       0.11111111       0.31173066 </v>
   <v>       0.61111111       0.44444444       0.31173066 </v>
   <v>       0.94444444       0.77777778       0.31173066 </v>
   <v>       0.94444444       0.11111111       0.31173066 </v>
   <v>       0.94444444       0.44444444       0.31173066 </v>
   <v>       0.27777778       0.77777778       0.31173066 </v>
   <v>       0.27777778       0.11111111       0.31173066 </v>
   <v>       0.27777778       0.44444444       0.31173066 </v>
   <v>       0.72222222       0.88888889       0.38829704 </v>
   <v>       0.72222222       0.22222222       0.38829704 </v>
   <v>       0.72222222       0.55555556       0.38829704 </v>
   <v>       0.05555556       0.88888889       0.38829704 </v>
   <v>       0.05555556       0.22222222       0.38829704 </v>
   <v>       0.05555556       0.55555556       0.38829704 </v>
   <v>       0.38888889       0.88888889       0.38829704 </v>
   <v>       0.38888889       0.22222222       0.38829704 </v>
   <v>       0.38888889       0.55555556       0.38829704 </v>
   <v>       0.83333333      -0.00000000       0.46397182 </v>
   <v>       0.83333333       0.33333333       0.46397182 </v>
   <v>       0.83333333       0.66666667       0.46397182 </v>
   <v>       0.16666667       0.00000000       0.46397182 </v>
   <v>       0.16666667       0.33333333       0.46397182 </v>
   <v>       0.16666667       0.66666667       0.46397182 </v>
   <v>       0.50000000       0.00000000       0.46397182 </v>
   <v>       0.50000000       0.33333333       0.46397182 </v>
   <v>       0.50000000       0.66666667       0.46397182 </v>
   <v>       0.94444444       0.11111111       0.54153493 </v>
   <v>       0.94444444       0.44444444       0.54153493 </v>
   <v>       0.94444444       0.77777778       0.54153493 </v>
   <v>       0.27777778       0.11111111       0.54153493 </v>
   <v>       0.27777778       0.44444444       0.54153493 </v>
   <v>       0.27777778       0.77777778       0.54153493 </v>
   <v>       0.61111111       0.11111111       0.54153493 </v>
   <v>       0.61111111       0.44444444       0.54153493 </v>
   <v>       0.61111111       0.77777778       0.54153493 </v>
   <v>       0.44444444       0.27777778       0.08192638 </v>
   <v>       0.44444444       0.61111111       0.08192638 </v>
   <v>       0.44444444       0.94444444       0.08192638 </v>
   <v>       0.77777778       0.27777778       0.08192638 </v>
   <v>       0.77777778       0.61111111       0.08192638 </v>
   <v>       0.77777778       0.94444444       0.08192638 </v>
   <v>       0.11111111       0.27777778       0.08192638 </v>
   <v>       0.11111111       0.61111111       0.08192638 </v>
   <v>       0.11111111       0.94444444       0.08192638 </v>
   <v>       0.55555556       0.38888889       0.15948949 </v>
   <v>       0.55555556       0.72222222       0.15948949 </v>
   <v>       0.55555556       0.05555556       0.15948949 </v>
   <v>       0.88888889       0.38888889       0.15948949 </v>
   <v>       0.88888889       0.72222222       0.15948949 </v>
   <v>       0.88888889       0.05555556       0.15948949 </v>
   <v>       0.22222222       0.38888889       0.15948949 </v>
   <v>       0.22222222       0.72222222       0.15948949 </v>
   <v>       0.22222222       0.05555556       0.15948949 </v>
   <v>       0.66666667       0.50000000       0.23516427 </v>
   <v>       0.66666667       0.83333333       0.23516427 </v>
   <v>       0.66666667       0.16666667       0.23516427 </v>
   <v>       0.00000000       0.50000000       0.23516427 </v>
   <v>       0.00000000       0.83333333       0.23516427 </v>
   <v>       0.00000000       0.16666667       0.23516427 </v>
   <v>       0.33333333       0.50000000       0.23516427 </v>
   <v>       0.33333333       0.83333333       0.23516427 </v>
   <v>       0.33333333       0.16666667       0.23516427 </v>
   <v>       0.77777778       0.61111111       0.31173066 </v>
   <v>       0.77777778       0.94444444       0.31173066 </v>
   <v>       0.77777778       0.27777778       0.31173066 </v>
   <v>       0.11111111       0.61111111       0.31173066 </v>
   <v>       0.11111111       0.94444444       0.31173066 </v>
   <v>       0.11111111       0.27777778       0.31173066 </v>
   <v>       0.44444444       0.61111111       0.31173066 </v>
   <v>       0.44444444       0.94444444       0.31173066 </v>
   <v>       0.44444444       0.27777778       0.31173066 </v>
   <v>       0.88888889       0.72222222       0.38829704 </v>
   <v>       0.88888889       0.05555556       0.38829704 </v>
   <v>       0.88888889       0.38888889       0.38829704 </v>
   <v>       0.22222222       0.72222222       0.38829704 </v>
   <v>       0.22222222       0.05555556       0.38829704 </v>
   <v>       0.22222222       0.38888889       0.38829704 </v>
   <v>       0.55555556       0.72222222       0.38829704 </v>
   <v>       0.55555556       0.05555556       0.38829704 </v>
   <v>       0.55555556       0.38888889       0.38829704 </v>
   <v>       0.00000000       0.83333333       0.46397182 </v>
   <v>       0.00000000       0.16666667       0.46397182 </v>
   <v>       0.00000000       0.50000000       0.46397182 </v>
   <v>       0.33333333       0.83333333       0.46397182 </v>
   <v>       0.33333333       0.16666667       0.46397182 </v>
   <v>       0.33333333       0.50000000       0.46397182 </v>
   <v>       0.66666667       0.83333333       0.46397182 </v>
   <v>       0.66666667       0.16666667       0.46397182 </v>
   <v>       0.66666667       0.50000000       0.46397182 </v>
   <v>       0.11111111       0.94444444       0.54153493 </v>
   <v>       0.11111111       0.27777778       0.54153493 </v>
   <v>       0.11111111       0.61111111       0.54153493 </v>
   <v>       0.44444444       0.94444444       0.54153493 </v>
   <v>       0.44444444       0.27777778       0.54153493 </v>
   <v>       0.44444444       0.61111111       0.54153493 </v>
   <v>       0.77777778       0.94444444       0.54153493 </v>
   <v>       0.77777778       0.27777778       0.54153493 </v>
   <v>       0.77777778       0.61111111       0.54153493 </v>
  </varray>
 </structure>
</modeling>
