 running on    1 total cores
 distrk:  each k-point on    1 cores,    1 groups
 distr:  one band on    1 cores,    1 groups
 OpenACC runtime initialized ...    1 GPUs detected
 vasp.6.2.1 16May21 (build Jun 16 2021 03:23:30) complex                         
 POSCAR found type information on POSCAR Al
 POSCAR found :  1 types and     252 ions
 scaLAPACK will be used selectively (only on CPU)
 LDA part: xc-table for Pade appr. of Perdew
 POSCAR found type information on POSCAR Al
 POSCAR found :  1 types and     252 ions
 POSCAR, INCAR and KPOINTS ok, starting setup
 FFT: planning ...
 WAVECAR not read
 entering main loop
       N       E                     dE             d eps       ncg     rms          rms(c)
DAV:   1     0.225257762661E+04    0.22526E+04   -0.20027E+05  2044   0.850E+02
DAV:   2    -0.726801447663E+03   -0.29794E+04   -0.28051E+04  2720   0.199E+02
DAV:   3    -0.936275614614E+03   -0.20947E+03   -0.20036E+03  2752   0.417E+01
DAV:   4    -0.946028885095E+03   -0.97533E+01   -0.95119E+01  2944   0.913E+00
DAV:   5    -0.946496106347E+03   -0.46722E+00   -0.46535E+00  3200   0.221E+00    0.175E+01
DAV:   6    -0.961147507089E+03   -0.14651E+02   -0.18972E+02  3063   0.161E+01    0.181E+01
DAV:   7    -0.922190318815E+03    0.38957E+02   -0.14357E+02  2615   0.149E+01    0.901E+00
DAV:   8    -0.921458994199E+03    0.73132E+00   -0.38556E+01  2440   0.519E+00    0.420E+00
DAV:   9    -0.919592873926E+03    0.18661E+01   -0.46600E+00  2400   0.234E+00    0.107E+00
DAV:  10    -0.919501608071E+03    0.91266E-01   -0.12724E+00  2720   0.109E+00    0.678E-01
DAV:  11    -0.919450063216E+03    0.51545E-01   -0.14030E-01  2376   0.449E-01    0.356E-01
DAV:  12    -0.919420365767E+03    0.29697E-01   -0.57430E-02  2520   0.202E-01    0.170E-01
DAV:  13    -0.919434742494E+03   -0.14377E-01   -0.22386E-02  2384   0.119E-01    0.117E-01
DAV:  14    -0.919447296965E+03   -0.12554E-01   -0.67505E-03  2328   0.898E-02    0.456E-02
DAV:  15    -0.919452298948E+03   -0.50020E-02   -0.15769E-03  2456   0.397E-02    0.336E-02
DAV:  16    -0.919453061707E+03   -0.76276E-03   -0.16604E-03  2296   0.324E-02    0.170E-02
DAV:  17    -0.919454942863E+03   -0.18812E-02   -0.32403E-04  2232   0.155E-02    0.117E-02
DAV:  18    -0.919457093279E+03   -0.21504E-02   -0.31320E-04  2192   0.131E-02    0.980E-03
DAV:  19    -0.919458700354E+03   -0.16071E-02   -0.23675E-04  2136   0.100E-02    0.294E-03
DAV:  20    -0.919459009356E+03   -0.30900E-03   -0.44359E-05  2072   0.503E-03    0.212E-03
DAV:  21    -0.919459112155E+03   -0.10280E-03   -0.83743E-06  1432   0.263E-03    0.133E-03
DAV:  22    -0.919459120749E+03   -0.85940E-05   -0.26729E-06  1344   0.199E-03    0.343E-04
DAV:  23    -0.919459122412E+03   -0.16631E-05   -0.74051E-07  1208   0.138E-03
   1 F= -.99175696E+03 E0= -.99172348E+03  d E =-.991757E+03
 curvature:   0.00 expect dE= 0.000E+00 dE for cont linesearch  0.000E+00
 trial: gam= 0.00000 g(F)=  0.668E-01 g(S)=  0.000E+00 ort = 0.000E+00 (trialstep = 0.100E+01)
 search vector abs. value=  0.668E-01
 bond charge predicted
       N       E                     dE             d eps       ncg     rms          rms(c)
DAV:   1    -0.919502793846E+03   -0.43673E-01   -0.19411E-01  2240   0.537E-01    0.870E-02
DAV:   2    -0.919502851686E+03   -0.57840E-04   -0.10334E-02  2328   0.143E-01    0.431E-02
DAV:   3    -0.919502948559E+03   -0.96873E-04   -0.17085E-03  2520   0.626E-02    0.408E-02
DAV:   4    -0.919502727276E+03    0.22128E-03   -0.65453E-04  2480   0.396E-02    0.135E-02
DAV:   5    -0.919502738958E+03   -0.11682E-04   -0.15933E-04  2440   0.153E-02    0.548E-03
DAV:   6    -0.919502740310E+03   -0.13524E-05   -0.13054E-05  1536   0.487E-03
   2 F= -.99182016E+03 E0= -.99178805E+03  d E =-.631980E-01
 ZBRENT: can't locate minimum, use default step
 trial-energy change:   -0.063198  1 .order   -0.063129   -0.066844   -0.059413
 step:   4.0000(harm=  8.9963)  dis= 0.01412  next Energy=  -992.057632 (dE=-0.301E+00)
 bond charge predicted
       N       E                     dE             d eps       ncg     rms          rms(c)
DAV:   1    -0.919588845406E+03   -0.86106E-01   -0.17493E+00  2240   0.161E+00    0.259E-01
DAV:   2    -0.919589438773E+03   -0.59337E-03   -0.93074E-02  2295   0.428E-01    0.128E-01
DAV:   3    -0.919590322006E+03   -0.88323E-03   -0.15148E-02  2560   0.185E-01    0.121E-01
DAV:   4    -0.919588351403E+03    0.19706E-02   -0.57358E-03  2464   0.117E-01    0.405E-02
DAV:   5    -0.919588426274E+03   -0.74871E-04   -0.13918E-03  2448   0.452E-02    0.166E-02
DAV:   6    -0.919588439825E+03   -0.13551E-04   -0.13449E-04  2664   0.143E-02    0.751E-03
DAV:   7    -0.919588448333E+03   -0.85085E-05   -0.16194E-05  1744   0.500E-03    0.227E-03
DAV:   8    -0.919588455801E+03   -0.74675E-05   -0.26243E-06  1256   0.268E-03    0.829E-04
DAV:   9    -0.919588464254E+03   -0.84538E-05   -0.15418E-06  1256   0.181E-03    0.495E-04
DAV:  10    -0.919588474965E+03   -0.10711E-04   -0.13293E-06  1256   0.148E-03    0.515E-04
DAV:  11    -0.919588478203E+03   -0.32379E-05   -0.48068E-07  1232   0.107E-03
   3 F= -.99196471E+03 E0= -.99193534E+03  d E =-.207749E+00
 curvature:  -2.74 expect dE=-0.713E-01 dE for cont linesearch -0.551E-01
 ZBRENT: increasing intervall
 opt :  10.0000  next Energy=  -992.047875 (dE=-0.291E+00)
 bond charge predicted
       N       E                     dE             d eps       ncg     rms          rms(c)
DAV:   1    -0.919547651577E+03    0.40823E-01   -0.70187E+00  2239   0.323E+00    0.516E-01
DAV:   2    -0.919550306474E+03   -0.26549E-02   -0.37270E-01  2271   0.851E-01    0.252E-01
DAV:   3    -0.919553954467E+03   -0.36480E-02   -0.59409E-02  2535   0.363E-01    0.240E-01
DAV:   4    -0.919546228313E+03    0.77262E-02   -0.22610E-02  2480   0.233E-01    0.806E-02
DAV:   5    -0.919546442322E+03   -0.21401E-03   -0.52302E-03  2448   0.881E-02    0.331E-02
DAV:   6    -0.919546491144E+03   -0.48822E-04   -0.53597E-04  2672   0.290E-02    0.149E-02
DAV:   7    -0.919546514074E+03   -0.22930E-04   -0.70196E-05  2536   0.952E-03    0.459E-03
DAV:   8    -0.919546531176E+03   -0.17102E-04   -0.70205E-06  1400   0.366E-03    0.176E-03
DAV:   9    -0.919546550781E+03   -0.19605E-04   -0.39304E-06  1344   0.237E-03    0.104E-03
DAV:  10    -0.919546574283E+03   -0.23502E-04   -0.25981E-06  1328   0.194E-03    0.725E-04
DAV:  11    -0.919546587862E+03   -0.13579E-04   -0.14866E-06  1272   0.128E-03    0.567E-04
DAV:  12    -0.919546600498E+03   -0.12636E-04   -0.25623E-06  1360   0.132E-03    0.617E-04
DAV:  13    -0.919546600858E+03   -0.36010E-06   -0.23248E-07  1192   0.874E-04
   4 F= -.99204078E+03 E0= -.99201301E+03  d E =-.283822E+00
 curvature:  -4.14 expect dE=-0.168E+00 dE for cont linesearch -0.926E-02
 ZBRENT: bracketing found
 ZBRENT: interpolating
 opt :   8.4989  next Energy=  -992.049958 (dE=-0.293E+00)
 bond charge predicted
       N       E                     dE             d eps       ncg     rms          rms(c)
DAV:   1    -0.919584801246E+03   -0.38201E-01   -0.44043E-01  2223   0.812E-01    0.128E-01
DAV:   2    -0.919585008996E+03   -0.20775E-03   -0.23484E-02  2295   0.213E-01    0.626E-02
DAV:   3    -0.919585251629E+03   -0.24263E-03   -0.36211E-03  2527   0.887E-02    0.595E-02
DAV:   4    -0.919584769670E+03    0.48196E-03   -0.13787E-03  2480   0.585E-02    0.204E-02
DAV:   5    -0.919584782962E+03   -0.13293E-04   -0.31092E-04  2408   0.217E-02    0.849E-03
DAV:   6    -0.919584782705E+03    0.25737E-06   -0.33353E-05  2032   0.728E-03
   5 F= -.99204941E+03 E0= -.99202150E+03  d E =-.292454E+00
 curvature:  -4.10 expect dE=-0.111E+00 dE for cont linesearch -0.156E-04
 trial: gam= 0.39766 g(F)=  0.271E-01 g(S)=  0.000E+00 ort = 0.504E-03 (trialstep = 0.250E+01)
 search vector abs. value=  0.381E-01
 bond charge predicted
       N       E                     dE             d eps       ncg     rms          rms(c)
DAV:   1    -0.919591421404E+03   -0.66384E-02   -0.48568E-01  2365   0.860E-01    0.104E-01
DAV:   2    -0.919592933838E+03   -0.15124E-02   -0.15314E-02  2407   0.150E-01    0.698E-02
DAV:   3    -0.919592988700E+03   -0.54862E-04   -0.19294E-03  2567   0.624E-02    0.572E-02
DAV:   4    -0.919592883247E+03    0.10545E-03   -0.12466E-03  2599   0.441E-02    0.208E-02
DAV:   5    -0.919592840072E+03    0.43175E-04   -0.25570E-04  2368   0.199E-02    0.112E-02
DAV:   6    -0.919592838800E+03    0.12724E-05   -0.83452E-05  2408   0.887E-03    0.336E-03
DAV:   7    -0.919592840494E+03   -0.16941E-05   -0.77665E-06  1280   0.386E-03
   6 F= -.99211518E+03 E0= -.99208745E+03  d E =-.657664E-01
 ZBRENT: can't locate minimum, use default step
 trial-energy change:   -0.065766  1 .order   -0.065557   -0.068208   -0.062907
 step:   9.9991(harm= 32.1651)  dis= 0.02832  next Energy=  -992.488235 (dE=-0.439E+00)
 bond charge predicted
       N       E                     dE             d eps       ncg     rms          rms(c)
DAV:   1    -0.919569308936E+03    0.23530E-01   -0.43731E+00  2373   0.259E+00    0.314E-01
DAV:   2    -0.919582649318E+03   -0.13340E-01   -0.13614E-01  2412   0.452E-01    0.211E-01
DAV:   3    -0.919583034857E+03   -0.38554E-03   -0.17526E-02  2551   0.189E-01    0.173E-01
DAV:   4    -0.919582071542E+03    0.96332E-03   -0.11512E-02  2630   0.133E-01    0.621E-02
DAV:   5    -0.919581608052E+03    0.46349E-03   -0.23253E-03  2366   0.598E-02    0.337E-02
DAV:   6    -0.919581583982E+03    0.24071E-04   -0.76260E-04  2710   0.266E-02    0.104E-02
DAV:   7    -0.919581643352E+03   -0.59370E-04   -0.80001E-05  2374   0.109E-02    0.473E-03
DAV:   8    -0.919581712764E+03   -0.69412E-04   -0.35121E-05  1886   0.534E-03    0.422E-03
DAV:   9    -0.919581807843E+03   -0.95079E-04   -0.21005E-05  1742   0.465E-03    0.194E-03
DAV:  10    -0.919581862243E+03   -0.54400E-04   -0.10102E-05  1470   0.291E-03    0.122E-03
DAV:  11    -0.919581902027E+03   -0.39784E-04   -0.80123E-06  1390   0.213E-03    0.871E-04
DAV:  12    -0.919581916221E+03   -0.14194E-04   -0.28563E-06  1375   0.187E-03    0.703E-04
DAV:  13    -0.919581919013E+03   -0.27915E-05   -0.45791E-07  1143   0.120E-03
   7 F= -.99227791E+03 E0= -.99225045E+03  d E =-.228493E+00
 curvature:  -9.91 expect dE=-0.144E+00 dE for cont linesearch -0.871E-01
 ZBRENT: increasing intervall
 opt :  24.9978  next Energy=  -992.449296 (dE=-0.400E+00)
 bond charge predicted
       N       E                     dE             d eps       ncg     rms          rms(c)
DAV:   1    -0.919360053982E+03    0.22186E+00   -0.17573E+01  2390   0.521E+00    0.635E-01
DAV:   2    -0.919411576714E+03   -0.51523E-01   -0.52091E-01  2332   0.912E-01    0.437E-01
DAV:   3    -0.919410194449E+03    0.13823E-02   -0.74205E-02  2551   0.406E-01    0.351E-01
DAV:   4    -0.919406971582E+03    0.32229E-02   -0.46669E-02  2660   0.258E-01    0.118E-01
DAV:   5    -0.919405290259E+03    0.16813E-02   -0.89751E-03  2374   0.114E-01    0.664E-02
DAV:   6    -0.919405157961E+03    0.13230E-03   -0.25179E-03  2726   0.485E-02    0.195E-02
DAV:   7    -0.919405305492E+03   -0.14753E-03   -0.24850E-04  2526   0.191E-02    0.875E-03
DAV:   8    -0.919405459672E+03   -0.15418E-03   -0.87085E-05  2246   0.848E-03    0.705E-03
DAV:   9    -0.919405690531E+03   -0.23086E-03   -0.55380E-05  1902   0.694E-03    0.326E-03
DAV:  10    -0.919405817776E+03   -0.12725E-03   -0.26948E-05  1718   0.420E-03    0.213E-03
DAV:  11    -0.919405916339E+03   -0.98563E-04   -0.22116E-05  1558   0.298E-03    0.136E-03
DAV:  12    -0.919405942510E+03   -0.26171E-04   -0.43052E-06  1440   0.209E-03    0.722E-04
DAV:  13    -0.919405954165E+03   -0.11654E-04   -0.86077E-07  1191   0.126E-03    0.526E-04
DAV:  14    -0.919405963371E+03   -0.92064E-05   -0.68838E-07  1183   0.939E-04    0.248E-04
DAV:  15    -0.919405966581E+03   -0.32105E-05   -0.27025E-07  1102   0.715E-04
   8 F= -.99245164E+03 E0= -.99242199E+03  d E =-.402223E+00
 curvature: -19.48 expect dE=-0.264E+00 dE for cont linesearch -0.114E-01
 ZBRENT: extrapolating
 opt :  30.2240  next Energy=  -992.463993 (dE=-0.415E+00)
 bond charge predicted
       N       E                     dE             d eps       ncg     rms          rms(c)
DAV:   1    -0.919291367187E+03    0.11460E+00   -0.21350E+00  2430   0.181E+00    0.229E-01
DAV:   2    -0.919297296024E+03   -0.59288E-02   -0.65842E-02  2340   0.314E-01    0.152E-01
DAV:   3    -0.919297507072E+03   -0.21105E-03   -0.89141E-03  2576   0.137E-01    0.124E-01
DAV:   4    -0.919296930767E+03    0.57631E-03   -0.57312E-03  2630   0.938E-02    0.437E-02
DAV:   5    -0.919296769235E+03    0.16153E-03   -0.11096E-03  2375   0.411E-02    0.236E-02
DAV:   6    -0.919296773001E+03   -0.37657E-05   -0.31457E-04  2727   0.175E-02    0.692E-03
DAV:   7    -0.919296787420E+03   -0.14419E-04   -0.31177E-05  2183   0.696E-03    0.301E-03
DAV:   8    -0.919296806272E+03   -0.18851E-04   -0.89717E-06  1471   0.317E-03    0.197E-03
DAV:   9    -0.919296833443E+03   -0.27171E-04   -0.30474E-06  1287   0.218E-03    0.843E-04
DAV:  10    -0.919296855502E+03   -0.22059E-04   -0.29121E-06  1287   0.151E-03    0.670E-04
DAV:  11    -0.919296871424E+03   -0.15923E-04   -0.22710E-06  1295   0.118E-03    0.371E-04
DAV:  12    -0.919296875649E+03   -0.42245E-05   -0.37820E-07  1224   0.852E-04
   9 F= -.99246515E+03 E0= -.99242805E+03  d E =-.415731E+00
 curvature: -21.03 expect dE=-0.393E+00 dE for cont linesearch -0.516E-04
 trial: gam= 0.66567 g(F)=  0.187E-01 g(S)=  0.000E+00 ort = 0.305E-03 (trialstep = 0.804E+01)
 search vector abs. value=  0.359E-01
 bond charge predicted
       N       E                     dE             d eps       ncg     rms          rms(c)
DAV:   1    -0.919297463805E+03   -0.59238E-03   -0.40793E+00  2389   0.289E+00    0.459E-01
DAV:   2    -0.919348872396E+03   -0.51409E-01   -0.28825E-01  2317   0.882E-01    0.541E-01
DAV:   3    -0.919294399892E+03    0.54473E-01   -0.10355E-01  2782   0.550E-01    0.197E-01
DAV:   4    -0.919295621962E+03   -0.12221E-02   -0.17319E-02  2511   0.169E-01    0.760E-02
DAV:   5    -0.919295694628E+03   -0.72665E-04   -0.15861E-03  2527   0.488E-02    0.154E-02
DAV:   6    -0.919295701281E+03   -0.66529E-05   -0.34119E-04  2367   0.220E-02    0.838E-03
DAV:   7    -0.919295743430E+03   -0.42149E-04   -0.39216E-05  2503   0.739E-03    0.604E-03
DAV:   8    -0.919295781298E+03   -0.37869E-04   -0.14962E-05  1839   0.446E-03    0.191E-03
DAV:   9    -0.919295821224E+03   -0.39926E-04   -0.48090E-06  1271   0.243E-03    0.126E-03
DAV:  10    -0.919295858392E+03   -0.37168E-04   -0.54249E-06  1311   0.173E-03    0.585E-04
DAV:  11    -0.919295869245E+03   -0.10853E-04   -0.19035E-06  1279   0.105E-03    0.442E-04
DAV:  12    -0.919295873171E+03   -0.39262E-05   -0.42952E-07  1223   0.802E-04
  10 F= -.99258266E+03 E0= -.99253798E+03  d E =-.117515E+00
 trial-energy change:   -0.117515  1 .order   -0.117345   -0.151796   -0.082895
 step:  17.7231(harm= 17.7231)  dis= 0.03738  next Energy=  -992.632356 (dE=-0.167E+00)
 bond charge predicted
       N       E                     dE             d eps       ncg     rms          rms(c)
DAV:   1    -0.919200595477E+03    0.95274E-01   -0.59153E+00  2390   0.348E+00    0.550E-01
DAV:   2    -0.919272487582E+03   -0.71892E-01   -0.41079E-01  2350   0.105E+00    0.642E-01
DAV:   3    -0.919196497668E+03    0.75990E-01   -0.14384E-01  2758   0.652E-01    0.237E-01
DAV:   4    -0.919198318867E+03   -0.18212E-02   -0.25152E-02  2567   0.201E-01    0.923E-02
DAV:   5    -0.919198423579E+03   -0.10471E-03   -0.23112E-03  2527   0.581E-02    0.199E-02
DAV:   6    -0.919198413419E+03    0.10160E-04   -0.55400E-04  2351   0.281E-02    0.970E-03
DAV:   7    -0.919198479323E+03   -0.65904E-04   -0.77245E-05  2815   0.970E-03    0.815E-03
DAV:   8    -0.919198521121E+03   -0.41798E-04   -0.30244E-05  1943   0.560E-03    0.250E-03
DAV:   9    -0.919198580956E+03   -0.59835E-04   -0.85301E-06  1327   0.294E-03    0.150E-03
DAV:  10    -0.919198624604E+03   -0.43648E-04   -0.49316E-06  1287   0.174E-03    0.791E-04
DAV:  11    -0.919198644718E+03   -0.20114E-04   -0.47011E-06  1295   0.147E-03    0.602E-04
DAV:  12    -0.919198650384E+03   -0.56661E-05   -0.56613E-07  1240   0.887E-04    0.199E-04
DAV:  13    -0.919198652734E+03   -0.23497E-05   -0.31089E-07  1151   0.589E-04
  11 F= -.99263022E+03 E0= -.99257531E+03  d E =-.165070E+00
 curvature: -16.88 expect dE=-0.507E-02 dE for cont linesearch -0.233E-03
 ZBRENT: interpolating
 opt :  17.1034  next Energy=  -992.630434 (dE=-0.165E+00)
 bond charge predicted
       N       E                     dE             d eps       ncg     rms          rms(c)
DAV:   1    -0.919208242701E+03   -0.95923E-02   -0.24327E-02  2391   0.223E-01    0.353E-02
DAV:   2    -0.919208534764E+03   -0.29206E-03   -0.16844E-03  2327   0.673E-02    0.410E-02
DAV:   3    -0.919208219061E+03    0.31570E-03   -0.55621E-04  2542   0.418E-02    0.151E-02
DAV:   4    -0.919208226868E+03   -0.78068E-05   -0.11504E-04  2479   0.129E-02    0.587E-03
DAV:   5    -0.919208226625E+03    0.24308E-06   -0.57257E-06  1359   0.366E-03    0.970E-04
DAV:   6    -0.919208226915E+03   -0.29081E-06   -0.18144E-06  1093   0.241E-03
  12 F= -.99263045E+03 E0= -.99257623E+03  d E =-.165302E+00
 curvature: -15.80 expect dE=-0.244E-02 dE for cont linesearch -0.151E-04
 trial: gam= 0.05325 g(F)=  0.155E-03 g(S)=  0.000E+00 ort = 0.185E-03 (trialstep = 0.986E+01)
 search vector abs. value=  0.276E-03
 bond charge predicted
       N       E                     dE             d eps       ncg     rms          rms(c)
DAV:   1    -0.919190388779E+03    0.17838E-01   -0.55463E-02  2351   0.305E-01    0.430E-02
DAV:   2    -0.919190564490E+03   -0.17571E-03   -0.22265E-03  2214   0.678E-02    0.312E-02
DAV:   3    -0.919190481202E+03    0.83288E-04   -0.41229E-04  2671   0.351E-02    0.204E-02
DAV:   4    -0.919190476176E+03    0.50262E-05   -0.10738E-04  2478   0.152E-02    0.832E-03
DAV:   5    -0.919190481361E+03   -0.51851E-05   -0.27568E-05  2119   0.663E-03    0.236E-03
DAV:   6    -0.919190481638E+03   -0.27684E-06   -0.38859E-06  1149   0.311E-03
  13 F= -.99263156E+03 E0= -.99257621E+03  d E =-.111236E-02
 trial-energy change:   -0.001112  1 .order   -0.001100   -0.001621   -0.000578
 step:  15.3214(harm= 15.3214)  dis= 0.00304  next Energy=  -992.631707 (dE=-0.126E-02)
 bond charge predicted
       N       E                     dE             d eps       ncg     rms          rms(c)
DAV:   1    -0.919180125157E+03    0.10356E-01   -0.17025E-02  2359   0.169E-01    0.238E-02
DAV:   2    -0.919180183122E+03   -0.57965E-04   -0.68048E-04  2230   0.376E-02    0.175E-02
DAV:   3    -0.919180157290E+03    0.25832E-04   -0.12940E-04  2535   0.195E-02    0.113E-02
DAV:   4    -0.919180157390E+03   -0.10006E-06   -0.31114E-05  2142   0.839E-03    0.451E-03
DAV:   5    -0.919180160419E+03   -0.30282E-05   -0.69927E-06  1231   0.400E-03    0.102E-03
DAV:   6    -0.919180161066E+03   -0.64747E-06   -0.15671E-06  1085   0.219E-03
  14 F= -.99263170E+03 E0= -.99257569E+03  d E =-.125257E-02
 curvature: -12.87 expect dE=-0.244E-02 dE for cont linesearch -0.323E-05
 trial: gam= 1.35267 g(F)=  0.190E-03 g(S)=  0.000E+00 ort =-0.832E-05 (trialstep = 0.450E+01)
 search vector abs. value=  0.673E-03
 bond charge predicted
       N       E                     dE             d eps       ncg     rms          rms(c)
DAV:   1    -0.919166760410E+03    0.13400E-01   -0.30094E-02  2389   0.207E-01    0.291E-02
DAV:   2    -0.919166834523E+03   -0.74113E-04   -0.11169E-03  2382   0.379E-02    0.172E-02
DAV:   3    -0.919166836338E+03   -0.18152E-05   -0.96313E-05  2503   0.117E-02    0.772E-03
DAV:   4    -0.919166839776E+03   -0.34382E-05   -0.30503E-05  2030   0.807E-03    0.599E-03
DAV:   5    -0.919166838588E+03    0.11883E-05   -0.79823E-06  1687   0.496E-03    0.289E-03
DAV:   6    -0.919166841695E+03   -0.31070E-05   -0.35073E-06  1119   0.225E-03
  15 F= -.99263237E+03 E0= -.99257437E+03  d E =-.667197E-03
 trial-energy change:   -0.000667  1 .order   -0.000645   -0.000803   -0.000487
 step:   8.3669(harm= 11.4327)  dis= 0.00332  next Energy=  -992.632591 (dE=-0.891E-03)
 bond charge predicted
       N       E                     dE             d eps       ncg     rms          rms(c)
DAV:   1    -0.919154994084E+03    0.11845E-01   -0.22408E-02  2390   0.178E-01    0.255E-02
DAV:   2    -0.919155043514E+03   -0.49430E-04   -0.79683E-04  2373   0.325E-02    0.146E-02
DAV:   3    -0.919155045354E+03   -0.18397E-05   -0.72305E-05  2527   0.943E-03    0.582E-03
DAV:   4    -0.919155048541E+03   -0.31868E-05   -0.86120E-06  1423   0.368E-03    0.335E-03
DAV:   5    -0.919155051325E+03   -0.27840E-05   -0.21900E-06  1263   0.306E-03    0.211E-03
DAV:   6    -0.919155052232E+03   -0.90731E-06   -0.12291E-06  1103   0.233E-03
  16 F= -.99263262E+03 E0= -.99257289E+03  d E =-.922009E-03
 curvature: -17.33 expect dE=-0.638E-03 dE for cont linesearch -0.338E-04
 trial: gam=-0.18190 g(F)=  0.368E-04 g(S)=  0.000E+00 ort = 0.362E-04 (trialstep = 0.527E+01)
 search vector abs. value=  0.459E-04
 bond charge predicted
       N       E                     dE             d eps       ncg     rms          rms(c)
DAV:   1    -0.919157949109E+03   -0.28978E-02   -0.37525E-03  2246   0.753E-02    0.120E-02
DAV:   2    -0.919157948266E+03    0.84209E-06   -0.21483E-04  2222   0.198E-02    0.496E-03
DAV:   3    -0.919157947802E+03    0.46415E-06   -0.17533E-05  1752   0.520E-03    0.244E-03
DAV:   4    -0.919157947872E+03   -0.69995E-07   -0.29419E-06  1126   0.316E-03    0.187E-03
DAV:   5    -0.919157947457E+03    0.41553E-06   -0.10608E-06  1010   0.198E-03    0.727E-04
DAV:   6    -0.919157947506E+03   -0.49637E-07   -0.51319E-07  1044   0.115E-03
  17 F= -.99263269E+03 E0= -.99257292E+03  d E =-.646159E-04
 trial-energy change:   -0.000065  1 .order   -0.000069   -0.000159    0.000021
 step:   4.6674(harm=  4.6674)  dis= 0.00036  next Energy=  -992.632693 (dE=-0.706E-04)
 bond charge predicted
       N       E                     dE             d eps       ncg     rms          rms(c)
DAV:   1    -0.919157624875E+03    0.32258E-03   -0.48934E-05  2167   0.857E-03    0.139E-03
DAV:   2    -0.919157625016E+03   -0.14057E-06   -0.24218E-06  1010   0.234E-03    0.568E-04
DAV:   3    -0.919157625224E+03   -0.20808E-06   -0.56713E-07  1010   0.116E-03    0.288E-04
DAV:   4    -0.919157625288E+03   -0.63868E-07   -0.16966E-07  1010   0.698E-04    0.212E-04
DAV:   5    -0.919157625412E+03   -0.12410E-06   -0.76855E-08  1010   0.426E-04    0.860E-05
DAV:   6    -0.919157625490E+03   -0.78609E-07   -0.44315E-08  1010   0.302E-04
  18 F= -.99263269E+03 E0= -.99257292E+03  d E =-.664217E-04
 curvature:  -3.54 expect dE=-0.856E-05 dE for cont linesearch -0.848E-08
 trial: gam=-0.10173 g(F)=  0.242E-05 g(S)=  0.000E+00 ort =-0.332E-06 (trialstep = 0.515E+01)
 search vector abs. value=  0.296E-05
 reached required accuracy - stopping structural energy minimisation
