 254 254   0   0
  0.2268316E+02  0.1514622E-08  0.1514622E-08  0.2900000E-08  0.5000000E-15
   1.0000000000000000E-004
  CAR 
 NiAl                                    
      6.49069319    -33.04774968  301     -0.50526882      1.00000000
    -33.048  0.0000E+00  0.0000E+00
    -32.916  0.0000E+00  0.0000E+00
    -32.784  0.0000E+00  0.0000E+00
    -32.652  0.0000E+00  0.0000E+00
    -32.521  0.0000E+00  0.0000E+00
    -32.389  0.0000E+00  0.0000E+00
    -32.257  0.0000E+00  0.0000E+00
    -32.125  0.0000E+00  0.0000E+00
    -31.993  0.0000E+00  0.0000E+00
    -31.862  0.0000E+00  0.0000E+00
    -31.730  0.0000E+00  0.0000E+00
    -31.598  0.0000E+00  0.0000E+00
    -31.466  0.7091E-08  0.9345E-09
    -31.334  0.1269E+00  0.1672E-01
    -31.203  0.1367E+02  0.1818E+01
    -31.071  0.1381E+01  0.2000E+01
    -30.939  0.3146E-05  0.2000E+01
    -30.807  0.0000E+00  0.2000E+01
    -30.675  0.0000E+00  0.2000E+01
    -30.544  0.0000E+00  0.2000E+01
    -30.412  0.0000E+00  0.2000E+01
    -30.280  0.0000E+00  0.2000E+01
    -30.148  0.0000E+00  0.2000E+01
    -30.016  0.0000E+00  0.2000E+01
    -29.885  0.0000E+00  0.2000E+01
    -29.753  0.0000E+00  0.2000E+01
    -29.621  0.0000E+00  0.2000E+01
    -29.489  0.0000E+00  0.2000E+01
    -29.357  0.0000E+00  0.2000E+01
    -29.226  0.0000E+00  0.2000E+01
    -29.094  0.0000E+00  0.2000E+01
    -28.962  0.0000E+00  0.2000E+01
    -28.830  0.0000E+00  0.2000E+01
    -28.699  0.0000E+00  0.2000E+01
    -28.567  0.0000E+00  0.2000E+01
    -28.435  0.0000E+00  0.2000E+01
    -28.303  0.0000E+00  0.2000E+01
    -28.171  0.0000E+00  0.2000E+01
    -28.040  0.0000E+00  0.2000E+01
    -27.908  0.0000E+00  0.2000E+01
    -27.776  0.0000E+00  0.2000E+01
    -27.644  0.0000E+00  0.2000E+01
    -27.512  0.0000E+00  0.2000E+01
    -27.381  0.0000E+00  0.2000E+01
    -27.249  0.0000E+00  0.2000E+01
    -27.117  0.0000E+00  0.2000E+01
    -26.985  0.0000E+00  0.2000E+01
    -26.853  0.0000E+00  0.2000E+01
    -26.722  0.0000E+00  0.2000E+01
    -26.590  0.0000E+00  0.2000E+01
    -26.458  0.0000E+00  0.2000E+01
    -26.326  0.0000E+00  0.2000E+01
    -26.194  0.0000E+00  0.2000E+01
    -26.063  0.0000E+00  0.2000E+01
    -25.931  0.0000E+00  0.2000E+01
    -25.799  0.0000E+00  0.2000E+01
    -25.667  0.0000E+00  0.2000E+01
    -25.535  0.0000E+00  0.2000E+01
    -25.404  0.0000E+00  0.2000E+01
    -25.272  0.0000E+00  0.2000E+01
    -25.140  0.0000E+00  0.2000E+01
    -25.008  0.0000E+00  0.2000E+01
    -24.876  0.0000E+00  0.2000E+01
    -24.745  0.0000E+00  0.2000E+01
    -24.613  0.0000E+00  0.2000E+01
    -24.481  0.0000E+00  0.2000E+01
    -24.349  0.0000E+00  0.2000E+01
    -24.217  0.0000E+00  0.2000E+01
    -24.086  0.0000E+00  0.2000E+01
    -23.954  0.0000E+00  0.2000E+01
    -23.822  0.0000E+00  0.2000E+01
    -23.690  0.0000E+00  0.2000E+01
    -23.559  0.0000E+00  0.2000E+01
    -23.427  0.0000E+00  0.2000E+01
    -23.295  0.0000E+00  0.2000E+01
    -23.163  0.0000E+00  0.2000E+01
    -23.031  0.0000E+00  0.2000E+01
    -22.900  0.0000E+00  0.2000E+01
    -22.768  0.0000E+00  0.2000E+01
    -22.636  0.0000E+00  0.2000E+01
    -22.504  0.0000E+00  0.2000E+01
    -22.372  0.0000E+00  0.2000E+01
    -22.241  0.0000E+00  0.2000E+01
    -22.109  0.0000E+00  0.2000E+01
    -21.977  0.0000E+00  0.2000E+01
    -21.845  0.0000E+00  0.2000E+01
    -21.713  0.0000E+00  0.2000E+01
    -21.582  0.0000E+00  0.2000E+01
    -21.450  0.0000E+00  0.2000E+01
    -21.318  0.0000E+00  0.2000E+01
    -21.186  0.0000E+00  0.2000E+01
    -21.054  0.0000E+00  0.2000E+01
    -20.923  0.0000E+00  0.2000E+01
    -20.791  0.0000E+00  0.2000E+01
    -20.659  0.0000E+00  0.2000E+01
    -20.527  0.0000E+00  0.2000E+01
    -20.395  0.0000E+00  0.2000E+01
    -20.264  0.0000E+00  0.2000E+01
    -20.132  0.0000E+00  0.2000E+01
    -20.000  0.0000E+00  0.2000E+01
    -19.868  0.0000E+00  0.2000E+01
    -19.736  0.0000E+00  0.2000E+01
    -19.605  0.0000E+00  0.2000E+01
    -19.473  0.0000E+00  0.2000E+01
    -19.341  0.0000E+00  0.2000E+01
    -19.209  0.0000E+00  0.2000E+01
    -19.077  0.0000E+00  0.2000E+01
    -18.946  0.0000E+00  0.2000E+01
    -18.814  0.0000E+00  0.2000E+01
    -18.682  0.0000E+00  0.2000E+01
    -18.550  0.0000E+00  0.2000E+01
    -18.419  0.0000E+00  0.2000E+01
    -18.287  0.0000E+00  0.2000E+01
    -18.155  0.0000E+00  0.2000E+01
    -18.023  0.0000E+00  0.2000E+01
    -17.891  0.0000E+00  0.2000E+01
    -17.760  0.0000E+00  0.2000E+01
    -17.628  0.0000E+00  0.2000E+01
    -17.496  0.0000E+00  0.2000E+01
    -17.364  0.0000E+00  0.2000E+01
    -17.232  0.0000E+00  0.2000E+01
    -17.101  0.0000E+00  0.2000E+01
    -16.969  0.0000E+00  0.2000E+01
    -16.837  0.0000E+00  0.2000E+01
    -16.705  0.0000E+00  0.2000E+01
    -16.573  0.0000E+00  0.2000E+01
    -16.442  0.0000E+00  0.2000E+01
    -16.310  0.0000E+00  0.2000E+01
    -16.178  0.0000E+00  0.2000E+01
    -16.046  0.0000E+00  0.2000E+01
    -15.914  0.0000E+00  0.2000E+01
    -15.783  0.0000E+00  0.2000E+01
    -15.651  0.0000E+00  0.2000E+01
    -15.519  0.0000E+00  0.2000E+01
    -15.387  0.0000E+00  0.2000E+01
    -15.255  0.1705E-04  0.2000E+01
    -15.124  0.2400E+01  0.2316E+01
    -14.992  0.1273E+02  0.3994E+01
    -14.860  0.4871E-01  0.4000E+01
    -14.728  0.8310E-09  0.4000E+01
    -14.596  0.0000E+00  0.4000E+01
    -14.465  0.0000E+00  0.4000E+01
    -14.333  0.0000E+00  0.4000E+01
    -14.201  0.0000E+00  0.4000E+01
    -14.069  0.0000E+00  0.4000E+01
    -13.938  0.0000E+00  0.4000E+01
    -13.806  0.0000E+00  0.4000E+01
    -13.674  0.0000E+00  0.4000E+01
    -13.542  0.0000E+00  0.4000E+01
    -13.410  0.0000E+00  0.4000E+01
    -13.279  0.0000E+00  0.4000E+01
    -13.147  0.0000E+00  0.4000E+01
    -13.015  0.0000E+00  0.4000E+01
    -12.883  0.0000E+00  0.4000E+01
    -12.751  0.0000E+00  0.4000E+01
    -12.620  0.0000E+00  0.4000E+01
    -12.488  0.0000E+00  0.4000E+01
    -12.356  0.0000E+00  0.4000E+01
    -12.224  0.0000E+00  0.4000E+01
    -12.092  0.0000E+00  0.4000E+01
    -11.961  0.0000E+00  0.4000E+01
    -11.829  0.0000E+00  0.4000E+01
    -11.697  0.0000E+00  0.4000E+01
    -11.565  0.0000E+00  0.4000E+01
    -11.433  0.0000E+00  0.4000E+01
    -11.302  0.0000E+00  0.4000E+01
    -11.170  0.0000E+00  0.4000E+01
    -11.038  0.0000E+00  0.4000E+01
    -10.906  0.1020E-10  0.4000E+01
    -10.774  0.5865E-02  0.4001E+01
    -10.643  0.9744E+01  0.5285E+01
    -10.511  0.5425E+01  0.6000E+01
    -10.379  0.3237E-03  0.6000E+01
    -10.247  0.8638E-05  0.6000E+01
    -10.115  0.1926E+01  0.6254E+01
     -9.984  0.1318E+02  0.7990E+01
     -9.852  0.7413E-01  0.8000E+01
     -9.720  0.2133E-08  0.8000E+01
     -9.588  0.5603E-08  0.8000E+01
     -9.456  0.1136E+00  0.8015E+01
     -9.325  0.1357E+02  0.9804E+01
     -9.193  0.1491E+01  0.1000E+02
     -9.061  0.1974E+01  0.1026E+02
     -8.929  0.1884E+01  0.1051E+02
     -8.798  0.1888E+02  0.1300E+02
     -8.666  0.3818E+01  0.1350E+02
     -8.534  0.1773E+01  0.1373E+02
     -8.402  0.7665E+01  0.1474E+02
     -8.270  0.3610E+02  0.1950E+02
     -8.139  0.1954E+02  0.2208E+02
     -8.007  0.7008E+01  0.2300E+02
     -7.875  0.8412E+01  0.2411E+02
     -7.743  0.1489E+02  0.2607E+02
     -7.611  0.2278E+02  0.2907E+02
     -7.480  0.5263E+02  0.3601E+02
     -7.348  0.1890E+02  0.3850E+02
     -7.216  0.3319E-01  0.3850E+02
     -7.084  0.2621E+02  0.4196E+02
     -6.952  0.6423E+02  0.5042E+02
     -6.821  0.2021E+02  0.5309E+02
     -6.689  0.7701E+01  0.5410E+02
     -6.557  0.2486E+02  0.5738E+02
     -6.425  0.4011E+02  0.6266E+02
     -6.293  0.6502E+02  0.7123E+02
     -6.162  0.2930E+02  0.7510E+02
     -6.030  0.4201E+02  0.8063E+02
     -5.898  0.8411E+02  0.9172E+02
     -5.766  0.3248E+02  0.9600E+02
     -5.634  0.2582E+01  0.9634E+02
     -5.503  0.2669E+02  0.9986E+02
     -5.371  0.1084E+03  0.1141E+03
     -5.239  0.8086E+02  0.1248E+03
     -5.107  0.7539E+02  0.1347E+03
     -4.975  0.1081E+03  0.1490E+03
     -4.844  0.6675E+02  0.1578E+03
     -4.712  0.1181E+03  0.1733E+03
     -4.580  0.2183E+03  0.2021E+03
     -4.448  0.2134E+03  0.2302E+03
     -4.316  0.2550E+03  0.2638E+03
     -4.185  0.2545E+03  0.2974E+03
     -4.053  0.2582E+03  0.3314E+03
     -3.921  0.3264E+03  0.3744E+03
     -3.789  0.4485E+03  0.4335E+03
     -3.658  0.4816E+03  0.4970E+03
     -3.526  0.4338E+03  0.5542E+03
     -3.394  0.4052E+03  0.6076E+03
     -3.262  0.3402E+03  0.6524E+03
     -3.130  0.4250E+03  0.7084E+03
     -2.999  0.5022E+03  0.7746E+03
     -2.867  0.3669E+03  0.8230E+03
     -2.735  0.6025E+03  0.9024E+03
     -2.603  0.5028E+03  0.9687E+03
     -2.471  0.5489E+03  0.1041E+04
     -2.340  0.6951E+03  0.1133E+04
     -2.208  0.8070E+03  0.1239E+04
     -2.076  0.8528E+03  0.1351E+04
     -1.944  0.8868E+03  0.1468E+04
     -1.812  0.7469E+03  0.1567E+04
     -1.681  0.5895E+03  0.1644E+04
     -1.549  0.5424E+03  0.1716E+04
     -1.417  0.5566E+03  0.1789E+04
     -1.285  0.8220E+03  0.1898E+04
     -1.153  0.5933E+03  0.1976E+04
     -1.022  0.6754E+03  0.2065E+04
     -0.890  0.7989E+03  0.2170E+04
     -0.758  0.7302E+03  0.2266E+04
     -0.626  0.8618E+03  0.2380E+04
     -0.494  0.1249E+04  0.2545E+04
     -0.363  0.7409E+03  0.2642E+04
     -0.231  0.2039E+03  0.2669E+04
     -0.099  0.1312E+03  0.2686E+04
      0.033  0.1685E+03  0.2709E+04
      0.165  0.8497E+02  0.2720E+04
      0.296  0.5983E+02  0.2728E+04
      0.428  0.3288E+02  0.2732E+04
      0.560  0.1179E+03  0.2748E+04
      0.692  0.9807E+02  0.2760E+04
      0.824  0.7565E+02  0.2770E+04
      0.955  0.1226E+03  0.2787E+04
      1.087  0.1133E+03  0.2802E+04
      1.219  0.1737E+02  0.2804E+04
      1.351  0.1086E+03  0.2818E+04
      1.482  0.4676E+02  0.2824E+04
      1.614  0.6003E+02  0.2832E+04
      1.746  0.1077E+03  0.2846E+04
      1.878  0.7473E+02  0.2856E+04
      2.010  0.9952E+02  0.2869E+04
      2.141  0.4576E+02  0.2875E+04
      2.273  0.8359E+02  0.2886E+04
      2.405  0.1206E+03  0.2902E+04
      2.537  0.3680E+02  0.2907E+04
      2.669  0.5983E+02  0.2915E+04
      2.800  0.1980E+02  0.2918E+04
      2.932  0.3744E+02  0.2923E+04
      3.064  0.1263E+03  0.2939E+04
      3.196  0.1715E+03  0.2962E+04
      3.328  0.3569E+02  0.2967E+04
      3.459  0.2943E+02  0.2970E+04
      3.591  0.9547E+02  0.2983E+04
      3.723  0.3871E+02  0.2988E+04
      3.855  0.5557E+02  0.2995E+04
      3.987  0.1664E+02  0.2998E+04
      4.118  0.1235E+02  0.2999E+04
      4.250  0.6256E+02  0.3007E+04
      4.382  0.4906E+02  0.3014E+04
      4.514  0.7713E+02  0.3024E+04
      4.646  0.6363E+02  0.3032E+04
      4.777  0.4178E+02  0.3038E+04
      4.909  0.1037E+00  0.3038E+04
      5.041  0.5266E-08  0.3038E+04
      5.173  0.0000E+00  0.3038E+04
      5.305  0.0000E+00  0.3038E+04
      5.436  0.0000E+00  0.3038E+04
      5.568  0.0000E+00  0.3038E+04
      5.700  0.0000E+00  0.3038E+04
      5.832  0.0000E+00  0.3038E+04
      5.964  0.0000E+00  0.3038E+04
      6.095  0.0000E+00  0.3038E+04
      6.227  0.0000E+00  0.3038E+04
      6.359  0.0000E+00  0.3038E+04
      6.491  0.0000E+00  0.3038E+04
