  254  254    1    1
  0.2268316E+02  0.1514622E-08  0.1514622E-08  0.2900000E-08  0.5000000E-15
   1.0000000000000000E-004
  CAR 
 NiAl                                    
   2532      4   1519
 
  0.1262379E-14  0.1262379E-14  0.1262379E-14  0.2500000E+00
    1      -31.250548   1.000000
    2      -15.088434   1.000000
    3      -10.656148   1.000000
    4      -10.076508   1.000000
    5       -9.372639   1.000000
    6       -9.062914   1.000000
    7       -8.531019   1.000000
    8       -8.156959   1.000000
    9       -8.156899   1.000000
   10       -8.156872   1.000000
   11       -8.156833   1.000000
   12       -8.156669   1.000000
   13       -8.153502   1.000000
   14       -7.701506   1.000000
   15       -7.651308   1.000000
   16       -7.650914   1.000000
   17       -7.650843   1.000000
   18       -7.650823   1.000000
   19       -7.650503   1.000000
   20       -7.638700   1.000000
   21       -6.863808   1.000000
   22       -6.862786   1.000000
   23       -6.862770   1.000000
   24       -6.862719   1.000000
   25       -6.862483   1.000000
   26       -6.844602   1.000000
   27       -6.668730   1.000000
   28       -6.516818   1.000000
   29       -6.516539   1.000000
   30       -6.516435   1.000000
   31       -6.516372   1.000000
   32       -6.516345   1.000000
   33       -6.515658   1.000000
   34       -6.094986   1.000000
   35       -6.094080   1.000000
   36       -6.093863   1.000000
   37       -6.093842   1.000000
   38       -6.093708   1.000000
   39       -6.091538   1.000000
   40       -5.892693   1.000000
   41       -5.891195   1.000000
   42       -5.891101   1.000000
   43       -5.891023   1.000000
   44       -5.890935   1.000000
   45       -5.886115   1.000000
   46       -5.885950   1.000000
   47       -5.885919   1.000000
   48       -5.885794   1.000000
   49       -5.885750   1.000000
   50       -5.885712   1.000000
   51       -5.866930   1.000000
   52       -5.645306   1.000000
   53       -5.552002   1.000000
   54       -5.551113   1.000000
   55       -5.550912   1.000000
   56       -5.550894   1.000000
   57       -5.550808   1.000000
   58       -5.550070   1.000000
   59       -5.463120   1.000000
   60       -5.461308   1.000000
   61       -5.461040   1.000000
   62       -5.460997   1.000000
   63       -5.460705   1.000000
   64       -5.455976   1.000000
   65       -5.095489   1.000000
   66       -5.094022   1.000000
   67       -5.093821   1.000000
   68       -5.093739   1.000000
   69       -5.093653   1.000000
   70       -5.092671   1.000000
   71       -4.993841   1.000000
   72       -4.942735   1.000000
   73       -4.940942   1.000000
   74       -4.940463   1.000000
   75       -4.940343   1.000000
   76       -4.940299   1.000000
   77       -4.918497   1.000000
   78       -4.804794   1.000000
   79       -4.748114   1.000000
   80       -4.748081   1.000000
   81       -4.747949   1.000000
   82       -4.732937   1.000000
   83       -4.730473   1.000000
   84       -4.730129   1.000000
   85       -4.730044   1.000000
   86       -4.729646   1.000000
   87       -4.723185   1.000000
   88       -4.628298   1.000000
   89       -4.626457   1.000000
   90       -4.626337   1.000000
   91       -4.626073   1.000000
   92       -4.626040   1.000000
   93       -4.623946   1.000000
   94       -4.592094   1.000000
   95       -4.592027   1.000000
   96       -4.591919   1.000000
   97       -4.516327   1.000000
   98       -4.516261   1.000000
   99       -4.516121   1.000000
  100       -4.515818   1.000000
  101       -4.515790   1.000000
  102       -4.515766   1.000000
  103       -4.515748   1.000000
  104       -4.515697   1.000000
  105       -4.515649   1.000000
  106       -4.515627   1.000000
  107       -4.515601   1.000000
  108       -4.515545   1.000000
  109       -4.470521   1.000000
  110       -4.470353   1.000000
  111       -4.470109   1.000000
  112       -4.384639   1.000000
  113       -4.383937   1.000000
  114       -4.383892   1.000000
  115       -4.364947   1.000000
  116       -4.363432   1.000000
  117       -4.362208   1.000000
  118       -4.362035   1.000000
  119       -4.361992   1.000000
  120       -4.351456   1.000000
  121       -4.318772   1.000000
  122       -4.318686   1.000000
  123       -4.318033   1.000000
  124       -4.317497   1.000000
  125       -4.317348   1.000000
  126       -4.317274   1.000000
  127       -4.317228   1.000000
  128       -4.317209   1.000000
  129       -4.317155   1.000000
  130       -4.317130   1.000000
  131       -4.317105   1.000000
  132       -4.317085   1.000000
  133       -4.283905   1.000000
  134       -4.283868   1.000000
  135       -4.283404   1.000000
  136       -4.283096   1.000000
  137       -4.282923   1.000000
  138       -4.282879   1.000000
  139       -4.282869   1.000000
  140       -4.282824   1.000000
  141       -4.282778   1.000000
  142       -4.282607   1.000000
  143       -4.282486   1.000000
  144       -4.282420   1.000000
  145       -4.239460   1.000000
  146       -4.238780   1.000000
  147       -4.238090   1.000000
  148       -4.238019   1.000000
  149       -4.237937   1.000000
  150       -4.234897   1.000000
  151       -4.206395   1.000000
  152       -4.202871   1.000000
  153       -4.202825   1.000000
  154       -4.202313   1.000000
  155       -4.202300   1.000000
  156       -4.198832   1.000000
  157       -4.182582   1.000000
  158       -4.182274   1.000000
  159       -4.181711   1.000000
  160       -4.147591   1.000000
  161       -4.147450   1.000000
  162       -4.146698   1.000000
  163       -4.146185   1.000000
  164       -4.145502   1.000000
  165       -4.145449   1.000000
  166       -4.145122   1.000000
  167       -4.144748   1.000000
  168       -4.144744   1.000000
  169       -4.144630   1.000000
  170       -4.144587   1.000000
  171       -4.144555   1.000000
  172       -4.078595   1.000000
  173       -4.075696   1.000000
  174       -4.075562   1.000000
  175       -4.075126   1.000000
  176       -4.074856   1.000000
  177       -4.069825   1.000000
  178       -4.035649   1.000000
  179       -4.035526   1.000000
  180       -4.035344   1.000000
  181       -3.978445   1.000000
  182       -3.969519   1.000000
  183       -3.969275   1.000000
  184       -3.949950   1.000000
  185       -3.947826   1.000000
  186       -3.947113   1.000000
  187       -3.946208   1.000000
  188       -3.946054   1.000000
  189       -3.945882   1.000000
  190       -3.945396   1.000000
  191       -3.944968   1.000000
  192       -3.944939   1.000000
  193       -3.944714   1.000000
  194       -3.944677   1.000000
  195       -3.944596   1.000000
  196       -3.884549   1.000000
  197       -3.882609   1.000000
  198       -3.882080   1.000000
  199       -3.836900   1.000000
  200       -3.830299   1.000000
  201       -3.829627   1.000000
  202       -3.826006   1.000000
  203       -3.825729   1.000000
  204       -3.825671   1.000000
  205       -3.825592   1.000000
  206       -3.824995   1.000000
  207       -3.822287   1.000000
  208       -3.756955   1.000000
  209       -3.756368   1.000000
  210       -3.756222   1.000000
  211       -3.755680   1.000000
  212       -3.755585   1.000000
  213       -3.755515   1.000000
  214       -3.755484   1.000000
  215       -3.755451   1.000000
  216       -3.755347   1.000000
  217       -3.755292   1.000000
  218       -3.755257   1.000000
  219       -3.755167   1.000000
  220       -3.751070   1.000000
  221       -3.750307   1.000000
  222       -3.750153   1.000000
  223       -3.749455   1.000000
  224       -3.749303   1.000000
  225       -3.749014   1.000000
  226       -3.705800   1.000000
  227       -3.699408   1.000000
  228       -3.699160   1.000000
  229       -3.697613   1.000000
  230       -3.696876   1.000000
  231       -3.696834   1.000000
  232       -3.696793   1.000000
  233       -3.696417   1.000000
  234       -3.696308   1.000000
  235       -3.696294   1.000000
  236       -3.696174   1.000000
  237       -3.696081   1.000000
  238       -3.675610   1.000000
  239       -3.674584   1.000000
  240       -3.673896   1.000000
  241       -3.673607   1.000000
  242       -3.673409   1.000000
  243       -3.671996   1.000000
  244       -3.634446   1.000000
  245       -3.634210   1.000000
  246       -3.634041   1.000000
  247       -3.633981   1.000000
  248       -3.633817   1.000000
  249       -3.633196   1.000000
  250       -3.630620   1.000000
  251       -3.630430   1.000000
  252       -3.630007   1.000000
  253       -3.629969   1.000000
  254       -3.621869   1.000000
  255       -3.621773   1.000000
  256       -3.572831   1.000000
  257       -3.570590   1.000000
  258       -3.570001   1.000000
  259       -3.567778   1.000000
  260       -3.567609   1.000000
  261       -3.567460   1.000000
  262       -3.567381   1.000000
  263       -3.567290   1.000000
  264       -3.567260   1.000000
  265       -3.567156   1.000000
  266       -3.567026   1.000000
  267       -3.566936   1.000000
  268       -3.561021   1.000000
  269       -3.560495   1.000000
  270       -3.559933   1.000000
  271       -3.535761   1.000000
  272       -3.535033   1.000000
  273       -3.534248   1.000000
  274       -3.534198   1.000000
  275       -3.517648   1.000000
  276       -3.514658   1.000000
  277       -3.513770   1.000000
  278       -3.512455   1.000000
  279       -3.512211   1.000000
  280       -3.511858   1.000000
  281       -3.500480   1.000000
  282       -3.500348   1.000000
  283       -3.490578   1.000000
  284       -3.490389   1.000000
  285       -3.490339   1.000000
  286       -3.490164   1.000000
  287       -3.488356   1.000000
  288       -3.488204   1.000000
  289       -3.486965   1.000000
  290       -3.486047   1.000000
  291       -3.485460   1.000000
  292       -3.485142   1.000000
  293       -3.484964   1.000000
  294       -3.484518   1.000000
  295       -3.421798   1.000000
  296       -3.420785   1.000000
  297       -3.418546   1.000000
  298       -3.416717   1.000000
  299       -3.416641   1.000000
  300       -3.411158   1.000000
  301       -3.410682   1.000000
  302       -3.409765   1.000000
  303       -3.409435   1.000000
  304       -3.409204   1.000000
  305       -3.409060   1.000000
  306       -3.408933   1.000000
  307       -3.408864   1.000000
  308       -3.408790   1.000000
  309       -3.408512   1.000000
  310       -3.407973   1.000000
  311       -3.338597   1.000000
  312       -3.337786   1.000000
  313       -3.337707   1.000000
  314       -3.337450   1.000000
  315       -3.337268   1.000000
  316       -3.337143   1.000000
  317       -3.319475   1.000000
  318       -3.308899   1.000000
  319       -3.307702   1.000000
  320       -3.302340   1.000000
  321       -3.301716   1.000000
  322       -3.301615   1.000000
  323       -3.301433   1.000000
  324       -3.301305   1.000000
  325       -3.301120   1.000000
  326       -3.300968   1.000000
  327       -3.300886   1.000000
  328       -3.300849   1.000000
  329       -3.292227   1.000000
  330       -3.291366   1.000000
  331       -3.291272   1.000000
  332       -3.290770   1.000000
  333       -3.290707   1.000000
  334       -3.290395   1.000000
  335       -3.287427   1.000000
  336       -3.285816   1.000000
  337       -3.285404   1.000000
  338       -3.284425   1.000000
  339       -3.284200   1.000000
  340       -3.281314   1.000000
  341       -3.201765   1.000000
  342       -3.199256   1.000000
  343       -3.195814   1.000000
  344       -3.160892   1.000000
  345       -3.157718   1.000000
  346       -3.157640   1.000000
  347       -3.155991   1.000000
  348       -3.155905   1.000000
  349       -3.155268   1.000000
  350       -3.145113   1.000000
  351       -3.145043   1.000000
  352       -3.140684   1.000000
  353       -3.127835   1.000000
  354       -3.127250   1.000000
  355       -3.123992   1.000000
  356       -3.122964   1.000000
  357       -3.122112   1.000000
  358       -3.121503   1.000000
  359       -3.121382   1.000000
  360       -3.121145   1.000000
  361       -3.120962   1.000000
  362       -3.120725   1.000000
  363       -3.120060   1.000000
  364       -3.112770   1.000000
  365       -3.112633   1.000000
  366       -3.057630   1.000000
  367       -3.053760   1.000000
  368       -3.052284   1.000000
  369       -3.051339   1.000000
  370       -3.050631   1.000000
  371       -3.047770   1.000000
  372       -3.029098   1.000000
  373       -3.025762   1.000000
  374       -3.025577   1.000000
  375       -3.024786   1.000000
  376       -3.024734   1.000000
  377       -3.024653   1.000000
  378       -3.024483   1.000000
  379       -3.024359   1.000000
  380       -3.024131   1.000000
  381       -3.024072   1.000000
  382       -3.023994   1.000000
  383       -3.023664   1.000000
  384       -2.985260   1.000000
  385       -2.981791   1.000000
  386       -2.974383   1.000000
  387       -2.973639   1.000000
  388       -2.973245   1.000000
  389       -2.972978   1.000000
  390       -2.972822   1.000000
  391       -2.972671   1.000000
  392       -2.972612   1.000000
  393       -2.972584   1.000000
  394       -2.972268   1.000000
  395       -2.972221   1.000000
  396       -2.919591   1.000000
  397       -2.917924   1.000000
  398       -2.917789   1.000000
  399       -2.917365   1.000000
  400       -2.917320   1.000000
  401       -2.917123   1.000000
  402       -2.873469   1.000000
  403       -2.862074   1.000000
  404       -2.859537   1.000000
  405       -2.859107   1.000000
  406       -2.858768   1.000000
  407       -2.855747   1.000000
  408       -2.849241   1.000000
  409       -2.848849   1.000000
  410       -2.848697   1.000000
  411       -2.848452   1.000000
  412       -2.848418   1.000000
  413       -2.847419   1.000000
  414       -2.829894   1.000000
  415       -2.822325   1.000000
  416       -2.822265   1.000000
  417       -2.822000   1.000000
  418       -2.821912   1.000000
  419       -2.821595   1.000000
  420       -2.821372   1.000000
  421       -2.820420   1.000000
  422       -2.816684   1.000000
  423       -2.816351   1.000000
  424       -2.815643   1.000000
  425       -2.814374   1.000000
  426       -2.802066   1.000000
  427       -2.799256   1.000000
  428       -2.792814   1.000000
  429       -2.792592   1.000000
  430       -2.792350   1.000000
  431       -2.790966   1.000000
  432       -2.790643   1.000000
  433       -2.790532   1.000000
  434       -2.788552   1.000000
  435       -2.788420   1.000000
  436       -2.788260   1.000000
  437       -2.788195   1.000000
  438       -2.788000   1.000000
  439       -2.787940   1.000000
  440       -2.787921   1.000000
  441       -2.787770   1.000000
  442       -2.787681   1.000000
  443       -2.786093   1.000000
  444       -2.734526   1.000000
  445       -2.730410   1.000000
  446       -2.724713   1.000000
  447       -2.717725   1.000000
  448       -2.716935   1.000000
  449       -2.715829   1.000000
  450       -2.715278   1.000000
  451       -2.715220   1.000000
  452       -2.715144   1.000000
  453       -2.715102   1.000000
  454       -2.715083   1.000000
  455       -2.714872   1.000000
  456       -2.714836   1.000000
  457       -2.714627   1.000000
  458       -2.714446   1.000000
  459       -2.713945   1.000000
  460       -2.711908   1.000000
  461       -2.711828   1.000000
  462       -2.711650   1.000000
  463       -2.711174   1.000000
  464       -2.710115   1.000000
  465       -2.676189   1.000000
  466       -2.674869   1.000000
  467       -2.674335   1.000000
  468       -2.674013   1.000000
  469       -2.646420   1.000000
  470       -2.626394   1.000000
  471       -2.626143   1.000000
  472       -2.625421   1.000000
  473       -2.624991   1.000000
  474       -2.622874   1.000000
  475       -2.622846   1.000000
  476       -2.622334   1.000000
  477       -2.621704   1.000000
  478       -2.620740   1.000000
  479       -2.620437   1.000000
  480       -2.620275   1.000000
  481       -2.619520   1.000000
  482       -2.618604   1.000000
  483       -2.618327   1.000000
  484       -2.618247   1.000000
  485       -2.618124   1.000000
  486       -2.617794   1.000000
  487       -2.617718   1.000000
  488       -2.617524   1.000000
  489       -2.615767   1.000000
  490       -2.614983   1.000000
  491       -2.613823   1.000000
  492       -2.612606   1.000000
  493       -2.612467   1.000000
  494       -2.612389   1.000000
  495       -2.612357   1.000000
  496       -2.612195   1.000000
  497       -2.612038   1.000000
  498       -2.611978   1.000000
  499       -2.611949   1.000000
  500       -2.611770   1.000000
  501       -2.569903   1.000000
  502       -2.560791   1.000000
  503       -2.560773   1.000000
  504       -2.560672   1.000000
  505       -2.560369   1.000000
  506       -2.557211   1.000000
  507       -2.555213   1.000000
  508       -2.554556   1.000000
  509       -2.552199   1.000000
  510       -2.552004   1.000000
  511       -2.551956   1.000000
  512       -2.551366   1.000000
  513       -2.539673   1.000000
  514       -2.529446   1.000000
  515       -2.526781   1.000000
  516       -2.526503   1.000000
  517       -2.524226   1.000000
  518       -2.516241   1.000000
  519       -2.512732   1.000000
  520       -2.501226   1.000000
  521       -2.499372   1.000000
  522       -2.497970   1.000000
  523       -2.497783   1.000000
  524       -2.477051   1.000000
  525       -2.475687   1.000000
  526       -2.466943   1.000000
  527       -2.454371   1.000000
  528       -2.453784   1.000000
  529       -2.453582   1.000000
  530       -2.453542   1.000000
  531       -2.453298   1.000000
  532       -2.453257   1.000000
  533       -2.453005   1.000000
  534       -2.452893   1.000000
  535       -2.452779   1.000000
  536       -2.452699   1.000000
  537       -2.448253   1.000000
  538       -2.444010   1.000000
  539       -2.441456   1.000000
  540       -2.438236   1.000000
  541       -2.436830   1.000000
  542       -2.431606   1.000000
  543       -2.413368   1.000000
  544       -2.413151   1.000000
  545       -2.410244   1.000000
  546       -2.398626   1.000000
  547       -2.397059   1.000000
  548       -2.395844   1.000000
  549       -2.395681   1.000000
  550       -2.395077   1.000000
  551       -2.391252   1.000000
  552       -2.386698   1.000000
  553       -2.384694   1.000000
  554       -2.382959   1.000000
  555       -2.382938   1.000000
  556       -2.382017   1.000000
  557       -2.381679   1.000000
  558       -2.381524   1.000000
  559       -2.381225   1.000000
  560       -2.381220   1.000000
  561       -2.381131   1.000000
  562       -2.380767   1.000000
  563       -2.380607   1.000000
  564       -2.378559   1.000000
  565       -2.377120   1.000000
  566       -2.374189   1.000000
  567       -2.373408   1.000000
  568       -2.372940   1.000000
  569       -2.371414   1.000000
  570       -2.371324   1.000000
  571       -2.371168   1.000000
  572       -2.359436   1.000000
  573       -2.329392   1.000000
  574       -2.326847   1.000000
  575       -2.323272   1.000000
  576       -2.322166   1.000000
  577       -2.321591   1.000000
  578       -2.319276   1.000000
  579       -2.319094   1.000000
  580       -2.317714   1.000000
  581       -2.317531   1.000000
  582       -2.316890   1.000000
  583       -2.311780   1.000000
  584       -2.310357   1.000000
  585       -2.306496   1.000000
  586       -2.306222   1.000000
  587       -2.306172   1.000000
  588       -2.305432   1.000000
  589       -2.287273   1.000000
  590       -2.282808   1.000000
  591       -2.280348   1.000000
  592       -2.278294   1.000000
  593       -2.277633   1.000000
  594       -2.277451   1.000000
  595       -2.275569   1.000000
  596       -2.265549   1.000000
  597       -2.264747   1.000000
  598       -2.264457   1.000000
  599       -2.264232   1.000000
  600       -2.264048   1.000000
  601       -2.264043   1.000000
  602       -2.262612   1.000000
  603       -2.260761   1.000000
  604       -2.259210   1.000000
  605       -2.246173   1.000000
  606       -2.245323   1.000000
  607       -2.245233   1.000000
  608       -2.245115   1.000000
  609       -2.245072   1.000000
  610       -2.244904   1.000000
  611       -2.237044   1.000000
  612       -2.230289   1.000000
  613       -2.229638   1.000000
  614       -2.220243   1.000000
  615       -2.210669   1.000000
  616       -2.205498   1.000000
  617       -2.205482   1.000000
  618       -2.204762   1.000000
  619       -2.204109   1.000000
  620       -2.200827   1.000000
  621       -2.200643   1.000000
  622       -2.200060   1.000000
  623       -2.196211   1.000000
  624       -2.187872   1.000000
  625       -2.184884   1.000000
  626       -2.184079   1.000000
  627       -2.170325   1.000000
  628       -2.170248   1.000000
  629       -2.170214   1.000000
  630       -2.170168   1.000000
  631       -2.170106   1.000000
  632       -2.169903   1.000000
  633       -2.163823   1.000000
  634       -2.161936   1.000000
  635       -2.158463   1.000000
  636       -2.147452   1.000000
  637       -2.147159   1.000000
  638       -2.147007   1.000000
  639       -2.146711   1.000000
  640       -2.146030   1.000000
  641       -2.145950   1.000000
  642       -2.136630   1.000000
  643       -2.135661   1.000000
  644       -2.134925   1.000000
  645       -2.128203   1.000000
  646       -2.125200   1.000000
  647       -2.122930   1.000000
  648       -2.122806   1.000000
  649       -2.122787   1.000000
  650       -2.122580   1.000000
  651       -2.121618   1.000000
  652       -2.121112   1.000000
  653       -2.119654   1.000000
  654       -2.119575   1.000000
  655       -2.119208   1.000000
  656       -2.118795   1.000000
  657       -2.118748   1.000000
  658       -2.118494   1.000000
  659       -2.118415   1.000000
  660       -2.118134   1.000000
  661       -2.116219   1.000000
  662       -2.112237   1.000000
  663       -2.111633   1.000000
  664       -2.109341   1.000000
  665       -2.109164   1.000000
  666       -2.109025   1.000000
  667       -2.107576   1.000000
  668       -2.106688   1.000000
  669       -2.105012   1.000000
  670       -2.104165   1.000000
  671       -2.103718   1.000000
  672       -2.102363   1.000000
  673       -2.075626   1.000000
  674       -2.072289   1.000000
  675       -2.062238   1.000000
  676       -2.058573   1.000000
  677       -2.057386   1.000000
  678       -2.057362   1.000000
  679       -2.056129   1.000000
  680       -2.055336   1.000000
  681       -2.048751   1.000000
  682       -2.036114   1.000000
  683       -2.035999   1.000000
  684       -2.035540   1.000000
  685       -2.035085   1.000000
  686       -2.034994   1.000000
  687       -2.034863   1.000000
  688       -2.011455   1.000000
  689       -2.010967   1.000000
  690       -2.010953   1.000000
  691       -2.010019   1.000000
  692       -2.008196   1.000000
  693       -2.008042   1.000000
  694       -2.006568   1.000000
  695       -2.006520   1.000000
  696       -2.006093   1.000000
  697       -2.005981   1.000000
  698       -2.005835   1.000000
  699       -2.005585   1.000000
  700       -2.004978   1.000000
  701       -2.004151   1.000000
  702       -2.003422   1.000000
  703       -2.003278   1.000000
  704       -1.993839   1.000000
  705       -1.993741   1.000000
  706       -1.992671   1.000000
  707       -1.991593   1.000000
  708       -1.991451   1.000000
  709       -1.991149   1.000000
  710       -1.991078   1.000000
  711       -1.990952   1.000000
  712       -1.990910   1.000000
  713       -1.990848   1.000000
  714       -1.990755   1.000000
  715       -1.990672   1.000000
  716       -1.988858   1.000000
  717       -1.988674   1.000000
  718       -1.965462   1.000000
  719       -1.965252   1.000000
  720       -1.965170   1.000000
  721       -1.965021   1.000000
  722       -1.964974   1.000000
  723       -1.964758   1.000000
  724       -1.962675   1.000000
  725       -1.960163   1.000000
  726       -1.944110   1.000000
  727       -1.942630   1.000000
  728       -1.941804   1.000000
  729       -1.937010   1.000000
  730       -1.934433   1.000000
  731       -1.932215   1.000000
  732       -1.921357   1.000000
  733       -1.921019   1.000000
  734       -1.920177   1.000000
  735       -1.920112   1.000000
  736       -1.919828   1.000000
  737       -1.919586   1.000000
  738       -1.919376   1.000000
  739       -1.919310   1.000000
  740       -1.919214   1.000000
  741       -1.914942   1.000000
  742       -1.878031   1.000000
  743       -1.876987   1.000000
  744       -1.875607   1.000000
  745       -1.875467   1.000000
  746       -1.875308   1.000000
  747       -1.875186   1.000000
  748       -1.872914   1.000000
  749       -1.872264   1.000000
  750       -1.871009   1.000000
  751       -1.869576   1.000000
  752       -1.869421   1.000000
  753       -1.865624   1.000000
  754       -1.857440   1.000000
  755       -1.849789   1.000000
  756       -1.825069   1.000000
  757       -1.822782   1.000000
  758       -1.822555   1.000000
  759       -1.821951   1.000000
  760       -1.821210   1.000000
  761       -1.820698   1.000000
  762       -1.820638   1.000000
  763       -1.820561   1.000000
  764       -1.820346   1.000000
  765       -1.820012   1.000000
  766       -1.818689   1.000000
  767       -1.818665   1.000000
  768       -1.817381   1.000000
  769       -1.817319   1.000000
  770       -1.816938   1.000000
  771       -1.814953   1.000000
  772       -1.811631   1.000000
  773       -1.811574   1.000000
  774       -1.810855   1.000000
  775       -1.810614   1.000000
  776       -1.810295   1.000000
  777       -1.809182   1.000000
  778       -1.785558   1.000000
  779       -1.785143   1.000000
  780       -1.779328   1.000000
  781       -1.778528   1.000000
  782       -1.778121   1.000000
  783       -1.775114   1.000000
  784       -1.774317   1.000000
  785       -1.774107   1.000000
  786       -1.773870   1.000000
  787       -1.773688   1.000000
  788       -1.773432   1.000000
  789       -1.760005   1.000000
  790       -1.756919   1.000000
  791       -1.756729   1.000000
  792       -1.752950   1.000000
  793       -1.751124   1.000000
  794       -1.750250   1.000000
  795       -1.749729   1.000000
  796       -1.749003   1.000000
  797       -1.748766   1.000000
  798       -1.747558   1.000000
  799       -1.739124   1.000000
  800       -1.737316   1.000000
  801       -1.732369   1.000000
  802       -1.729898   1.000000
  803       -1.729749   1.000000
  804       -1.729047   1.000000
  805       -1.728476   1.000000
  806       -1.728047   1.000000
  807       -1.725382   1.000000
  808       -1.722164   1.000000
  809       -1.722149   1.000000
  810       -1.721638   1.000000
  811       -1.721021   1.000000
  812       -1.720754   1.000000
  813       -1.720658   1.000000
  814       -1.720135   1.000000
  815       -1.720021   1.000000
  816       -1.717953   1.000000
  817       -1.696217   1.000000
  818       -1.694190   1.000000
  819       -1.686826   1.000000
  820       -1.684833   1.000000
  821       -1.683901   1.000000
  822       -1.683238   1.000000
  823       -1.682207   1.000000
  824       -1.682016   1.000000
  825       -1.681372   1.000000
  826       -1.681189   1.000000
  827       -1.681122   1.000000
  828       -1.680915   1.000000
  829       -1.655615   1.000000
  830       -1.652509   1.000000
  831       -1.650676   1.000000
  832       -1.649217   1.000000
  833       -1.647668   1.000000
  834       -1.647343   1.000000
  835       -1.647140   1.000000
  836       -1.647094   1.000000
  837       -1.646883   1.000000
  838       -1.644164   1.000000
  839       -1.644045   1.000000
  840       -1.643447   1.000000
  841       -1.643067   1.000000
  842       -1.642584   1.000000
  843       -1.642472   1.000000
  844       -1.635681   1.000000
  845       -1.633919   1.000000
  846       -1.632688   1.000000
  847       -1.631751   1.000000
  848       -1.631221   1.000000
  849       -1.630783   1.000000
  850       -1.629591   1.000000
  851       -1.628808   1.000000
  852       -1.625633   1.000000
  853       -1.625482   1.000000
  854       -1.624520   1.000000
  855       -1.623782   1.000000
  856       -1.621976   1.000000
  857       -1.621866   1.000000
  858       -1.620794   1.000000
  859       -1.619378   1.000000
  860       -1.619096   1.000000
  861       -1.603506   1.000000
  862       -1.600730   1.000000
  863       -1.599460   1.000000
  864       -1.595177   1.000000
  865       -1.566875   1.000000
  866       -1.564907   1.000000
  867       -1.564440   1.000000
  868       -1.563992   1.000000
  869       -1.563121   1.000000
  870       -1.560664   1.000000
  871       -1.544298   1.000000
  872       -1.540182   1.000000
  873       -1.536942   1.000000
  874       -1.535177   1.000000
  875       -1.534266   1.000000
  876       -1.533443   1.000000
  877       -1.533130   1.000000
  878       -1.533033   1.000000
  879       -1.532701   1.000000
  880       -1.532384   1.000000
  881       -1.531606   1.000000
  882       -1.531486   1.000000
  883       -1.522774   1.000000
  884       -1.519796   1.000000
  885       -1.516268   1.000000
  886       -1.513901   1.000000
  887       -1.513028   1.000000
  888       -1.512348   1.000000
  889       -1.464327   1.000000
  890       -1.463030   1.000000
  891       -1.460266   1.000000
  892       -1.459878   1.000000
  893       -1.459705   1.000000
  894       -1.459624   1.000000
  895       -1.454025   1.000000
  896       -1.414324   1.000000
  897       -1.414127   1.000000
  898       -1.409299   1.000000
  899       -1.408504   1.000000
  900       -1.407859   1.000000
  901       -1.405881   1.000000