         265
 Energy:  -1053.7704082999999     
 X   0.00000000       0.00000000       0.00000000    
 X   16.1980000       0.00000000       0.00000000    
 X   0.00000000       16.1980000       0.00000000    
 X   0.00000000       0.00000000       16.1980000    
 X   16.1980000       16.1980000       0.00000000    
 X   16.1980000       0.00000000       16.1980000    
 X   0.00000000       16.1980000       16.1980000    
 X   16.1980000       16.1980000       16.1980000    
 Al   0.00000000       0.00000000       0.00000000    
 Al   0.00000000       2.02474999       2.02474999    
 Al   2.02474999       0.00000000       2.02474999    
 Al   2.02474999       2.02474999       0.00000000    
 Al   0.00000000       0.00000000       4.04949999    
 Al   0.00000000       2.02474999       6.07425022    
 Al   2.02474999       0.00000000       6.07425022    
 Al   2.02474999       2.02474999       4.04949999    
 Al   0.00000000       0.00000000       8.09899998    
 Al   0.00000000       2.02474999       10.1237497    
 Al   2.02474999       0.00000000       10.1237497    
 Al   2.02474999       2.02474999       8.09899998    
 Al   0.00000000       0.00000000       12.1485004    
 Al   0.00000000       2.02474999       14.1732502    
 Al   2.02474999       0.00000000       14.1732502    
 Al   2.02474999       2.02474999       12.1485004    
 Al   0.00000000       4.04949999       0.00000000    
 Al   0.00000000       6.07425022       2.02474999    
 Al   2.02474999       4.04949999       2.02474999    
 Al   2.02474999       6.07425022       0.00000000    
 Al   0.00000000       4.04949999       4.04949999    
 Al   0.00000000       6.07425022       6.07425022    
 Al   2.02474999       4.04949999       6.07425022    
 Al   2.02474999       6.07425022       4.04949999    
 Al   0.00000000       4.04949999       8.09899998    
 Al   0.00000000       6.07425022       10.1237497    
 Al   2.02474999       4.04949999       10.1237497    
 Al   2.02474999       6.07425022       8.09899998    
 Al   0.00000000       4.04949999       12.1485004    
 Al   0.00000000       6.07425022       14.1732502    
 Al   2.02474999       4.04949999       14.1732502    
 Al   2.02474999       6.07425022       12.1485004    
 Al   0.00000000       8.09899998       0.00000000    
 Al   0.00000000       10.1237497       2.02474999    
 Al   2.02474999       8.09899998       2.02474999    
 Al   2.02474999       10.1237497       0.00000000    
 Al   0.00000000       8.09899998       4.04949999    
 Al   0.00000000       10.1237497       6.07425022    
 Al   2.02474999       8.09899998       6.07425022    
 Al   2.02474999       10.1237497       4.04949999    
 Al   0.00000000       8.09899998       8.09899998    
 Al   0.00000000       10.1237497       10.1237497    
 Al   2.02474999       8.09899998       10.1237497    
 Al   2.02474999       10.1237497       8.09899998    
 Al   0.00000000       8.09899998       12.1485004    
 Al   0.00000000       10.1237497       14.1732502    
 Al   2.02474999       8.09899998       14.1732502    
 Al   2.02474999       10.1237497       12.1485004    
 Al   0.00000000       12.1485004       0.00000000    
 Al   0.00000000       14.1732502       2.02474999    
 Al   2.02474999       12.1485004       2.02474999    
 Al   2.02474999       14.1732502       0.00000000    
 Al   0.00000000       12.1485004       4.04949999    
 Al   0.00000000       14.1732502       6.07425022    
 Al   2.02474999       12.1485004       6.07425022    
 Al   2.02474999       14.1732502       4.04949999    
 Al   0.00000000       12.1485004       8.09899998    
 Al   0.00000000       14.1732502       10.1237497    
 Al   2.02474999       12.1485004       10.1237497    
 Al   2.02474999       14.1732502       8.09899998    
 Al   0.00000000       12.1485004       12.1485004    
 Al   0.00000000       14.1732502       14.1732502    
 Al   2.02474999       12.1485004       14.1732502    
 Al   2.02474999       14.1732502       12.1485004    
 Al   4.04949999       0.00000000       0.00000000    
 Al   4.04949999       2.02474999       2.02474999    
 Al   6.07425022       0.00000000       2.02474999    
 Al   6.07425022       2.02474999       0.00000000    
 Al   4.04949999       0.00000000       4.04949999    
 Al   4.04949999       2.02474999       6.07425022    
 Al   6.07425022       0.00000000       6.07425022    
 Al   6.07425022       2.02474999       4.04949999    
 Al   4.04949999       0.00000000       8.09899998    
 Al   4.04949999       2.02474999       10.1237497    
 Al   6.07425022       0.00000000       10.1237497    
 Al   6.07425022       2.02474999       8.09899998    
 Al   4.04949999       0.00000000       12.1485004    
 Al   4.04949999       2.02474999       14.1732502    
 Al   6.07425022       0.00000000       14.1732502    
 Al   6.07425022       2.02474999       12.1485004    
 Al   4.04949999       4.04949999       0.00000000    
 Al   4.04949999       6.07425022       2.02474999    
 Al   6.07425022       4.04949999       2.02474999    
 Al   6.07425022       6.07425022       0.00000000    
 Al   4.04949999       4.04949999       4.04949999    
 Al   4.04949999       6.07425022       6.07425022    
 Al   6.07425022       4.04949999       6.07425022    
 Al   6.07425022       6.07425022       4.04949999    
 Al   4.04949999       4.04949999       8.09899998    
 Al   4.04949999       6.07425022       10.1237497    
 Al   6.07425022       4.04949999       10.1237497    
 Al   6.07425022       6.07425022       8.09899998    
 Al   4.04949999       4.04949999       12.1485004    
 Al   4.04949999       6.07425022       14.1732502    
 Al   6.07425022       4.04949999       14.1732502    
 Al   6.07425022       6.07425022       12.1485004    
 Al   4.04949999       8.09899998       0.00000000    
 Al   4.04949999       10.1237497       2.02474999    
 Al   6.07425022       8.09899998       2.02474999    
 Al   6.07425022       10.1237497       0.00000000    
 Al   4.04949999       8.09899998       4.04949999    
 Al   4.04949999       10.1237497       6.07425022    
 Al   6.07425022       8.09899998       6.07425022    
 Al   6.07425022       10.1237497       4.04949999    
 Al   4.04949999       8.09899998       8.09899998    
 Al   4.04949999       10.1237497       10.1237497    
 Al   6.07425022       8.09899998       10.1237497    
 Al   6.07425022       10.1237497       8.09899998    
 Al   4.04949999       8.09899998       12.1485004    
 Al   4.04949999       10.1237497       14.1732502    
 Al   6.07425022       8.09899998       14.1732502    
 Al   6.07425022       10.1237497       12.1485004    
 Al   4.04949999       12.1485004       0.00000000    
 Al   4.04949999       14.1732502       2.02474999    
 Al   6.07425022       12.1485004       2.02474999    
 Al   6.07425022       14.1732502       0.00000000    
 Al   4.04949999       12.1485004       4.04949999    
 Al   4.04949999       14.1732502       6.07425022    
 Al   6.07425022       12.1485004       6.07425022    
 Al   6.07425022       14.1732502       4.04949999    
 Al   4.04949999       12.1485004       8.09899998    
 Al   4.04949999       14.1732502       10.1237497    
 Al   6.07425022       12.1485004       10.1237497    
 Al   6.07425022       14.1732502       8.09899998    
 Al   4.04949999       12.1485004       12.1485004    
 Al   4.04949999       14.1732502       14.1732502    
 Al   6.07425022       12.1485004       14.1732502    
 Al   6.07425022       14.1732502       12.1485004    
 Al   8.09899998       0.00000000       0.00000000    
 Al   8.09899998       2.02474999       2.02474999    
 Al   10.1237497       0.00000000       2.02474999    
 Al   10.1237497       2.02474999       0.00000000    
 Al   8.09899998       0.00000000       4.04949999    
 Al   8.09899998       2.02474999       6.07425022    
 Al   10.1237497       0.00000000       6.07425022    
 Al   10.1237497       2.02474999       4.04949999    
 Al   8.09899998       0.00000000       8.09899998    
 Al   8.09899998       2.02474999       10.1237497    
 Al   10.1237497       0.00000000       10.1237497    
 Al   10.1237497       2.02474999       8.09899998    
 Al   8.09899998       0.00000000       12.1485004    
 Al   8.09899998       2.02474999       14.1732502    
 Al   10.1237497       0.00000000       14.1732502    
 Al   10.1237497       2.02474999       12.1485004    
 Al   8.09899998       4.04949999       0.00000000    
 Al   8.09899998       6.07425022       2.02474999    
 Al   10.1237497       4.04949999       2.02474999    
 Al   10.1237497       6.07425022       0.00000000    
 Al   8.09899998       4.04949999       4.04949999    
 Al   8.09899998       6.07425022       6.07425022    
 Al   10.1237497       4.04949999       6.07425022    
 Al   10.1237497       6.07425022       4.04949999    
 Al   8.09899998       4.04949999       8.09899998    
 Al   8.09899998       6.07425022       10.1237497    
 Al   10.1237497       4.04949999       10.1237497    
 Al   10.1237497       6.07425022       8.09899998    
 Al   8.09899998       4.04949999       12.1485004    
 Al   8.09899998       6.07425022       14.1732502    
 Al   10.1237497       4.04949999       14.1732502    
 Al   10.1237497       6.07425022       12.1485004    
 Al   8.09899998       8.09899998       0.00000000    
 Al   8.09899998       10.1237497       2.02474999    
 Al   10.1237497       8.09899998       2.02474999    
 Al   10.1237497       10.1237497       0.00000000    
 Al   8.09899998       8.09899998       4.04949999    
 Al   8.09899998       10.1237497       6.07425022    
 Al   10.1237497       8.09899998       6.07425022    
 Al   10.1237497       10.1237497       4.04949999    
 Al   8.09899998       8.09899998       8.09899998    
 Al   8.09899998       10.1237497       10.1237497    
 Al   10.1237497       8.09899998       10.1237497    
 Al   10.1237497       10.1237497       8.09899998    
 Al   8.09899998       8.09899998       12.1485004    
 Al   8.09899998       10.1237497       14.1732502    
 Al   10.1237497       8.09899998       14.1732502    
 Al   10.1237497       10.1237497       12.1485004    
 Al   8.09899998       12.1485004       0.00000000    
 Al   8.09899998       14.1732502       2.02474999    
 Al   10.1237497       12.1485004       2.02474999    
 Al   10.1237497       14.1732502       0.00000000    
 Al   8.09899998       12.1485004       4.04949999    
 Al   8.09899998       14.1732502       6.07425022    
 Al   10.1237497       12.1485004       6.07425022    
 Al   10.1237497       14.1732502       4.04949999    
 Al   8.09899998       12.1485004       8.09899998    
 Al   8.09899998       14.1732502       10.1237497    
 Al   10.1237497       12.1485004       10.1237497    
 Al   10.1237497       14.1732502       8.09899998    
 Al   8.09899998       12.1485004       12.1485004    
 Al   8.09899998       14.1732502       14.1732502    
 Al   10.1237497       12.1485004       14.1732502    
 Al   10.1237497       14.1732502       12.1485004    
 Al   12.1485004       0.00000000       0.00000000    
 Al   12.1485004       2.02474999       2.02474999    
 Al   14.1732502       0.00000000       2.02474999    
 Al   14.1732502       2.02474999       0.00000000    
 Al   12.1485004       0.00000000       4.04949999    
 Al   12.1485004       2.02474999       6.07425022    
 Al   14.1732502       0.00000000       6.07425022    
 Al   14.1732502       2.02474999       4.04949999    
 Al   12.1485004       0.00000000       8.09899998    
 Al   12.1485004       2.02474999       10.1237497    
 Al   14.1732502       0.00000000       10.1237497    
 Al   14.1732502       2.02474999       8.09899998    
 Al   12.1485004       0.00000000       12.1485004    
 Al   12.1485004       2.02474999       14.1732502    
 Al   14.1732502       0.00000000       14.1732502    
 Al   14.1732502       2.02474999       12.1485004    
 Al   12.1485004       4.04949999       0.00000000    
 Al   12.1485004       6.07425022       2.02474999    
 Al   14.1732502       4.04949999       2.02474999    
 Al   14.1732502       6.07425022       0.00000000    
 Al   12.1485004       4.04949999       4.04949999    
 Al   12.1485004       6.07425022       6.07425022    
 Al   14.1732502       4.04949999       6.07425022    
 Al   14.1732502       6.07425022       4.04949999    
 Al   12.1485004       4.04949999       8.09899998    
 Al   12.1485004       6.07425022       10.1237497    
 Al   14.1732502       4.04949999       10.1237497    
 Al   14.1732502       6.07425022       8.09899998    
 Al   12.1485004       4.04949999       12.1485004    
 Al   12.1485004       6.07425022       14.1732502    
 Al   14.1732502       4.04949999       14.1732502    
 Al   14.1732502       6.07425022       12.1485004    
 Al   12.1485004       8.09899998       0.00000000    
 Al   12.1485004       10.1237497       2.02474999    
 Al   14.1732502       8.09899998       2.02474999    
 Al   14.1732502       10.1237497       0.00000000    
 Al   12.1485004       8.09899998       4.04949999    
 Al   12.1485004       10.1237497       6.07425022    
 Al   14.1732502       8.09899998       6.07425022    
 Al   14.1732502       10.1237497       4.04949999    
 Al   12.1485004       8.09899998       8.09899998    
 Al   12.1485004       10.1237497       10.1237497    
 Al   14.1732502       8.09899998       10.1237497    
 Al   14.1732502       10.1237497       8.09899998    
 Al   12.1485004       8.09899998       12.1485004    
 Al   12.1485004       10.1237497       14.1732502    
 Al   14.1732502       8.09899998       14.1732502    
 Al   14.1732502       10.1237497       12.1485004    
 Al   12.1485004       12.1485004       0.00000000    
 Al   12.1485004       14.1732502       2.02474999    
 Al   14.1732502       12.1485004       2.02474999    
 Al   14.1732502       14.1732502       0.00000000    
 Al   12.1485004       12.1485004       4.04949999    
 Al   12.1485004       14.1732502       6.07425022    
 Al   14.1732502       12.1485004       6.07425022    
 Al   14.1732502       14.1732502       4.04949999    
 Al   12.1485004       12.1485004       8.09899998    
 Al   12.1485004       14.1732502       10.1237497    
 Al   14.1732502       12.1485004       10.1237497    
 Al   14.1732502       14.1732502       8.09899998    
 Al   12.1485004       12.1485004       12.1485004    
 Al   12.1485004       14.1732502       14.1732502    
 Al   14.1732502       12.1485004       14.1732502    
 Al   14.1732502       14.1732502       12.1485004    
 O    2.02474999       0.00000000       0.00000000    
         265
 Energy:  -1053.8638444999999     
 X   0.00000000       0.00000000       0.00000000    
 X   16.1980000       0.00000000       0.00000000    
 X   0.00000000       16.1980000       0.00000000    
 X   0.00000000       0.00000000       16.1980000    
 X   16.1980000       16.1980000       0.00000000    
 X   16.1980000       0.00000000       16.1980000    
 X   0.00000000       16.1980000       16.1980000    
 X   16.1980000       16.1980000       16.1980000    
 Al  -1.80200003E-02  -0.00000000       0.00000000    
 Al   1.93999999E-03   2.02280998       2.02280998    
 Al   2.02474999      -0.00000000       2.04276991    
 Al   2.02474999       2.04276991       0.00000000    
 Al   9.99999975E-05  -0.00000000       4.05029011    
 Al   1.90000006E-04   2.02455997       6.07430983    
 Al   2.02474999      -0.00000000       6.07344007    
 Al   2.02474999       2.02465010       4.05029011    
 Al   1.40000004E-04  -0.00000000       8.09899998    
 Al   1.90000006E-04   2.02455997       10.1236897    
 Al   2.02474999      -0.00000000       10.1245604    
 Al   2.02474999       2.02461004       8.09899998    
 Al   9.99999975E-05  -0.00000000       12.1477098    
 Al   1.93999999E-03   2.02280998       14.1751900    
 Al   2.02474999      -0.00000000       14.1552296    
 Al   2.02474999       2.02465010       12.1477098    
 Al   9.99999975E-05   4.05029011       0.00000000    
 Al   1.90000006E-04   6.07430983       2.02455997    
 Al   2.02474999       4.05029011       2.02465010    
 Al   2.02474999       6.07344007       0.00000000    
 Al   2.99999992E-05   4.04923010       4.04923010    
 Al  -4.99999987E-05   6.07418013       6.07418013    
 Al   2.02474999       4.04920006       6.07392979    
 Al   2.02474999       6.07392979       4.04920006    
 Al   2.99999992E-05   4.04922009       8.09899998    
 Al  -4.99999987E-05   6.07418013       10.1238203    
 Al   2.02474999       4.04920006       10.1240702    
 Al   2.02474999       6.07445002       8.09899998    
 Al   2.99999992E-05   4.04923010       12.1487703    
 Al   1.90000006E-04   6.07430983       14.1734400    
 Al   2.02474999       4.05029011       14.1733503    
 Al   2.02474999       6.07392979       12.1487999    
 Al   1.40000004E-04   8.09899998       0.00000000    
 Al   1.90000006E-04   10.1236897       2.02455997    
 Al   2.02474999       8.09899998       2.02461004    
 Al   2.02474999       10.1245604       0.00000000    
 Al   2.99999992E-05   8.09899998       4.04922009    
 Al  -4.99999987E-05   10.1238203       6.07418013    
 Al   2.02474999       8.09899998       6.07445002    
 Al   2.02474999       10.1240702       4.04920006    
 Al  -5.99999985E-05   8.09899998       8.09899998    
 Al  -4.99999987E-05   10.1238203       10.1238203    
 Al   2.02474999       8.09899998       10.1235504    
 Al   2.02474999       10.1235504       8.09899998    
 Al   2.99999992E-05   8.09899998       12.1487799    
 Al   1.90000006E-04   10.1236897       14.1734400    
 Al   2.02474999       8.09899998       14.1733904    
 Al   2.02474999       10.1240702       12.1487999    
 Al   9.99999975E-05   12.1477098       0.00000000    
 Al   1.93999999E-03   14.1751900       2.02280998    
 Al   2.02474999       12.1477098       2.02465010    
 Al   2.02474999       14.1552296       0.00000000    
 Al   2.99999992E-05   12.1487703       4.04923010    
 Al   1.90000006E-04   14.1734400       6.07430983    
 Al   2.02474999       12.1487999       6.07392979    
 Al   2.02474999       14.1733503       4.05029011    
 Al   2.99999992E-05   12.1487799       8.09899998    
 Al   1.90000006E-04   14.1734400       10.1236897    
 Al   2.02474999       12.1487999       10.1240702    
 Al   2.02474999       14.1733904       8.09899998    
 Al   2.99999992E-05   12.1487703       12.1487703    
 Al   1.93999999E-03   14.1751900       14.1751900    
 Al   2.02474999       12.1477098       14.1733503    
 Al   2.02474999       14.1733503       12.1477098    
 Al   4.06752014      -0.00000000       0.00000000    
 Al   4.04756021       2.02280998       2.02280998    
 Al   6.07503986      -0.00000000       2.02465010    
 Al   6.07503986       2.02465010       0.00000000    
 Al   4.04939985      -0.00000000       4.05029011    
 Al   4.04931021       2.02455997       6.07430983    
 Al   6.07394981      -0.00000000       6.07392979    
 Al   6.07397985       2.02471995       4.04923010    
 Al   4.04935980      -0.00000000       8.09899998    
 Al   4.04931021       2.02455997       10.1236897    
 Al   6.07394981      -0.00000000       10.1240702    
 Al   6.07396984       2.02471995       8.09899998    
 Al   4.04939985      -0.00000000       12.1477098    
 Al   4.04756021       2.02280998       14.1751900    
 Al   6.07503986      -0.00000000       14.1733503    
 Al   6.07397985       2.02471995       12.1487703    
 Al   4.04939985       4.05029011       0.00000000    
 Al   4.04931021       6.07430983       2.02455997    
 Al   6.07397985       4.04923010       2.02471995    
 Al   6.07394981       6.07392979       0.00000000    
 Al   4.04946995       4.04923010       4.04923010    
 Al   4.04955006       6.07418013       6.07418013    
 Al   6.07434988       4.04960012       6.07432985    
 Al   6.07434988       6.07432985       4.04960012    
 Al   4.04946995       4.04922009       8.09899998    
 Al   4.04955006       6.07418013       10.1238203    
 Al   6.07434988       4.04960012       10.1236696    
 Al   6.07423019       6.07420015       8.09899998    
 Al   4.04946995       4.04923010       12.1487703    
 Al   4.04931021       6.07430983       14.1734400    
 Al   6.07397985       4.04923010       14.1732798    
 Al   6.07434988       6.07432985       12.1484003    
 Al   4.04935980       8.09899998       0.00000000    
 Al   4.04931021       10.1236897       2.02455997    
 Al   6.07396984       8.09899998       2.02471995    
 Al   6.07394981       10.1240702       0.00000000    
 Al   4.04946995       8.09899998       4.04922009    
 Al   4.04955006       10.1238203       6.07418013    
 Al   6.07423019       8.09899998       6.07420015    
 Al   6.07434988       10.1236696       4.04960012    
 Al   4.04956007       8.09899998       8.09899998    
 Al   4.04955006       10.1238203       10.1238203    
 Al   6.07423019       8.09899998       10.1238003    
 Al   6.07423019       10.1238003       8.09899998    
 Al   4.04946995       8.09899998       12.1487799    
 Al   4.04931021       10.1236897       14.1734400    
 Al   6.07396984       8.09899998       14.1732798    
 Al   6.07434988       10.1236696       12.1484003    
 Al   4.04939985       12.1477098       0.00000000    
 Al   4.04756021       14.1751900       2.02280998    
 Al   6.07397985       12.1487703       2.02471995    
 Al   6.07503986       14.1733503       0.00000000    
 Al   4.04946995       12.1487703       4.04923010    
 Al   4.04931021       14.1734400       6.07430983    
 Al   6.07434988       12.1484003       6.07432985    
 Al   6.07397985       14.1732798       4.04923010    
 Al   4.04946995       12.1487799       8.09899998    
 Al   4.04931021       14.1734400       10.1236897    
 Al   6.07434988       12.1484003       10.1236696    
 Al   6.07396984       14.1732798       8.09899998    
 Al   4.04946995       12.1487703       12.1487703    
 Al   4.04756021       14.1751900       14.1751900    
 Al   6.07397985       12.1487703       14.1732798    
 Al   6.07397985       14.1732798       12.1487703    
 Al   8.09819031      -0.00000000       0.00000000    
 Al   8.09906006       2.02455997       2.02455997    
 Al   10.1237497      -0.00000000       2.02461004    
 Al   10.1237497       2.02461004       0.00000000    
 Al   8.09867954      -0.00000000       4.04920006    
 Al   8.09893036       2.02480006       6.07418013    
 Al   10.1237497      -0.00000000       6.07445002    
 Al   10.1237497       2.02471995       4.04922009    
 Al   8.09920025      -0.00000000       8.09899998    
 Al   8.09893036       2.02480006       10.1238203    
 Al   10.1237497      -0.00000000       10.1235504    
 Al   10.1237497       2.02481008       8.09899998    
 Al   8.09867954      -0.00000000       12.1487999    
 Al   8.09906006       2.02455997       14.1734400    
 Al   10.1237497      -0.00000000       14.1733904    
 Al   10.1237497       2.02471995       12.1487799    
 Al   8.09867954       4.04920006       0.00000000    
 Al   8.09893036       6.07418013       2.02480006    
 Al   10.1237497       4.04922009       2.02471995    
 Al   10.1237497       6.07445002       0.00000000    
 Al   8.09908009       4.04960012       4.04960012    
 Al   8.09895992       6.07421017       6.07421017    
 Al   10.1237497       4.04947996       6.07420015    
 Al   10.1237497       6.07420015       4.04947996    
 Al   8.09895039       4.04947996       8.09899998    
 Al   8.09895992       6.07421017       10.1237898    
 Al   10.1237497       4.04947996       10.1238003    
 Al   10.1237497       6.07427979       8.09899998    
 Al   8.09908009       4.04960012       12.1484003    
 Al   8.09893036       6.07418013       14.1731997    
 Al   10.1237497       4.04922009       14.1732798    
 Al   10.1237497       6.07420015       12.1485205    
 Al   8.09920025       8.09899998       0.00000000    
 Al   8.09893036       10.1238203       2.02480006    
 Al   10.1237497       8.09899998       2.02481008    
 Al   10.1237497       10.1235504       0.00000000    
 Al   8.09895039       8.09899998       4.04947996    
 Al   8.09895992       10.1237898       6.07421017    
 Al   10.1237497       8.09899998       6.07427979    
 Al   10.1237497       10.1238003       4.04947996    
 Al   8.09902954       8.09899998       8.09899998    
 Al   8.09895992       10.1237898       10.1237898    
 Al   10.1237497       8.09899998       10.1237202    
 Al   10.1237497       10.1237202       8.09899998    
 Al   8.09895039       8.09899998       12.1485205    
 Al   8.09893036       10.1238203       14.1731997    
 Al   10.1237497       8.09899998       14.1731901    
 Al   10.1237497       10.1238003       12.1485205    
 Al   8.09867954       12.1487999       0.00000000    
 Al   8.09906006       14.1734400       2.02455997    
 Al   10.1237497       12.1487799       2.02471995    
 Al   10.1237497       14.1733904       0.00000000    
 Al   8.09908009       12.1484003       4.04960012    
 Al   8.09893036       14.1731997       6.07418013    
 Al   10.1237497       12.1485205       6.07420015    
 Al   10.1237497       14.1732798       4.04922009    
 Al   8.09895039       12.1485205       8.09899998    
 Al   8.09893036       14.1731997       10.1238203    
 Al   10.1237497       12.1485205       10.1238003    
 Al   10.1237497       14.1731901       8.09899998    
 Al   8.09908009       12.1484003       12.1484003    
 Al   8.09906006       14.1734400       14.1734400    
 Al   10.1237497       12.1487799       14.1732798    
 Al   10.1237497       14.1732798       12.1487799    
 Al   12.1493101      -0.00000000       0.00000000    
 Al   12.1484404       2.02455997       2.02455997    
 Al   14.1724596      -0.00000000       2.02465010    
 Al   14.1724596       2.02465010       0.00000000    
 Al   12.1488199      -0.00000000       4.04920006    
 Al   12.1485701       2.02480006       6.07418013    
 Al   14.1735497      -0.00000000       6.07392979    
 Al   14.1735201       2.02471995       4.04923010    
 Al   12.1483002      -0.00000000       8.09899998    
 Al   12.1485701       2.02480006       10.1238203    
 Al   14.1735497      -0.00000000       10.1240702    
 Al   14.1735296       2.02471995       8.09899998    
 Al   12.1488199      -0.00000000       12.1487999    
 Al   12.1484404       2.02455997       14.1734400    
 Al   14.1724596      -0.00000000       14.1733503    
 Al   14.1735201       2.02471995       12.1487703    
 Al   12.1488199       4.04920006       0.00000000    
 Al   12.1485701       6.07418013       2.02480006    
 Al   14.1735201       4.04923010       2.02471995    
 Al   14.1735497       6.07392979       0.00000000    
 Al   12.1484203       4.04960012       4.04960012    
 Al   12.1485395       6.07421017       6.07421017    
 Al   14.1731501       4.04960012       6.07432985    
 Al   14.1731501       6.07432985       4.04960012    
 Al   12.1485500       4.04947996       8.09899998    
 Al   12.1485395       6.07421017       10.1237898    
 Al   14.1731501       4.04960012       10.1236696    
 Al   14.1732702       6.07420015       8.09899998    
 Al   12.1484203       4.04960012       12.1484003    
 Al   12.1485701       6.07418013       14.1731997    
 Al   14.1735201       4.04923010       14.1732798    
 Al   14.1731501       6.07432985       12.1484003    
 Al   12.1483002       8.09899998       0.00000000    
 Al   12.1485701       10.1238203       2.02480006    
 Al   14.1735296       8.09899998       2.02471995    
 Al   14.1735497       10.1240702       0.00000000    
 Al   12.1485500       8.09899998       4.04947996    
 Al   12.1485395       10.1237898       6.07421017    
 Al   14.1732702       8.09899998       6.07420015    
 Al   14.1731501       10.1236696       4.04960012    
 Al   12.1484699       8.09899998       8.09899998    
 Al   12.1485395       10.1237898       10.1237898    
 Al   14.1732702       8.09899998       10.1238003    
 Al   14.1732702       10.1238003       8.09899998    
 Al   12.1485500       8.09899998       12.1485205    
 Al   12.1485701       10.1238203       14.1731997    
 Al   14.1735296       8.09899998       14.1732798    
 Al   14.1731501       10.1236696       12.1484003    
 Al   12.1488199       12.1487999       0.00000000    
 Al   12.1484404       14.1734400       2.02455997    
 Al   14.1735201       12.1487703       2.02471995    
 Al   14.1724596       14.1733503       0.00000000    
 Al   12.1484203       12.1484003       4.04960012    
 Al   12.1485701       14.1731997       6.07418013    
 Al   14.1731501       12.1484003       6.07432985    
 Al   14.1735201       14.1732798       4.04923010    
 Al   12.1485500       12.1485205       8.09899998    
 Al   12.1485701       14.1731997       10.1238203    
 Al   14.1731501       12.1484003       10.1236696    
 Al   14.1735296       14.1732798       8.09899998    
 Al   12.1484203       12.1484003       12.1484003    
 Al   12.1484404       14.1734400       14.1734400    
 Al   14.1735201       12.1487703       14.1732798    
 Al   14.1735201       14.1732798       12.1487703    
 O    2.02474999      -0.00000000       0.00000000    
         265
 Energy:  -1053.9912122999999     
 X   0.00000000       0.00000000       0.00000000    
 X   16.1980000       0.00000000       0.00000000    
 X   0.00000000       16.1980000       0.00000000    
 X   0.00000000       0.00000000       16.1980000    
 X   16.1980000       16.1980000       0.00000000    
 X   16.1980000       0.00000000       16.1980000    
 X   0.00000000       16.1980000       16.1980000    
 X   16.1980000       16.1980000       16.1980000    
 Al  -7.01799989E-02  -0.00000000       0.00000000    
 Al   7.54000014E-03   2.01721001       2.01721001    
 Al   2.02474999      -0.00000000       2.09492993    
 Al   2.02474999       2.09492993       0.00000000    
 Al   3.99999990E-04  -0.00000000       4.05258989    