 vasp.6.2.1 16May21 (build Jun 16 2021 03:23:30) complex                         
 executed on             LinuxPGI date 2022.04.23  21:27:14
 running on    1 total cores
 distrk:  each k-point on    1 cores,    1 groups
 distr:  one band on NCORE=   1 cores,    1 groups


--------------------------------------------------------------------------------------------------------


 INCAR:
   SYSTEM = NiAl
   ISTART = 0
   EDIFF = 1E-7
   NELMIN = 6
   ISIF = 1
   NSW = 40
   IBRION = 2
   POTIM = 0.2
   IVDW = 12
   LWAVE = .FALSE.
   LCHARG = .FALSE.
   LREAL = Auto
   NCORE = 1
   LPLANE = .TRUE.
   ENCUT = 360.00 eV
   ISMEAR = 0
   SIGMA = 0.05

 POTCAR:    PAW Al_GW 19Mar2012                   
 POTCAR:    PAW O_GW 19Mar2012                    
 POTCAR:    PAW Al_GW 19Mar2012                   
   VRHFIN =Al: s2p1                                                                                 
   LEXCH  = PE                                                                                      
   EATOM  =    53.5387 eV,    3.9350 Ry                                                             
                                                                                                    
   TITEL  = PAW Al_GW 19Mar2012                                                                     
   LULTRA =        F    use ultrasoft PP ?                                                          
   IUNSCR =        1    unscreen: 0-lin 1-nonlin 2-no                                               
   RPACOR =    1.500    partial core radius                                                         
   POMASS =   26.982; ZVAL   =    3.000    mass and valenz                                          
   RCORE  =    2.000    outmost cutoff radius                                                       
   RWIGS  =    2.000; RWIGS  =    1.058    wigner-seitz radius (au A)                               
   ENMAX  =  240.300; ENMIN  =  180.225 eV                                                          
   ICORE  =        3    local potential                                                             
   LCOR   =        T    correct aug charges                                                         
   LPAW   =        T    paw PP                                                                      
   EAUG   =  482.059                                                                                
   DEXC   =    0.000                                                                                
   RMAX   =    2.051    core radius for proj-oper                                                   
   RAUG   =    1.300    factor for augmentation sphere                                              
   RDEP   =    2.096    radius for radial grids                                                     
   RDEPT  =    1.856    core radius for aug-charge                                                  
                                                                                                    
   Atomic configuration                                                                             
    7 entries                                                                                       
     n  l   j            E        occ.                                                              
     1  0  0.50     -1511.1048   2.0000                                                             
     2  0  0.50      -108.1629   2.0000                                                             
     2  1  1.50       -69.6402   6.0000                                                             
     3  0  0.50        -7.7528   2.0000                                                             
     3  1  1.50        -2.7121   1.0000                                                             
     3  2  2.50        -2.7212   0.0000                                                             
     4  3  2.50        -2.7212   0.0000                                                             
   Description                                                                                      
     l       E           TYP  RCUT    TYP  RCUT                                                     
     0     -7.7528455     23  1.900                                                                 
     0     68.0291300     23  1.900                                                                 
     1     -2.7120682     23  1.900                                                                 
     1     68.0291300     23  1.900                                                                 
     2     -1.3605826     23  1.900                                                                 
     2     81.6349560     23  1.900                                                                 
     3     74.8320430     23  2.000                                                                 
  local pseudopotential read in
  partial core-charges read in
  partial kinetic energy density read in
  kinetic energy density of atom read in
  atomic valenz-charges read in
  non local Contribution for L=            0  read in
    real space projection operators read in
  non local Contribution for L=            0  read in
    real space projection operators read in
  non local Contribution for L=            1  read in
    real space projection operators read in
  non local Contribution for L=            1  read in
    real space projection operators read in
  non local Contribution for L=            2  read in
    real space projection operators read in
  non local Contribution for L=            2  read in
    real space projection operators read in
    PAW grid and wavefunctions read in
 
   number of l-projection  operators is LMAX  =            6
   number of lm-projection operators is LMMAX =           18
 
 POTCAR:    PAW O_GW 19Mar2012                    
   VRHFIN =O: s2p4                                                                                  
   LEXCH  = PE                                                                                      
   EATOM  =   432.3788 eV,   31.7789 Ry                                                             
                                                                                                    
   TITEL  = PAW O_GW 19Mar2012                                                                      
   LULTRA =        F    use ultrasoft PP ?                                                          
   IUNSCR =        1    unscreen: 0-lin 1-nonlin 2-no                                               
   RPACOR =    0.800    partial core radius                                                         
   POMASS =   16.000; ZVAL   =    6.000    mass and valenz                                          
   RCORE  =    1.600    outmost cutoff radius                                                       
   RWIGS  =    1.600; RWIGS  =    0.847    wigner-seitz radius (au A)                               
   ENMAX  =  434.431; ENMIN  =  325.824 eV                                                          
   ICORE  =        3    local potential                                                             
   LCOR   =        T    correct aug charges                                                         
   LPAW   =        T    paw PP                                                                      
   EAUG   = 1139.609                                                                                
   DEXC   =    0.000                                                                                
   RMAX   =    1.629    core radius for proj-oper                                                   
   RAUG   =    1.300    factor for augmentation sphere                                              
   RDEP   =    1.652    radius for radial grids                                                     
   RDEPT  =    1.200    core radius for aug-charge                                                  
                                                                                                    
   Atomic configuration                                                                             
    5 entries                                                                                       
     n  l   j            E        occ.                                                              
     1  0  0.50      -514.6923   2.0000                                                             
     2  0  0.50       -23.9615   2.0000                                                             
     2  1  0.50        -9.0305   4.0000                                                             
     3  2  1.50        -9.5241   0.0000                                                             
     4  3  2.50        -9.5241   0.0000                                                             
   Description                                                                                      
     l       E           TYP  RCUT    TYP  RCUT                                                     
     0    -23.9615316     23  1.150                                                                 
     0    -25.3221142     23  1.150                                                                 
     0    244.9048680     23  1.300                                                                 
     1     -9.0304908     23  1.500                                                                 
     1     -6.9258396     23  1.500                                                                 
     1    122.4524340     23  1.500                                                                 
     2     13.6058260     23  1.500                                                                 
     2    190.4815640     23  1.600                                                                 
     3     54.4233040     23  1.400                                                                 
  local pseudopotential read in
  partial core-charges read in
  partial kinetic energy density read in
  kinetic energy density of atom read in
  atomic valenz-charges read in
  non local Contribution for L=            0  read in
    real space projection operators read in
  non local Contribution for L=            0  read in
    real space projection operators read in
  non local Contribution for L=            0  read in
    real space projection operators read in
  non local Contribution for L=            1  read in
    real space projection operators read in
  non local Contribution for L=            1  read in
    real space projection operators read in
  non local Contribution for L=            1  read in
    real space projection operators read in
  non local Contribution for L=            2  read in
    real space projection operators read in
  non local Contribution for L=            2  read in
    real space projection operators read in
    PAW grid and wavefunctions read in
 
   number of l-projection  operators is LMAX  =            8
   number of lm-projection operators is LMMAX =           22
 
 Optimization of the real space projectors (new method)

 maximal supplied QI-value         = 18.90
 optimisation between [QCUT,QGAM] = [  9.64, 19.28] = [ 26.01,104.04] Ry 
 Optimized for a Real-space Cutoff    1.46 Angstroem

   l    n(q)    QCUT    max X(q) W(low)/X(q) W(high)/X(q)  e(spline) 
   0      8     9.638    11.519    0.10E-03    0.23E-03    0.86E-07
   0      8     9.638     5.834    0.72E-04    0.17E-03    0.68E-07
   1      8     9.638    10.132    0.33E-03    0.11E-03    0.32E-06
   1      8     9.638     3.004    0.25E-03    0.10E-03    0.24E-06
   2      7     9.638     3.169    0.30E-03    0.50E-03    0.35E-06
   2      7     9.638     1.607    0.15E-03    0.13E-03    0.12E-06
 Optimization of the real space projectors (new method)

 maximal supplied QI-value         = 23.62
 optimisation between [QCUT,QGAM] = [  9.68, 19.37] = [ 26.27,105.06] Ry 
 Optimized for a Real-space Cutoff    2.14 Angstroem

   l    n(q)    QCUT    max X(q) W(low)/X(q) W(high)/X(q)  e(spline) 
   0     13     9.685   116.464    0.15E-03    0.15E-03    0.47E-05
   0     13     9.685   116.329    0.15E-03    0.15E-03    0.46E-05
   0     13     9.685     0.942    0.20E-04    0.50E-04    0.17E-05
   1     12     9.685    29.046    0.36E-03    0.11E-02    0.25E-04
   1     12     9.685    24.247    0.38E-03    0.11E-02    0.26E-04
   1     12     9.685     2.381    0.13E-03    0.38E-03    0.78E-05
   2     12     9.685     2.237    0.60E-05    0.28E-04    0.14E-05
   2     12     9.685     1.850    0.17E-04    0.70E-04    0.25E-05
  PAW Al_GW 19Mar2012                   :
 energy of atom  1       EATOM=  -53.5387
 kinetic energy error for atom=    0.0006 (will be added to EATOM!!)
  PAW O_GW 19Mar2012                    :
 energy of atom  2       EATOM= -432.3788
 kinetic energy error for atom=    0.3913 (will be added to EATOM!!)
 
 
 POSCAR: New structure
  positions in cartesian coordinates
  No initial velocities read in
 exchange correlation table for  LEXCH =        8
   RHO(1)=    0.500       N(1)  =     2000
   RHO(2)=  100.500       N(2)  =     4000

 VTST: version 4.1, (05/19/21)

 CHAIN: initializing optimizer
 
 OPT: Using VASP Conjugate-Gradient optimizer
 CHAIN: Read ICHAIN             0
 
 POSCAR: New structure
  positions in cartesian coordinates
  No initial velocities read in
 


--------------------------------------------------------------------------------------------------------


 ion  position               nearest neighbor table
   1  0.000  0.000  0.000- 257 2.02
   2  0.000  0.125  0.125-
   3  0.125  0.000  0.125- 257 2.02
   4  0.125  0.125  0.000- 257 2.02
   5  0.000  0.000  0.250-
   6  0.000  0.125  0.375-
   7  0.125  0.000  0.375-
   8  0.125  0.125  0.250-
   9  0.000  0.000  0.500-
  10  0.000  0.125  0.625-
  11  0.125  0.000  0.625-
  12  0.125  0.125  0.500-
  13  0.000  0.000  0.750-
  14  0.000  0.125  0.875-
  15  0.125  0.000  0.875- 257 2.02
  16  0.125  0.125  0.750-
  17  0.000  0.250  0.000-
  18  0.000  0.375  0.125-
  19  0.125  0.250  0.125-
  20  0.125  0.375  0.000-
  21  0.000  0.250  0.250-
  22  0.000  0.375  0.375-
  23  0.125  0.250  0.375-
  24  0.125  0.375  0.250-
  25  0.000  0.250  0.500-
  26  0.000  0.375  0.625-
  27  0.125  0.250  0.625-
  28  0.125  0.375  0.500-
  29  0.000  0.250  0.750-
  30  0.000  0.375  0.875-
  31  0.125  0.250  0.875-
  32  0.125  0.375  0.750-
  33  0.000  0.500  0.000-
  34  0.000  0.625  0.125-
  35  0.125  0.500  0.125-
  36  0.125  0.625  0.000-
  37  0.000  0.500  0.250-
  38  0.000  0.625  0.375-
  39  0.125  0.500  0.375-
  40  0.125  0.625  0.250-
  41  0.000  0.500  0.500-
  42  0.000  0.625  0.625-
  43  0.125  0.500  0.625-
  44  0.125  0.625  0.500-
  45  0.000  0.500  0.750-
  46  0.000  0.625  0.875-
  47  0.125  0.500  0.875-
  48  0.125  0.625  0.750-
  49  0.000  0.750  0.000-
  50  0.000  0.875  0.125-
  51  0.125  0.750  0.125-
  52  0.125  0.875  0.000- 257 2.02
  53  0.000  0.750  0.250-
  54  0.000  0.875  0.375-
  55  0.125  0.750  0.375-
  56  0.125  0.875  0.250-
  57  0.000  0.750  0.500-
  58  0.000  0.875  0.625-
  59  0.125  0.750  0.625-
  60  0.125  0.875  0.500-
  61  0.000  0.750  0.750-
  62  0.000  0.875  0.875-
  63  0.125  0.750  0.875-
  64  0.125  0.875  0.750-
  65  0.250  0.000  0.000- 257 2.02
  66  0.250  0.125  0.125-
  67  0.375  0.000  0.125-
  68  0.375  0.125  0.000-
  69  0.250  0.000  0.250-
  70  0.250  0.125  0.375-
  71  0.375  0.000  0.375-
  72  0.375  0.125  0.250-
  73  0.250  0.000  0.500-
  74  0.250  0.125  0.625-
  75  0.375  0.000  0.625-
  76  0.375  0.125  0.500-
  77  0.250  0.000  0.750-
  78  0.250  0.125  0.875-
  79  0.375  0.000  0.875-
  80  0.375  0.125  0.750-
  81  0.250  0.250  0.000-
  82  0.250  0.375  0.125-
  83  0.375  0.250  0.125-
  84  0.375  0.375  0.000-
  85  0.250  0.250  0.250-
  86  0.250  0.375  0.375-
  87  0.375  0.250  0.375-
  88  0.375  0.375  0.250-
  89  0.250  0.250  0.500-
  90  0.250  0.375  0.625-
  91  0.375  0.250  0.625-
  92  0.375  0.375  0.500-
  93  0.250  0.250  0.750-
  94  0.250  0.375  0.875-
  95  0.375  0.250  0.875-
  96  0.375  0.375  0.750-
  97  0.250  0.500  0.000-
  98  0.250  0.625  0.125-
  99  0.375  0.500  0.125-
 100  0.375  0.625  0.000-
 101  0.250  0.500  0.250-
 102  0.250  0.625  0.375-
 103  0.375  0.500  0.375-
 104  0.375  0.625  0.250-
 105  0.250  0.500  0.500-
 106  0.250  0.625  0.625-
 107  0.375  0.500  0.625-
 108  0.375  0.625  0.500-
 109  0.250  0.500  0.750-
 110  0.250  0.625  0.875-
 111  0.375  0.500  0.875-
 112  0.375  0.625  0.750-
 113  0.250  0.750  0.000-
 114  0.250  0.875  0.125-
 115  0.375  0.750  0.125-
 116  0.375  0.875  0.000-
 117  0.250  0.750  0.250-
 118  0.250  0.875  0.375-
 119  0.375  0.750  0.375-
 120  0.375  0.875  0.250-
 121  0.250  0.750  0.500-
 122  0.250  0.875  0.625-
 123  0.375  0.750  0.625-
 124  0.375  0.875  0.500-
 125  0.250  0.750  0.750-
 126  0.250  0.875  0.875-
 127  0.375  0.750  0.875-
 128  0.375  0.875  0.750-
 129  0.500  0.000  0.000-
 130  0.500  0.125  0.125-
 131  0.625  0.000  0.125-
 132  0.625  0.125  0.000-
 133  0.500  0.000  0.250-
 134  0.500  0.125  0.375-
 135  0.625  0.000  0.375-
 136  0.625  0.125  0.250-
 137  0.500  0.000  0.500-
 138  0.500  0.125  0.625-
 139  0.625  0.000  0.625-
 140  0.625  0.125  0.500-
 141  0.500  0.000  0.750-
 142  0.500  0.125  0.875-
 143  0.625  0.000  0.875-
 144  0.625  0.125  0.750-
 145  0.500  0.250  0.000-
 146  0.500  0.375  0.125-
 147  0.625  0.250  0.125-
 148  0.625  0.375  0.000-
 149  0.500  0.250  0.250-
 150  0.500  0.375  0.375-
 151  0.625  0.250  0.375-
 152  0.625  0.375  0.250-
 153  0.500  0.250  0.500-
 154  0.500  0.375  0.625-
 155  0.625  0.250  0.625-
 156  0.625  0.375  0.500-
 157  0.500  0.250  0.750-
 158  0.500  0.375  0.875-
 159  0.625  0.250  0.875-
 160  0.625  0.375  0.750-
 161  0.500  0.500  0.000-
 162  0.500  0.625  0.125-
 163  0.625  0.500  0.125-
 164  0.625  0.625  0.000-
 165  0.500  0.500  0.250-
 166  0.500  0.625  0.375-
 167  0.625  0.500  0.375-
 168  0.625  0.625  0.250-
 169  0.500  0.500  0.500-
 170  0.500  0.625  0.625-
 171  0.625  0.500  0.625-
 172  0.625  0.625  0.500-
 173  0.500  0.500  0.750-
 174  0.500  0.625  0.875-
 175  0.625  0.500  0.875-
 176  0.625  0.625  0.750-
 177  0.500  0.750  0.000-
 178  0.500  0.875  0.125-
 179  0.625  0.750  0.125-
 180  0.625  0.875  0.000-
 181  0.500  0.750  0.250-
 182  0.500  0.875  0.375-
 183  0.625  0.750  0.375-
 184  0.625  0.875  0.250-
 185  0.500  0.750  0.500-
 186  0.500  0.875  0.625-
 187  0.625  0.750  0.625-
 188  0.625  0.875  0.500-
 189  0.500  0.750  0.750-
 190  0.500  0.875  0.875-
 191  0.625  0.750  0.875-
 192  0.625  0.875  0.750-
 193  0.750  0.000  0.000-
 194  0.750  0.125  0.125-
 195  0.875  0.000  0.125-
 196  0.875  0.125  0.000-
 197  0.750  0.000  0.250-
 198  0.750  0.125  0.375-
 199  0.875  0.000  0.375-
 200  0.875  0.125  0.250-
 201  0.750  0.000  0.500-
 202  0.750  0.125  0.625-
 203  0.875  0.000  0.625-
 204  0.875  0.125  0.500-
 205  0.750  0.000  0.750-
 206  0.750  0.125  0.875-
 207  0.875  0.000  0.875-
 208  0.875  0.125  0.750-
 209  0.750  0.250  0.000-
 210  0.750  0.375  0.125-
 211  0.875  0.250  0.125-
 212  0.875  0.375  0.000-
 213  0.750  0.250  0.250-
 214  0.750  0.375  0.375-
 215  0.875  0.250  0.375-
 216  0.875  0.375  0.250-
 217  0.750  0.250  0.500-
 218  0.750  0.375  0.625-
 219  0.875  0.250  0.625-
 220  0.875  0.375  0.500-
 221  0.750  0.250  0.750-
 222  0.750  0.375  0.875-
 223  0.875  0.250  0.875-
 224  0.875  0.375  0.750-
 225  0.750  0.500  0.000-
 226  0.750  0.625  0.125-
 227  0.875  0.500  0.125-
 228  0.875  0.625  0.000-
 229  0.750  0.500  0.250-
 230  0.750  0.625  0.375-
 231  0.875  0.500  0.375-
 232  0.875  0.625  0.250-
 233  0.750  0.500  0.500-
 234  0.750  0.625  0.625-
 235  0.875  0.500  0.625-
 236  0.875  0.625  0.500-
 237  0.750  0.500  0.750-
 238  0.750  0.625  0.875-
 239  0.875  0.500  0.875-
 240  0.875  0.625  0.750-
 241  0.750  0.750  0.000-
 242  0.750  0.875  0.125-
 243  0.875  0.750  0.125-
 244  0.875  0.875  0.000-
 245  0.750  0.750  0.250-
 246  0.750  0.875  0.375-
 247  0.875  0.750  0.375-
 248  0.875  0.875  0.250-
 249  0.750  0.750  0.500-
 250  0.750  0.875  0.625-
 251  0.875  0.750  0.625-
 252  0.875  0.875  0.500-
 253  0.750  0.750  0.750-
 254  0.750  0.875  0.875-
 255  0.875  0.750  0.875-
 256  0.875  0.875  0.750-
 257  0.125  0.000  0.000-   1 2.02   3 2.02   4 2.02  15 2.02  52 2.02  65 2.02
 
  LATTYP: Found a simple cubic cell.
 ALAT       =    16.1980000000
  
  Lattice vectors:
  
 A1 = (  16.1980000000,   0.0000000000,   0.0000000000)
 A2 = (   0.0000000000,  16.1980000000,   0.0000000000)
 A3 = (   0.0000000000,   0.0000000000,  16.1980000000)


Analysis of symmetry for initial positions (statically):
=====================================================================
 Subroutine PRICEL returns:
 Original cell was already a primitive cell.
 

 Routine SETGRP: Setting up the symmetry group for a 
 simple cubic supercell.


 Subroutine GETGRP returns: Found 48 space group operations
 (whereof  8 operations were pure point group operations)
 out of a pool of 48 trial point group operations.


The static configuration has the point symmetry C_4v.
 The point group associated with its full space group is O_h .


Analysis of symmetry for dynamics (positions and initial velocities):
=====================================================================
 Subroutine PRICEL returns:
 Original cell was already a primitive cell.
 

 Routine SETGRP: Setting up the symmetry group for a 
 simple cubic supercell.


 Subroutine GETGRP returns: Found 48 space group operations
 (whereof  8 operations were pure point group operations)
 out of a pool of 48 trial point group operations.


The dynamic configuration has the point symmetry C_4v.
 The point group associated with its full space group is O_h .


 Subroutine INISYM returns: Found 48 space group operations
 (whereof  8 operations are pure point group operations),
 and found     1 'primitive' translations


----------------------------------------------------------------------------------------

                                     Primitive cell                                     

  volume of cell :    4249.9536

  direct lattice vectors                    reciprocal lattice vectors
    16.198000000  0.000000000  0.000000000     0.061736017  0.000000000  0.000000000
     0.000000000 16.198000000  0.000000000     0.000000000  0.061736017  0.000000000
     0.000000000  0.000000000 16.198000000     0.000000000  0.000000000  0.061736017

  length of vectors
    16.198000000 16.198000000 16.198000000     0.061736017  0.061736017  0.061736017

  position of ions in fractional coordinates (direct lattice)
     0.000000000  0.000000000  0.000000000
     0.000000000  0.125000000  0.125000000
     0.125000000  0.000000000  0.125000000
     0.125000000  0.125000000  0.000000000
     0.000000000  0.000000000  0.250000000
     0.000000000  0.125000000  0.375000000
     0.125000000  0.000000000  0.375000000
     0.125000000  0.125000000  0.250000000
     0.000000000  0.000000000  0.500000000
     0.000000000  0.125000000  0.625000000
     0.125000000  0.000000000  0.625000000
     0.125000000  0.125000000  0.500000000
     0.000000000  0.000000000  0.750000000
     0.000000000  0.125000000  0.875000000
     0.125000000  0.000000000  0.875000000
     0.125000000  0.125000000  0.750000000
     0.000000000  0.250000000  0.000000000
     0.000000000  0.375000000  0.125000000
     0.125000000  0.250000000  0.125000000
     0.125000000  0.375000000  0.000000000
     0.000000000  0.250000000  0.250000000
     0.000000000  0.375000000  0.375000000
     0.125000000  0.250000000  0.375000000
     0.125000000  0.375000000  0.250000000
     0.000000000  0.250000000  0.500000000
     0.000000000  0.375000000  0.625000000
     0.125000000  0.250000000  0.625000000
     0.125000000  0.375000000  0.500000000
     0.000000000  0.250000000  0.750000000
     0.000000000  0.375000000  0.875000000
     0.125000000  0.250000000  0.875000000
     0.125000000  0.375000000  0.750000000
     0.000000000  0.500000000  0.000000000
     0.000000000  0.625000000  0.125000000
     0.125000000  0.500000000  0.125000000
     0.125000000  0.625000000  0.000000000
     0.000000000  0.500000000  0.250000000
     0.000000000  0.625000000  0.375000000
     0.125000000  0.500000000  0.375000000
     0.125000000  0.625000000  0.250000000
     0.000000000  0.500000000  0.500000000
     0.000000000  0.625000000  0.625000000
     0.125000000  0.500000000  0.625000000
     0.125000000  0.625000000  0.500000000
     0.000000000  0.500000000  0.750000000
     0.000000000  0.625000000  0.875000000
     0.125000000  0.500000000  0.875000000
     0.125000000  0.625000000  0.750000000
     0.000000000  0.750000000  0.000000000
     0.000000000  0.875000000  0.125000000
     0.125000000  0.750000000  0.125000000
     0.125000000  0.875000000  0.000000000
     0.000000000  0.750000000  0.250000000
     0.000000000  0.875000000  0.375000000
     0.125000000  0.750000000  0.375000000
     0.125000000  0.875000000  0.250000000
     0.000000000  0.750000000  0.500000000
     0.000000000  0.875000000  0.625000000
     0.125000000  0.750000000  0.625000000
     0.125000000  0.875000000  0.500000000
     0.000000000  0.750000000  0.750000000
     0.000000000  0.875000000  0.875000000
     0.125000000  0.750000000  0.875000000
     0.125000000  0.875000000  0.750000000
     0.250000000  0.000000000  0.000000000
     0.250000000  0.125000000  0.125000000
     0.375000000  0.000000000  0.125000000
     0.375000000  0.125000000  0.000000000
     0.250000000  0.000000000  0.250000000
     0.250000000  0.125000000  0.375000000
     0.375000000  0.000000000  0.375000000
     0.375000000  0.125000000  0.250000000
     0.250000000  0.000000000  0.500000000
     0.250000000  0.125000000  0.625000000
     0.375000000  0.000000000  0.625000000
     0.375000000  0.125000000  0.500000000
     0.250000000  0.000000000  0.750000000
     0.250000000  0.125000000  0.875000000
     0.375000000  0.000000000  0.875000000
     0.375000000  0.125000000  0.750000000
     0.250000000  0.250000000  0.000000000
     0.250000000  0.375000000  0.125000000
     0.375000000  0.250000000  0.125000000
     0.375000000  0.375000000  0.000000000
     0.250000000  0.250000000  0.250000000
     0.250000000  0.375000000  0.375000000
     0.375000000  0.250000000  0.375000000
     0.375000000  0.375000000  0.250000000
     0.250000000  0.250000000  0.500000000
     0.250000000  0.375000000  0.625000000
     0.375000000  0.250000000  0.625000000
     0.375000000  0.375000000  0.500000000
     0.250000000  0.250000000  0.750000000
     0.250000000  0.375000000  0.875000000
     0.375000000  0.250000000  0.875000000
     0.375000000  0.375000000  0.750000000
     0.250000000  0.500000000  0.000000000
     0.250000000  0.625000000  0.125000000
     0.375000000  0.500000000  0.125000000
     0.375000000  0.625000000  0.000000000
     0.250000000  0.500000000  0.250000000
     0.250000000  0.625000000  0.375000000
     0.375000000  0.500000000  0.375000000
     0.375000000  0.625000000  0.250000000
     0.250000000  0.500000000  0.500000000
     0.250000000  0.625000000  0.625000000
     0.375000000  0.500000000  0.625000000
     0.375000000  0.625000000  0.500000000
     0.250000000  0.500000000  0.750000000
     0.250000000  0.625000000  0.875000000
     0.375000000  0.500000000  0.875000000
     0.375000000  0.625000000  0.750000000
     0.250000000  0.750000000  0.000000000
     0.250000000  0.875000000  0.125000000
     0.375000000  0.750000000  0.125000000
     0.375000000  0.875000000  0.000000000
     0.250000000  0.750000000  0.250000000
     0.250000000  0.875000000  0.375000000
     0.375000000  0.750000000  0.375000000
     0.375000000  0.875000000  0.250000000
     0.250000000  0.750000000  0.500000000
     0.250000000  0.875000000  0.625000000
     0.375000000  0.750000000  0.625000000
     0.375000000  0.875000000  0.500000000
     0.250000000  0.750000000  0.750000000
     0.250000000  0.875000000  0.875000000
     0.375000000  0.750000000  0.875000000
     0.375000000  0.875000000  0.750000000
     0.500000000  0.000000000  0.000000000
     0.500000000  0.125000000  0.125000000
     0.625000000  0.000000000  0.125000000
     0.625000000  0.125000000  0.000000000
     0.500000000  0.000000000  0.250000000
     0.500000000  0.125000000  0.375000000
     0.625000000  0.000000000  0.375000000
     0.625000000  0.125000000  0.250000000
     0.500000000  0.000000000  0.500000000
     0.500000000  0.125000000  0.625000000
     0.625000000  0.000000000  0.625000000
     0.625000000  0.125000000  0.500000000
     0.500000000  0.000000000  0.750000000
     0.500000000  0.125000000  0.875000000
     0.625000000  0.000000000  0.875000000
     0.625000000  0.125000000  0.750000000
     0.500000000  0.250000000  0.000000000
     0.500000000  0.375000000  0.125000000
     0.625000000  0.250000000  0.125000000
     0.625000000  0.375000000  0.000000000
     0.500000000  0.250000000  0.250000000
     0.500000000  0.375000000  0.375000000
     0.625000000  0.250000000  0.375000000
     0.625000000  0.375000000  0.250000000
     0.500000000  0.250000000  0.500000000
     0.500000000  0.375000000  0.625000000
     0.625000000  0.250000000  0.625000000
     0.625000000  0.375000000  0.500000000
     0.500000000  0.250000000  0.750000000
     0.500000000  0.375000000  0.875000000
     0.625000000  0.250000000  0.875000000
     0.625000000  0.375000000  0.750000000
     0.500000000  0.500000000  0.000000000
     0.500000000  0.625000000  0.125000000
     0.625000000  0.500000000  0.125000000
     0.625000000  0.625000000  0.000000000
     0.500000000  0.500000000  0.250000000
     0.500000000  0.625000000  0.375000000
     0.625000000  0.500000000  0.375000000
     0.625000000  0.625000000  0.250000000
     0.500000000  0.500000000  0.500000000
     0.500000000  0.625000000  0.625000000
     0.625000000  0.500000000  0.625000000
     0.625000000  0.625000000  0.500000000
     0.500000000  0.500000000  0.750000000
     0.500000000  0.625000000  0.875000000
     0.625000000  0.500000000  0.875000000
     0.625000000  0.625000000  0.750000000
     0.500000000  0.750000000  0.000000000
     0.500000000  0.875000000  0.125000000
     0.625000000  0.750000000  0.125000000
     0.625000000  0.875000000  0.000000000
     0.500000000  0.750000000  0.250000000
     0.500000000  0.875000000  0.375000000
     0.625000000  0.750000000  0.375000000
     0.625000000  0.875000000  0.250000000
     0.500000000  0.750000000  0.500000000
     0.500000000  0.875000000  0.625000000
     0.625000000  0.750000000  0.625000000
     0.625000000  0.875000000  0.500000000
     0.500000000  0.750000000  0.750000000
     0.500000000  0.875000000  0.875000000
     0.625000000  0.750000000  0.875000000
     0.625000000  0.875000000  0.750000000
     0.750000000  0.000000000  0.000000000
     0.750000000  0.125000000  0.125000000
     0.875000000  0.000000000  0.125000000
     0.875000000  0.125000000  0.000000000
     0.750000000  0.000000000  0.250000000
     0.750000000  0.125000000  0.375000000
     0.875000000  0.000000000  0.375000000
     0.875000000  0.125000000  0.250000000
     0.750000000  0.000000000  0.500000000
     0.750000000  0.125000000  0.625000000
     0.875000000  0.000000000  0.625000000
     0.875000000  0.125000000  0.500000000
     0.750000000  0.000000000  0.750000000
     0.750000000  0.125000000  0.875000000
     0.875000000  0.000000000  0.875000000
     0.875000000  0.125000000  0.750000000
     0.750000000  0.250000000  0.000000000
     0.750000000  0.375000000  0.125000000
     0.875000000  0.250000000  0.125000000
     0.875000000  0.375000000  0.000000000
     0.750000000  0.250000000  0.250000000
     0.750000000  0.375000000  0.375000000
     0.875000000  0.250000000  0.375000000
     0.875000000  0.375000000  0.250000000
     0.750000000  0.250000000  0.500000000
     0.750000000  0.375000000  0.625000000
     0.875000000  0.250000000  0.625000000
     0.875000000  0.375000000  0.500000000
     0.750000000  0.250000000  0.750000000
     0.750000000  0.375000000  0.875000000
     0.875000000  0.250000000  0.875000000
     0.875000000  0.375000000  0.750000000
     0.750000000  0.500000000  0.000000000
     0.750000000  0.625000000  0.125000000
     0.875000000  0.500000000  0.125000000
     0.875000000  0.625000000  0.000000000
     0.750000000  0.500000000  0.250000000
     0.750000000  0.625000000  0.375000000
     0.875000000  0.500000000  0.375000000
     0.875000000  0.625000000  0.250000000
     0.750000000  0.500000000  0.500000000
     0.750000000  0.625000000  0.625000000
     0.875000000  0.500000000  0.625000000
     0.875000000  0.625000000  0.500000000
     0.750000000  0.500000000  0.750000000
     0.750000000  0.625000000  0.875000000
     0.875000000  0.500000000  0.875000000
     0.875000000  0.625000000  0.750000000
     0.750000000  0.750000000  0.000000000
     0.750000000  0.875000000  0.125000000
     0.875000000  0.750000000  0.125000000
     0.875000000  0.875000000  0.000000000
     0.750000000  0.750000000  0.250000000
     0.750000000  0.875000000  0.375000000
     0.875000000  0.750000000  0.375000000
     0.875000000  0.875000000  0.250000000
     0.750000000  0.750000000  0.500000000
     0.750000000  0.875000000  0.625000000
     0.875000000  0.750000000  0.625000000
     0.875000000  0.875000000  0.500000000
     0.750000000  0.750000000  0.750000000
     0.750000000  0.875000000  0.875000000
     0.875000000  0.750000000  0.875000000
     0.875000000  0.875000000  0.750000000
     0.125000000  0.000000000  0.000000000

  ion indices of the primitive-cell ions
   primitive index   ion index
                 1           1
                 2           2
                 3           3
                 4           4
                 5           5
                 6           6
                 7           7
                 8           8
                 9           9
                10          10
                11          11
                12          12
                13          13
                14          14
                15          15
                16          16
                17          17
                18          18
                19          19
                20          20
                21          21
                22          22
                23          23
                24          24
                25          25
                26          26
                27          27
                28          28
                29          29
                30          30
                31          31
                32          32
                33          33
                34          34
                35          35
                36          36
                37          37
                38          38
                39          39
                40          40
                41          41
                42          42
                43          43
                44          44
                45          45
                46          46
                47          47
                48          48
                49          49
                50          50
                51          51
                52          52
                53          53
                54          54
                55          55
                56          56
                57          57
                58          58
                59          59
                60          60
                61          61
                62          62
                63          63
                64          64
                65          65
                66          66
                67          67
                68          68
                69          69
                70          70
                71          71
                72          72
                73          73
                74          74
                75          75
                76          76
                77          77
                78          78
                79          79
                80          80
                81          81
                82          82
                83          83
                84          84
                85          85
                86          86
                87          87
                88          88
                89          89
                90          90
                91          91
                92          92
                93          93
                94          94
                95          95
                96          96
                97          97
                98          98
                99          99
               100         100
               101         101
               102         102
               103         103
               104         104
               105         105
               106         106
               107         107
               108         108
               109         109
               110         110
               111         111
               112         112
               113         113
               114         114
               115         115
               116         116
               117         117
               118         118
               119         119
               120         120
               121         121
               122         122
               123         123
               124         124
               125         125
               126         126
               127         127
               128         128
               129         129
               130         130
               131         131
               132         132
               133         133
               134         134
               135         135
               136         136
               137         137
               138         138
               139         139
               140         140
               141         141
               142         142
               143         143
               144         144
               145         145
               146         146
               147         147
               148         148
               149         149
               150         150
               151         151
               152         152
               153         153
               154         154
               155         155
               156         156
               157         157
               158         158
               159         159
               160         160
               161         161
               162         162
               163         163
               164         164
               165         165
               166         166
               167         167
               168         168
               169         169
               170         170
               171         171
               172         172
               173         173
               174         174
               175         175
               176         176
               177         177
               178         178
               179         179
               180         180
               181         181
               182         182
               183         183
               184         184
               185         185
               186         186
               187         187
               188         188
               189         189
               190         190
               191         191
               192         192
               193         193
               194         194
               195         195
               196         196
               197         197
               198         198
               199         199
               200         200
               201         201
               202         202
               203         203
               204         204
               205         205
               206         206
               207         207
               208         208
               209         209
               210         210
               211         211
               212         212
               213         213
               214         214
               215         215
               216         216
               217         217
               218         218
               219         219
               220         220
               221         221
               222         222
               223         223
               224         224
               225         225
               226         226
               227         227
               228         228
               229         229
               230         230
               231         231
               232         232
               233         233
               234         234
               235         235
               236         236
               237         237
               238         238
               239         239
               240         240
               241         241
               242         242
               243         243
               244         244
               245         245
               246         246
               247         247
               248         248
               249         249
               250         250
               251         251
               252         252
               253         253
               254         254
               255         255
               256         256
               257         257

----------------------------------------------------------------------------------------

 
 
 KPOINTS: Automatic generation                    

Automatic generation of k-mesh.
 Grid dimensions read from file:
 generate k-points for:    2    2    2

 Generating k-lattice:

  Cartesian coordinates                     Fractional coordinates (reciprocal lattice)
     0.030868008  0.000000000  0.000000000     0.500000000  0.000000000  0.000000000
     0.000000000  0.030868008  0.000000000     0.000000000  0.500000000  0.000000000
     0.000000000  0.000000000  0.030868008     0.000000000  0.000000000  0.500000000

  Length of vectors
     0.030868008  0.030868008  0.030868008

  Shift w.r.t. Gamma in fractional coordinates (k-lattice)
     0.000000000  0.000000000  0.000000000

 
 Subroutine IBZKPT returns following result:
 ===========================================
 
 Found      4 irreducible k-points:
 
 Following reciprocal coordinates:
            Coordinates               Weight
  0.000000  0.000000  0.000000      1.000000
  0.500000  0.000000  0.000000      3.000000
  0.500000  0.500000  0.000000      3.000000
  0.500000  0.500000  0.500000      1.000000
 
 Following cartesian coordinates:
            Coordinates               Weight
  0.000000  0.000000  0.000000      1.000000
  0.030868  0.000000  0.000000      3.000000
  0.030868  0.030868  0.000000      3.000000
  0.030868  0.030868  0.030868      1.000000
 


--------------------------------------------------------------------------------------------------------




 Dimension of arrays:
   k-points           NKPTS =      4   k-points in BZ     NKDIM =      4   number of bands    NBANDS=    516
   number of dos      NEDOS =    301   number of ions     NIONS =    257
   non local maximal  LDIM  =      8   non local SUM 2l+1 LMDIM =     22
   total plane-waves  NPLWV = 512000
   max r-space proj   IRMAX =   4974   max aug-charges    IRDMAX=   4888
   dimension x,y,z NGX =    80 NGY =   80 NGZ =   80
   dimension x,y,z NGXF=   160 NGYF=  160 NGZF=  160
   support grid    NGXF=   160 NGYF=  160 NGZF=  160
   ions per type =             256   1
   NGX,Y,Z   is equivalent  to a cutoff of   8.21,  8.21,  8.21 a.u.
   NGXF,Y,Z  is equivalent  to a cutoff of  16.42, 16.42, 16.42 a.u.

 SYSTEM =  NiAl                                    
 POSCAR =  New structure                           

 Startparameter for this run:
   NWRITE =      2    write-flag & timer
   PREC   = normal    normal or accurate (medium, high low for compatibility)
   ISTART =      0    job   : 0-new  1-cont  2-samecut
   ICHARG =      2    charge: 1-file 2-atom 10-const
   ISPIN  =      1    spin polarized calculation?
   LNONCOLLINEAR =      F non collinear calculations
   LSORBIT =      F    spin-orbit coupling
   INIWAV =      1    electr: 0-lowe 1-rand  2-diag
   LASPH  =      F    aspherical Exc in radial PAW
 Electronic Relaxation 1
   ENCUT  =  360.0 eV  26.46 Ry    5.14 a.u.  25.06 25.06 25.06*2*pi/ulx,y,z
   ENINI  =  360.0     initial cutoff
   ENAUG  = 1139.6 eV  augmentation charge cutoff
   NELM   =     60;   NELMIN=  6; NELMDL= -5     # of ELM steps 
   EDIFF  = 0.1E-06   stopping-criterion for ELM
   LREAL  =      T    real-space projection
   NLSPLINE    = F    spline interpolate recip. space projectors
   LCOMPAT=      F    compatible to vasp.4.4
   GGA_COMPAT  = T    GGA compatible to vasp.4.4-vasp.4.6
   LMAXPAW     = -100 max onsite density
   LMAXMIX     =    2 max onsite mixed and CHGCAR
   VOSKOWN=      0    Vosko Wilk Nusair interpolation
   ROPT   =   -0.00050  -0.00050
 Ionic relaxation
   EDIFFG = 0.1E-05   stopping-criterion for IOM
   NSW    =     40    number of steps for IOM
   NBLOCK =      1;   KBLOCK =     40    inner block; outer block 
   IBRION =      2    ionic relax: 0-MD 1-quasi-New 2-CG
   NFREE  =      1    steps in history (QN), initial steepest desc. (CG)
   ISIF   =      1    stress and relaxation
   IWAVPR =     11    prediction:  0-non 1-charg 2-wave 3-comb
   ISYM   =      2    0-nonsym 1-usesym 2-fastsym
   LCORR  =      T    Harris-Foulkes like correction to forces

   POTIM  = 0.2000    time-step for ionic-motion
   TEIN   =    0.0    initial temperature
   TEBEG  =    0.0;   TEEND  =   0.0 temperature during run
   SMASS  =  -3.00    Nose mass-parameter (am)
   estimated Nose-frequenzy (Omega)   =  0.10E-29 period in steps = 0.31E+47 mass=  -0.600E-26a.u.
   SCALEE = 1.0000    scale energy and forces
   NPACO  =    256;   APACO  = 16.0  distance and # of slots for P.C.
   PSTRESS=    0.0 pullay stress

  Mass of Ions in am
   POMASS =  26.98 16.00
  Ionic Valenz
   ZVAL   =   3.00  6.00
  Atomic Wigner-Seitz radii
   RWIGS  =  -1.00 -1.00
  virtual crystal weights 
   VCA    =   1.00  1.00
   NELECT =     774.0000    total number of electrons
   NUPDOWN=      -1.0000    fix difference up-down

 DOS related values:
   EMIN   =  10.00;   EMAX   =-10.00  energy-range for DOS
   EFERMI =   0.00
   ISMEAR =     0;   SIGMA  =   0.05  broadening in eV -4-tet -1-fermi 0-gaus

 Electronic relaxation 2 (details)
   IALGO  =     38    algorithm
   LDIAG  =      T    sub-space diagonalisation (order eigenvalues)
   LSUBROT=      F    optimize rotation matrix (better conditioning)
   TURBO    =      0    0=normal 1=particle mesh
   IRESTART =      0    0=no restart 2=restart with 2 vectors
   NREBOOT  =      0    no. of reboots
   NMIN     =      0    reboot dimension
   EREF     =   0.00    reference energy to select bands
   IMIX   =      4    mixing-type and parameters
     AMIX     =   0.40;   BMIX     =  1.00
     AMIX_MAG =   1.60;   BMIX_MAG =  1.00
     AMIN     =   0.10
     WC   =   100.;   INIMIX=   1;  MIXPRE=   1;  MAXMIX= -45

 Intra band minimization:
   WEIMIN = 0.0010     energy-eigenvalue tresh-hold
   EBREAK =  0.48E-10  absolut break condition
   DEPER  =   0.30     relativ break condition  

   TIME   =   0.40     timestep for ELM

  volume/ion in A,a.u.               =      16.54       111.60
  Fermi-wavevector in a.u.,A,eV,Ry     =   0.927955  1.753581 11.715993  0.861101
  Thomas-Fermi vector in A             =   2.054080
 
 Write flags
   LWAVE        =      F    write WAVECAR
   LDOWNSAMPLE  =      F    k-point downsampling of WAVECAR
   LCHARG       =      F    write CHGCAR
   LVTOT        =      F    write LOCPOT, total local potential
   LVHAR        =      F    write LOCPOT, Hartree potential only
   LELF         =      F    write electronic localiz. function (ELF)
   LORBIT       =      0    0 simple, 1 ext, 2 COOP (PROOUT), +10 PAW based schemes


 Dipole corrections
   LMONO  =      F    monopole corrections only (constant potential shift)
   LDIPOL =      F    correct potential (dipole corrections)
   IDIPOL =      0    1-x, 2-y, 3-z, 4-all directions 
   EPSILON=  1.0000000 bulk dielectric constant

 Exchange correlation treatment:
   GGA     =    --    GGA type
   LEXCH   =     8    internal setting for exchange type
   VOSKOWN=      0    Vosko Wilk Nusair interpolation
   LHFCALC =     F    Hartree Fock is set to
   LHFONE  =     F    Hartree Fock one center treatment
   AEXX    =    0.0000 exact exchange contribution

 Linear response parameters
   LEPSILON=     F    determine dielectric tensor
   LRPA    =     F    only Hartree local field effects (RPA)
   LNABLA  =     F    use nabla operator in PAW spheres
   LVEL    =     F    velocity operator in full k-point grid
   LINTERFAST=   F  fast interpolation
   KINTER  =     0    interpolate to denser k-point grid
   CSHIFT  =0.1000    complex shift for real part using Kramers Kronig
   OMEGAMAX=  -1.0    maximum frequency
   DEG_THRESHOLD= 0.2000000E-02 threshold for treating states as degnerate
   RTIME   =   -0.100 relaxation time in fs
  (WPLASMAI=    0.000 imaginary part of plasma frequency in eV, 0.658/RTIME)
   DFIELD  = 0.0000000 0.0000000 0.0000000 field for delta impulse in time
 
 Orbital magnetization related:
   ORBITALMAG=     F  switch on orbital magnetization
   LCHIMAG   =     F  perturbation theory with respect to B field
   DQ        =  0.001000  dq finite difference perturbation B field
   LLRAUG    =     F  two centre corrections for induced B field



--------------------------------------------------------------------------------------------------------


 conjugate gradient relaxation of ions
 charge density and potential will be updated during run
 non-spin polarized calculation
 Variant of blocked Davidson
 Davidson routine will perform the subspace rotation
 perform sub-space diagonalisation
    after iterative eigenvector-optimisation
 modified Broyden-mixing scheme, WC =      100.0
 initial mixing is a Kerker type mixing with AMIX =  0.4000 and BMIX =      1.0000
 Hartree-type preconditioning will be used
 using additional bands           129
 real space projection scheme for non local part
 use partial core corrections
 calculate Harris-corrections to forces 
   (improved forces if not selfconsistent)
 use gradient corrections 
 use of overlap-Matrix (Vanderbilt PP)
 Gauss-broadening in eV      SIGMA  =   0.05


--------------------------------------------------------------------------------------------------------


  energy-cutoff  :      360.00
  volume of cell :     4249.95
      direct lattice vectors                 reciprocal lattice vectors
    16.198000000  0.000000000  0.000000000     0.061736017  0.000000000  0.000000000
     0.000000000 16.198000000  0.000000000     0.000000000  0.061736017  0.000000000
     0.000000000  0.000000000 16.198000000     0.000000000  0.000000000  0.061736017

  length of vectors
    16.198000000 16.198000000 16.198000000     0.061736017  0.061736017  0.061736017


 
 k-points in units of 2pi/SCALE and weight: Automatic generation                    
   0.00000000  0.00000000  0.00000000       0.125
   0.03086801  0.00000000  0.00000000       0.375
   0.03086801  0.03086801  0.00000000       0.375
   0.03086801  0.03086801  0.03086801       0.125
 
 k-points in reciprocal lattice and weights: Automatic generation                    
   0.00000000  0.00000000  0.00000000       0.125
   0.50000000  0.00000000  0.00000000       0.375
   0.50000000  0.50000000  0.00000000       0.375
   0.50000000  0.50000000  0.50000000       0.125
 
 position of ions in fractional coordinates (direct lattice) 
   0.00000000  0.00000000  0.00000000
   0.00000000  0.12500000  0.12500000
   0.12500000  0.00000000  0.12500000
   0.12500000  0.12500000  0.00000000
   0.00000000  0.00000000  0.25000000
   0.00000000  0.12500000  0.37500000
   0.12500000  0.00000000  0.37500000
   0.12500000  0.12500000  0.25000000
   0.00000000  0.00000000  0.50000000
   0.00000000  0.12500000  0.62500000
   0.12500000  0.00000000  0.62500000
   0.12500000  0.12500000  0.50000000
   0.00000000  0.00000000  0.75000000
   0.00000000  0.12500000  0.87500000
   0.12500000  0.00000000  0.87500000
   0.12500000  0.12500000  0.75000000
   0.00000000  0.25000000  0.00000000
   0.00000000  0.37500000  0.12500000
   0.12500000  0.25000000  0.12500000
   0.12500000  0.37500000  0.00000000
   0.00000000  0.25000000  0.25000000
   0.00000000  0.37500000  0.37500000
   0.12500000  0.25000000  0.37500000
   0.12500000  0.37500000  0.25000000
   0.00000000  0.25000000  0.50000000
   0.00000000  0.37500000  0.62500000
   0.12500000  0.25000000  0.62500000
   0.12500000  0.37500000  0.50000000
   0.00000000  0.25000000  0.75000000
   0.00000000  0.37500000  0.87500000
   0.12500000  0.25000000  0.87500000
   0.12500000  0.37500000  0.75000000
   0.00000000  0.50000000  0.00000000
   0.00000000  0.62500000  0.12500000
   0.12500000  0.50000000  0.12500000
   0.12500000  0.62500000  0.00000000
   0.00000000  0.50000000  0.25000000
   0.00000000  0.62500000  0.37500000
   0.12500000  0.50000000  0.37500000
   0.12500000  0.62500000  0.25000000
   0.00000000  0.50000000  0.50000000
   0.00000000  0.62500000  0.62500000
   0.12500000  0.50000000  0.62500000
   0.12500000  0.62500000  0.50000000
   0.00000000  0.50000000  0.75000000
   0.00000000  0.62500000  0.87500000
   0.12500000  0.50000000  0.87500000
   0.12500000  0.62500000  0.75000000
   0.00000000  0.75000000  0.00000000
   0.00000000  0.87500000  0.12500000
   0.12500000  0.75000000  0.12500000
   0.12500000  0.87500000  0.00000000
   0.00000000  0.75000000  0.25000000
   0.00000000  0.87500000  0.37500000
   0.12500000  0.75000000  0.37500000
   0.12500000  0.87500000  0.25000000
   0.00000000  0.75000000  0.50000000
   0.00000000  0.87500000  0.62500000
   0.12500000  0.75000000  0.62500000
   0.12500000  0.87500000  0.50000000
   0.00000000  0.75000000  0.75000000
   0.00000000  0.87500000  0.87500000
   0.12500000  0.75000000  0.87500000
   0.12500000  0.87500000  0.75000000
   0.25000000  0.00000000  0.00000000
   0.25000000  0.12500000  0.12500000
   0.37500000  0.00000000  0.12500000
   0.37500000  0.12500000  0.00000000
   0.25000000  0.00000000  0.25000000
   0.25000000  0.12500000  0.37500000
   0.37500000  0.00000000  0.37500000
   0.37500000  0.12500000  0.25000000
   0.25000000  0.00000000  0.50000000
   0.25000000  0.12500000  0.62500000
   0.37500000  0.00000000  0.62500000
   0.37500000  0.12500000  0.50000000
   0.25000000  0.00000000  0.75000000
   0.25000000  0.12500000  0.87500000
   0.37500000  0.00000000  0.87500000
   0.37500000  0.12500000  0.75000000
   0.25000000  0.25000000  0.00000000
   0.25000000  0.37500000  0.12500000
   0.37500000  0.25000000  0.12500000
   0.37500000  0.37500000  0.00000000
   0.25000000  0.25000000  0.25000000
   0.25000000  0.37500000  0.37500000
   0.37500000  0.25000000  0.37500000
   0.37500000  0.37500000  0.25000000
   0.25000000  0.25000000  0.50000000
   0.25000000  0.37500000  0.62500000
   0.37500000  0.25000000  0.62500000
   0.37500000  0.37500000  0.50000000
   0.25000000  0.25000000  0.75000000
   0.25000000  0.37500000  0.87500000
   0.37500000  0.25000000  0.87500000
   0.37500000  0.37500000  0.75000000
   0.25000000  0.50000000  0.00000000
   0.25000000  0.62500000  0.12500000
   0.37500000  0.50000000  0.12500000
   0.37500000  0.62500000  0.00000000
   0.25000000  0.50000000  0.25000000
   0.25000000  0.62500000  0.37500000
   0.37500000  0.50000000  0.37500000
   0.37500000  0.62500000  0.25000000
   0.25000000  0.50000000  0.50000000
   0.25000000  0.62500000  0.62500000
   0.37500000  0.50000000  0.62500000
   0.37500000  0.62500000  0.50000000
   0.25000000  0.50000000  0.75000000
   0.25000000  0.62500000  0.87500000
   0.37500000  0.50000000  0.87500000
   0.37500000  0.62500000  0.75000000
   0.25000000  0.75000000  0.00000000
   0.25000000  0.87500000  0.12500000
   0.37500000  0.75000000  0.12500000
   0.37500000  0.87500000  0.00000000
   0.25000000  0.75000000  0.25000000
   0.25000000  0.87500000  0.37500000
   0.37500000  0.75000000  0.37500000
   0.37500000  0.87500000  0.25000000
   0.25000000  0.75000000  0.50000000
   0.25000000  0.87500000  0.62500000
   0.37500000  0.75000000  0.62500000
   0.37500000  0.87500000  0.50000000
   0.25000000  0.75000000  0.75000000
   0.25000000  0.87500000  0.87500000
   0.37500000  0.75000000  0.87500000
   0.37500000  0.87500000  0.75000000
   0.50000000  0.00000000  0.00000000
   0.50000000  0.12500000  0.12500000
   0.62500000  0.00000000  0.12500000
   0.62500000  0.12500000  0.00000000
   0.50000000  0.00000000  0.25000000
   0.50000000  0.12500000  0.37500000
   0.62500000  0.00000000  0.37500000
   0.62500000  0.12500000  0.25000000
   0.50000000  0.00000000  0.50000000
   0.50000000  0.12500000  0.62500000
   0.62500000  0.00000000  0.62500000
   0.62500000  0.12500000  0.50000000
   0.50000000  0.00000000  0.75000000
   0.50000000  0.12500000  0.87500000
   0.62500000  0.00000000  0.87500000
   0.62500000  0.12500000  0.75000000
   0.50000000  0.25000000  0.00000000
   0.50000000  0.37500000  0.12500000
   0.62500000  0.25000000  0.12500000
   0.62500000  0.37500000  0.00000000
   0.50000000  0.25000000  0.25000000
   0.50000000  0.37500000  0.37500000
   0.62500000  0.25000000  0.37500000
   0.62500000  0.37500000  0.25000000
   0.50000000  0.25000000  0.50000000
   0.50000000  0.37500000  0.62500000
   0.62500000  0.25000000  0.62500000
   0.62500000  0.37500000  0.50000000
   0.50000000  0.25000000  0.75000000
   0.50000000  0.37500000  0.87500000
   0.62500000  0.25000000  0.87500000
   0.62500000  0.37500000  0.75000000
   0.50000000  0.50000000  0.00000000
   0.50000000  0.62500000  0.12500000
   0.62500000  0.50000000  0.12500000
   0.62500000  0.62500000  0.00000000
   0.50000000  0.50000000  0.25000000
   0.50000000  0.62500000  0.37500000
   0.62500000  0.50000000  0.37500000
   0.62500000  0.62500000  0.25000000
   0.50000000  0.50000000  0.50000000
   0.50000000  0.62500000  0.62500000
   0.62500000  0.50000000  0.62500000
   0.62500000  0.62500000  0.50000000
   0.50000000  0.50000000  0.75000000
   0.50000000  0.62500000  0.87500000
   0.62500000  0.50000000  0.87500000
   0.62500000  0.62500000  0.75000000
   0.50000000  0.75000000  0.00000000
   0.50000000  0.87500000  0.12500000
   0.62500000  0.75000000  0.12500000
   0.62500000  0.87500000  0.00000000
   0.50000000  0.75000000  0.25000000
   0.50000000  0.87500000  0.37500000
   0.62500000  0.75000000  0.37500000
   0.62500000  0.87500000  0.25000000
   0.50000000  0.75000000  0.50000000
   0.50000000  0.87500000  0.62500000
   0.62500000  0.75000000  0.62500000
   0.62500000  0.87500000  0.50000000
   0.50000000  0.75000000  0.75000000
   0.50000000  0.87500000  0.87500000
   0.62500000  0.75000000  0.87500000
   0.62500000  0.87500000  0.75000000
   0.75000000  0.00000000  0.00000000
   0.75000000  0.12500000  0.12500000
   0.87500000  0.00000000  0.12500000
   0.87500000  0.12500000  0.00000000
   0.75000000  0.00000000  0.25000000
   0.75000000  0.12500000  0.37500000
   0.87500000  0.00000000  0.37500000
   0.87500000  0.12500000  0.25000000
   0.75000000  0.00000000  0.50000000
   0.75000000  0.12500000  0.62500000
   0.87500000  0.00000000  0.62500000
   0.87500000  0.12500000  0.50000000
   0.75000000  0.00000000  0.75000000
   0.75000000  0.12500000  0.87500000
   0.87500000  0.00000000  0.87500000
   0.87500000  0.12500000  0.75000000
   0.75000000  0.25000000  0.00000000
   0.75000000  0.37500000  0.12500000
   0.87500000  0.25000000  0.12500000
   0.87500000  0.37500000  0.00000000
   0.75000000  0.25000000  0.25000000
   0.75000000  0.37500000  0.37500000
   0.87500000  0.25000000  0.37500000
   0.87500000  0.37500000  0.25000000
   0.75000000  0.25000000  0.50000000
   0.75000000  0.37500000  0.62500000
   0.87500000  0.25000000  0.62500000
   0.87500000  0.37500000  0.50000000
   0.75000000  0.25000000  0.75000000
   0.75000000  0.37500000  0.87500000
   0.87500000  0.25000000  0.87500000
   0.87500000  0.37500000  0.75000000
   0.75000000  0.50000000  0.00000000
   0.75000000  0.62500000  0.12500000
   0.87500000  0.50000000  0.12500000
   0.87500000  0.62500000  0.00000000
   0.75000000  0.50000000  0.25000000
   0.75000000  0.62500000  0.37500000
   0.87500000  0.50000000  0.37500000
   0.87500000  0.62500000  0.25000000
   0.75000000  0.50000000  0.50000000
   0.75000000  0.62500000  0.62500000
   0.87500000  0.50000000  0.62500000
   0.87500000  0.62500000  0.50000000
   0.75000000  0.50000000  0.75000000
   0.75000000  0.62500000  0.87500000
   0.87500000  0.50000000  0.87500000
   0.87500000  0.62500000  0.75000000
   0.75000000  0.75000000  0.00000000
   0.75000000  0.87500000  0.12500000
   0.87500000  0.75000000  0.12500000
   0.87500000  0.87500000  0.00000000
   0.75000000  0.75000000  0.25000000
   0.75000000  0.87500000  0.37500000
   0.87500000  0.75000000  0.37500000
   0.87500000  0.87500000  0.25000000
   0.75000000  0.75000000  0.50000000
   0.75000000  0.87500000  0.62500000
   0.87500000  0.75000000  0.62500000
   0.87500000  0.87500000  0.50000000
   0.75000000  0.75000000  0.75000000
   0.75000000  0.87500000  0.87500000
   0.87500000  0.75000000  0.87500000
   0.87500000  0.87500000  0.75000000
   0.12500000  0.00000000  0.00000000
 
 position of ions in cartesian coordinates  (Angst):
   0.00000000  0.00000000  0.00000000
   0.00000000  2.02475000  2.02475000
   2.02475000  0.00000000  2.02475000
   2.02475000  2.02475000  0.00000000
   0.00000000  0.00000000  4.04950000
   0.00000000  2.02475000  6.07425000
   2.02475000  0.00000000  6.07425000
   2.02475000  2.02475000  4.04950000
   0.00000000  0.00000000  8.09900000
   0.00000000  2.02475000 10.12375000
   2.02475000  0.00000000 10.12375000
   2.02475000  2.02475000  8.09900000
   0.00000000  0.00000000 12.14850000
   0.00000000  2.02475000 14.17325000
   2.02475000  0.00000000 14.17325000
   2.02475000  2.02475000 12.14850000
   0.00000000  4.04950000  0.00000000
   0.00000000  6.07425000  2.02475000
   2.02475000  4.04950000  2.02475000
   2.02475000  6.07425000  0.00000000
   0.00000000  4.04950000  4.04950000
   0.00000000  6.07425000  6.07425000
   2.02475000  4.04950000  6.07425000
   2.02475000  6.07425000  4.04950000
   0.00000000  4.04950000  8.09900000
   0.00000000  6.07425000 10.12375000
   2.02475000  4.04950000 10.12375000
   2.02475000  6.07425000  8.09900000
   0.00000000  4.04950000 12.14850000
   0.00000000  6.07425000 14.17325000
   2.02475000  4.04950000 14.17325000
   2.02475000  6.07425000 12.14850000
   0.00000000  8.09900000  0.00000000
   0.00000000 10.12375000  2.02475000
   2.02475000  8.09900000  2.02475000
   2.02475000 10.12375000  0.00000000
   0.00000000  8.09900000  4.04950000
   0.00000000 10.12375000  6.07425000
   2.02475000  8.09900000  6.07425000
   2.02475000 10.12375000  4.04950000
   0.00000000  8.09900000  8.09900000
   0.00000000 10.12375000 10.12375000
   2.02475000  8.09900000 10.12375000
   2.02475000 10.12375000  8.09900000
   0.00000000  8.09900000 12.14850000
   0.00000000 10.12375000 14.17325000
   2.02475000  8.09900000 14.17325000
   2.02475000 10.12375000 12.14850000
   0.00000000 12.14850000  0.00000000
   0.00000000 14.17325000  2.02475000
   2.02475000 12.14850000  2.02475000
   2.02475000 14.17325000  0.00000000
   0.00000000 12.14850000  4.04950000
   0.00000000 14.17325000  6.07425000
   2.02475000 12.14850000  6.07425000
   2.02475000 14.17325000  4.04950000
   0.00000000 12.14850000  8.09900000
   0.00000000 14.17325000 10.12375000
   2.02475000 12.14850000 10.12375000
   2.02475000 14.17325000  8.09900000
   0.00000000 12.14850000 12.14850000
   0.00000000 14.17325000 14.17325000
   2.02475000 12.14850000 14.17325000
   2.02475000 14.17325000 12.14850000
   4.04950000  0.00000000  0.00000000
   4.04950000  2.02475000  2.02475000
   6.07425000  0.00000000  2.02475000
   6.07425000  2.02475000  0.00000000
   4.04950000  0.00000000  4.04950000
   4.04950000  2.02475000  6.07425000
   6.07425000  0.00000000  6.07425000
   6.07425000  2.02475000  4.04950000
   4.04950000  0.00000000  8.09900000
   4.04950000  2.02475000 10.12375000
   6.07425000  0.00000000 10.12375000
   6.07425000  2.02475000  8.09900000
   4.04950000  0.00000000 12.14850000
   4.04950000  2.02475000 14.17325000
   6.07425000  0.00000000 14.17325000
   6.07425000  2.02475000 12.14850000
   4.04950000  4.04950000  0.00000000
   4.04950000  6.07425000  2.02475000
   6.07425000  4.04950000  2.02475000
   6.07425000  6.07425000  0.00000000
   4.04950000  4.04950000  4.04950000
   4.04950000  6.07425000  6.07425000
   6.07425000  4.04950000  6.07425000
   6.07425000  6.07425000  4.04950000
   4.04950000  4.04950000  8.09900000
   4.04950000  6.07425000 10.12375000
   6.07425000  4.04950000 10.12375000
   6.07425000  6.07425000  8.09900000
   4.04950000  4.04950000 12.14850000
   4.04950000  6.07425000 14.17325000
   6.07425000  4.04950000 14.17325000
   6.07425000  6.07425000 12.14850000
   4.04950000  8.09900000  0.00000000
   4.04950000 10.12375000  2.02475000
   6.07425000  8.09900000  2.02475000
   6.07425000 10.12375000  0.00000000
   4.04950000  8.09900000  4.04950000
   4.04950000 10.12375000  6.07425000
   6.07425000  8.09900000  6.07425000
   6.07425000 10.12375000  4.04950000
   4.04950000  8.09900000  8.09900000
   4.04950000 10.12375000 10.12375000
   6.07425000  8.09900000 10.12375000
   6.07425000 10.12375000  8.09900000
   4.04950000  8.09900000 12.14850000
   4.04950000 10.12375000 14.17325000
   6.07425000  8.09900000 14.17325000
   6.07425000 10.12375000 12.14850000
   4.04950000 12.14850000  0.00000000
   4.04950000 14.17325000  2.02475000
   6.07425000 12.14850000  2.02475000
   6.07425000 14.17325000  0.00000000
   4.04950000 12.14850000  4.04950000
   4.04950000 14.17325000  6.07425000
   6.07425000 12.14850000  6.07425000
   6.07425000 14.17325000  4.04950000
   4.04950000 12.14850000  8.09900000
   4.04950000 14.17325000 10.12375000
   6.07425000 12.14850000 10.12375000
   6.07425000 14.17325000  8.09900000
   4.04950000 12.14850000 12.14850000
   4.04950000 14.17325000 14.17325000
   6.07425000 12.14850000 14.17325000
   6.07425000 14.17325000 12.14850000
   8.09900000  0.00000000  0.00000000
   8.09900000  2.02475000  2.02475000
  10.12375000  0.00000000  2.02475000
  10.12375000  2.02475000  0.00000000
   8.09900000  0.00000000  4.04950000
   8.09900000  2.02475000  6.07425000
  10.12375000  0.00000000  6.07425000
  10.12375000  2.02475000  4.04950000
   8.09900000  0.00000000  8.09900000
   8.09900000  2.02475000 10.12375000
  10.12375000  0.00000000 10.12375000
  10.12375000  2.02475000  8.09900000
   8.09900000  0.00000000 12.14850000
   8.09900000  2.02475000 14.17325000
  10.12375000  0.00000000 14.17325000
  10.12375000  2.02475000 12.14850000
   8.09900000  4.04950000  0.00000000
   8.09900000  6.07425000  2.02475000
  10.12375000  4.04950000  2.02475000
  10.12375000  6.07425000  0.00000000
   8.09900000  4.04950000  4.04950000
   8.09900000  6.07425000  6.07425000
  10.12375000  4.04950000  6.07425000
  10.12375000  6.07425000  4.04950000
   8.09900000  4.04950000  8.09900000
   8.09900000  6.07425000 10.12375000
  10.12375000  4.04950000 10.12375000
  10.12375000  6.07425000  8.09900000
   8.09900000  4.04950000 12.14850000
   8.09900000  6.07425000 14.17325000
  10.12375000  4.04950000 14.17325000
  10.12375000  6.07425000 12.14850000
   8.09900000  8.09900000  0.00000000
   8.09900000 10.12375000  2.02475000
  10.12375000  8.09900000  2.02475000
  10.12375000 10.12375000  0.00000000
   8.09900000  8.09900000  4.04950000
   8.09900000 10.12375000  6.07425000
  10.12375000  8.09900000  6.07425000
  10.12375000 10.12375000  4.04950000
   8.09900000  8.09900000  8.09900000
   8.09900000 10.12375000 10.12375000
  10.12375000  8.09900000 10.12375000
  10.12375000 10.12375000  8.09900000
   8.09900000  8.09900000 12.14850000
   8.09900000 10.12375000 14.17325000
  10.12375000  8.09900000 14.17325000
  10.12375000 10.12375000 12.14850000
   8.09900000 12.14850000  0.00000000
   8.09900000 14.17325000  2.02475000
  10.12375000 12.14850000  2.02475000
  10.12375000 14.17325000  0.00000000
   8.09900000 12.14850000  4.04950000
   8.09900000 14.17325000  6.07425000
  10.12375000 12.14850000  6.07425000
  10.12375000 14.17325000  4.04950000
   8.09900000 12.14850000  8.09900000
   8.09900000 14.17325000 10.12375000
  10.12375000 12.14850000 10.12375000
  10.12375000 14.17325000  8.09900000
   8.09900000 12.14850000 12.14850000
   8.09900000 14.17325000 14.17325000
  10.12375000 12.14850000 14.17325000
  10.12375000 14.17325000 12.14850000
  12.14850000  0.00000000  0.00000000
  12.14850000  2.02475000  2.02475000
  14.17325000  0.00000000  2.02475000
  14.17325000  2.02475000  0.00000000
  12.14850000  0.00000000  4.04950000
  12.14850000  2.02475000  6.07425000
  14.17325000  0.00000000  6.07425000
  14.17325000  2.02475000  4.04950000
  12.14850000  0.00000000  8.09900000
  12.14850000  2.02475000 10.12375000
  14.17325000  0.00000000 10.12375000
  14.17325000  2.02475000  8.09900000
  12.14850000  0.00000000 12.14850000
  12.14850000  2.02475000 14.17325000
  14.17325000  0.00000000 14.17325000
  14.17325000  2.02475000 12.14850000
  12.14850000  4.04950000  0.00000000
  12.14850000  6.07425000  2.02475000
  14.17325000  4.04950000  2.02475000
  14.17325000  6.07425000  0.00000000
  12.14850000  4.04950000  4.04950000
  12.14850000  6.07425000  6.07425000
  14.17325000  4.04950000  6.07425000
  14.17325000  6.07425000  4.04950000
  12.14850000  4.04950000  8.09900000
  12.14850000  6.07425000 10.12375000
  14.17325000  4.04950000 10.12375000
  14.17325000  6.07425000  8.09900000
  12.14850000  4.04950000 12.14850000
  12.14850000  6.07425000 14.17325000
  14.17325000  4.04950000 14.17325000
  14.17325000  6.07425000 12.14850000
  12.14850000  8.09900000  0.00000000
  12.14850000 10.12375000  2.02475000
  14.17325000  8.09900000  2.02475000
  14.17325000 10.12375000  0.00000000
  12.14850000  8.09900000  4.04950000
  12.14850000 10.12375000  6.07425000
  14.17325000  8.09900000  6.07425000
  14.17325000 10.12375000  4.04950000
  12.14850000  8.09900000  8.09900000
  12.14850000 10.12375000 10.12375000
  14.17325000  8.09900000 10.12375000
  14.17325000 10.12375000  8.09900000
  12.14850000  8.09900000 12.14850000
  12.14850000 10.12375000 14.17325000
  14.17325000  8.09900000 14.17325000
  14.17325000 10.12375000 12.14850000
  12.14850000 12.14850000  0.00000000
  12.14850000 14.17325000  2.02475000
  14.17325000 12.14850000  2.02475000
  14.17325000 14.17325000  0.00000000
  12.14850000 12.14850000  4.04950000
  12.14850000 14.17325000  6.07425000
  14.17325000 12.14850000  6.07425000
  14.17325000 14.17325000  4.04950000
  12.14850000 12.14850000  8.09900000
  12.14850000 14.17325000 10.12375000
  14.17325000 12.14850000 10.12375000
  14.17325000 14.17325000  8.09900000
  12.14850000 12.14850000 12.14850000
  12.14850000 14.17325000 14.17325000
  14.17325000 12.14850000 14.17325000
  14.17325000 14.17325000 12.14850000
   2.02475000  0.00000000  0.00000000
 


--------------------------------------------------------------------------------------------------------


 k-point   1 :   0.0000 0.0000 0.0000  plane waves:   65795
 k-point   2 :   0.5000 0.0000 0.0000  plane waves:   65826
 k-point   3 :   0.5000 0.5000 0.0000  plane waves:   65936
 k-point   4 :   0.5000 0.5000 0.5000  plane waves:   66088

 maximum and minimum number of plane-waves per node :     66088    65795

 maximum number of plane-waves:     66088
 maximum index in each direction: 
   IXMAX=   25   IYMAX=   25   IZMAX=   25
   IXMIN=  -25   IYMIN=  -25   IZMIN=  -25


 serial   3D FFT for wavefunctions
 parallel 3D FFT for charge:
    minimum data exchange during FFTs selected (reduces bandwidth)


 total amount of memory used by VASP MPI-rank0  2848058. kBytes
=======================================================================

   base      :      30000. kBytes
   nonlr-proj:      83591. kBytes
   fftplans  :     141100. kBytes
   grid      :     252006. kBytes
   one-center:       5970. kBytes
   wavefun   :    2335391. kBytes
 
     INWAV:  cpu time    0.0001: real time    0.0002
 Broyden mixing: mesh for mixing (old mesh)
   NGX = 51   NGY = 51   NGZ = 51
  (NGX  =160   NGY  =160   NGZ  =160)
  gives a total of 132651 points

 initial charge density was supplied:
 charge density of overlapping atoms calculated
 number of electron     774.0000000 magnetization 
 keeping initial charge density in first step


--------------------------------------------------------------------------------------------------------


 Maximum index for non-local projection operator          4801
 Maximum index for augmentation-charges          4553 (set IRDMAX)


--------------------------------------------------------------------------------------------------------


 First call to EWALD:  gamma=   0.109
 Maximum number of real-space cells 3x 3x 3
 Maximum number of reciprocal cells 3x 3x 3

    FEWALD:  cpu time    0.3669: real time    0.3669


--------------------------------------- Iteration      1(   1)  ---------------------------------------


    POTLOK:  cpu time    0.0800: real time    0.1152
    SETDIJ:  cpu time    0.3860: real time    0.3860
     EDDAV:  cpu time    6.5952: real time    6.6053
       DOS:  cpu time    0.0025: real time    0.0025
    --------------------------------------------
      LOOP:  cpu time    7.0637: real time    7.1090

 eigenvalue-minimisations  :  4144
 total energy-change (2. order) : 0.1315542E+04  (-0.2156276E+05)
 number of electron     774.0000000 magnetization 
 augmentation part      774.0000000 magnetization 

 Free energy of the ion-electron system (eV)
  ---------------------------------------------------
  alpha Z        PSCENC =       929.90132602
  Ewald energy   TEWEN  =    -18896.79715754
  -Hartree energ DENC   =      -350.03168651
  -exchange      EXHF   =         0.00000000
  -V(xc)+E(xc)   XCENC  =     -6692.67285205
  PAW double counting   =     17296.39174603    -9115.22705983
  entropy T*S    EENTRO =        -0.05526361
  eigenvalues    EBANDS =      4006.29035988
  atomic energy  EATOM  =     14137.74225596
  Solvation  Ediel_sol  =         0.00000000
  ---------------------------------------------------
  free energy    TOTEN  =      1315.54166837 eV

  energy without entropy =     1315.59693198  energy(sigma->0) =     1315.56930017


--------------------------------------------------------------------------------------------------------




--------------------------------------- Iteration      1(   2)  ---------------------------------------


     EDDAV:  cpu time    8.5851: real time    8.5867
       DOS:  cpu time    0.0024: real time    0.0024
    --------------------------------------------
      LOOP:  cpu time    8.5875: real time    8.5891

 eigenvalue-minimisations  :  5760
 total energy-change (2. order) :-0.2133052E+04  (-0.2002151E+04)
 number of electron     774.0000000 magnetization 
 augmentation part      774.0000000 magnetization 

 Free energy of the ion-electron system (eV)
  ---------------------------------------------------
  alpha Z        PSCENC =       929.90132602
  Ewald energy   TEWEN  =    -18896.79715754
  -Hartree energ DENC   =      -350.03168651
  -exchange      EXHF   =         0.00000000
  -V(xc)+E(xc)   XCENC  =     -6692.67285205
  PAW double counting   =     17296.39174603    -9115.22705983
  entropy T*S    EENTRO =        -0.09469087
  eigenvalues    EBANDS =      1873.27804927
  atomic energy  EATOM  =     14137.74225596
  Solvation  Ediel_sol  =         0.00000000
  ---------------------------------------------------
  free energy    TOTEN  =      -817.51006950 eV

  energy without entropy =     -817.41537864  energy(sigma->0) =     -817.46272407


--------------------------------------------------------------------------------------------------------




--------------------------------------- Iteration      1(   3)  ---------------------------------------


     EDDAV:  cpu time    7.8671: real time    7.8685
       DOS:  cpu time    0.0026: real time    0.0026
    --------------------------------------------
      LOOP:  cpu time    7.8698: real time    7.8711

 eigenvalue-minimisations  :  5184
 total energy-change (2. order) :-0.1499624E+03  (-0.1415952E+03)
 number of electron     774.0000000 magnetization 
 augmentation part      774.0000000 magnetization 

 Free energy of the ion-electron system (eV)
  ---------------------------------------------------
  alpha Z        PSCENC =       929.90132602
  Ewald energy   TEWEN  =    -18896.79715754
  -Hartree energ DENC   =      -350.03168651
  -exchange      EXHF   =         0.00000000
  -V(xc)+E(xc)   XCENC  =     -6692.67285205
  PAW double counting   =     17296.39174603    -9115.22705983
  entropy T*S    EENTRO =        -0.16463704
  eigenvalues    EBANDS =      1723.38555455
  atomic energy  EATOM  =     14137.74225596
  Solvation  Ediel_sol  =         0.00000000
  ---------------------------------------------------
  free energy    TOTEN  =      -967.47251040 eV

  energy without entropy =     -967.30787336  energy(sigma->0) =     -967.39019188


--------------------------------------------------------------------------------------------------------




--------------------------------------- Iteration      1(   4)  ---------------------------------------


     EDDAV:  cpu time    8.4188: real time    8.4202
       DOS:  cpu time    0.0026: real time    0.0026
    --------------------------------------------
      LOOP:  cpu time    8.4214: real time    8.4228

 eigenvalue-minimisations  :  5640
 total energy-change (2. order) :-0.7484737E+01  (-0.7356698E+01)
 number of electron     774.0000000 magnetization 
 augmentation part      774.0000000 magnetization 

 Free energy of the ion-electron system (eV)
  ---------------------------------------------------
  alpha Z        PSCENC =       929.90132602
  Ewald energy   TEWEN  =    -18896.79715754
  -Hartree energ DENC   =      -350.03168651
  -exchange      EXHF   =         0.00000000
  -V(xc)+E(xc)   XCENC  =     -6692.67285205
  PAW double counting   =     17296.39174603    -9115.22705983
  entropy T*S    EENTRO =        -0.18520996
  eigenvalues    EBANDS =      1715.92139095
  atomic energy  EATOM  =     14137.74225596
  Solvation  Ediel_sol  =         0.00000000
  ---------------------------------------------------
  free energy    TOTEN  =      -974.95724691 eV

  energy without entropy =     -974.77203695  energy(sigma->0) =     -974.86464193


--------------------------------------------------------------------------------------------------------




--------------------------------------- Iteration      1(   5)  ---------------------------------------


     EDDAV:  cpu time    8.0891: real time    8.0905
       DOS:  cpu time    0.0026: real time    0.0026
    CHARGE:  cpu time    0.6147: real time    0.6198
    MIXING:  cpu time    0.0628: real time    0.0629
    --------------------------------------------
[...]
      0.00173     12.15608      4.04192        -0.000052      0.000185     -0.000185
      0.00093     14.17418      6.07866         0.000038      0.000038      0.000044
      2.02475     12.14897      6.07457         0.000000     -0.000053     -0.000024
      2.02475     14.16411      4.06644         0.000000      0.000018      0.000031
      0.00235     12.15178      8.09900        -0.000004     -0.000034     -0.000000
      0.00093     14.17418     10.11934         0.000038      0.000038     -0.000044
      2.02475     12.14897     10.12343         0.000000     -0.000053      0.000024
      2.02475     14.17754      8.09900         0.000000     -0.000246     -0.000000
      0.00173     12.15608     12.15608        -0.000052      0.000185      0.000185
      0.01405     14.18730     14.18730         0.000268      0.000268      0.000268
      2.02475     12.13156     14.16411         0.000000     -0.000031      0.000018
      2.02475     14.16411     12.13156         0.000000      0.000018     -0.000031
      4.13110     -0.00000      0.00000        -0.000176     -0.000000     -0.000000
      4.03545      2.01070      2.01070        -0.000268     -0.000268     -0.000268
      6.09119     -0.00000      2.03389         0.000031     -0.000000     -0.000018
      6.09119      2.03389      0.00000         0.000031     -0.000018     -0.000000
      4.05864     -0.00000      4.06644        -0.000018     -0.000000      0.000031
      4.04857      2.02382      6.07866        -0.000038     -0.000038      0.000044
      6.07378     -0.00000      6.07457         0.000053     -0.000000     -0.000024
      6.06667      2.02302      4.04192        -0.000185      0.000052     -0.000185
      4.04521     -0.00000      8.09900         0.000246     -0.000000     -0.000000
      4.04857      2.02382     10.11934        -0.000038     -0.000038     -0.000044
      6.07378     -0.00000     10.12343         0.000053     -0.000000      0.000024
      6.07097      2.02240      8.09900         0.000034      0.000004     -0.000000
      4.05864     -0.00000     12.13156        -0.000018     -0.000000     -0.000031
      4.03545      2.01070     14.18730        -0.000268     -0.000268      0.000268
      6.09119     -0.00000     14.16411         0.000031     -0.000000      0.000018
      6.06667      2.02302     12.15608        -0.000185      0.000052      0.000185
      4.05864      4.06644      0.00000        -0.000018      0.000031     -0.000000
      4.04857      6.07866      2.02382        -0.000038      0.000044     -0.000038
      6.06667      4.04192      2.02302        -0.000185     -0.000185      0.000052
      6.07378      6.07457      0.00000         0.000053     -0.000024     -0.000000
      4.04777      4.04192      4.04192         0.000052     -0.000185     -0.000185
      4.05037      6.07163      6.07163        -0.000082      0.000011      0.000011
      6.07349      4.04874      6.07404        -0.000118     -0.000118     -0.000100
      6.07349      6.07404      4.04874        -0.000118     -0.000100     -0.000118
      4.04715      4.04622      8.09900         0.000004      0.000034     -0.000000
      4.05037      6.07163     10.12637        -0.000082      0.000011     -0.000011
      6.07349      4.04874     10.12396        -0.000118     -0.000118      0.000100
      6.07208      6.07272      8.09900         0.000183     -0.000008     -0.000000
      4.04777      4.04192     12.15608         0.000052     -0.000185      0.000185
      4.04857      6.07866     14.17418        -0.000038      0.000044      0.000038
      6.06667      4.04192     14.17498        -0.000185     -0.000185     -0.000052
      6.07349      6.07404     12.14926        -0.000118     -0.000100      0.000118
      4.04521      8.09900      0.00000         0.000246     -0.000000     -0.000000
      4.04857     10.11934      2.02382        -0.000038     -0.000044     -0.000038
      6.07097      8.09900      2.02240         0.000034     -0.000000      0.000004
      6.07378     10.12343      0.00000         0.000053      0.000024     -0.000000
      4.04715      8.09900      4.04622         0.000004     -0.000000      0.000034
      4.05037     10.12637      6.07163        -0.000082     -0.000011      0.000011
      6.07208      8.09900      6.07272         0.000183     -0.000000     -0.000008
      6.07349     10.12396      4.04874        -0.000118      0.000100     -0.000118
      4.05297      8.09900      8.09900         0.000385     -0.000000     -0.000000
      4.05037     10.12637     10.12637        -0.000082     -0.000011     -0.000011
      6.07208      8.09900     10.12528         0.000183     -0.000000      0.000008
      6.07208     10.12528      8.09900         0.000183      0.000008     -0.000000
      4.04715      8.09900     12.15178         0.000004     -0.000000     -0.000034
      4.04857     10.11934     14.17418        -0.000038     -0.000044      0.000038
      6.07097      8.09900     14.17560         0.000034     -0.000000     -0.000004
      6.07349     10.12396     12.14926        -0.000118      0.000100      0.000118
      4.05864     12.13156      0.00000        -0.000018     -0.000031     -0.000000
      4.03545     14.18730      2.01070        -0.000268      0.000268     -0.000268
      6.06667     12.15608      2.02302        -0.000185      0.000185      0.000052
      6.09119     14.16411      0.00000         0.000031      0.000018     -0.000000
      4.04777     12.15608      4.04192         0.000052      0.000185     -0.000185
      4.04857     14.17418      6.07866        -0.000038      0.000038      0.000044
      6.07349     12.14926      6.07404        -0.000118      0.000118     -0.000100
      6.06667     14.17498      4.04192        -0.000185     -0.000052     -0.000185
      4.04715     12.15178      8.09900         0.000004     -0.000034     -0.000000
      4.04857     14.17418     10.11934        -0.000038      0.000038     -0.000044
      6.07349     12.14926     10.12396        -0.000118      0.000118      0.000100
      6.07097     14.17560      8.09900         0.000034     -0.000004     -0.000000
      4.04777     12.15608     12.15608         0.000052      0.000185      0.000185
      4.03545     14.18730     14.18730        -0.000268      0.000268      0.000268
      6.06667     12.15608     14.17498        -0.000185      0.000185     -0.000052
      6.06667     14.17498     12.15608        -0.000185     -0.000052      0.000185
      8.08943     -0.00000      0.00000         0.000301     -0.000000     -0.000000
      8.10341      2.02382      2.02382         0.000044     -0.000038     -0.000038
     10.12375     -0.00000      2.02046         0.000000     -0.000000      0.000246
     10.12375      2.02046      0.00000         0.000000      0.000246     -0.000000
      8.09932     -0.00000      4.04903        -0.000024     -0.000000      0.000053
      8.09638      2.02562      6.07163         0.000011     -0.000082      0.000011
     10.12375     -0.00000      6.07711         0.000000     -0.000000      0.000122
     10.12375      2.02240      4.04622         0.000000      0.000004      0.000034
      8.10186     -0.00000      8.09900         0.000122     -0.000000     -0.000000
      8.09638      2.02562     10.12637         0.000011     -0.000082     -0.000011
     10.12375     -0.00000     10.12089         0.000000     -0.000000     -0.000122
     10.12375      2.02822      8.09900         0.000000      0.000385     -0.000000
      8.09932     -0.00000     12.14897        -0.000024     -0.000000     -0.000053
      8.10341      2.02382     14.17418         0.000044     -0.000038      0.000038
     10.12375     -0.00000     14.17754         0.000000     -0.000000     -0.000246
     10.12375      2.02240     12.15178         0.000000      0.000004     -0.000034
      8.09932      4.04903      0.00000        -0.000024      0.000053     -0.000000
      8.09638      6.07163      2.02562         0.000011      0.000011     -0.000082
     10.12375      4.04622      2.02240         0.000000      0.000034      0.000004
     10.12375      6.07711      0.00000         0.000000      0.000122     -0.000000
      8.09879      4.04874      4.04874        -0.000100     -0.000118     -0.000118
      8.09923      6.07448      6.07448        -0.000080     -0.000080     -0.000080
     10.12375      4.04733      6.07272         0.000000      0.000183     -0.000008
     10.12375      6.07272      4.04733         0.000000     -0.000008      0.000183
      8.09747      4.04733      8.09900        -0.000008      0.000183     -0.000000
      8.09923      6.07448     10.12352        -0.000080     -0.000080      0.000080
     10.12375      4.04733     10.12528         0.000000      0.000183      0.000008
     10.12375      6.07238      8.09900         0.000000     -0.000129     -0.000000
      8.09879      4.04874     12.14926        -0.000100     -0.000118      0.000118
      8.09638      6.07163     14.17238         0.000011      0.000011      0.000082
     10.12375      4.04622     14.17560         0.000000      0.000034     -0.000004
     10.12375      6.07272     12.15067         0.000000     -0.000008     -0.000183
      8.10186      8.09900      0.00000         0.000122     -0.000000     -0.000000
      8.09638     10.12637      2.02562         0.000011     -0.000011     -0.000082
     10.12375      8.09900      2.02822         0.000000     -0.000000      0.000385
     10.12375     10.12089      0.00000         0.000000     -0.000122     -0.000000
      8.09747      8.09900      4.04733        -0.000008     -0.000000      0.000183
      8.09923     10.12352      6.07448        -0.000080      0.000080     -0.000080
     10.12375      8.09900      6.07238         0.000000     -0.000000     -0.000129
     10.12375     10.12528      4.04733         0.000000      0.000008      0.000183
      8.09713      8.09900      8.09900        -0.000129     -0.000000     -0.000000
      8.09923     10.12352     10.12352        -0.000080      0.000080      0.000080
     10.12375      8.09900     10.12562         0.000000     -0.000000      0.000129
     10.12375     10.12562      8.09900         0.000000      0.000129     -0.000000
      8.09747      8.09900     12.15067        -0.000008     -0.000000     -0.000183
      8.09638     10.12637     14.17238         0.000011     -0.000011      0.000082
     10.12375      8.09900     14.16978         0.000000     -0.000000     -0.000385
     10.12375     10.12528     12.15067         0.000000      0.000008     -0.000183
      8.09932     12.14897      0.00000        -0.000024     -0.000053     -0.000000
      8.10341     14.17418      2.02382         0.000044      0.000038     -0.000038
     10.12375     12.15178      2.02240         0.000000     -0.000034      0.000004
     10.12375     14.17754      0.00000         0.000000     -0.000246     -0.000000
      8.09879     12.14926      4.04874        -0.000100      0.000118     -0.000118
      8.09638     14.17238      6.07163         0.000011      0.000082      0.000011
     10.12375     12.15067      6.07272         0.000000     -0.000183     -0.000008
     10.12375     14.17560      4.04622         0.000000     -0.000004      0.000034
      8.09747     12.15067      8.09900        -0.000008     -0.000183     -0.000000
      8.09638     14.17238     10.12637         0.000011      0.000082     -0.000011
     10.12375     12.15067     10.12528         0.000000     -0.000183      0.000008
     10.12375     14.16978      8.09900         0.000000     -0.000385     -0.000000
      8.09879     12.14926     12.14926        -0.000100      0.000118      0.000118
      8.10341     14.17418     14.17418         0.000044      0.000038      0.000038
     10.12375     12.15178     14.17560         0.000000     -0.000034     -0.000004
     10.12375     14.17560     12.15178         0.000000     -0.000004     -0.000034
     12.15807     -0.00000      0.00000        -0.000301     -0.000000     -0.000000
     12.14409      2.02382      2.02382        -0.000044     -0.000038     -0.000038
     14.15631     -0.00000      2.03389        -0.000031     -0.000000     -0.000018
     14.15631      2.03389      0.00000        -0.000031     -0.000018     -0.000000
     12.14818     -0.00000      4.04903         0.000024     -0.000000      0.000053
     12.15112      2.02562      6.07163        -0.000011     -0.000082      0.000011
     14.17372     -0.00000      6.07457        -0.000053     -0.000000     -0.000024
     14.18083      2.02302      4.04192         0.000185      0.000052     -0.000185
     12.14564     -0.00000      8.09900        -0.000122     -0.000000     -0.000000
     12.15112      2.02562     10.12637        -0.000011     -0.000082     -0.000011
     14.17372     -0.00000     10.12343        -0.000053     -0.000000      0.000024
     14.17653      2.02240      8.09900        -0.000034      0.000004     -0.000000
     12.14818     -0.00000     12.14897         0.000024     -0.000000     -0.000053
     12.14409      2.02382     14.17418        -0.000044     -0.000038      0.000038
     14.15631     -0.00000     14.16411        -0.000031     -0.000000      0.000018
     14.18083      2.02302     12.15608         0.000185      0.000052      0.000185
     12.14818      4.04903      0.00000         0.000024      0.000053     -0.000000
     12.15112      6.07163      2.02562        -0.000011      0.000011     -0.000082
     14.18083      4.04192      2.02302         0.000185     -0.000185      0.000052
     14.17372      6.07457      0.00000        -0.000053     -0.000024     -0.000000
     12.14871      4.04874      4.04874         0.000100     -0.000118     -0.000118
     12.14827      6.07448      6.07448         0.000080     -0.000080     -0.000080
     14.17401      4.04874      6.07404         0.000118     -0.000118     -0.000100
     14.17401      6.07404      4.04874         0.000118     -0.000100     -0.000118
     12.15003      4.04733      8.09900         0.000008      0.000183     -0.000000
     12.14827      6.07448     10.12352         0.000080     -0.000080      0.000080
     14.17401      4.04874     10.12396         0.000118     -0.000118      0.000100
     14.17542      6.07272      8.09900        -0.000183     -0.000008     -0.000000
     12.14871      4.04874     12.14926         0.000100     -0.000118      0.000118
     12.15112      6.07163     14.17238        -0.000011      0.000011      0.000082
     14.18083      4.04192     14.17498         0.000185     -0.000185     -0.000052
     14.17401      6.07404     12.14926         0.000118     -0.000100      0.000118
     12.14564      8.09900      0.00000        -0.000122     -0.000000     -0.000000
     12.15112     10.12637      2.02562        -0.000011     -0.000011     -0.000082
     14.17653      8.09900      2.02240        -0.000034     -0.000000      0.000004
     14.17372     10.12343      0.00000        -0.000053      0.000024     -0.000000
     12.15003      8.09900      4.04733         0.000008     -0.000000      0.000183
     12.14827     10.12352      6.07448         0.000080      0.000080     -0.000080
     14.17542      8.09900      6.07272        -0.000183     -0.000000     -0.000008
     14.17401     10.12396      4.04874         0.000118      0.000100     -0.000118
     12.15037      8.09900      8.09900         0.000129     -0.000000     -0.000000
     12.14827     10.12352     10.12352         0.000080      0.000080      0.000080
     14.17542      8.09900     10.12528        -0.000183     -0.000000      0.000008
     14.17542     10.12528      8.09900        -0.000183      0.000008     -0.000000
     12.15003      8.09900     12.15067         0.000008     -0.000000     -0.000183
     12.15112     10.12637     14.17238        -0.000011     -0.000011      0.000082
     14.17653      8.09900     14.17560        -0.000034     -0.000000     -0.000004
     14.17401     10.12396     12.14926         0.000118      0.000100      0.000118
     12.14818     12.14897      0.00000         0.000024     -0.000053     -0.000000
     12.14409     14.17418      2.02382        -0.000044      0.000038     -0.000038
     14.18083     12.15608      2.02302         0.000185      0.000185      0.000052
     14.15631     14.16411      0.00000        -0.000031      0.000018     -0.000000
     12.14871     12.14926      4.04874         0.000100      0.000118     -0.000118
     12.15112     14.17238      6.07163        -0.000011      0.000082      0.000011
     14.17401     12.14926      6.07404         0.000118      0.000118     -0.000100
     14.18083     14.17498      4.04192         0.000185     -0.000052     -0.000185
     12.15003     12.15067      8.09900         0.000008     -0.000183     -0.000000
     12.15112     14.17238     10.12637        -0.000011      0.000082     -0.000011
     14.17401     12.14926     10.12396         0.000118      0.000118      0.000100
     14.17653     14.17560      8.09900        -0.000034     -0.000004     -0.000000
     12.14871     12.14926     12.14926         0.000100      0.000118      0.000118
     12.14409     14.17418     14.17418        -0.000044      0.000038      0.000038
     14.18083     12.15608     14.17498         0.000185      0.000185     -0.000052
     14.18083     14.17498     12.15608         0.000185     -0.000052      0.000185
      2.02475     -0.00000      0.00000         0.000000     -0.000000     -0.000000
 -----------------------------------------------------------------------------------
    total drift:                               -0.000000      0.000000      0.000000


--------------------------------------------------------------------------------------------------------



  FREE ENERGIE OF THE ION-ELECTRON SYSTEM (eV)
  ---------------------------------------------------
  free  energy   TOTEN  =     -1054.01595137 eV

  energy  without entropy=    -1053.82796436  energy(sigma->0) =    -1053.92195786
 
 d Force = 0.4876720E-06[-0.397E-06, 0.137E-05]  d Energy = 0.1140827E-05-0.653E-06
 d Force = 0.1119625E-01[ 0.112E-01, 0.112E-01]  d Ewald  = 0.1119635E-01-0.984E-07


--------------------------------------------------------------------------------------------------------


    POTLOK:  cpu time    0.4786: real time    0.4787


--------------------------------------------------------------------------------------------------------


 stress matrix after NEB project (eV)
   -100.45577      0.00000     -0.00000
      0.00000   -100.45577     -0.00000
     -0.00000      0.00000   -100.45577
  FORCES: max atom, RMS     0.000464    0.000180
  FORCE total and by dimension    0.002891    0.000385
  Stress total and by dimension  173.994498  100.455770


--------------------------------------------------------------------------------------------------------


  
 reached required accuracy - stopping structural energy minimisation
     LOOP+:  cpu time   47.4226: real time   47.4491
    4ORBIT:  cpu time    0.0000: real time    0.0000

 total amount of memory used by VASP MPI-rank0  2848058. kBytes
=======================================================================

   base      :      30000. kBytes
   nonlr-proj:      83591. kBytes
   fftplans  :     141100. kBytes
   grid      :     252006. kBytes
   one-center:       5970. kBytes
   wavefun   :    2335391. kBytes
 
  
  
 General timing and accounting informations for this job:
 ========================================================
  
                  Total CPU time used (sec):     1993.489
                            User time (sec):     1975.841
                          System time (sec):       17.648
                         Elapsed time (sec):     1994.810
  
                   Maximum memory used (kb):     4794628.
                   Average memory used (kb):          N/A
  
                          Minor page faults:     21891929
                          Major page faults:            0
                 Voluntary context switches:        25556
