 running on    1 total cores
 distrk:  each k-point on    1 cores,    1 groups
 distr:  one band on    1 cores,    1 groups
 OpenACC runtime initialized ...    1 GPUs detected
 vasp.6.2.1 16May21 (build Jun 16 2021 03:23:30) complex                         
 POSCAR found type information on POSCAR AlO 
 POSCAR found :  2 types and     257 ions
 scaLAPACK will be used selectively (only on CPU)
 LDA part: xc-table for Pade appr. of Perdew
 POSCAR found type information on POSCAR AlO 
 POSCAR found :  2 types and     257 ions
 POSCAR, INCAR and KPOINTS ok, starting setup
 FFT: planning ...
 WAVECAR not read
 entering main loop
       N       E                     dE             d eps       ncg     rms          rms(c)
DAV:   1     0.131554166837E+04    0.13155E+04   -0.21563E+05  4144   0.913E+02
DAV:   2    -0.817510069502E+03   -0.21331E+04   -0.20022E+04  5760   0.184E+02
DAV:   3    -0.967472510404E+03   -0.14996E+03   -0.14160E+03  5184   0.364E+01
DAV:   4    -0.974957246910E+03   -0.74847E+01   -0.73567E+01  5640   0.903E+00
DAV:   5    -0.975115579241E+03   -0.15833E+00   -0.15755E+00  5368   0.161E+00    0.274E+01
DAV:   6    -0.970301426069E+03    0.48142E+01   -0.55097E+00  6232   0.344E+00    0.163E+01
DAV:   7    -0.968741966812E+03    0.15595E+01   -0.59262E+00  5176   0.264E+00    0.441E+00
DAV:   8    -0.968327602893E+03    0.41436E+00   -0.35370E+00  5024   0.292E+00    0.239E+00
DAV:   9    -0.968008817191E+03    0.31879E+00   -0.86406E-01  5144   0.179E+00    0.113E+00
DAV:  10    -0.968011287568E+03   -0.24704E-02   -0.34917E-01  5048   0.646E-01    0.113E+00
DAV:  11    -0.967991086764E+03    0.20201E-01   -0.50263E-02  5944   0.426E-01    0.369E-01
DAV:  12    -0.967997174520E+03   -0.60878E-02   -0.71201E-02  5032   0.157E-01    0.532E-01
DAV:  13    -0.967996515090E+03    0.65943E-03   -0.16615E-03  5192   0.616E-02    0.401E-01
DAV:  14    -0.967995957135E+03    0.55795E-03   -0.39064E-03  5368   0.575E-02    0.190E-01
DAV:  15    -0.967996064729E+03   -0.10759E-03   -0.69413E-04  4896   0.217E-02    0.960E-02
DAV:  16    -0.967995977942E+03    0.86787E-04   -0.20177E-04  5776   0.266E-02    0.205E-02
DAV:  17    -0.967996022911E+03   -0.44969E-04   -0.49837E-04  4896   0.117E-02    0.370E-02
DAV:  18    -0.967996016900E+03    0.60107E-05   -0.18521E-05  4816   0.529E-03    0.311E-02
DAV:  19    -0.967996008506E+03    0.83949E-05   -0.65144E-05  5304   0.889E-03    0.318E-03
DAV:  20    -0.967996009337E+03   -0.83155E-06   -0.22732E-05  4288   0.434E-03    0.123E-02
DAV:  21    -0.967996008546E+03    0.79076E-06   -0.20428E-06  3680   0.972E-04    0.777E-03
DAV:  22    -0.967996008340E+03    0.20661E-06   -0.10673E-07  3064   0.432E-04    0.527E-03
DAV:  23    -0.967996008388E+03   -0.47941E-07   -0.19128E-07  3192   0.315E-04
   1 F= -.10537704E+04 E0= -.10536820E+04  d E =-.105377E+04
 curvature:   0.00 expect dE= 0.000E+00 dE for cont linesearch  0.000E+00
 trial: gam= 0.00000 g(F)=  0.107E+00 g(S)=  0.000E+00 ort = 0.000E+00 (trialstep = 0.100E+01)
 search vector abs. value=  0.107E+00
 bond charge predicted
       N       E                     dE             d eps       ncg     rms          rms(c)
DAV:   1    -0.968085136153E+03   -0.89128E-01   -0.26451E-01  4360   0.613E-01    0.486E-01
DAV:   2    -0.968091042111E+03   -0.59060E-02   -0.72668E-02  5104   0.194E-01    0.579E-01
DAV:   3    -0.968090454494E+03    0.58762E-03   -0.21356E-03  5272   0.541E-02    0.586E-01
DAV:   4    -0.968090378633E+03    0.75861E-04   -0.43551E-04  5072   0.153E-02    0.542E-01
DAV:   5    -0.968089686697E+03    0.69194E-03   -0.34828E-03  6144   0.101E-01    0.189E-01
DAV:   6    -0.968089402550E+03    0.28415E-03   -0.39203E-03  4952   0.651E-02    0.986E-02
DAV:   7    -0.968089475376E+03   -0.72825E-04   -0.60055E-04  5496   0.248E-02    0.135E-01
DAV:   8    -0.968089604662E+03   -0.12929E-03   -0.28342E-04  5792   0.183E-02    0.168E-01
DAV:   9    -0.968089527074E+03    0.77588E-04   -0.20468E-04  4672   0.172E-02    0.111E-01
DAV:  10    -0.968089455173E+03    0.71901E-04   -0.11534E-04  5648   0.123E-02    0.841E-02
DAV:  11    -0.968089433478E+03    0.21695E-04   -0.11153E-04  5032   0.683E-03    0.566E-02
DAV:  12    -0.968089415282E+03    0.18196E-04   -0.24908E-05  5304   0.529E-03    0.407E-02
DAV:  13    -0.968089412928E+03    0.23538E-05   -0.23654E-05  4080   0.282E-03    0.271E-02
DAV:  14    -0.968089407830E+03    0.50979E-05   -0.48710E-06  5016   0.254E-03    0.212E-02
DAV:  15    -0.968089404446E+03    0.33841E-05   -0.12017E-05  5112   0.320E-03    0.118E-02
DAV:  16    -0.968089404493E+03   -0.46763E-07   -0.95895E-06  4144   0.197E-03    0.205E-03
DAV:  17    -0.968089404537E+03   -0.44052E-07   -0.13741E-06  3808   0.898E-04    0.165E-03
DAV:  18    -0.968089404552E+03   -0.15338E-07   -0.15905E-07  2968   0.425E-04
   2 F= -.10538638E+04 E0= -.10537740E+04  d E =-.934298E-01
 trial-energy change:   -0.093430  1 .order   -0.093547   -0.107324   -0.079770
 step:   3.8950(harm=  3.8950)  dis= 0.07018  next Energy= -1053.979426 (dE=-0.209E+00)
 bond charge predicted
       N       E                     dE             d eps       ncg     rms          rms(c)
DAV:   1    -0.968185191699E+03   -0.95787E-01   -0.21801E+00  4252   0.176E+00    0.144E+00
DAV:   2    -0.968228477150E+03   -0.43285E-01   -0.53978E-01  5136   0.539E-01    0.150E+00
DAV:   3    -0.968219466959E+03    0.90102E-02   -0.13937E-02  5272   0.195E-01    0.136E+00
DAV:   4    -0.968218345682E+03    0.11213E-02   -0.78556E-02  5488   0.357E-01    0.561E-01
DAV:   5    -0.968227423972E+03   -0.90783E-02   -0.77777E-02  5328   0.331E-01    0.825E-01
DAV:   6    -0.968220274919E+03    0.71491E-02   -0.11962E-02  5296   0.191E-01    0.795E-01
DAV:   7    -0.968217938942E+03    0.23360E-02   -0.87514E-03  5456   0.904E-02    0.466E-01
DAV:   8    -0.968215945702E+03    0.19932E-02   -0.12843E-02  5504   0.134E-01    0.586E-02
DAV:   9    -0.968216900226E+03   -0.95452E-03   -0.96863E-03  4688   0.525E-02    0.248E-01
DAV:  10    -0.968216817201E+03    0.83025E-04   -0.16415E-04  5280   0.124E-02    0.194E-01
DAV:  11    -0.968216678384E+03    0.13882E-03   -0.37679E-04  5760   0.206E-02    0.903E-02
DAV:  12    -0.968216788803E+03   -0.11042E-03   -0.16178E-03  5856   0.363E-02    0.144E-01
DAV:  13    -0.968216679151E+03    0.10965E-03   -0.11483E-04  4648   0.191E-02    0.101E-01
DAV:  14    -0.968216681553E+03   -0.24012E-05   -0.60116E-04  5192   0.160E-02    0.174E-02
DAV:  15    -0.968216681417E+03    0.13556E-06   -0.25447E-05  4416   0.600E-03    0.976E-03
DAV:  16    -0.968216682739E+03   -0.13223E-05   -0.16202E-05  3784   0.223E-03    0.118E-02
DAV:  17    -0.968216682863E+03   -0.12401E-06   -0.66946E-07  3704   0.622E-04    0.124E-02
DAV:  18    -0.968216682473E+03    0.39043E-06   -0.77704E-08  2720   0.747E-04    0.695E-03
DAV:  19    -0.968216682321E+03    0.15181E-06   -0.93960E-07  4000   0.832E-04    0.285E-03
DAV:  20    -0.968216682320E+03    0.12592E-08   -0.83913E-08  2712   0.233E-04
   3 F= -.10539912E+04 E0= -.10538976E+04  d E =-.220798E+00
 curvature:  -1.95 expect dE=-0.875E-02 dE for cont linesearch -0.199E-02
 ZBRENT: extrapolating
 opt :   4.3331  next Energy= -1053.993506 (dE=-0.223E+00)
 bond charge predicted
       N       E                     dE             d eps       ncg     rms          rms(c)
DAV:   1    -0.968218406677E+03   -0.17244E-02   -0.49317E-02  4328   0.261E-01    0.215E-01
DAV:   2    -0.968219313674E+03   -0.90700E-03   -0.11511E-02  5088   0.809E-02    0.214E-01
DAV:   3    -0.968219089153E+03    0.22452E-03   -0.34833E-04  5176   0.337E-02    0.187E-01
DAV:   4    -0.968219162434E+03   -0.73281E-04   -0.21477E-03  5480   0.594E-02    0.754E-02
DAV:   5    -0.968219290128E+03   -0.12769E-03   -0.16590E-03  5248   0.467E-02    0.125E-01
DAV:   6    -0.968219115815E+03    0.17431E-03   -0.15507E-04  5520   0.270E-02    0.103E-01
DAV:   7    -0.968219067615E+03    0.48200E-04   -0.29065E-04  5464   0.146E-02    0.458E-02
DAV:   8    -0.968219056630E+03    0.10985E-04   -0.29287E-04  5712   0.167E-02    0.188E-02
DAV:   9    -0.968219063267E+03   -0.66368E-05   -0.82743E-05  4576   0.594E-03    0.305E-02
DAV:  10    -0.968219061624E+03    0.16431E-05   -0.64964E-06  4608   0.219E-03    0.204E-02
DAV:  11    -0.968219060229E+03    0.13950E-05   -0.12536E-05  5120   0.364E-03    0.146E-03
DAV:  12    -0.968219060739E+03   -0.50981E-06   -0.48276E-06  3544   0.143E-03    0.900E-03
DAV:  13    -0.968219060857E+03   -0.11870E-06   -0.14437E-07  3344   0.473E-04    0.842E-03
DAV:  14    -0.968219060429E+03    0.42780E-06   -0.47670E-07  3512   0.132E-03    0.151E-03
DAV:  15    -0.968219060487E+03   -0.57493E-07   -0.94457E-07  3296   0.514E-04
   4 F= -.10539936E+04 E0= -.10538995E+04  d E =-.223191E+00
 curvature:  -2.24 expect dE=-0.962E-02 dE for cont linesearch -0.732E-05
 trial: gam= 0.03444 g(F)=  0.429E-02 g(S)=  0.000E+00 ort = 0.592E-03 (trialstep = 0.167E+01)
 search vector abs. value=  0.446E-02
 bond charge predicted
       N       E                     dE             d eps       ncg     rms          rms(c)
DAV:   1    -0.968225694928E+03   -0.66345E-02   -0.33817E-02  4664   0.223E-01    0.425E-02
DAV:   2    -0.968225684732E+03    0.10196E-04   -0.15168E-03  4760   0.508E-02    0.221E-02
DAV:   3    -0.968225670357E+03    0.14375E-04   -0.89788E-05  5312   0.128E-02    0.211E-02
DAV:   4    -0.968225669272E+03    0.10856E-05   -0.18586E-05  5056   0.507E-03    0.125E-02
DAV:   5    -0.968225669485E+03   -0.21389E-06   -0.40818E-06  5264   0.370E-03    0.519E-03
DAV:   6    -0.968225669287E+03    0.19800E-06   -0.38807E-06  5216   0.322E-03    0.460E-03
DAV:   7    -0.968225669063E+03    0.22481E-06   -0.10796E-06  4528   0.158E-03    0.377E-03
DAV:   8    -0.968225669005E+03    0.57918E-07   -0.42088E-07  3712   0.886E-04
   5 F= -.10540001E+04 E0= -.10539060E+04  d E =-.653616E-02
 ZBRENT: can't locate minimum, use default step
 trial-energy change:   -0.006536  1 .order   -0.006576   -0.007181   -0.005971
 step:   6.6664(harm=  9.8898)  dis= 0.00785  next Energy= -1054.014909 (dE=-0.213E-01)
 bond charge predicted
       N       E                     dE             d eps       ncg     rms          rms(c)
DAV:   1    -0.968237704876E+03   -0.12036E-01   -0.30484E-01  4616   0.668E-01    0.127E-01
DAV:   2    -0.968237631472E+03    0.73404E-04   -0.13643E-02  4784   0.153E-01    0.659E-02
DAV:   3    -0.968237505923E+03    0.12555E-03   -0.82499E-04  5300   0.390E-02    0.628E-02
DAV:   4    -0.968237495439E+03    0.10485E-04   -0.16838E-04  4992   0.158E-02    0.381E-02
DAV:   5    -0.968237499316E+03   -0.38772E-05   -0.48862E-05  5032   0.118E-02    0.166E-02
DAV:   6    -0.968237494112E+03    0.52040E-05   -0.35071E-05  5568   0.111E-02    0.125E-02
DAV:   7    -0.968237493366E+03    0.74556E-06   -0.13854E-05  4896   0.463E-03    0.118E-02
DAV:   8    -0.968237492706E+03    0.65996E-06   -0.26388E-06  5192   0.236E-03    0.727E-03
DAV:   9    -0.968237492626E+03    0.80409E-07   -0.44823E-06  4384   0.166E-03    0.795E-04
DAV:  10    -0.968237492650E+03   -0.24244E-07   -0.36085E-07  3464   0.619E-04
   6 F= -.10540118E+04 E0= -.10539177E+04  d E =-.181626E-01
 curvature:  -4.33 expect dE=-0.229E-02 dE for cont linesearch -0.113E-02
 ZBRENT: extrapolating
 opt :   8.8140  next Energy= -1054.012921 (dE=-0.193E-01)
 bond charge predicted
       N       E                     dE             d eps       ncg     rms          rms(c)
DAV:   1    -0.968238741859E+03   -0.12492E-02   -0.56218E-02  4660   0.287E-01    0.548E-02
DAV:   2    -0.968238723217E+03    0.18643E-04   -0.25067E-03  4808   0.656E-02    0.278E-02
DAV:   3    -0.968238700897E+03    0.22319E-04   -0.15085E-04  5288   0.168E-02    0.272E-02
DAV:   4    -0.968238698771E+03    0.21260E-05   -0.30552E-05  5016   0.698E-03    0.172E-02
DAV:   5    -0.968238699684E+03   -0.91222E-06   -0.10277E-05  5040   0.502E-03    0.791E-03
DAV:   6    -0.968238698528E+03    0.11553E-05   -0.62166E-06  5912   0.484E-03    0.536E-03
DAV:   7    -0.968238698445E+03    0.83748E-07   -0.20621E-06  4864   0.192E-03    0.476E-03
DAV:   8    -0.968238698382E+03    0.63003E-07   -0.50274E-07  3816   0.923E-04
   7 F= -.10540129E+04 E0= -.10539189E+04  d E =-.192928E-01
 curvature:  -4.45 expect dE=-0.223E-02 dE for cont linesearch -0.152E-05
 trial: gam= 0.11957 g(F)=  0.501E-03 g(S)=  0.000E+00 ort = 0.390E-04 (trialstep = 0.310E+01)
 search vector abs. value=  0.575E-03
 bond charge predicted
       N       E                     dE             d eps       ncg     rms          rms(c)
DAV:   1    -0.968240031195E+03   -0.13328E-02   -0.13582E-02  4720   0.148E-01    0.326E-02
DAV:   2    -0.968240032551E+03   -0.13559E-05   -0.61283E-04  4664   0.336E-02    0.201E-02
DAV:   3    -0.968240029534E+03    0.30177E-05   -0.50747E-05  5408   0.114E-02    0.205E-02
DAV:   4    -0.968240026864E+03    0.26700E-05   -0.17786E-05  5016   0.591E-03    0.150E-02
DAV:   5    -0.968240027260E+03   -0.39611E-06   -0.77125E-06  5104   0.348E-03    0.476E-03
DAV:   6    -0.968240026943E+03    0.31703E-06   -0.14760E-06  5832   0.270E-03    0.168E-03
DAV:   7    -0.968240026981E+03   -0.38428E-07   -0.77789E-07  3904   0.878E-04
   8 F= -.10540142E+04 E0= -.10539203E+04  d E =-.134494E-02
 trial-energy change:   -0.001345  1 .order   -0.001335   -0.001567   -0.001102
 step:   8.4817(harm= 10.4405)  dis= 0.00218  next Energy= -1054.015253 (dE=-0.236E-02)
 bond charge predicted
       N       E                     dE             d eps       ncg     rms          rms(c)
DAV:   1    -0.968241137749E+03   -0.11108E-02   -0.41189E-02  4736   0.257E-01    0.569E-02
DAV:   2    -0.968241143962E+03   -0.62128E-05   -0.18888E-03  4672   0.587E-02    0.364E-02
DAV:   3    -0.968241132500E+03    0.11462E-04   -0.15034E-04  5376   0.203E-02    0.367E-02
DAV:   4    -0.968241124756E+03    0.77446E-05   -0.59668E-05  5024   0.105E-02    0.264E-02
DAV:   5    -0.968241125588E+03   -0.83259E-06   -0.23732E-05  5000   0.595E-03    0.821E-03
DAV:   6    -0.968241124650E+03    0.93821E-06   -0.44374E-06  5992   0.462E-03    0.303E-03
DAV:   7    -0.968241124747E+03   -0.96459E-07   -0.19976E-06  4320   0.148E-03    0.274E-03
DAV:   8    -0.968241124772E+03   -0.24937E-07   -0.53510E-07  4000   0.923E-04
   9 F= -.10540154E+04 E0= -.10539214E+04  d E =-.247279E-02
 curvature:  -5.50 expect dE=-0.469E-03 dE for cont linesearch -0.735E-04
 ZBRENT: extrapolating
 opt :  10.2384  next Energy= -1054.015445 (dE=-0.255E-02)
 bond charge predicted
       N       E                     dE             d eps       ncg     rms          rms(c)
DAV:   1    -0.968241164720E+03   -0.39973E-04   -0.43678E-03  4752   0.840E-02    0.183E-02
DAV:   2    -0.968241165460E+03   -0.73991E-06   -0.20150E-04  4696   0.193E-02    0.113E-02
DAV:   3    -0.968241164469E+03    0.99053E-06   -0.16825E-05  5368   0.664E-03    0.118E-02
DAV:   4    -0.968241163645E+03    0.82380E-06   -0.58429E-06  5000   0.332E-03    0.871E-03
DAV:   5    -0.968241163791E+03   -0.14617E-06   -0.24411E-06  5088   0.193E-03    0.290E-03
DAV:   6    -0.968241163719E+03    0.72428E-07   -0.39419E-07  4136   0.146E-03
  10 F= -.10540154E+04 E0= -.10539215E+04  d E =-.252215E-02
 curvature:  -5.76 expect dE=-0.652E-03 dE for cont linesearch -0.652E-06
 trial: gam= 0.26297 g(F)=  0.113E-03 g(S)=  0.000E+00 ort =-0.806E-05 (trialstep = 0.452E+01)
 search vector abs. value=  0.149E-03
 bond charge predicted
       N       E                     dE             d eps       ncg     rms          rms(c)
DAV:   1    -0.968241501962E+03   -0.33817E-03   -0.77221E-03  4848   0.112E-01    0.343E-02
DAV:   2    -0.968241510562E+03   -0.86001E-05   -0.53378E-04  4624   0.279E-02    0.241E-02
DAV:   3    -0.968241500850E+03    0.97119E-05   -0.29399E-05  5856   0.108E-02    0.175E-02
DAV:   4    -0.968241503611E+03   -0.27607E-05   -0.53213E-05  4944   0.714E-03    0.894E-03
DAV:   5    -0.968241501206E+03    0.24048E-05   -0.77983E-06  4984   0.553E-03    0.475E-03
DAV:   6    -0.968241501638E+03   -0.43209E-06   -0.80997E-06  4248   0.259E-03    0.247E-03
DAV:   7    -0.968241501586E+03    0.52180E-07   -0.58444E-07  4424   0.110E-03
  11 F= -.10540158E+04 E0= -.10539219E+04  d E =-.341517E-03
 trial-energy change:   -0.000342  1 .order   -0.000364   -0.000503   -0.000225
 step:   8.1864(harm=  8.1864)  dis= 0.00176  next Energy= -1054.015872 (dE=-0.455E-03)
 bond charge predicted
       N       E                     dE             d eps       ncg     rms          rms(c)
DAV:   1    -0.968241568418E+03   -0.66780E-04   -0.50513E-03  4856   0.909E-02    0.281E-02
DAV:   2    -0.968241574017E+03   -0.55987E-05   -0.34515E-04  4640   0.225E-02    0.196E-02
DAV:   3    -0.968241567741E+03    0.62762E-05   -0.19526E-05  5856   0.878E-03    0.141E-02
DAV:   4    -0.968241569654E+03   -0.19135E-05   -0.34730E-05  4936   0.578E-03    0.732E-03
DAV:   5    -0.968241568051E+03    0.16032E-05   -0.51624E-06  5024   0.457E-03    0.420E-03
DAV:   6    -0.968241568269E+03   -0.21833E-06   -0.55485E-06  4152   0.224E-03    0.212E-03
DAV:   7    -0.968241568249E+03    0.20712E-07   -0.40630E-07  4200   0.894E-04
  12 F= -.10540158E+04 E0= -.10539220E+04  d E =-.411534E-03
 curvature:  -5.48 expect dE=-0.109E-03 dE for cont linesearch -0.935E-08
 trial: gam= 0.13515 g(F)=  0.199E-04 g(S)=  0.000E+00 ort =-0.504E-06 (trialstep = 0.526E+01)
 search vector abs. value=  0.225E-04
 bond charge predicted
       N       E                     dE             d eps       ncg     rms          rms(c)
DAV:   1    -0.968241658140E+03   -0.89870E-04   -0.14968E-03  4760   0.500E-02    0.131E-02
DAV:   2    -0.968241658134E+03    0.55077E-08   -0.88845E-05  4552   0.119E-02    0.837E-03
DAV:   3    -0.968241656864E+03    0.12701E-05   -0.54845E-06  5184   0.415E-03    0.682E-03
DAV:   4    -0.968241657330E+03   -0.46608E-06   -0.87105E-06  5120   0.265E-03    0.452E-03
DAV:   5    -0.968241656918E+03    0.41226E-06   -0.81461E-07  4344   0.193E-03    0.265E-03
DAV:   6    -0.968241657008E+03   -0.90408E-07   -0.19569E-06  4024   0.124E-03    0.120E-03
DAV:   7    -0.968241656986E+03    0.22918E-07   -0.16639E-07  3456   0.697E-04
  13 F= -.10540159E+04 E0= -.10539220E+04  d E =-.795923E-04
 trial-energy change:   -0.000080  1 .order   -0.000075   -0.000104   -0.000046
 step:   7.7944(harm=  9.4608)  dis= 0.00048  next Energy= -1054.015920 (dE=-0.913E-04)
 bond charge predicted
       N       E                     dE             d eps       ncg     rms          rms(c)
DAV:   1    -0.968241675910E+03   -0.18902E-04   -0.34929E-04  4784   0.241E-02    0.640E-03
DAV:   2    -0.968241675853E+03    0.57667E-07   -0.19805E-05  4592   0.566E-03    0.392E-03
DAV:   3    -0.968241675599E+03    0.25376E-06   -0.12875E-06  5184   0.196E-03    0.315E-03
DAV:   4    -0.968241675728E+03   -0.12889E-06   -0.19328E-06  4288   0.126E-03    0.225E-03
DAV:   5    -0.968241675624E+03    0.10351E-06   -0.16855E-07  3288   0.919E-04    0.146E-03
DAV:   6    -0.968241675639E+03   -0.15170E-07   -0.44327E-07  3320   0.582E-04
  14 F= -.10540159E+04 E0= -.10539220E+04  d E =-.939241E-04
 curvature:  -4.52 expect dE=-0.200E-04 dE for cont linesearch -0.425E-05
 ZBRENT: increasing intervall
 opt :  12.8695  next Energy= -1054.015924 (dE=-0.958E-04)
 bond charge predicted
       N       E                     dE             d eps       ncg     rms          rms(c)
DAV:   1    -0.968241681799E+03   -0.61750E-05   -0.13951E-03  4776   0.482E-02    0.130E-02
DAV:   2    -0.968241681757E+03    0.42508E-07   -0.80982E-05  4552   0.113E-02    0.803E-03
DAV:   3    -0.968241680630E+03    0.11265E-05   -0.51035E-06  5176   0.398E-03    0.648E-03
DAV:   4    -0.968241681117E+03   -0.48675E-06   -0.82404E-06  5128   0.258E-03    0.457E-03
DAV:   5    -0.968241680699E+03    0.41817E-06   -0.75428E-07  4344   0.184E-03    0.288E-03
DAV:   6    -0.968241680774E+03   -0.75592E-07   -0.18836E-06  4040   0.120E-03    0.111E-03
DAV:   7    -0.968241680756E+03    0.18371E-07   -0.15827E-07  3424   0.673E-04
  15 F= -.10540159E+04 E0= -.10539219E+04  d E =-.905765E-04
 curvature:  -2.04 expect dE=-0.120E-04 dE for cont linesearch -0.248E-05
 ZBRENT: bracketing found
 ZBRENT: interpolating
 opt :  10.1699  next Energy= -1054.015928 (dE=-0.994E-04)
 bond charge predicted
       N       E                     dE             d eps       ncg     rms          rms(c)
DAV:   1    -0.968241684879E+03   -0.41044E-05   -0.39514E-04  4768   0.257E-02    0.677E-03
DAV:   2    -0.968241684943E+03   -0.64454E-07   -0.23577E-05  4536   0.609E-03    0.429E-03
DAV:   3    -0.968241684557E+03    0.38607E-06   -0.14451E-06  5144   0.214E-03    0.349E-03
DAV:   4    -0.968241684641E+03   -0.84321E-07   -0.23523E-06  4256   0.135E-03    0.235E-03
DAV:   5    -0.968241684533E+03    0.10835E-06   -0.19547E-07  3328   0.999E-04    0.133E-03
DAV:   6    -0.968241684560E+03   -0.27258E-07   -0.52944E-07  3304   0.560E-04
  16 F= -.10540159E+04 E0= -.10539219E+04  d E =-.988535E-04
 curvature:  -4.50 expect dE=-0.196E-04 dE for cont linesearch -0.892E-10
 trial: gam= 0.19217 g(F)=  0.435E-05 g(S)=  0.000E+00 ort =-0.211E-07 (trialstep = 0.624E+01)
 search vector abs. value=  0.517E-05
 bond charge predicted
       N       E                     dE             d eps       ncg     rms          rms(c)
DAV:   1    -0.968241710101E+03   -0.25568E-04   -0.52180E-04  4728   0.285E-02    0.536E-03
DAV:   2    -0.968241709263E+03    0.83769E-06   -0.22572E-05  4560   0.678E-03    0.324E-03
DAV:   3    -0.968241709230E+03    0.33019E-07   -0.29007E-06  5368   0.211E-03    0.334E-03
DAV:   4    -0.968241709105E+03    0.12534E-06   -0.47802E-07  4344   0.108E-03    0.255E-03
DAV:   5    -0.968241709082E+03    0.23096E-07   -0.29517E-07  3920   0.823E-04    0.117E-03
DAV:   6    -0.968241709060E+03    0.21909E-07   -0.10446E-07  2952   0.532E-04
  17 F= -.10540159E+04 E0= -.10539219E+04  d E =-.139197E-04
 trial-energy change:   -0.000014  1 .order   -0.000015   -0.000027   -0.000003
 step:   7.2932(harm=  6.9694)  dis= 0.00026  next Energy= -1054.015942 (dE=-0.142E-04)
 bond charge predicted
       N       E                     dE             d eps       ncg     rms          rms(c)
DAV:   1    -0.968241708324E+03    0.75813E-06   -0.14807E-05  4760   0.485E-03    0.949E-04
DAV:   2    -0.968241708308E+03    0.16285E-07   -0.68993E-07  4696   0.117E-03    0.627E-04
DAV:   3    -0.968241708305E+03    0.29797E-08   -0.75705E-08  2592   0.357E-04    0.659E-04
DAV:   4    -0.968241708299E+03    0.56475E-08   -0.12085E-08  2352   0.213E-04    0.534E-04
DAV:   5    -0.968241708294E+03    0.51318E-08   -0.15923E-08  2344   0.187E-04    0.230E-04
DAV:   6    -0.968241708292E+03    0.18927E-08   -0.87107E-09  2320   0.179E-04
  18 F= -.10540159E+04 E0= -.10539219E+04  d E =-.113702E-04
 curvature:  -3.33 expect dE=-0.496E-05 dE for cont linesearch -0.701E-09
 trial: gam= 0.28807 g(F)=  0.149E-05 g(S)=  0.000E+00 ort =-0.330E-07 (trialstep = 0.645E+01)
 search vector abs. value=  0.190E-05
 bond charge predicted
       N       E                     dE             d eps       ncg     rms          rms(c)
DAV:   1    -0.968241714016E+03   -0.57224E-05   -0.17868E-04  4668   0.172E-02    0.269E-03
DAV:   2    -0.968241713964E+03    0.52201E-07   -0.56216E-06  4696   0.314E-03    0.143E-03
DAV:   3    -0.968241713960E+03    0.42028E-08   -0.52237E-07  4580   0.969E-04    0.104E-03
DAV:   4    -0.968241713932E+03    0.28086E-07   -0.12391E-07  3160   0.596E-04    0.792E-04
DAV:   5    -0.968241713935E+03   -0.28499E-08   -0.40226E-08  2404   0.401E-04    0.450E-04
DAV:   6    -0.968241713943E+03   -0.79356E-08   -0.38537E-08  2360   0.236E-04
  19 F= -.10540159E+04 E0= -.10539219E+04  d E =-.990423E-05
 trial-energy change:   -0.000010  1 .order   -0.000007   -0.000010   -0.000004
 step:   7.5519(harm= 11.9512)  dis= 0.00017  next Energy= -1054.015949 (dE=-0.103E-04)
 bond charge predicted
       N       E                     dE             d eps       ncg     rms          rms(c)
DAV:   1    -0.968241713691E+03    0.24317E-06   -0.52008E-06  4656   0.296E-03    0.496E-04
DAV:   2    -0.968241713692E+03   -0.62914E-09   -0.14973E-07  2632   0.564E-04    0.235E-04
DAV:   3    -0.968241713695E+03   -0.24918E-08   -0.31660E-08  2304   0.265E-04    0.247E-04
DAV:   4    -0.968241713696E+03   -0.12303E-08   -0.67491E-09  2304   0.143E-04    0.237E-04
DAV:   5    -0.968241713696E+03   -0.66188E-09   -0.25257E-09  2288   0.853E-05    0.203E-04
DAV:   6    -0.968241713697E+03   -0.42246E-09   -0.14105E-09  2272   0.584E-05
  20 F= -.10540159E+04 E0= -.10539219E+04  d E =-.103865E-04
 curvature:  -2.76 expect dE=-0.127E-05 dE for cont linesearch -0.431E-06
 trial: gam=-0.14952 g(F)=  0.460E-06 g(S)=  0.000E+00 ort = 0.545E-06 (trialstep = 0.667E+01)
 search vector abs. value=  0.339E-06
 bond charge predicted
       N       E                     dE             d eps       ncg     rms          rms(c)
DAV:   1    -0.968241711554E+03    0.21423E-05   -0.39766E-05  4656   0.765E-03    0.141E-03
DAV:   2    -0.968241711511E+03    0.43101E-07   -0.16872E-06  4736   0.182E-03    0.758E-04
DAV:   3    -0.968241711504E+03    0.73885E-08   -0.19885E-07  3832   0.655E-04    0.755E-04
DAV:   4    -0.968241711497E+03    0.61661E-08   -0.44370E-08  2360   0.369E-04    0.581E-04
DAV:   5    -0.968241711501E+03   -0.32376E-08   -0.18718E-08  2304   0.216E-04    0.335E-04
DAV:   6    -0.968241711505E+03   -0.45120E-08   -0.10096E-08  2280   0.137E-04
  21 F= -.10540160E+04 E0= -.10539220E+04  d E =-.183531E-05
 trial-energy change:   -0.000002  1 .order   -0.000002   -0.000003   -0.000001
 step:  11.6124(harm= 11.6124)  dis= 0.00015  next Energy= -1054.015951 (dE=-0.220E-05)
 bond charge predicted
       N       E                     dE             d eps       ncg     rms          rms(c)
DAV:   1    -0.968241707674E+03    0.38263E-05   -0.21769E-05  4640   0.567E-03    0.103E-03
DAV:   2    -0.968241707661E+03    0.13686E-07   -0.92704E-07  4784   0.135E-03    0.578E-04
DAV:   3    -0.968241707658E+03    0.21876E-08   -0.98888E-08  3056   0.476E-04    0.582E-04
DAV:   4    -0.968241707657E+03    0.18504E-08   -0.26552E-08  2328   0.298E-04    0.458E-04
DAV:   5    -0.968241707661E+03   -0.40452E-08   -0.12326E-08  2288   0.169E-04    0.256E-04
DAV:   6    -0.968241707663E+03   -0.26673E-08   -0.56050E-09  2264   0.115E-04
  22 F= -.10540160E+04 E0= -.10539220E+04  d E =-.978707E-06
 curvature:  -5.21 expect dE=-0.479E-05 dE for cont linesearch -0.236E-05
 ZBRENT: interpolating
 opt :   8.1096  next Energy= -1054.015951 (dE=-0.195E-05)
 bond charge predicted
       N       E                     dE             d eps       ncg     rms          rms(c)
DAV:   1    -0.968241710965E+03   -0.33048E-05   -0.10994E-05  4632   0.402E-03    0.751E-04
DAV:   2    -0.968241710935E+03    0.30801E-07   -0.46234E-07  4448   0.952E-04    0.406E-04
DAV:   3    -0.968241710928E+03    0.68044E-08   -0.45917E-08  2392   0.350E-04    0.352E-04
DAV:   4    -0.968241710923E+03    0.45820E-08   -0.14577E-08  2256   0.222E-04    0.276E-04
DAV:   5    -0.968241710922E+03    0.13520E-08   -0.64766E-09  2256   0.118E-04    0.171E-04
DAV:   6    -0.968241710920E+03    0.16407E-08   -0.24874E-09  2256   0.792E-05
  23 F= -.10540160E+04 E0= -.10539220E+04  d E =-.211953E-05
 curvature:  -0.26 expect dE=-0.413E-07 dE for cont linesearch -0.968E-08
 trial: gam=-0.04358 g(F)=  0.161E-06 g(S)=  0.000E+00 ort = 0.113E-06 (trialstep = 0.696E+01)
 search vector abs. value=  0.152E-06
 reached required accuracy - stopping structural energy minimisation
