LAMMPS (24 Mar 2022)
OMP_NUM_THREADS environment is not set. Defaulting to 1 thread. (src/comm.cpp:98)
  using 1 OpenMP thread(s) per MPI task
Reading data file ...
  triclinic box = (0 0 0) to (15.146222 13.117013 29) with tilt (7.5731109 0 0)
  1 by 1 by 1 MPI processor grid
  reading atoms ...
  252 atoms
  read_data CPU = 0.062 seconds
WARNING: Using 'neigh_modify every 1 delay 0 check yes' setting during minimization (src/min.cpp:187)
Neighbor list info ...
  update every 1 steps, delay 0 steps, check yes
  max neighbors/atom: 2000, page size: 100000
  master list distance cutoff = 8.28721
  ghost atom cutoff = 8.28721
  binsize = 4.143605, bins = 6 4 7
  1 neighbor lists, perpetual/occasional/extra = 1 0 0
  (1) pair eam/alloy, perpetual
      attributes: half, newton on
      pair build: half/bin/newton/tri
      stencil: half/bin/3d/tri
      bin: standard
Setting up cg style minimization ...
  Unit style    : metal
  Current step  : 0
Per MPI rank memory allocation (min/avg/max) = 4.501 | 4.501 | 4.501 Mbytes
   Step          Temp          E_pair         E_mol          TotEng         Press     
         0   0             -1075.1725      0             -1075.1725     -1448.2936    
Loop time of 4.225e-06 on 1 procs for 0 steps with 252 atoms

118.3% CPU use with 1 MPI tasks x 1 OpenMP threads

Minimization stats:
  Stopping criterion = max iterations
  Energy initial, next-to-last, final = 
     -1075.17250330344                  0  -1075.17250330344
  Force two-norm initial, final = 2.5880968 2.5880968
  Force max component initial, final = 0.30278788 0.30278788
  Final line search alpha, max atom move = 0 0
  Iterations, force evaluations = 0 0

MPI task timing breakdown:
Section |  min time  |  avg time  |  max time  |%varavg| %total
---------------------------------------------------------------
Pair    | 0          | 0          | 0          |   0.0 |  0.00
Neigh   | 0          | 0          | 0          |   0.0 |  0.00
Comm    | 0          | 0          | 0          |   0.0 |  0.00
Output  | 0          | 0          | 0          |   0.0 |  0.00
Modify  | 0          | 0          | 0          |   0.0 |  0.00
Other   |            | 4.225e-06  |            |       |100.00

Nlocal:            252 ave         252 max         252 min
Histogram: 1 0 0 0 0 0 0 0 0 0
Nghost:           1627 ave        1627 max        1627 min
Histogram: 1 0 0 0 0 0 0 0 0 0
Neighs:          20772 ave       20772 max       20772 min
Histogram: 1 0 0 0 0 0 0 0 0 0

Total # of neighbors = 20772
Ave neighs/atom = 82.428571
Neighbor list builds = 0
Dangerous builds = 0
Setting up Verlet run ...
  Unit style    : metal
  Current step  : 0
  Time step     : 0.01
Per MPI rank memory allocation (min/avg/max) = 4.386 | 4.386 | 4.386 Mbytes
   Step          Temp          E_pair         E_mol          TotEng         Press     
         0   300           -1075.1725      0             -1065.4392      356.14235    
       100   180.13377     -1071.0572      0             -1065.2129     -6077.3416    
       200   199.67799     -1071.7072      0             -1065.2288     -25369.513    
       300   146.25705     -1069.9471      0             -1065.2019     -37002.001    
       400   162.8183      -1070.4942      0             -1065.2116     -34061.607    
       500   201.19706     -1071.7648      0             -1065.2371     -18772.37     
       600   168.01528     -1070.685       0             -1065.2338     -4287.4656    
       700   171.24005     -1070.7848      0             -1065.229      -6227.0987    
       800   206.85533     -1071.9503      0             -1065.2391     -22915.265    
       900   164.87367     -1070.5808      0             -1065.2316     -36031.412    
      1000   152.64511     -1070.164       0             -1065.2115     -35792.38     
      1100   204.6516      -1071.8759      0             -1065.2362     -23072.374    
      1200   169.94189     -1070.7373      0             -1065.2236     -5841.6089    
      1300   155.46391     -1070.2623      0             -1065.2183     -2201.7274    
      1400   202.37783     -1071.8017      0             -1065.2357     -15946.489    
      1500   174.7576      -1070.8895      0             -1065.2196     -31601.488    
      1600   154.85603     -1070.2483      0             -1065.2241     -36177.134    
      1700   186.86784     -1071.2898      0             -1065.227      -26840.415    
      1800   196.00413     -1071.6025      0             -1065.2433     -10262.569    
      1900   158.64169     -1070.3808      0             -1065.2338     -2781.8964    
      2000   185.02584     -1071.2213      0             -1065.2182     -13357.195    
      2100   187.41368     -1071.3074      0             -1065.2269     -29898.92     
      2200   150.79797     -1070.1171      0             -1065.2246     -37321.19     
      2300   175.39216     -1070.9008      0             -1065.2103     -30983.702    
      2400   199.32573     -1071.6982      0             -1065.2312     -15041.471    
      2500   155.10551     -1070.2471      0             -1065.2148     -2149.1106    
      2600   180.78762     -1071.0999      0             -1065.2344     -7246.8039    
      2700   195.42884     -1071.5668      0             -1065.2262     -23495.44     
      2800   155.37028     -1070.2688      0             -1065.2279     -34327.781    
      2900   166.36651     -1070.6244      0             -1065.2268     -32408.582    
      3000   192.33471     -1071.4652      0             -1065.225      -18900.386    
      3100   159.65344     -1070.3946      0             -1065.2148     -5385.7848    
      3200   165.32311     -1070.5897      0             -1065.2259     -6281.1046    
      3300   186.05237     -1071.256       0             -1065.2196     -20931.204    
      3400   166.11599     -1070.6181      0             -1065.2286     -33728.676    
      3500   157.59319     -1070.3359      0             -1065.2229     -34877.741    
      3600   193.55363     -1071.5074      0             -1065.2277     -24186.261    
      3700   188.59861     -1071.3637      0             -1065.2448     -9322.8723    
      3800   163.74865     -1070.5468      0             -1065.2341     -4339.1331    
      3900   197.33521     -1071.6329      0             -1065.2305     -15726.716    
      4000   176.66667     -1070.9571      0             -1065.2252     -29875.231    
      4100   146.63403     -1069.9713      0             -1065.2139     -33891.061    
      4200   190.13981     -1071.3965      0             -1065.2275     -26669.264    
      4300   188.08606     -1071.335       0             -1065.2327     -12540.551    
      4400   161.70411     -1070.4782      0             -1065.2318     -4557.5531    
      4500   191.62421     -1071.4507      0             -1065.2336     -12800.425    
      4600   186.3701      -1071.2853      0             -1065.2386     -27324.076    
      4700   159.44063     -1070.3893      0             -1065.2163     -34851.834    
      4800   177.31542     -1070.9672      0             -1065.2143     -30512.968    
      4900   202.39538     -1071.8032      0             -1065.2367     -16469.849    
      5000   166.90544     -1070.637       0             -1065.2219     -5021.5622    
      5100   179.64411     -1071.0562      0             -1065.2278     -8786.0988    
      5200   192.17894     -1071.4579      0             -1065.2228     -22665.347    
      5300   141.99252     -1069.8021      0             -1065.1952     -32373.897    
      5400   171.81728     -1070.7997      0             -1065.2252     -31886.387    
      5500   203.58564     -1071.8462      0             -1065.241      -20969.105    
      5600   176.4528      -1070.9678      0             -1065.2429     -8338.5973    
      5700   165.59794     -1070.6002      0             -1065.2275     -7287.7082    
      5800   184.1916      -1071.1926      0             -1065.2166     -19046.706    
      5900   172.18891     -1070.819       0             -1065.2325     -30625.519    
      6000   156.98883     -1070.3124      0             -1065.219      -32330.531    
      6100   178.81439     -1071.024       0             -1065.2225     -23365.016    
      6200   183.55709     -1071.1937      0             -1065.2383     -10537.184    
      6300   171.85168     -1070.8139      0             -1065.2383     -6641.6178    
      6400   192.31732     -1071.4769      0             -1065.2373     -16948.641    
      6500   165.76912     -1070.594       0             -1065.2158     -29606.821    
      6600   164.31341     -1070.5673      0             -1065.2362     -34067.259    
      6700   193.35869     -1071.5164      0             -1065.243      -26451.19     
      6800   177.32092     -1070.9771      0             -1065.224      -12875.136    
      6900   169.35184     -1070.7377      0             -1065.2432     -6093.0134    
      7000   184.7256      -1071.2301      0             -1065.2368     -13036.037    
      7100   185.01596     -1071.236       0             -1065.2333     -25928.807    
      7200   152.25855     -1070.1518      0             -1065.2119     -32381.656    
      7300   173.9315      -1070.8635      0             -1065.2204     -27804.86     
      7400   189.81485     -1071.3848      0             -1065.2264     -15450.304    
      7500   161.569       -1070.4681      0             -1065.2261     -6628.4959    
      7600   187.99573     -1071.3448      0             -1065.2455     -11476.416    
      7700   200.88926     -1071.7672      0             -1065.2494     -24633.068    
      7800   151.44533     -1070.1305      0             -1065.217      -32650.519    
      7900   167.78908     -1070.6686      0             -1065.2248     -30330.087    
      8000   189.69867     -1071.3827      0             -1065.228      -18662.209    
      8100   168.27873     -1070.6868      0             -1065.2271     -7545.496     
      8200   160.02622     -1070.4031      0             -1065.2112     -8960.3869    
      8300   192.56455     -1071.4879      0             -1065.2403     -21195.332    
      8400   164.96973     -1070.5783      0             -1065.2259     -31307.55     
      8500   163.31272     -1070.5177      0             -1065.2191     -31340.525    
      8600   192.53271     -1071.4835      0             -1065.2369     -21305.428    
      8700   183.34267     -1071.1919      0             -1065.2435     -9903.6048    
      8800   168.77552     -1070.7107      0             -1065.2349     -9041.8456    
      8900   186.83408     -1071.2964      0             -1065.2347     -19413.243    
      9000   166.6773      -1070.6376      0             -1065.2299     -30117.295    
      9100   154.77788     -1070.2244      0             -1065.2027     -31705.763    
      9200   189.70527     -1071.389       0             -1065.2341     -22669.507    
      9300   171.11575     -1070.7762      0             -1065.2245     -10366.14     
      9400   162.75258     -1070.5152      0             -1065.2349     -6714.8941    
      9500   185.72759     -1071.2534      0             -1065.2276     -16613.204    
      9600   176.50166     -1070.9681      0             -1065.2417     -28961.011    
      9700   165.35371     -1070.6008      0             -1065.236      -32416.67     
      9800   183.66248     -1071.1907      0             -1065.2319     -25364.621    
      9900   176.96843     -1070.9638      0             -1065.2222     -12933.92     
     10000   171.39329     -1070.7983      0             -1065.2376     -7816.7739    
Loop time of 6.75247 on 1 procs for 10000 steps with 252 atoms

Performance: 1279.531 ns/day, 0.019 hours/ns, 1480.939 timesteps/s
99.8% CPU use with 1 MPI tasks x 1 OpenMP threads

MPI task timing breakdown:
Section |  min time  |  avg time  |  max time  |%varavg| %total
---------------------------------------------------------------
Pair    | 6.4789     | 6.4789     | 6.4789     |   0.0 | 95.95
Neigh   | 0          | 0          | 0          |   0.0 |  0.00
Comm    | 0.063368   | 0.063368   | 0.063368   |   0.0 |  0.94
Output  | 0.17011    | 0.17011    | 0.17011    |   0.0 |  2.52
Modify  | 0.021606   | 0.021606   | 0.021606   |   0.0 |  0.32
Other   |            | 0.0185     |            |       |  0.27

Nlocal:            252 ave         252 max         252 min
Histogram: 1 0 0 0 0 0 0 0 0 0
Nghost:           1627 ave        1627 max        1627 min
Histogram: 1 0 0 0 0 0 0 0 0 0
Neighs:          20772 ave       20772 max       20772 min
Histogram: 1 0 0 0 0 0 0 0 0 0

Total # of neighbors = 20772
Ave neighs/atom = 82.428571
Neighbor list builds = 0
Dangerous builds = 0
System init for write_restart ...
Total wall time: 0:00:06
