         406
 Energy:  -2152.5845490000002      en  -2082.5832890000001      edisp  -70.001260000000002     
 X   0.00000000       0.00000000       0.00000000    
 X   14.4150839       0.00000000       0.00000000    
 X  -7.20754194       12.4838276       0.00000000    
 X   0.00000000       0.00000000       33.7162552    
 X   7.20754194       12.4838276       0.00000000    
 X   14.4150839       0.00000000       33.7162552    
 X  -7.20754194       12.4838276       33.7162552    
 X   7.20754194       12.4838276       33.7162552    
 Al   0.00000000       0.00000000       1.93994999    
 Al  -0.00000000       2.77418995      0.246099994    
 Al  -0.00000000       2.77418995       4.12598991    
 Al   2.40251994       1.38708997       2.43213010    
 Al   2.40251994       1.38708997       6.31202984    
 Al   0.00000000       0.00000000       4.61817980    
 Al   0.00000000       0.00000000       8.49806976    
 Al  -0.00000000       2.77418995       6.80423021    
 Al  -0.00000000       2.77418995       10.6841202    
 Al   2.40251994       1.38708997       8.99026012    
 Al   2.40251994       1.38708997       12.8701496    
 Al   0.00000000       0.00000000       11.1763096    
 Al  -2.40250993       4.16128016       1.93994999    
 Al  -2.40251994       6.93546009      0.246099994    
 Al  -2.40251994       6.93546009       4.12598991    
 Al   0.00000000       5.54836988       2.43213010    
 Al   0.00000000       5.54836988       6.31202984    
 Al  -2.40250993       4.16128016       4.61817980    
 Al  -2.40250993       4.16128016       8.49806976    
 Al  -2.40251994       6.93546009       6.80423021    
 Al  -2.40251994       6.93546009       10.6841202    
 Al   0.00000000       5.54836988       8.99026012    
 Al   0.00000000       5.54836988       12.8701496    
 Al  -2.40250993       4.16128016       11.1763096    
 Al  -4.80502987       8.32254982       1.93994999    
 Al  -4.80502987       11.0967398      0.246099994    
 Al  -4.80502987       11.0967398       4.12598991    
 Al  -2.40250993       9.70963955       2.43213010    
 Al  -2.40250993       9.70963955       6.31202984    
 Al  -4.80502987       8.32254982       4.61817980    
 Al  -4.80502987       8.32254982       8.49806976    
 Al  -4.80502987       11.0967398       6.80423021    
 Al  -4.80502987       11.0967398       10.6841202    
 Al  -2.40250993       9.70963955       8.99026012    
 Al  -2.40250993       9.70963955       12.8701496    
 Al  -4.80502987       8.32254982       11.1763096    
 Al   4.80502987       0.00000000       1.93994999    
 Al   4.80502987       2.77418995      0.246099994    
 Al   4.80502987       2.77418995       4.12598991    
 Al   7.20754004       1.38708997       2.43213010    
 Al   7.20754004       1.38708997       6.31202984    
 Al   4.80502987       0.00000000       4.61817980    
 Al   4.80502987       0.00000000       8.49806976    
 Al   4.80502987       2.77418995       6.80423021    
 Al   4.80502987       2.77418995       10.6841202    
 Al   7.20754004       1.38708997       8.99026012    
 Al   7.20754004       1.38708997       12.8701496    
 Al   4.80502987       0.00000000       11.1763096    
 Al   2.40250993       4.16128016       1.93994999    
 Al   2.40250993       6.93546009      0.246099994    
 Al   2.40250993       6.93546009       4.12598991    
 Al   4.80502987       5.54836988       2.43213010    
 Al   4.80502987       5.54836988       6.31202984    
 Al   2.40250993       4.16128016       4.61817980    
 Al   2.40250993       4.16128016       8.49806976    
 Al   2.40250993       6.93546009       6.80423021    
 Al   2.40250993       6.93546009       10.6841202    
 Al   4.80502987       5.54836988       8.99026012    
 Al   4.80502987       5.54836988       12.8701496    
 Al   2.40250993       4.16128016       11.1763096    
 Al   0.00000000       8.32254982       1.93994999    
 Al  -0.00000000       11.0967398      0.246099994    
 Al  -0.00000000       11.0967398       4.12598991    
 Al   2.40251994       9.70963955       2.43213010    
 Al   2.40251994       9.70963955       6.31202984    
 Al   0.00000000       8.32254982       4.61817980    
 Al   0.00000000       8.32254982       8.49806976    
 Al  -0.00000000       11.0967398       6.80423021    
 Al  -0.00000000       11.0967398       10.6841202    
 Al   2.40251994       9.70963955       8.99026012    
 Al   2.40251994       9.70963955       12.8701496    
 Al   0.00000000       8.32254982       11.1763096    
 Al   9.61005974       0.00000000       1.93994999    
 Al   9.61005020       2.77418995      0.246099994    
 Al   9.61005020       2.77418995       4.12598991    
 Al   12.0125704       1.38708997       2.43213010    
 Al   12.0125704       1.38708997       6.31202984    
 Al   9.61005974       0.00000000       4.61817980    
 Al   9.61005974       0.00000000       8.49806976    
 Al   9.61005020       2.77418995       6.80423021    
 Al   9.61005020       2.77418995       10.6841202    
 Al   12.0125704       1.38708997       8.99026012    
 Al   12.0125704       1.38708997       12.8701496    
 Al   9.61005974       0.00000000       11.1763096    
 Al   7.20754004       4.16128016       1.93994999    
 Al   7.20754004       6.93546009      0.246099994    
 Al   7.20754004       6.93546009       4.12598991    
 Al   9.61005974       5.54836988       2.43213010    
 Al   9.61005974       5.54836988       6.31202984    
 Al   7.20754004       4.16128016       4.61817980    
 Al   7.20754004       4.16128016       8.49806976    
 Al   7.20754004       6.93546009       6.80423021    
 Al   7.20754004       6.93546009       10.6841202    
 Al   9.61005974       5.54836988       8.99026012    
 Al   9.61005974       5.54836988       12.8701496    
 Al   7.20754004       4.16128016       11.1763096    
 Al   4.80502987       8.32254982       1.93994999    
 Al   4.80502987       11.0967398      0.246099994    
 Al   4.80502987       11.0967398       4.12598991    
 Al   7.20754004       9.70963955       2.43213010    
 Al   7.20754004       9.70963955       6.31202984    
 Al   4.80502987       8.32254982       4.61817980    
 Al   4.80502987       8.32254982       8.49806976    
 Al   4.80502987       11.0967398       6.80423021    
 Al   4.80502987       11.0967398       10.6841202    
 Al   7.20754004       9.70963955       8.99026012    
 Al   7.20754004       9.70963955       12.8701496    
 Al   4.80502987       8.32254982       11.1763096    
 O    1.47104001       0.00000000       3.27905989    
 O    3.13804007      0.113130003       1.09301996    
 O  -0.735520005       1.27395999       3.27905989    
 O    1.66699004       2.88732004       3.27905989    
 O    3.13804007       2.66105008       1.09301996    
 O   0.931479990       1.38708997       1.09301996    
 O    3.87355995       1.38708997       7.65114021    
 O   0.735520005       1.50022995       5.46510983    
 O    1.66700006       2.66105008       7.65114021    
 O    1.66700006      0.113130003       7.65114021    
 O   0.735520005       4.04814005       5.46510983    
 O   -1.47104001       2.77418995       5.46510983    
 O    1.47104001       2.77418995       12.0232401    
 O   -1.66699004       2.88732004       9.83718967    
 O  -0.735520005       4.04814005       12.0232401    
 O  -0.735520005       1.50022995       12.0232401    
 O   0.735520005       1.27395999       9.83718967    
 O    3.33399010       0.00000000       9.83718967    
 O  -0.931469977       4.16128016       3.27905989    
 O   0.735520005       4.27440977       1.09301996    
 O   -3.13803005       5.43522978       3.27905989    
 O  -0.735520005       7.04859018       3.27905989    
 O   0.735520005       6.82231998       1.09301996    
 O   -1.47104001       5.54836988       1.09301996    
 O    1.47104001       5.54836988       7.65114021    
 O   -1.66700006       5.66149998       5.46510983    
 O  -0.735520005       6.82231998       7.65114021    
 O  -0.735520005       4.27440977       7.65114021    
 O   -1.66700006       8.20942020       5.46510983    
 O   -3.87355995       6.93546009       5.46510983    
 O  -0.931479990       6.93546009       12.0232401    
 O   -4.06950998       7.04859018       9.83718967    
 O   -3.13804007       8.20942020       12.0232401    
 O   -3.13804007       5.66149998       12.0232401    
 O   -1.66699004       5.43522978       9.83718967    
 O   0.931469977       4.16128016       9.83718967    
 O   -3.33399010       8.32254982       3.27905989    
 O   -1.66699004       8.43568039       1.09301996    
 O   -5.54055023       9.59650993       3.27905989    
 O   -3.13803005       11.2098703       3.27905989    
 O   -1.66699004       10.9835997       1.09301996    
 O   -3.87354994       9.70963955       1.09301996    
 O  -0.931469977       9.70963955       7.65114021    
 O   -4.06950998       9.82277966       5.46510983    
 O   -3.13803005       10.9835997       7.65114021    
 O   -3.13803005       8.43568039       7.65114021    
 O   -4.06950998       12.3706999       5.46510983    
 O   -6.27607012       11.0967398       5.46510983    
 O   -3.33399010       11.0967398       12.0232401    
 O   -6.47202015       11.2098703       9.83718967    
 O   -5.54055023       12.3706999       12.0232401    
 O   -5.54055023       9.82277966       12.0232401    
 O   -4.06950998       9.59650993       9.83718967    
 O   -1.47104001       8.32254982       9.83718967    
 O    6.27607012       0.00000000       3.27905989    
 O    7.94305992      0.113130003       1.09301996    
 O    4.06950998       1.27395999       3.27905989    
 O    6.47202015       2.88732004       3.27905989    
 O    7.94305992       2.66105008       1.09301996    
 O    5.73649979       1.38708997       1.09301996    
 O    8.67858028       1.38708997       7.65114021    
 O    5.54055023       1.50022995       5.46510983    
 O    6.47202015       2.66105008       7.65114021    
 O    6.47202015      0.113130003       7.65114021    
 O    5.54055023       4.04814005       5.46510983    
 O    3.33399010       2.77418995       5.46510983    
 O    6.27607012       2.77418995       12.0232401    
 O    3.13803005       2.88732004       9.83718967    
 O    4.06950998       4.04814005       12.0232401    
 O    4.06950998       1.50022995       12.0232401    
 O    5.54055023       1.27395999       9.83718967    
 O    8.13901997       0.00000000       9.83718967    
 O    3.87354994       4.16128016       3.27905989    
 O    5.54055023       4.27440977       1.09301996    
 O    1.66699004       5.43522978       3.27905989    
 O    4.06950998       7.04859018       3.27905989    
 O    5.54055023       6.82231998       1.09301996    
 O    3.33399010       5.54836988       1.09301996    
 O    6.27607012       5.54836988       7.65114021    
 O    3.13803005       5.66149998       5.46510983    
 O    4.06950998       6.82231998       7.65114021    
 O    4.06950998       4.27440977       7.65114021    
 O    3.13803005       8.20942020       5.46510983    
 O   0.931469977       6.93546009       5.46510983    
 O    3.87354994       6.93546009       12.0232401    
 O   0.735520005       7.04859018       9.83718967    
 O    1.66699004       8.20942020       12.0232401    
 O    1.66699004       5.66149998       12.0232401    
 O    3.13803005       5.43522978       9.83718967    
 O    5.73649979       4.16128016       9.83718967    
 O    1.47104001       8.32254982       3.27905989    
 O    3.13804007       8.43568039       1.09301996    
 O  -0.735520005       9.59650993       3.27905989    
 O    1.66699004       11.2098703       3.27905989    
 O    3.13804007       10.9835997       1.09301996    
 O   0.931479990       9.70963955       1.09301996    
 O    3.87355995       9.70963955       7.65114021    
 O   0.735520005       9.82277966       5.46510983    
 O    1.66700006       10.9835997       7.65114021    
 O    1.66700006       8.43568039       7.65114021    
 O   0.735520005       12.3706999       5.46510983    
 O   -1.47104001       11.0967398       5.46510983    
 O    1.47104001       11.0967398       12.0232401    
 O   -1.66699004       11.2098703       9.83718967    
 O  -0.735520005       12.3706999       12.0232401    
 O  -0.735520005       9.82277966       12.0232401    
 O   0.735520005       9.59650993       9.83718967    
 O    3.33399010       8.32254982       9.83718967    
 O    11.0811005       0.00000000       3.27905989    
 O    12.7480898      0.113130003       1.09301996    
 O    8.87454033       1.27395999       3.27905989    
 O    11.2770500       2.88732004       3.27905989    
 O    12.7480898       2.66105008       1.09301996    
 O    10.5415297       1.38708997       1.09301996    
 O    13.4836102       1.38708997       7.65114021    
 O    10.3455696       1.50022995       5.46510983    
 O    11.2770500       2.66105008       7.65114021    
 O    11.2770500      0.113130003       7.65114021    
 O    10.3455696       4.04814005       5.46510983    
 O    8.13901043       2.77418995       5.46510983    
 O    11.0810900       2.77418995       12.0232401    
 O    7.94305992       2.88732004       9.83718967    
 O    8.87452984       4.04814005       12.0232401    
 O    8.87452984       1.50022995       12.0232401    
 O    10.3455801       1.27395999       9.83718967    
 O    12.9440403       0.00000000       9.83718967    
 O    8.67858028       4.16128016       3.27905989    
 O    10.3455801       4.27440977       1.09301996    
 O    6.47202015       5.43522978       3.27905989    
 O    8.87454033       7.04859018       3.27905989    
 O    10.3455801       6.82231998       1.09301996    
 O    8.13901997       5.54836988       1.09301996    
 O    11.0811005       5.54836988       7.65114021    
 O    7.94305992       5.66149998       5.46510983    
 O    8.87454033       6.82231998       7.65114021    
 O    8.87454033       4.27440977       7.65114021    
 O    7.94305992       8.20942020       5.46510983    
 O    5.73649979       6.93546009       5.46510983    
 O    8.67858028       6.93546009       12.0232401    
 O    5.54055023       7.04859018       9.83718967    
 O    6.47202015       8.20942020       12.0232401    
 O    6.47202015       5.66149998       12.0232401    
 O    7.94305992       5.43522978       9.83718967    
 O    10.5415297       4.16128016       9.83718967    
 O    6.27607012       8.32254982       3.27905989    
 O    7.94305992       8.43568039       1.09301996    
 O    4.06950998       9.59650993       3.27905989    
 O    6.47202015       11.2098703       3.27905989    
 O    7.94305992       10.9835997       1.09301996    
 O    5.73649979       9.70963955       1.09301996    
 O    8.67858028       9.70963955       7.65114021    
 O    5.54055023       9.82277966       5.46510983    
 O    6.47202015       10.9835997       7.65114021    
 O    6.47202015       8.43568039       7.65114021    
 O    5.54055023       12.3706999       5.46510983    
 O    3.33399010       11.0967398       5.46510983    
 O    6.27607012       11.0967398       12.0232401    
 O    3.13803005       11.2098703       9.83718967    
 O    4.06950998       12.3706999       12.0232401    
 O    4.06950998       9.82277966       12.0232401    
 O    5.54055023       9.59650993       9.83718967    
 O    8.13901997       8.32254982       9.83718967    
 O    0.00000000       0.00000000       14.2701502    
 O    0.00000000       0.00000000       15.4701500    
 O  -0.900940001       1.56048000       14.2701502    
 O  -0.900940001       1.56048000       15.4701500    
 O   -1.80189002       3.12096000       14.2701502    
 O   -1.80189002       3.12096000       15.4701500    
 O   -2.70283008       4.68143988       14.2701502    
 O   -2.70283008       4.68143988       15.4701500    
 O   -3.60377002       6.24190998       14.2701502    
 O   -3.60377002       6.24190998       15.4701500    
 O   -4.50471020       7.80239010       14.2701502    
 O   -4.50471020       7.80239010       15.4701500    
 O   -5.40566015       9.36287022       14.2701502    
 O   -5.40566015       9.36287022       15.4701500    
 O   -6.30660009       10.9233503       14.2701502    
 O   -6.30660009       10.9233503       15.4701500    
 O    1.80189002       0.00000000       14.2701502    
 O    1.80189002       0.00000000       15.4701500    
 O   0.900940001       1.56048000       14.2701502    
 O   0.900940001       1.56048000       15.4701500    
 O    0.00000000       3.12096000       14.2701502    
 O    0.00000000       3.12096000       15.4701500    
 O  -0.900940001       4.68143988       14.2701502    
 O  -0.900940001       4.68143988       15.4701500    
 O   -1.80189002       6.24190998       14.2701502    
 O   -1.80189002       6.24190998       15.4701500    
 O   -2.70283008       7.80239010       14.2701502    
 O   -2.70283008       7.80239010       15.4701500    
 O   -3.60377002       9.36287022       14.2701502    
 O   -3.60377002       9.36287022       15.4701500    
 O   -4.50471020       10.9233503       14.2701502    
 O   -4.50471020       10.9233503       15.4701500    
 O    3.60377002       0.00000000       14.2701502    
 O    3.60377002       0.00000000       15.4701500    
 O    2.70283008       1.56048000       14.2701502    
 O    2.70283008       1.56048000       15.4701500    
 O    1.80189002       3.12096000       14.2701502    
 O    1.80189002       3.12096000       15.4701500    
 O   0.900940001       4.68143988       14.2701502    
 O   0.900940001       4.68143988       15.4701500    
 O    0.00000000       6.24190998       14.2701502    
 O    0.00000000       6.24190998       15.4701500    
 O  -0.900940001       7.80239010       14.2701502    
 O  -0.900940001       7.80239010       15.4701500    
 O   -1.80189002       9.36287022       14.2701502    
 O   -1.80189002       9.36287022       15.4701500    
 O   -2.70283008       10.9233503       14.2701502    
 O   -2.70283008       10.9233503       15.4701500    
 O    5.40566015       0.00000000       14.2701502    
 O    5.40566015       0.00000000       15.4701500    
 O    4.50471020       1.56048000       14.2701502    
 O    4.50471020       1.56048000       15.4701500    
 O    3.60377002       3.12096000       14.2701502    
 O    3.60377002       3.12096000       15.4701500    
 O    2.70283008       4.68143988       14.2701502    
 O    2.70283008       4.68143988       15.4701500    
 O    1.80189002       6.24190998       14.2701502    
 O    1.80189002       6.24190998       15.4701500    
 O   0.900940001       7.80239010       14.2701502    
 O   0.900940001       7.80239010       15.4701500    
 O    0.00000000       9.36287022       14.2701502    
 O    0.00000000       9.36287022       15.4701500    
 O  -0.900940001       10.9233503       14.2701502    
 O  -0.900940001       10.9233503       15.4701500    
 O    7.20754004       0.00000000       14.2701502    
 O    7.20754004       0.00000000       15.4701500    
 O    6.30660009       1.56048000       14.2701502    
 O    6.30660009       1.56048000       15.4701500    
 O    5.40566015       3.12096000       14.2701502    
 O    5.40566015       3.12096000       15.4701500    
 O    4.50471020       4.68143988       14.2701502    
 O    4.50471020       4.68143988       15.4701500    
 O    3.60377002       6.24190998       14.2701502    
 O    3.60377002       6.24190998       15.4701500    
 O    2.70283008       7.80239010       14.2701502    
 O    2.70283008       7.80239010       15.4701500    
 O    1.80189002       9.36287022       14.2701502    
 O    1.80189002       9.36287022       15.4701500    
 O   0.900940001       10.9233503       14.2701502    
 O   0.900940001       10.9233503       15.4701500    
 O    9.00942993       0.00000000       14.2701502    
 O    9.00942993       0.00000000       15.4701500    
 O    8.10848045       1.56048000       14.2701502    
 O    8.10848045       1.56048000       15.4701500    
 O    7.20754004       3.12096000       14.2701502    
 O    7.20754004       3.12096000       15.4701500    
 O    6.30660009       4.68143988       14.2701502    
 O    6.30660009       4.68143988       15.4701500    
 O    5.40566015       6.24190998       14.2701502    
 O    5.40566015       6.24190998       15.4701500    
 O    4.50471020       7.80239010       14.2701502    
 O    4.50471020       7.80239010       15.4701500    
 O    3.60377002       9.36287022       14.2701502    
 O    3.60377002       9.36287022       15.4701500    
 O    2.70283008       10.9233503       14.2701502    
 O    2.70283008       10.9233503       15.4701500    
 O    10.8113098       0.00000000       14.2701502    
 O    10.8113098       0.00000000       15.4701500    
 O    9.91036987       1.56048000       14.2701502    
 O    9.91036987       1.56048000       15.4701500    
 O    9.00942993       3.12096000       14.2701502    
 O    9.00942993       3.12096000       15.4701500    
 O    8.10848045       4.68143988       14.2701502    
 O    8.10848045       4.68143988       15.4701500    
 O    7.20754004       6.24190998       14.2701502    
 O    7.20754004       6.24190998       15.4701500    
 O    6.30660009       7.80239010       14.2701502    
 O    6.30660009       7.80239010       15.4701500    
 O    5.40566015       9.36287022       14.2701502    
 O    5.40566015       9.36287022       15.4701500    
 O    4.50471020       10.9233503       14.2701502    
 O    4.50471020       10.9233503       15.4701500    
 O    12.6132002       0.00000000       14.2701502    
 O    12.6132002       0.00000000       15.4701500    
 O    11.7122602       1.56048000       14.2701502    
 O    11.7122602       1.56048000       15.4701500    
 O    10.8113098       3.12096000       14.2701502    
 O    10.8113098       3.12096000       15.4701500    
 O    9.91036987       4.68143988       14.2701502    
 O    9.91036987       4.68143988       15.4701500    
 O    9.00942993       6.24190998       14.2701502    
 O    9.00942993       6.24190998       15.4701500    
 O    8.10848045       7.80239010       14.2701502    
 O    8.10848045       7.80239010       15.4701500    
 O    7.20754004       9.36287022       14.2701502    
 O    7.20754004       9.36287022       15.4701500    
 O    6.30660009       10.9233503       14.2701502    
 O    6.30660009       10.9233503       15.4701500    
         406
 Energy:  -2182.6120019000000      en  -2112.6500219000000      edisp  -69.961979999999997     
 X   0.00000000       0.00000000       0.00000000    
 X   14.4150839       0.00000000       0.00000000    
 X  -7.20754194       12.4838276       0.00000000    
 X   0.00000000       0.00000000       33.7162552    
 X   7.20754194       12.4838276       0.00000000    
 X   14.4150839       0.00000000       33.7162552    
 X  -7.20754194       12.4838276       33.7162552    
 X   7.20754194       12.4838276       33.7162552    
 Al  -0.00000000       0.00000000       1.92710996    
 Al  -2.99999992E-05   2.77416992      0.374749988    
 Al   9.99999975E-06   2.77418995       4.12622976    
 Al   2.40251994       1.38708997       2.39801002    
 Al   2.40258002       1.38712001       6.31498003    
 Al  -0.00000000       0.00000000       4.62052011    
 Al  -0.00000000       0.00000000       8.50158024    
 Al   1.99999995E-05   2.77425003       6.80783987    
 Al  -1.59999996E-04   2.77462006       10.7156897    
 Al   2.40265012       1.38716996       8.99483013    
 Al   2.34314990       1.35283005       12.4641705    
 Al  -0.00000000       0.00000000       11.1757298    
 Al  -2.40249991       4.16125011       1.92711997    
 Al  -2.40257001       6.93543005      0.374810010    
 Al  -2.40253997       6.93550014       4.12628984    
 Al   0.00000000       5.54838991       2.39805007    
 Al  -9.99999975E-06   5.54829979       6.31498003    
 Al  -2.40253997       4.16131020       4.62058020    
 Al  -2.40252995       4.16132021       8.50150967    
 Al  -2.40247011       6.93551016       6.80788994    
 Al  -2.40226007       6.93545008       10.7158699    
 Al  -3.99999990E-05   5.54846001       8.99491024    
 Al  -3.39999999E-04   5.49577999       12.6054401    
 Al  -2.40231991       4.16150999       11.1756201    
 Al  -4.80501986       8.32252979       1.92711997    
 Al  -4.80502987       11.0967703      0.374749988    
 Al  -4.80502987       11.0967197       4.12622976    
 Al  -2.40249991       9.70963001       2.39805007    
 Al  -2.40256000       9.70969009       6.31498003    
 Al  -4.80502987       8.32254982       4.62057018    
 Al  -4.80504990       8.32252979       8.50156021    
 Al  -4.80498981       11.0966797       6.80783987    
 Al  -4.80457020       11.0966597       10.7156897    
 Al  -2.40241003       9.70963001       8.99491024    
 Al  -2.44788003       9.73622990       12.6054401    
 Al  -4.80522013       8.32227993       11.1756496    
 Al   4.80499983       0.00000000       1.92711997    
 Al   4.80502987       2.77416992      0.374760002    
 Al   4.80499983       2.77419996       4.12623978    
 Al   7.20755005       1.38712001       2.39802003    
 Al   7.20756006       1.38708997       6.31497002    
 Al   4.80506992       0.00000000       4.62058020    
 Al   4.80506992      -9.99999975E-06   8.50150967    
 Al   4.80502987       2.77419996       6.80791998    
 Al   4.80506992       2.77444005       10.7157402    
 Al   7.20756006       1.38720000       8.99495983    
 Al   7.20773983       1.37688994       12.6354904    
 Al   4.80513000      -2.80000007E-04   11.1756201    
 Al   2.40252995       4.16129017       1.92711997    
 Al   2.40257001       6.93543005      0.374810010    
 Al   2.40248990       6.93542004       4.12628984    
 Al   4.80504990       5.54834986       2.39802003    
 Al   4.80502987       5.54834986       6.31497002    
 Al   2.40251994       4.16127014       4.62057018    
 Al   2.40253997       4.16127014       8.50156021    
 Al   2.40245008       6.93548012       6.80788994    
 Al   2.40239000       6.93568993       10.7158699    
 Al   4.80510998       5.54829979       8.99495983    
 Al   4.79610014       5.55329990       12.6354904    
 Al   2.40283990       4.16125011       11.1756496    
 Al   0.00000000       8.32254982       1.92721999    
 Al   0.00000000       11.0967999      0.374810010    
 Al   3.99999990E-05   11.0967398       4.12628984    
 Al   2.40249991       9.70963001       2.39805007    
 Al   2.40258002       9.70965958       6.31498003    
 Al   0.00000000       8.32254982       4.62055016    
 Al   0.00000000       8.32254982       8.50162983    
 Al   9.99999975E-06   11.0966702       6.80788994    
 Al  -1.40000004E-04   11.0965204       10.7158699    
 Al   2.40246010       9.70956039       8.99491024    
 Al   2.44822001       9.73563957       12.6054401    
 Al   0.00000000       8.32254982       11.1755104    
 Al   9.61003971       0.00000000       1.92711997    
 Al   9.61007023       2.77419996      0.374760002    
 Al   9.61005020       2.77414989       4.12623978    
 Al   12.0125704       1.38708997       2.39801002    
 Al   12.0125103       1.38713002       6.31498003    
 Al   9.61005974       9.99999975E-06   4.62057018    
 Al   9.61005020       2.99999992E-05   8.50156021    
 Al   9.61003017       2.77417994       6.80791998    
 Al   9.60982037       2.77409005       10.7157402    
 Al   12.0124397       1.38716996       8.99483013    
 Al   12.0719299       1.35280001       12.4641705    
 Al   9.60991955       3.00000014E-04   11.1756496    
 Al   7.20754004       4.16128016       1.92720997    
 Al   7.20752001       6.93547010      0.374760002    
 Al   7.20757008       6.93548012       4.12623978    
 Al   9.61003017       5.54835987       2.39802003    
 Al   9.61005020       5.54837990       6.31497002    
 Al   7.20754004       4.16128016       4.62055016    
 Al   7.20754004       4.16128016       8.50164032    
 Al   7.20755005       6.93545008       6.80791998    
 Al   7.20773983       6.93529987       10.7157402    
 Al   9.60995960       5.54832983       8.99495983    
 Al   9.61880016       5.55363989       12.6354904    
 Al   7.20754004       4.16128016       11.1755695    
 Al   4.80504990       8.32258034       1.92711997    
 Al   4.80504990       11.0967197      0.374749988    
 Al   4.80501986       11.0967503       4.12622976    
 Al   7.20755005       9.70963955       2.39801002    
 Al   7.20754004       9.70956993       6.31498003    
 Al   4.80500984       8.32250977       4.62058020    
 Al   4.80499983       8.32252026       8.50150967    
 Al   4.80495977       11.0967302       6.80783987    
 Al   4.80472994       11.0963802       10.7156897    
 Al   7.20754004       9.70948982       8.99483013    
 Al   7.20756006       9.77818966       12.4641705    
 Al   4.80472994       8.32260036       11.1756201    
 O    1.47184002       3.01999995E-03   3.27999997    
 O    3.14612007       7.65400007E-02   1.06500006    
 O  -0.738539994       1.27313995       3.27999997    
 O    1.66928995       2.88526011       3.27998996    
 O    3.16566992       2.68639994       1.06500995    
 O   0.895699978       1.39830995       1.06498003    
 O    3.87338996       1.38749003       7.64783001    
 O   0.734929979       1.50015998       5.46327019    
 O    1.66673994       2.66066003       7.64776993    
 O    1.66749001      0.113059998       7.64761019    
 O   0.735849977       4.04776001       5.46326017    
 O   -1.47080004       2.77474999       5.46326017    
 O    1.50028002       2.76723003       12.0234804    
 O   -1.66630995       2.88687992       9.83320045    
 O  -0.743340015       4.07577991       12.0214195    
 O  -0.755940020       1.47834003       12.0223904    
 O   0.735249996       1.27446997       9.83351040    
 O    3.33327007      -3.80000012E-04   9.83320045    
 O  -0.930660009       4.16422987       3.27990007    