 running on    1 total cores
 distrk:  each k-point on    1 cores,    1 groups
 distr:  one band on    1 cores,    1 groups
 OpenACC runtime initialized ...    1 GPUs detected
 vasp.6.2.1 16May21 (build May 12 2022 08:28:04) complex                         
 POSCAR found type information on POSCAR AlO 
 POSCAR found :  2 types and     398 ions
 scaLAPACK will be used selectively (only on CPU)
 LDA part: xc-table for Pade appr. of Perdew
 POSCAR found type information on POSCAR AlO 
 POSCAR found :  2 types and     398 ions
 POSCAR, INCAR and KPOINTS ok, starting setup
 FFT: planning ...
 WAVECAR not read
 entering main loop
       N       E                     dE             d eps       ncg     rms          rms(c)
DAV:   1     0.195461353132E+05    0.19546E+05   -0.87477E+05  5152   0.116E+03
DAV:   2     0.334303354537E+03   -0.19212E+05   -0.18367E+05  6840   0.415E+02
DAV:   3    -0.226989590443E+04   -0.26042E+04   -0.25484E+04  6448   0.150E+02
DAV:   4    -0.239949571236E+04   -0.12960E+03   -0.12617E+03  6880   0.359E+01
DAV:   5    -0.240453691595E+04   -0.50412E+01   -0.49662E+01  7224   0.720E+00    0.533E+02
DAV:   6    -0.211066669380E+04    0.29387E+03   -0.11118E+03  7304   0.517E+01    0.330E+02
DAV:   7    -0.235643466683E+04   -0.24577E+03   -0.12424E+03  7432   0.589E+01    0.165E+02
DAV:   8    -0.215391016245E+04    0.20252E+03   -0.74291E+02  7528   0.537E+01    0.891E+01
DAV:   9    -0.218915803403E+04   -0.35248E+02   -0.42907E+02  7064   0.501E+01    0.598E+01
DAV:  10    -0.217972878833E+04    0.94292E+01   -0.96853E+01  7520   0.349E+01    0.666E+01
DAV:  11    -0.211759021334E+04    0.62139E+02   -0.10821E+02  6136   0.178E+01    0.308E+01
DAV:  12    -0.210688679706E+04    0.10703E+02   -0.25458E+01  6784   0.803E+00    0.251E+01
DAV:  13    -0.209642010898E+04    0.10467E+02   -0.85455E+00  7240   0.703E+00    0.150E+01
DAV:  14    -0.209213768740E+04    0.42824E+01   -0.43940E+00  6904   0.422E+00    0.123E+01
DAV:  15    -0.209045837653E+04    0.16793E+01   -0.16566E+00  6472   0.198E+00    0.115E+01
DAV:  16    -0.208891330081E+04    0.15451E+01   -0.29394E-01  6936   0.137E+00    0.106E+01
DAV:  17    -0.208455746985E+04    0.43558E+01   -0.57762E+00  7856   0.934E+00    0.125E+01
DAV:  18    -0.208431888147E+04    0.23859E+00   -0.35348E+00  5728   0.183E+00    0.101E+01
DAV:  19    -0.208409366237E+04    0.22522E+00   -0.27828E-01  6904   0.541E-01    0.916E+00
DAV:  20    -0.208371955777E+04    0.37410E+00   -0.13531E-01  7464   0.551E-01    0.793E+00
DAV:  21    -0.208428567614E+04   -0.56612E+00   -0.51974E-01  6432   0.113E+00    0.122E+01
DAV:  22    -0.208270138518E+04    0.15843E+01   -0.99236E+00  7050   0.227E+00    0.286E+00
DAV:  23    -0.208296199677E+04   -0.26061E+00   -0.56936E-01  6320   0.913E-01    0.465E+00
DAV:  24    -0.208276873539E+04    0.19326E+00   -0.87655E-02  6004   0.543E-01    0.299E+00
DAV:  25    -0.208267554350E+04    0.93192E-01   -0.37782E-02  7144   0.512E-01    0.150E+00
DAV:  26    -0.208261908337E+04    0.56460E-01   -0.35729E-02  7696   0.702E-01    0.107E+00
DAV:  27    -0.208259520337E+04    0.23880E-01   -0.33164E-02  6704   0.394E-01    0.897E-01
DAV:  28    -0.208257210241E+04    0.23101E-01   -0.18705E-02  7952   0.457E-01    0.483E-01
DAV:  29    -0.208258653405E+04   -0.14432E-01   -0.51674E-02  5856   0.257E-01    0.105E+00
DAV:  30    -0.208258491754E+04    0.16165E-02   -0.10558E-02  5656   0.141E-01    0.875E-01
DAV:  31    -0.208258100192E+04    0.39156E-02   -0.15257E-02  6744   0.186E-01    0.694E-01
DAV:  32    -0.208258672974E+04   -0.57278E-02   -0.35370E-03  5616   0.117E-01    0.769E-01
DAV:  33    -0.208258298186E+04    0.37479E-02   -0.15239E-02  6600   0.953E-02    0.376E-01
DAV:  34    -0.208258307216E+04   -0.90292E-04   -0.15187E-03  6912   0.167E-01    0.428E-01
DAV:  35    -0.208258174639E+04    0.13258E-02   -0.17180E-03  6080   0.592E-02    0.342E-01
DAV:  36    -0.208258143946E+04    0.30693E-03   -0.59860E-04  7376   0.750E-02    0.220E-01
DAV:  37    -0.208258151413E+04   -0.74671E-04   -0.69375E-04  5872   0.542E-02    0.300E-01
DAV:  38    -0.208258138613E+04    0.12800E-03   -0.67308E-03  6432   0.116E-01    0.280E-01
DAV:  39    -0.208258190754E+04   -0.52142E-03   -0.27278E-03  5792   0.521E-02    0.124E-01
DAV:  40    -0.208258240494E+04   -0.49739E-03   -0.40322E-04  6480   0.257E-02    0.159E-01
DAV:  41    -0.208258234583E+04    0.59104E-04   -0.60794E-05  4912   0.171E-02    0.137E-01
DAV:  42    -0.208258288842E+04   -0.54258E-03   -0.15249E-04  4824   0.157E-02    0.128E-01
DAV:  43    -0.208258323248E+04   -0.34407E-03   -0.29923E-04  5936   0.295E-02    0.702E-02
DAV:  44    -0.208258329721E+04   -0.64728E-04   -0.75997E-05  5224   0.131E-02    0.806E-02
DAV:  45    -0.208258328788E+04    0.93305E-05   -0.43339E-05  4016   0.759E-03    0.544E-02
DAV:  46    -0.208258328909E+04   -0.12079E-05   -0.36004E-05  4800   0.772E-03
   1 F= -.21525846E+04 E0= -.21525306E+04  d E =-.215258E+04
 curvature:   0.00 expect dE= 0.000E+00 dE for cont linesearch  0.000E+00
 trial: gam= 0.00000 g(F)=  0.909E+02 g(S)=  0.000E+00 ort = 0.000E+00 (trialstep = 0.100E+01)
 search vector abs. value=  0.909E+02
 bond charge predicted
       N       E                     dE             d eps       ncg     rms          rms(c)
DAV:   1    -0.209543156234E+04   -0.12848E+02   -0.53844E+03  4958   0.885E+01    0.617E+01
DAV:   2    -0.211450496834E+04   -0.19073E+02   -0.21395E+02  6592   0.173E+01    0.418E+01
DAV:   3    -0.211511616987E+04   -0.61120E+00   -0.13965E+01  7032   0.830E+00    0.298E+01
DAV:   4    -0.212239765440E+04   -0.72815E+01   -0.20483E+01  7840   0.117E+01    0.349E+01
DAV:   5    -0.211328654113E+04    0.91111E+01   -0.10890E+01  7368   0.872E+00    0.104E+01
DAV:   6    -0.211263450293E+04    0.65204E+00   -0.25922E+00  6560   0.340E+00    0.300E+00
DAV:   7    -0.211267247438E+04   -0.37971E-01   -0.66306E-01  6136   0.106E+00    0.274E+00
DAV:   8    -0.211266033390E+04    0.12140E-01   -0.49002E-02  6600   0.409E-01    0.228E+00
DAV:   9    -0.211266961497E+04   -0.92811E-02   -0.12825E-02  6848   0.429E-01    0.218E+00
DAV:  10    -0.211267268930E+04   -0.30743E-02   -0.97401E-02  6848   0.691E-01    0.170E+00
DAV:  11    -0.211265048809E+04    0.22201E-01   -0.28652E-02  6408   0.587E-01    0.714E-01
DAV:  12    -0.211264915080E+04    0.13373E-02   -0.12899E-02  6144   0.275E-01    0.436E-01
DAV:  13    -0.211264926094E+04   -0.11015E-03   -0.30331E-03  5968   0.827E-02    0.349E-01
DAV:  14    -0.211264918498E+04    0.75965E-04   -0.40714E-04  6832   0.356E-02    0.264E-01
DAV:  15    -0.211264920373E+04   -0.18752E-04   -0.16649E-04  6480   0.337E-02    0.183E-01
DAV:  16    -0.211264933972E+04   -0.13599E-03   -0.26521E-04  6712   0.467E-02    0.740E-02
DAV:  17    -0.211264947735E+04   -0.13763E-03   -0.25268E-04  6712   0.335E-02    0.647E-02
DAV:  18    -0.211264951728E+04   -0.39923E-04   -0.71032E-05  5464   0.123E-02    0.546E-02
DAV:  19    -0.211264952858E+04   -0.11302E-04   -0.42389E-06  3472   0.317E-03    0.481E-02
DAV:  20    -0.211264956978E+04   -0.41203E-04   -0.17839E-06  3192   0.317E-03    0.395E-02
DAV:  21    -0.211264978565E+04   -0.21587E-03   -0.31043E-05  5032   0.159E-02    0.172E-02
DAV:  22    -0.211264982432E+04   -0.38665E-04   -0.12618E-05  3776   0.565E-03    0.178E-02
DAV:  23    -0.211264984812E+04   -0.23810E-04   -0.37148E-06  3192   0.348E-03    0.160E-02
DAV:  24    -0.211264987631E+04   -0.28187E-04   -0.22670E-06  3240   0.217E-03    0.135E-02
DAV:  25    -0.211264993043E+04   -0.54120E-04   -0.19129E-06  3224   0.329E-03    0.104E-02
DAV:  26    -0.211264997756E+04   -0.47128E-04   -0.33397E-06  3296   0.324E-03    0.983E-03
DAV:  27    -0.211264999618E+04   -0.18624E-04   -0.19074E-06  3280   0.198E-03    0.986E-03
DAV:  28    -0.211265000402E+04   -0.78315E-05   -0.78415E-07  3208   0.108E-03    0.953E-03
DAV:  29    -0.211265001798E+04   -0.13961E-04   -0.82795E-07  3152   0.120E-03    0.928E-03
DAV:  30    -0.211265002196E+04   -0.39842E-05   -0.53042E-07  3288   0.895E-04
   2 F= -.21826120E+04 E0= -.21825825E+04  d E =-.300275E+02
 trial-energy change:  -30.027453  1 .order  -40.530528  -90.888195    9.827139
 step:   0.8037(harm=  0.9024)  dis= 0.17791  next Energy= -2183.655880 (dE=-0.311E+02)
 bond charge predicted
       N       E                     dE             d eps       ncg     rms          rms(c)
DAV:   1    -0.211296967031E+04   -0.31965E+00   -0.19472E+02  4960   0.166E+01    0.127E+01
DAV:   2    -0.211354871619E+04   -0.57905E+00   -0.13359E+01  7592   0.712E+00    0.762E+00
DAV:   3    -0.211352300400E+04    0.25712E-01   -0.14517E+00  6352   0.328E+00    0.583E+00
DAV:   4    -0.211349885452E+04    0.24149E-01   -0.74806E-01  7424   0.293E+00    0.565E+00
DAV:   5    -0.211326711499E+04    0.23174E+00   -0.35874E-01  7832   0.238E+00    0.236E+00
DAV:   6    -0.211329640856E+04   -0.29294E-01   -0.22194E+00  6536   0.214E+00    0.129E+00
DAV:   7    -0.211327045779E+04    0.25951E-01   -0.72570E-02  5674   0.819E-01    0.771E-01
DAV:   8    -0.211324810825E+04    0.22350E-01   -0.23155E-02  8256   0.833E-01    0.719E-01
DAV:   9    -0.211326798046E+04   -0.19872E-01   -0.45057E-02  7288   0.581E-01    0.132E+00
DAV:  10    -0.211324410784E+04    0.23873E-01   -0.10284E-01  5808   0.508E-01    0.419E-01
DAV:  11    -0.211326414988E+04   -0.20042E-01   -0.29879E-02  6522   0.426E-01    0.106E+00
DAV:  12    -0.211324470440E+04    0.19445E-01   -0.73573E-02  6680   0.445E-01    0.215E-01
DAV:  13    -0.211324998645E+04   -0.52821E-02   -0.53621E-03  6970   0.180E-01    0.269E-01
DAV:  14    -0.211324971137E+04    0.27509E-03   -0.17587E-03  5608   0.592E-02    0.282E-01
DAV:  15    -0.211324909515E+04    0.61622E-03   -0.18161E-04  6736   0.289E-02    0.253E-01
DAV:  16    -0.211324719896E+04    0.18962E-02   -0.28504E-04  6752   0.810E-02    0.179E-01
DAV:  17    -0.211324608123E+04    0.11177E-02   -0.55537E-04  7072   0.932E-02    0.564E-02
DAV:  18    -0.211324614266E+04   -0.61431E-04   -0.47008E-04  4896   0.257E-02    0.329E-02
DAV:  19    -0.211324615655E+04   -0.13895E-04   -0.51238E-05  5488   0.111E-02    0.329E-02
DAV:  20    -0.211324616216E+04   -0.56119E-05   -0.84406E-06  3616   0.407E-03    0.313E-02
DAV:  21    -0.211324617442E+04   -0.12251E-04   -0.29446E-05  4936   0.665E-03    0.155E-02
DAV:  22    -0.211324619261E+04   -0.18198E-04   -0.10161E-05  3440   0.857E-03    0.152E-02
DAV:  23    -0.211324620079E+04   -0.81714E-05   -0.32872E-06  3352   0.277E-03    0.134E-02
DAV:  24    -0.211324620678E+04   -0.59900E-05   -0.14201E-06  3176   0.349E-03    0.119E-02
DAV:  25    -0.211324621424E+04   -0.74618E-05   -0.24866E-06  3176   0.146E-03    0.110E-02
DAV:  26    -0.211324621762E+04   -0.33872E-05   -0.56340E-07  3224   0.304E-03
   3 F= -.21832190E+04 E0= -.21831907E+04  d E =-.306344E+02
 curvature:   0.01 expect dE= 0.425E+00 dE for cont linesearch  0.129E-02
 trial: gam= 0.40589 g(F)=  0.402E+02 g(S)=  0.000E+00 ort = 0.333E+01 (trialstep = 0.961E+00)
 search vector abs. value=  0.579E+02
 bond charge predicted
       N       E                     dE             d eps       ncg     rms          rms(c)
DAV:   1    -0.211262299823E+04    0.62322E+00   -0.31599E+03  5160   0.657E+01    0.481E+01
DAV:   2    -0.213001483568E+04   -0.17392E+02   -0.18285E+02  6352   0.140E+01    0.356E+01
DAV:   3    -0.213464157723E+04   -0.46267E+01   -0.19219E+01  6984   0.813E+00    0.410E+01
DAV:   4    -0.212925552008E+04    0.53861E+01   -0.71404E+00  6696   0.538E+00    0.268E+01
DAV:   5    -0.213148564029E+04   -0.22301E+01   -0.52493E+00  6840   0.503E+00    0.253E+01
DAV:   6    -0.212950062438E+04    0.19850E+01   -0.40758E+00  6832   0.510E+00    0.484E+00
DAV:   7    -0.212942279303E+04    0.77831E-01   -0.43755E-01  6200   0.161E+00    0.187E+00
DAV:   8    -0.212942824550E+04   -0.54525E-02   -0.12064E-01  6368   0.526E-01    0.137E+00
DAV:   9    -0.212942933887E+04   -0.10934E-02   -0.26122E-02  6576   0.333E-01    0.131E+00
DAV:  10    -0.212943045169E+04   -0.11128E-02   -0.13253E-02  6632   0.321E-01    0.580E-01
DAV:  11    -0.212943005059E+04    0.40110E-03   -0.60699E-03  6496   0.242E-01    0.400E-01
DAV:  12    -0.212942977032E+04    0.28027E-03   -0.16759E-03  6560   0.119E-01    0.273E-01
DAV:  13    -0.212943021274E+04   -0.44242E-03   -0.96321E-04  6456   0.554E-02    0.128E-01
DAV:  14    -0.212943056027E+04   -0.34752E-03   -0.25088E-04  6600   0.341E-02    0.925E-02
DAV:  15    -0.212943104500E+04   -0.48473E-03   -0.12025E-04  6176   0.201E-02    0.418E-02
DAV:  16    -0.212943148672E+04   -0.44172E-03   -0.38918E-05  5408   0.136E-02    0.242E-02
DAV:  17    -0.212943176362E+04   -0.27690E-03   -0.16785E-05  4080   0.113E-02    0.209E-02
DAV:  18    -0.212943206144E+04   -0.29782E-03   -0.15099E-05  4152   0.821E-03    0.120E-02
DAV:  19    -0.212943233114E+04   -0.26970E-03   -0.12556E-05  3960   0.540E-03    0.954E-03
DAV:  20    -0.212943264468E+04   -0.31354E-03   -0.16971E-05  4272   0.548E-03    0.903E-03
DAV:  21    -0.212943283664E+04   -0.19196E-03   -0.77479E-06  3624   0.401E-03    0.895E-03
DAV:  22    -0.212943291911E+04   -0.82466E-04   -0.30728E-06  3392   0.282E-03    0.674E-03
DAV:  23    -0.212943299597E+04   -0.76856E-04   -0.31569E-06  3320   0.217E-03    0.553E-03
DAV:  24    -0.212943302511E+04   -0.29143E-04   -0.17009E-06  3328   0.170E-03    0.514E-03
DAV:  25    -0.212943303713E+04   -0.12025E-04   -0.92963E-07  3224   0.115E-03    0.503E-03
DAV:  26    -0.212943304548E+04   -0.83495E-05   -0.53255E-07  3216   0.101E-03    0.498E-03
DAV:  27    -0.212943304872E+04   -0.32410E-05   -0.33319E-07  3296   0.651E-04
   4 F= -.21994062E+04 E0= -.21993778E+04  d E =-.161873E+02
 trial-energy change:  -16.187250  1 .order  -24.542936  -39.935822   -9.150050
 step:   1.2463(harm=  1.2463)  dis= 0.34488  next Energy= -2209.121665 (dE=-0.259E+02)
 bond charge predicted
       N       E                     dE             d eps       ncg     rms          rms(c)
DAV:   1    -0.213476813737E+04   -0.53351E+01   -0.27916E+02  4988   0.188E+01    0.200E+01
DAV:   2    -0.214420955941E+04   -0.94414E+01   -0.16939E+01  6912   0.745E+00    0.420E+01
DAV:   3    -0.213447237081E+04    0.97372E+01   -0.25230E+01  6592   0.681E+00    0.130E+01
DAV:   4    -0.213459956412E+04   -0.12719E+00   -0.59624E+00  7064   0.505E+00    0.154E+01
DAV:   5    -0.213400253303E+04    0.59703E+00   -0.53188E-01  6216   0.219E+00    0.141E+01
DAV:   6    -0.213359517488E+04    0.40736E+00   -0.28106E-01  6856   0.108E+00    0.781E+00
DAV:   7    -0.213345374924E+04    0.14143E+00   -0.33066E-01  6952   0.145E+00    0.469E+00
DAV:   8    -0.213340305639E+04    0.50693E-01   -0.15843E-01  6480   0.865E-01    0.317E+00
DAV:   9    -0.213339577013E+04    0.72863E-02   -0.52480E-02  6592   0.358E-01    0.168E+00
DAV:  10    -0.213339657175E+04   -0.80162E-03   -0.10013E-02  6360   0.235E-01    0.105E+00
DAV:  11    -0.213339922166E+04   -0.26499E-02   -0.68068E-03  6344   0.176E-01    0.850E-01
DAV:  12    -0.213340063700E+04   -0.14153E-02   -0.49923E-03  6344   0.176E-01    0.370E-01
DAV:  13    -0.213340107819E+04   -0.44119E-03   -0.15358E-03  6520   0.989E-02    0.328E-01
DAV:  14    -0.213340137377E+04   -0.29558E-03   -0.45900E-04  6560   0.504E-02    0.174E-01
DAV:  15    -0.213340206033E+04   -0.68656E-03   -0.33327E-04  6168   0.407E-02    0.822E-02
DAV:  16    -0.213340256359E+04   -0.50326E-03   -0.14889E-04  5928   0.233E-02    0.472E-02
DAV:  17    -0.213340301695E+04   -0.45336E-03   -0.55904E-05  5480   0.148E-02    0.373E-02
DAV:  18    -0.213340343863E+04   -0.42169E-03   -0.32047E-05  4688   0.984E-03    0.234E-02
DAV:  19    -0.213340389248E+04   -0.45385E-03   -0.26638E-05  4240   0.626E-03    0.163E-02
DAV:  20    -0.213340437396E+04   -0.48148E-03   -0.33065E-05  4656   0.570E-03    0.124E-02
DAV:  21    -0.213340465021E+04   -0.27625E-03   -0.14242E-05  3704   0.421E-03    0.103E-02
DAV:  22    -0.213340484789E+04   -0.19768E-03   -0.91044E-06  3504   0.364E-03    0.139E-02
DAV:  23    -0.213340506150E+04   -0.21361E-03   -0.17856E-05  4024   0.376E-03    0.996E-03
DAV:  24    -0.213340510694E+04   -0.45441E-04   -0.37083E-06  3656   0.250E-03    0.593E-03
DAV:  25    -0.213340512222E+04   -0.15281E-04   -0.13172E-06  3256   0.147E-03    0.583E-03
DAV:  26    -0.213340513731E+04   -0.15084E-04   -0.69943E-07  3296   0.102E-03    0.482E-03
DAV:  27    -0.213340514830E+04   -0.10989E-04   -0.39811E-07  3272   0.841E-04    0.492E-03
DAV:  28    -0.213340515338E+04   -0.50869E-05   -0.23355E-07  3304   0.635E-04    0.469E-03
DAV:  29    -0.213340515659E+04   -0.32044E-05   -0.15375E-07  3224   0.450E-04
   5 F= -.22033800E+04 E0= -.22033528E+04  d E =-.201611E+02
 curvature:  -0.87 expect dE=-0.165E+02 dE for cont linesearch -0.392E+01
 ZBRENT: increasing intervall
 opt :   1.8174  next Energy= -2216.414871 (dE=-0.332E+02)
 bond charge predicted
       N       E                     dE             d eps       ncg     rms          rms(c)
DAV:   1    -0.213761486178E+04   -0.42097E+01   -0.10746E+03  4984   0.378E+01    0.204E+01
DAV:   2    -0.214209898784E+04   -0.44841E+01   -0.36845E+01  5864   0.674E+00    0.225E+01
DAV:   3    -0.214228598915E+04   -0.18700E+00   -0.97523E+00  6504   0.484E+00    0.182E+01
DAV:   4    -0.214153243975E+04    0.75355E+00   -0.61114E+00  7904   0.568E+00    0.138E+01
DAV:   5    -0.214054257834E+04    0.98986E+00   -0.45250E+00  7024   0.411E+00    0.715E+00
DAV:   6    -0.214031721297E+04    0.22537E+00   -0.89093E-01  6448   0.198E+00    0.317E+00
DAV:   7    -0.214024383104E+04    0.73382E-01   -0.14503E-01  6480   0.953E-01    0.142E+00
DAV:   8    -0.214024257750E+04    0.12535E-02   -0.43939E-02  6224   0.435E-01    0.101E+00
DAV:   9    -0.214024379669E+04   -0.12192E-02   -0.16750E-02  6416   0.307E-01    0.775E-01
DAV:  10    -0.214024278031E+04    0.10164E-02   -0.54408E-03  6224   0.207E-01    0.469E-01
DAV:  11    -0.214024329762E+04   -0.51731E-03   -0.20485E-03  6600   0.143E-01    0.272E-01
DAV:  12    -0.214024403863E+04   -0.74100E-03   -0.91802E-04  6408   0.100E-01    0.134E-01
DAV:  13    -0.214024466771E+04   -0.62908E-03   -0.40278E-04  6448   0.557E-02    0.715E-02
DAV:  14    -0.214024516700E+04   -0.49929E-03   -0.15939E-04  6064   0.269E-02    0.452E-02
DAV:  15    -0.214024572464E+04   -0.55764E-03   -0.68645E-05  5800   0.159E-02    0.346E-02
DAV:  16    -0.214024630115E+04   -0.57651E-03   -0.46880E-05  5488   0.141E-02    0.232E-02
DAV:  17    -0.214024692626E+04   -0.62511E-03   -0.51862E-05  5448   0.109E-02    0.139E-02
DAV:  18    -0.214024731144E+04   -0.38518E-03   -0.23391E-05  4472   0.601E-03    0.108E-02
DAV:  19    -0.214024766504E+04   -0.35360E-03   -0.17992E-05  4184   0.522E-03    0.881E-03
DAV:  20    -0.214024796756E+04   -0.30251E-03   -0.15619E-05  4080   0.500E-03    0.663E-03
DAV:  21    -0.214024813887E+04   -0.17132E-03   -0.61330E-06  3488   0.372E-03    0.543E-03
DAV:  22    -0.214024822634E+04   -0.87470E-04   -0.33248E-06  3352   0.277E-03    0.459E-03
DAV:  23    -0.214024827761E+04   -0.51262E-04   -0.23609E-06  3360   0.211E-03    0.393E-03
DAV:  24    -0.214024830062E+04   -0.23009E-04   -0.12831E-06  3336   0.164E-03    0.375E-03
DAV:  25    -0.214024830991E+04   -0.92913E-05   -0.76377E-07  3288   0.116E-03    0.369E-03
DAV:  26    -0.214024831310E+04   -0.31958E-05   -0.42339E-07  3304   0.788E-04
   6 F= -.22102644E+04 E0= -.22102496E+04  d E =-.270455E+02
 curvature:  -2.88 expect dE=-0.595E+02 dE for cont linesearch -0.187E+01
 ZBRENT: increasing intervall
 opt :   2.9596  next Energy= -2205.777717 (dE=-0.226E+02)
 bond charge predicted
       N       E                     dE             d eps       ncg     rms          rms(c)
DAV:   1    -0.211770515381E+04    0.22543E+02   -0.41234E+03  5030   0.765E+01    0.286E+01
DAV:   2    -0.214264469574E+04   -0.24940E+02   -0.22208E+02  5680   0.167E+01    0.381E+01
DAV:   3    -0.214521561067E+04   -0.25709E+01   -0.22896E+01  6336   0.866E+00    0.294E+01
DAV:   4    -0.213765008291E+04    0.75655E+01   -0.56724E+00  6816   0.656E+00    0.178E+01
DAV:   5    -0.213914872398E+04   -0.14986E+01   -0.44920E+00  6920   0.464E+00    0.227E+01
DAV:   6    -0.213969174731E+04   -0.54302E+00   -0.64492E+00  7112   0.509E+00    0.231E+01
DAV:   7    -0.213783430150E+04    0.18574E+01   -0.77854E+00  7280   0.421E+00    0.933E+00
DAV:   8    -0.213729523752E+04    0.53906E+00   -0.11218E+00  6560   0.312E+00    0.331E+00
DAV:   9    -0.213724950298E+04    0.45735E-01   -0.35695E-01  6000   0.139E+00    0.192E+00
DAV:  10    -0.213724616663E+04    0.33363E-02   -0.10456E-01  5968   0.459E-01    0.163E+00
DAV:  11    -0.213725723371E+04   -0.11067E-01   -0.66160E-02  6680   0.381E-01    0.165E+00
DAV:  12    -0.213724718567E+04    0.10048E-01   -0.14125E-02  6384   0.331E-01    0.756E-01
DAV:  13    -0.213724920682E+04   -0.20211E-02   -0.91819E-03  6096   0.219E-01    0.430E-01
DAV:  14    -0.213725062286E+04   -0.14160E-02   -0.45959E-03  6552   0.137E-01    0.205E-01
DAV:  15    -0.213725182892E+04   -0.12061E-02   -0.11732E-03  5920   0.802E-02    0.125E-01
DAV:  16    -0.213725336383E+04   -0.15349E-02   -0.45098E-04  5800   0.535E-02    0.793E-02
DAV:  17    -0.213725539399E+04   -0.20302E-02   -0.36362E-04  5960   0.521E-02    0.488E-02
DAV:  18    -0.213725644732E+04   -0.10533E-02   -0.39053E-04  6128   0.272E-02    0.487E-02
DAV:  19    -0.213725726638E+04   -0.81906E-03   -0.61229E-05  5768   0.130E-02    0.340E-02
DAV:  20    -0.213725835441E+04   -0.10880E-02   -0.89160E-05  5072   0.133E-02    0.299E-02
DAV:  21    -0.213725903967E+04   -0.68526E-03   -0.71106E-05  5568   0.109E-02    0.151E-02
DAV:  22    -0.213725938195E+04   -0.34227E-03   -0.15316E-05  3976   0.608E-03    0.128E-02
DAV:  23    -0.213725972903E+04   -0.34708E-03   -0.15636E-05  4240   0.527E-03    0.994E-03
DAV:  24    -0.213725996270E+04   -0.23367E-03   -0.44920E-06  3688   0.640E-03    0.706E-03
DAV:  25    -0.213726005795E+04   -0.95251E-04   -0.52400E-06  3504   0.339E-03    0.685E-03
DAV:  26    -0.213726009893E+04   -0.40978E-04   -0.15443E-06  3360   0.276E-03    0.516E-03
DAV:  27    -0.213726012395E+04   -0.25022E-04   -0.13242E-06  3400   0.160E-03    0.406E-03
DAV:  28    -0.213726013172E+04   -0.77682E-05   -0.56600E-07  3392   0.123E-03    0.368E-03
DAV:  29    -0.213726013752E+04   -0.58012E-05   -0.32590E-07  3288   0.726E-04    0.337E-03
DAV:  30    -0.213726013979E+04   -0.22687E-05   -0.16230E-07  3360   0.608E-04
   7 F= -.22072712E+04 E0= -.22072342E+04  d E =-.240522E+02
 curvature:   6.93 expect dE= 0.274E+03 dE for cont linesearch  0.905E+01
 ZBRENT: bracketing found
 ZBRENT: interpolating
 opt :   2.2894  next Energy= -2211.709373 (dE=-0.285E+02)
 bond charge predicted
       N       E                     dE             d eps       ncg     rms          rms(c)
DAV:   1    -0.213754329636E+04   -0.28316E+00   -0.14823E+03  4982   0.423E+01    0.262E+01
DAV:   2    -0.216566774758E+04   -0.28124E+02   -0.13157E+02  6880   0.137E+01    0.412E+01
DAV:   3    -0.214273054411E+04    0.22937E+02   -0.25464E+01  6904   0.131E+01    0.198E+01
DAV:   4    -0.214301530086E+04   -0.28476E+00   -0.13068E+01  6816   0.751E+00    0.166E+01
DAV:   5    -0.214195990072E+04    0.10554E+01   -0.62309E+00  6808   0.528E+00    0.115E+01
DAV:   6    -0.214109270531E+04    0.86720E+00   -0.12942E+00  6520   0.257E+00    0.400E+00
DAV:   7    -0.214114778922E+04   -0.55084E-01   -0.44696E-01  6432   0.121E+00    0.346E+00
DAV:   8    -0.214112937844E+04    0.18411E-01   -0.13144E-01  6256   0.915E-01    0.191E+00
DAV:   9    -0.214111414422E+04    0.15234E-01   -0.46584E-02  6616   0.800E-01    0.846E-01
DAV:  10    -0.214111347782E+04    0.66640E-03   -0.26745E-02  6344   0.395E-01    0.735E-01
DAV:  11    -0.214111250254E+04    0.97528E-03   -0.11461E-02  5816   0.161E-01    0.397E-01
DAV:  12    -0.214111315179E+04   -0.64926E-03   -0.15520E-03  5872   0.652E-02    0.360E-01
DAV:  13    -0.214111447744E+04   -0.13257E-02   -0.26226E-03  7144   0.122E-01    0.309E-01
DAV:  14    -0.214111428841E+04    0.18903E-03   -0.95643E-04  6136   0.575E-02    0.936E-02
DAV:  15    -0.214111463163E+04   -0.34322E-03   -0.22634E-04  6368   0.300E-02    0.643E-02
DAV:  16    -0.214111514955E+04   -0.51792E-03   -0.57751E-05  5648   0.216E-02    0.371E-02
DAV:  17    -0.214111584724E+04   -0.69768E-03   -0.53663E-05  5464   0.192E-02    0.236E-02
DAV:  18    -0.214111625202E+04   -0.40479E-03   -0.46155E-05  5376   0.118E-02    0.195E-02
DAV:  19    -0.214111659730E+04   -0.34527E-03   -0.11907E-05  3712   0.708E-03    0.131E-02
DAV:  20    -0.214111697260E+04   -0.37531E-03   -0.16110E-05  4192   0.632E-03    0.988E-03
DAV:  21    -0.214111716532E+04   -0.19272E-03   -0.66600E-06  3504   0.486E-03    0.114E-02
DAV:  22    -0.214111730300E+04   -0.13769E-03   -0.57768E-06  3504   0.392E-03    0.730E-03
DAV:  23    -0.214111740407E+04   -0.10106E-03   -0.54125E-06  3496   0.335E-03    0.663E-03
DAV:  24    -0.214111745065E+04   -0.46580E-04   -0.32938E-06  3424   0.277E-03    0.493E-03
DAV:  25    -0.214111746498E+04   -0.14338E-04   -0.16142E-06  3368   0.191E-03    0.494E-03
DAV:  26    -0.214111747243E+04   -0.74469E-05   -0.82344E-07  3320   0.137E-03    0.326E-03
DAV:  27    -0.214111747662E+04   -0.41865E-05   -0.45208E-07  3264   0.982E-04
   8 F= -.22111272E+04 E0= -.22111065E+04  d E =-.279083E+02
 curvature:  -1.11 expect dE=-0.275E+02 dE for cont linesearch -0.727E-01
 trial: gam= 0.58861 g(F)=  0.249E+02 g(S)=  0.000E+00 ort =-0.195E+01 (trialstep = 0.123E+01)
 search vector abs. value=  0.426E+02
 bond charge predicted
       N       E                     dE             d eps       ncg     rms          rms(c)
DAV:   1    -0.213335908855E+04    0.77584E+01   -0.63607E+03  5000   0.997E+01    0.455E+01
DAV:   2    -0.216797163497E+04   -0.34613E+02   -0.30695E+02  6440   0.201E+01    0.355E+01
DAV:   3    -0.217770520632E+04   -0.97336E+01   -0.35279E+01  7200   0.160E+01    0.489E+01
DAV:   4    -0.216160101642E+04    0.16104E+02   -0.79650E+00  6696   0.678E+00    0.233E+01
DAV:   5    -0.215966905505E+04    0.19320E+01   -0.78081E+00  7216   0.600E+00    0.163E+01
DAV:   6    -0.215914215269E+04    0.52690E+00   -0.39859E+00  6704   0.486E+00    0.132E+01
DAV:   7    -0.215848756753E+04    0.65459E+00   -0.29557E+00  7296   0.325E+00    0.713E+00
DAV:   8    -0.215832459877E+04    0.16297E+00   -0.68131E-01  6912   0.229E+00    0.396E+00
DAV:   9    -0.215821390206E+04    0.11070E+00   -0.21339E-01  6456   0.117E+00    0.197E+00
DAV:  10    -0.215820142298E+04    0.12479E-01   -0.58557E-02  6480   0.569E-01    0.102E+00
DAV:  11    -0.215819827969E+04    0.31433E-02   -0.16059E-02  5944   0.424E-01    0.595E-01
DAV:  12    -0.215819884417E+04   -0.56448E-03   -0.85128E-03  6328   0.281E-01    0.419E-01
DAV:  13    -0.215819935316E+04   -0.50899E-03   -0.36339E-03  6232   0.170E-01    0.279E-01
DAV:  14    -0.215820037892E+04   -0.10258E-02   -0.16492E-03  6184   0.955E-02    0.124E-01
DAV:  15    -0.215820144671E+04   -0.10678E-02   -0.63239E-04  5984   0.562E-02    0.808E-02
DAV:  16    -0.215820249634E+04   -0.10496E-02   -0.19507E-04  6000   0.438E-02    0.519E-02
DAV:  17    -0.215820338987E+04   -0.89353E-03   -0.18963E-04  5920   0.321E-02    0.408E-02
DAV:  18    -0.215820395025E+04   -0.56039E-03   -0.11799E-04  6032   0.199E-02    0.290E-02
DAV:  19    -0.215820463718E+04   -0.68693E-03   -0.55690E-05  4984   0.161E-02    0.181E-02
DAV:  20    -0.215820515914E+04   -0.52195E-03   -0.55542E-05  5224   0.122E-02    0.158E-02
DAV:  21    -0.215820537865E+04   -0.21952E-03   -0.23167E-05  4800   0.665E-03    0.119E-02
DAV:  22    -0.215820569606E+04   -0.31741E-03   -0.20367E-05  3984   0.654E-03    0.107E-02
DAV:  23    -0.215820590296E+04   -0.20689E-03   -0.12565E-05  3672   0.481E-03    0.816E-03
DAV:  24    -0.215820595186E+04   -0.48902E-04   -0.34546E-06  3576   0.264E-03    0.768E-03
DAV:  25    -0.215820597353E+04   -0.21669E-04   -0.11592E-06  3344   0.245E-03    0.738E-03
DAV:  26    -0.215820600113E+04   -0.27607E-04   -0.12845E-06  3432   0.310E-03    0.714E-03
DAV:  27    -0.215820600721E+04   -0.60727E-05   -0.10096E-06  3472   0.158E-03    0.707E-03
DAV:  28    -0.215820600953E+04   -0.23260E-05   -0.33706E-07  3288   0.998E-04
   9 F= -.22281526E+04 E0= -.22281132E+04  d E =-.170253E+02
 trial-energy change:  -17.025339  1 .order  -17.874810  -29.117221   -6.632400
 step:   1.7631(harm=  1.5882)  dis= 0.43549  next Energy= -2229.532420 (dE=-0.184E+02)
 bond charge predicted
       N       E                     dE             d eps       ncg     rms          rms(c)
DAV:   1    -0.215694432336E+04    0.12617E+01   -0.12405E+03  4952   0.421E+01    0.206E+01
DAV:   2    -0.216466917654E+04   -0.77249E+01   -0.39605E+01  6680   0.703E+00    0.314E+01
DAV:   3    -0.216529671682E+04   -0.62754E+00   -0.16316E+01  6544   0.516E+00    0.219E+01
DAV:   4    -0.216181713789E+04    0.34796E+01   -0.42716E+00  7256   0.501E+00    0.171E+01
DAV:   5    -0.216090871000E+04    0.90843E+00   -0.26329E+00  7640   0.386E+00    0.127E+01
DAV:   6    -0.215989809942E+04    0.10106E+01   -0.14963E+00  6904   0.251E+00    0.583E+00
DAV:   7    -0.215975189236E+04    0.14621E+00   -0.48660E-01  6744   0.166E+00    0.438E+00
DAV:   8    -0.215969248062E+04    0.59412E-01   -0.19035E-01  6048   0.745E-01    0.155E+00
DAV:   9    -0.215969725000E+04   -0.47694E-02   -0.30020E-02  6312   0.448E-01    0.145E+00
DAV:  10    -0.215968777811E+04    0.94719E-02   -0.26282E-02  6688   0.383E-01    0.835E-01
DAV:  11    -0.215968298317E+04    0.47949E-02   -0.87388E-03  6064   0.237E-01    0.360E-01
DAV:  12    -0.215968336386E+04   -0.38069E-03   -0.44118E-03  6104   0.125E-01    0.271E-01
DAV:  13    -0.215968371525E+04   -0.35139E-03   -0.10879E-03  6424   0.694E-02    0.239E-01
DAV:  14    -0.215968400153E+04   -0.28627E-03   -0.30911E-04  6104   0.422E-02    0.136E-01
DAV:  15    -0.215968445023E+04   -0.44870E-03   -0.15808E-04  6296   0.326E-02    0.538E-02
DAV:  16    -0.215968475282E+04   -0.30259E-03   -0.10408E-04  6184   0.215E-02    0.401E-02
DAV:  17    -0.215968500802E+04   -0.25521E-03   -0.30554E-05  4912   0.118E-02    0.329E-02
DAV:  18    -0.215968544616E+04   -0.43813E-03   -0.41785E-05  4352   0.145E-02    0.179E-02
DAV:  19    -0.215968573007E+04   -0.28391E-03   -0.35999E-05  4896   0.120E-02    0.171E-02
DAV:  20    -0.215968583754E+04   -0.10748E-03   -0.16548E-05  4312   0.611E-03    0.131E-02
DAV:  21    -0.215968595616E+04   -0.11861E-03   -0.69074E-06  3592   0.456E-03    0.118E-02
DAV:  22    -0.215968608201E+04   -0.12585E-03   -0.92879E-06  3624   0.375E-03    0.114E-02
DAV:  23    -0.215968615033E+04   -0.68317E-04   -0.58209E-06  3672   0.345E-03    0.108E-02
DAV:  24    -0.215968616992E+04   -0.19595E-04   -0.21292E-06  3456   0.218E-03    0.101E-02
DAV:  25    -0.215968618250E+04   -0.12577E-04   -0.11533E-06  3400   0.153E-03    0.993E-03
DAV:  26    -0.215968619097E+04   -0.84701E-05   -0.65724E-07  3392   0.151E-03    0.982E-03
DAV:  27    -0.215968619653E+04   -0.55572E-05   -0.37481E-07  3384   0.142E-03    0.979E-03
DAV:  28    -0.215968619865E+04   -0.21206E-05   -0.29994E-07  3360   0.996E-04
  10 F= -.22296074E+04 E0= -.22295735E+04  d E =-.184802E+02
 curvature:  -1.09 expect dE=-0.146E+02 dE for cont linesearch -0.218E-02
 trial: gam= 0.57254 g(F)=  0.133E+02 g(S)=  0.000E+00 ort = 0.292E+00 (trialstep = 0.133E+01)
 search vector abs. value=  0.277E+02
 bond charge predicted
       N       E                     dE             d eps       ncg     rms          rms(c)
DAV:   1    -0.215088895154E+04    0.87972E+01   -0.53636E+03  4952   0.864E+01    0.567E+01
DAV:   2    -0.219929341717E+04   -0.48404E+02   -0.23798E+02  6720   0.199E+01    0.530E+01
DAV:   3    -0.218960717877E+04    0.96862E+01   -0.55722E+01  7024   0.204E+01    0.535E+01
DAV:   4    -0.219691273771E+04   -0.73056E+01   -0.48833E+01  6832   0.883E+00    0.376E+01
DAV:   5    -0.217633991010E+04    0.20573E+02   -0.16645E+01  7544   0.109E+01    0.233E+01
DAV:   6    -0.217334136214E+04    0.29985E+01   -0.17684E+01  6584   0.766E+00    0.211E+01
DAV:   7    -0.216989862796E+04    0.34427E+01   -0.48602E+00  6352   0.590E+00    0.160E+01
DAV:   8    -0.217004514178E+04   -0.14651E+00   -0.40483E+00  6696   0.256E+00    0.116E+01
DAV:   9    -0.216931596508E+04    0.72918E+00   -0.10790E+00  6648   0.181E+00    0.520E+00
DAV:  10    -0.216947721283E+04   -0.16125E+00   -0.12632E+00  6536   0.127E+00    0.112E+01
DAV:  11    -0.216953042219E+04   -0.53209E-01   -0.19276E+00  6520   0.102E+00    0.904E+00
DAV:  12    -0.216915808891E+04    0.37233E+00   -0.83013E-02  6168   0.639E-01    0.384E+00
DAV:  13    -0.216912031161E+04    0.37777E-01   -0.63744E-02  6528   0.398E-01    0.147E+00
DAV:  14    -0.216912098908E+04   -0.67748E-03   -0.25325E-02  5896   0.168E-01    0.787E-01
DAV:  15    -0.216912395045E+04   -0.29614E-02   -0.54532E-03  6304   0.122E-01    0.432E-01
DAV:  16    -0.216912810064E+04   -0.41502E-02   -0.62417E-03  6688   0.103E-01    0.825E-01
DAV:  17    -0.216912777028E+04    0.33036E-03   -0.16278E-03  6656   0.648E-02    0.472E-01
DAV:  18    -0.216912886767E+04   -0.10974E-02   -0.28270E-04  6448   0.310E-02    0.521E-01
DAV:  19    -0.216912914706E+04   -0.27939E-03   -0.40352E-04  5728   0.184E-02    0.294E-01
DAV:  20    -0.216913015498E+04   -0.10079E-02   -0.79175E-04  5832   0.182E-02    0.548E-02
DAV:  21    -0.216913082811E+04   -0.67313E-03   -0.88064E-05  5432   0.117E-02    0.689E-02
DAV:  22    -0.216913124469E+04   -0.41657E-03   -0.27468E-05  3968   0.713E-03    0.467E-02
DAV:  23    -0.216913169941E+04   -0.45472E-03   -0.42323E-05  4040   0.619E-03    0.173E-02
DAV:  24    -0.216913214173E+04   -0.44232E-03   -0.66243E-05  4416   0.776E-03    0.555E-02
DAV:  25    -0.216913228367E+04   -0.14194E-03   -0.17169E-05  3752   0.454E-03    0.310E-02
DAV:  26    -0.216913237692E+04   -0.93249E-04   -0.69437E-06  3560   0.367E-03    0.302E-02
DAV:  27    -0.216913242317E+04   -0.46253E-04   -0.75593E-06  3536   0.267E-03    0.970E-03
DAV:  28    -0.216913243746E+04   -0.14284E-04   -0.18360E-06  3456   0.160E-03    0.119E-02
DAV:  29    -0.216913244539E+04   -0.79302E-05   -0.90062E-07  3384   0.110E-03    0.913E-03
DAV:  30    -0.216913245323E+04   -0.78380E-05   -0.61368E-07  3336   0.918E-04    0.100E-02
DAV:  31    -0.216913245396E+04   -0.73831E-06   -0.24653E-07  3344   0.558E-04
  11 F= -.22390397E+04 E0= -.22389893E+04  d E =-.943233E+01
 trial-energy change:   -9.432328  1 .order   -8.734005  -18.017884    0.549873
 step:   1.3014(harm=  1.2943)  dis= 0.29868  next Energy= -2239.046386 (dE=-0.944E+01)
 bond charge predicted
       N       E                     dE             d eps       ncg     rms          rms(c)
DAV:   1    -0.216913452381E+04   -0.20706E-02   -0.32571E+00  5024   0.201E+00    0.136E+00
DAV:   2    -0.216916830657E+04   -0.33783E-01   -0.12120E-01  7000   0.470E-01    0.222E+00
DAV:   3    -0.216915622497E+04    0.12082E-01   -0.13633E-01  7192   0.495E-01    0.238E+00
DAV:   4    -0.216921776979E+04   -0.61545E-01   -0.32976E-01  6464   0.235E-01    0.513E+00
DAV:   5    -0.216913671960E+04    0.81050E-01   -0.16327E-01  7136   0.270E-01    0.789E-01
DAV:   6    -0.216913959461E+04   -0.28750E-02   -0.49217E-03  6584   0.167E-01    0.355E-01
DAV:   7    -0.216913895624E+04    0.63837E-03   -0.31870E-03  6264   0.133E-01    0.201E-01
DAV:   8    -0.216913871887E+04    0.23737E-03   -0.52936E-04  6952   0.591E-02    0.902E-02
DAV:   9    -0.216913871875E+04    0.12224E-06   -0.13499E-04  6208   0.271E-02    0.707E-02
DAV:  10    -0.216913870820E+04    0.10551E-04   -0.46109E-05  5256   0.150E-02    0.391E-02
DAV:  11    -0.216913870672E+04    0.14831E-05   -0.14010E-05  3896   0.840E-03
  12 F= -.22390464E+04 E0= -.22389968E+04  d E =-.943901E+01
 curvature:  -1.28 expect dE=-0.145E+02 dE for cont linesearch -0.151E-06
 trial: gam= 0.75731 g(F)=  0.113E+02 g(S)=  0.000E+00 ort =-0.180E-02 (trialstep = 0.133E+01)
 search vector abs. value=  0.272E+02
 bond charge predicted
       N       E                     dE             d eps       ncg     rms          rms(c)
DAV:   1    -0.215078843195E+04    0.18350E+02   -0.53658E+03  4976   0.831E+01    0.548E+01
DAV:   2    -0.221240687883E+04   -0.61618E+02   -0.29085E+02  6632   0.200E+01    0.610E+01
DAV:   3    -0.218441323409E+04    0.27994E+02   -0.52672E+01  6704   0.173E+01    0.405E+01
DAV:   4    -0.220379524366E+04   -0.19382E+02   -0.51759E+01  6984   0.124E+01    0.558E+01
DAV:   5    -0.217921332201E+04    0.24582E+02   -0.71369E+00  6144   0.616E+00    0.238E+01
DAV:   6    -0.217992910865E+04   -0.71579E+00   -0.12118E+01  7152   0.668E+00    0.304E+01
DAV:   7    -0.217183745104E+04    0.80917E+01   -0.49655E+00  6784   0.456E+00    0.116E+01
DAV:   8    -0.217452322472E+04   -0.26858E+01   -0.66247E+00  6792   0.249E+00    0.377E+01
DAV:   9    -0.217247401350E+04    0.20492E+01   -0.75928E+00  6424   0.173E+00    0.128E+01
DAV:  10    -0.217175840685E+04    0.71561E+00   -0.48753E-01  6416   0.162E+00    0.101E+01
DAV:  11    -0.217118408849E+04    0.57432E+00   -0.87179E-01  6448   0.106E+00    0.533E+00
DAV:  12    -0.217128803316E+04   -0.10394E+00   -0.76176E-01  5776   0.477E-01    0.843E+00
DAV:  13    -0.217131701350E+04   -0.28980E-01   -0.44045E-02  6520   0.423E-01    0.822E+00
DAV:  14    -0.217112680690E+04    0.19021E+00   -0.26005E-01  6632   0.452E-01    0.279E+00
DAV:  15    -0.217111492864E+04    0.11878E-01   -0.56622E-02  6408   0.268E-01    0.112E+00
DAV:  16    -0.217111373986E+04    0.11888E-02   -0.61852E-03  5272   0.926E-02    0.879E-01
DAV:  17    -0.217112088757E+04   -0.71477E-02   -0.38458E-03  6496   0.794E-02    0.124E+00
DAV:  18    -0.217112419518E+04   -0.33076E-02   -0.38420E-03  6896   0.118E-01    0.134E+00
DAV:  19    -0.217112256877E+04    0.16264E-02   -0.21841E-02  6352   0.109E-01    0.867E-01
DAV:  20    -0.217111813758E+04    0.44312E-02   -0.29242E-03  5936   0.435E-02    0.320E-01
DAV:  21    -0.217112183589E+04   -0.36983E-02   -0.39945E-04  5512   0.179E-02    0.330E-01
DAV:  22    -0.217112313643E+04   -0.13005E-02   -0.63172E-04  5848   0.153E-02    0.304E-01
DAV:  23    -0.217112452667E+04   -0.13902E-02   -0.11593E-03  5736   0.204E-02    0.245E-01
DAV:  24    -0.217112588670E+04   -0.13600E-02   -0.26025E-04  5584   0.158E-02    0.616E-02
DAV:  25    -0.217112615167E+04   -0.26498E-03   -0.10809E-04  4192   0.648E-03    0.875E-02
DAV:  26    -0.217112660384E+04   -0.45217E-03   -0.42675E-05  4112   0.618E-03    0.122E-01
DAV:  27    -0.217112697593E+04   -0.37209E-03   -0.19389E-04  3792   0.760E-03    0.680E-02
DAV:  28    -0.217112709675E+04   -0.12082E-03   -0.17176E-05  3784   0.436E-03    0.400E-02
DAV:  29    -0.217112721407E+04   -0.11732E-03   -0.13826E-05  3584   0.340E-03    0.190E-02
DAV:  30    -0.217112729087E+04   -0.76802E-04   -0.45908E-06  3616   0.272E-03    0.129E-02
DAV:  31    -0.217112734531E+04   -0.54444E-04   -0.57656E-06  3560   0.227E-03    0.241E-02
DAV:  32    -0.217112736095E+04   -0.15634E-04   -0.17057E-06  3512   0.163E-03    0.212E-02
DAV:  33    -0.217112736662E+04   -0.56690E-05   -0.16397E-06  3368   0.114E-03    0.104E-02
DAV:  34    -0.217112737267E+04   -0.60555E-05   -0.84246E-07  3400   0.824E-04    0.780E-03
DAV:  35    -0.217112737601E+04   -0.33362E-05   -0.51748E-07  3232   0.599E-04
  13 F= -.22410267E+04 E0= -.22409652E+04  d E =-.198033E+01
 trial-energy change:   -1.980334  1 .order   -2.983101  -15.005172    9.038970
 step:   0.7466(harm=  0.8283)  dis= 0.17746  next Energy= -2243.088055 (dE=-0.404E+01)
 bond charge predicted
       N       E                     dE             d eps       ncg     rms          rms(c)
DAV:   1    -0.217104619620E+04    0.81176E-01   -0.10559E+03  4952   0.349E+01    0.293E+01
DAV:   2    -0.218508503778E+04   -0.14039E+02   -0.57607E+01  6944   0.102E+01    0.396E+01
DAV:   3    -0.218695716369E+04   -0.18721E+01   -0.48724E+01  7088   0.922E+00    0.290E+01
DAV:   4    -0.217814489060E+04    0.88123E+01   -0.19306E+01  7008   0.781E+00    0.266E+01
DAV:   5    -0.217756711652E+04    0.57777E+00   -0.90299E+00  7128   0.504E+00    0.203E+01
DAV:   6    -0.217771765179E+04   -0.15054E+00   -0.47904E+00  6848   0.346E+00    0.390E+01
DAV:   7    -0.217399765535E+04    0.37200E+01   -0.65207E+00  6672   0.184E+00    0.111E+01
DAV:   8    -0.217331815418E+04    0.67950E+00   -0.14839E+00  7042   0.181E+00    0.717E+00
DAV:   9    -0.217313672580E+04    0.18143E+00   -0.19797E-01  5312   0.521E-01    0.587E+00
DAV:  10    -0.217310225924E+04    0.34467E-01   -0.29011E-02  6140   0.209E-01    0.483E+00
DAV:  11    -0.217309082554E+04    0.11434E-01   -0.11244E-01  7432   0.601E-01    0.327E+00
DAV:  12    -0.217318306027E+04   -0.92235E-01   -0.76698E-02  6370   0.489E-01    0.326E+00
DAV:  13    -0.217319720890E+04   -0.14149E-01   -0.18380E-02  5784   0.264E-01    0.288E+00
DAV:  14    -0.217316548751E+04    0.31721E-01   -0.21620E-02  7044   0.298E-01    0.243E+00
DAV:  15    -0.217315326906E+04    0.12218E-01   -0.32200E-02  6960   0.246E-01    0.139E+00
DAV:  16    -0.217316499196E+04   -0.11723E-01   -0.16016E-02  5528   0.115E-01    0.661E-01
DAV:  17    -0.217316585094E+04   -0.85898E-03   -0.84886E-04  6704   0.482E-02    0.500E-01
DAV:  18    -0.217316592523E+04   -0.74293E-04   -0.31712E-03  6768   0.523E-02    0.436E-01
DAV:  19    -0.217316585687E+04    0.68364E-04   -0.34993E-03  6728   0.515E-02    0.321E-01
DAV:  20    -0.217316623519E+04   -0.37832E-03   -0.65970E-04  6168   0.299E-02    0.866E-02
DAV:  21    -0.217316632204E+04   -0.86849E-04   -0.60395E-05  5384   0.136E-02    0.480E-02
DAV:  22    -0.217316644186E+04   -0.11982E-03   -0.25315E-05  3824   0.720E-03    0.606E-02
DAV:  23    -0.217316651847E+04   -0.76608E-04   -0.82564E-06  3576   0.603E-03    0.402E-02
DAV:  24    -0.217316656383E+04   -0.45358E-04   -0.46344E-06  3432   0.391E-03    0.327E-02
DAV:  25    -0.217316658354E+04   -0.19706E-04   -0.42203E-06  3480   0.257E-03    0.168E-02
DAV:  26    -0.217316660213E+04   -0.18595E-04   -0.19333E-06  3360   0.171E-03    0.103E-02
DAV:  27    -0.217316662657E+04   -0.24436E-04   -0.27361E-06  3432   0.169E-03    0.103E-02
DAV:  28    -0.217316663759E+04   -0.11022E-04   -0.10494E-06  3416   0.156E-03    0.108E-02
DAV:  29    -0.217316664397E+04   -0.63824E-05   -0.94127E-07  3360   0.119E-03    0.101E-02
DAV:  30    -0.217316664623E+04   -0.22552E-05   -0.70359E-07  3408   0.925E-04
  14 F= -.22430662E+04 E0= -.22430087E+04  d E =-.401976E+01
 curvature:  -0.97 expect dE=-0.519E+01 dE for cont linesearch -0.493E-05
 trial: gam= 0.34966 g(F)=  0.536E+01 g(S)=  0.000E+00 ort = 0.118E-01 (trialstep = 0.121E+01)
 search vector abs. value=  0.869E+01
 bond charge predicted
       N       E                     dE             d eps       ncg     rms          rms(c)
DAV:   1    -0.217329773629E+04   -0.13109E+00   -0.15470E+03  4952   0.464E+01    0.262E+01
DAV:   2    -0.218291630589E+04   -0.96186E+01   -0.54153E+01  7000   0.897E+00    0.342E+01
DAV:   3    -0.218733021441E+04   -0.44139E+01   -0.34265E+01  6520   0.636E+00    0.268E+01
DAV:   4    -0.218020605512E+04    0.71242E+01   -0.73204E+00  7128   0.507E+00    0.205E+01
DAV:   5    -0.217860368812E+04    0.16024E+01   -0.35823E+00  7784   0.512E+00    0.175E+01
DAV:   6    -0.217719275284E+04    0.14109E+01   -0.18218E+00  7168   0.350E+00    0.130E+01
DAV:   7    -0.218040658252E+04   -0.32138E+01   -0.17999E+00  7096   0.230E+00    0.398E+01
DAV:   8    -0.217662179047E+04    0.37848E+01   -0.21493E+00  6464   0.139E+00    0.714E+00
DAV:   9    -0.217674290441E+04   -0.12111E+00   -0.61563E-01  6288   0.704E-01    0.907E+00
DAV:  10    -0.217667409263E+04    0.68812E-01   -0.18181E-01  6584   0.716E-01    0.397E+00
DAV:  11    -0.217655252201E+04    0.12157E+00   -0.55356E-02  5728   0.396E-01    0.368E+00
DAV:  12    -0.217654034375E+04    0.12178E-01   -0.10650E-01  6552   0.255E-01    0.238E+00
DAV:  13    -0.217659607873E+04   -0.55735E-01   -0.28897E-02  6104   0.179E-01    0.137E+00
DAV:  14    -0.217661136521E+04   -0.15286E-01   -0.69931E-03  6360   0.120E-01    0.885E-01
DAV:  15    -0.217662954797E+04   -0.18183E-01   -0.47907E-03  5760   0.880E-02    0.320E-01
DAV:  16    -0.217663995188E+04   -0.10404E-01   -0.13218E-03  5496   0.554E-02    0.143E-01
DAV:  17    -0.217664178285E+04   -0.18310E-02   -0.34137E-04  6112   0.293E-02    0.829E-02
DAV:  18    -0.217664207478E+04   -0.29192E-03   -0.56300E-05  5616   0.160E-02    0.595E-02
DAV:  19    -0.217664233464E+04   -0.25986E-03   -0.34591E-05  4328   0.109E-02    0.455E-02
DAV:  20    -0.217664250580E+04   -0.17116E-03   -0.20006E-05  3728   0.765E-03    0.240E-02
DAV:  21    -0.217664261682E+04   -0.11103E-03   -0.13800E-05  3528   0.492E-03    0.194E-02
DAV:  22    -0.217664273521E+04   -0.11838E-03   -0.99617E-06  3600   0.390E-03    0.143E-02
DAV:  23    -0.217664282245E+04   -0.87247E-04   -0.12016E-05  3536   0.313E-03    0.242E-02
DAV:  24    -0.217664286431E+04   -0.41857E-04   -0.45868E-06  3480   0.236E-03    0.147E-02
DAV:  25    -0.217664288563E+04   -0.21318E-04   -0.30537E-06  3472   0.181E-03    0.137E-02
DAV:  26    -0.217664289814E+04   -0.12512E-04   -0.98941E-07  3376   0.143E-03    0.102E-02
DAV:  27    -0.217664290633E+04   -0.81875E-05   -0.87139E-07  3360   0.128E-03    0.101E-02
DAV:  28    -0.217664290938E+04   -0.30503E-05   -0.45419E-07  3360   0.859E-04
  15 F= -.22465076E+04 E0= -.22464459E+04  d E =-.344147E+01
 trial-energy change:   -3.441468  1 .order   -3.519491   -6.499533   -0.539449
 step:   1.3312(harm=  1.3208)  dis= 0.16325  next Energy= -2246.534278 (dE=-0.347E+01)
 bond charge predicted
       N       E                     dE             d eps       ncg     rms          rms(c)
DAV:   1    -0.217665778240E+04   -0.14876E-01   -0.15231E+01  4976   0.455E+00    0.293E+00
DAV:   2    -0.217757863813E+04   -0.92086E+00   -0.22721E+00  6984   0.102E+00    0.210E+01
DAV:   3    -0.217677904477E+04    0.79959E+00   -0.22849E+00  5928   0.518E-01    0.801E+00
DAV:   4    -0.217672117988E+04    0.57865E-01   -0.55305E-01  7384   0.893E-01    0.355E+00
DAV:   5    -0.217666788115E+04    0.53299E-01   -0.97481E-02  6544   0.607E-01    0.190E+00
DAV:   6    -0.217668131905E+04   -0.13438E-01   -0.50463E-02  6352   0.517E-01    0.124E+00
DAV:   7    -0.217667214764E+04    0.91714E-02   -0.17688E-02  6920   0.293E-01    0.518E-01
DAV:   8    -0.217667226688E+04   -0.11924E-03   -0.42424E-03  6224   0.989E-02    0.344E-01
DAV:   9    -0.217667264145E+04   -0.37457E-03   -0.84145E-04  6344   0.586E-02    0.208E-01
DAV:  10    -0.217667267488E+04   -0.33425E-04   -0.25770E-04  6648   0.375E-02    0.161E-01
DAV:  11    -0.217667261423E+04    0.60644E-04   -0.15029E-04  6152   0.237E-02    0.668E-02
DAV:  12    -0.217667261187E+04    0.23581E-05   -0.44112E-05  5208   0.159E-02
  16 F= -.22465339E+04 E0= -.22464718E+04  d E =-.346772E+01
 curvature:  -1.06 expect dE=-0.422E+01 dE for cont linesearch -0.828E-05
 trial: gam= 0.69273 g(F)=  0.398E+01 g(S)=  0.000E+00 ort =-0.824E-02 (trialstep = 0.124E+01)
 search vector abs. value=  0.814E+01
 bond charge predicted
       N       E                     dE             d eps       ncg     rms          rms(c)
DAV:   1    -0.217479903316E+04    0.18736E+01   -0.14899E+03  4984   0.461E+01    0.312E+01
DAV:   2    -0.219112158379E+04   -0.16323E+02   -0.56931E+01  6952   0.915E+00    0.537E+01
DAV:   3    -0.218950637279E+04    0.16152E+01   -0.34444E+01  6368   0.530E+00    0.283E+01
DAV:   4    -0.218674213182E+04    0.27642E+01   -0.77519E+00  7240   0.649E+00    0.260E+01
DAV:   5    -0.218682707044E+04   -0.84939E-01   -0.74801E+00  7984   0.595E+00    0.218E+01
DAV:   6    -0.218365143687E+04    0.31756E+01   -0.47976E+00  7616   0.438E+00    0.222E+01
DAV:   7    -0.217925824734E+04    0.43932E+01   -0.54003E+00  7752   0.358E+00    0.115E+01
DAV:   8    -0.217845781933E+04    0.80043E+00   -0.13138E+00  6416   0.141E+00    0.915E+00
DAV:   9    -0.217815966652E+04    0.29815E+00   -0.19237E-01  5360   0.418E-01    0.606E+00
DAV:  10    -0.217819061958E+04   -0.30953E-01   -0.11959E-01  6960   0.367E-01    0.400E+00
DAV:  11    -0.217824389368E+04   -0.53274E-01   -0.60168E-02  6584   0.533E-01    0.466E+00
DAV:  12    -0.217817711313E+04    0.66781E-01   -0.65744E-02  6192   0.433E-01    0.460E+00
DAV:  13    -0.217825068361E+04   -0.73570E-01   -0.28276E-01  6848   0.389E-01    0.551E+00
DAV:  14    -0.217821777066E+04    0.32913E-01   -0.63913E-02  5632   0.280E-01    0.724E-01
DAV:  15    -0.217823229173E+04   -0.14521E-01   -0.69975E-03  6024   0.111E-01    0.149E+00
DAV:  16    -0.217822741393E+04    0.48778E-02   -0.47102E-03  6768   0.857E-02    0.289E-01
DAV:  17    -0.217823290054E+04   -0.54866E-02   -0.10944E-03  6256   0.684E-02    0.541E-01
DAV:  18    -0.217823160874E+04    0.12918E-02   -0.47648E-04  6496   0.458E-02    0.279E-01
DAV:  19    -0.217823244692E+04   -0.83817E-03   -0.15992E-04  5944   0.205E-02    0.101E-01
DAV:  20    -0.217823319001E+04   -0.74310E-03   -0.75344E-05  4912   0.114E-02    0.130E-01
DAV:  21    -0.217823352002E+04   -0.33001E-03   -0.38748E-05  4056   0.944E-03    0.173E-01
DAV:  22    -0.217823366434E+04   -0.14431E-03   -0.52026E-05  3752   0.914E-03    0.291E-02
DAV:  23    -0.217823396359E+04   -0.29926E-03   -0.26279E-05  3864   0.685E-03    0.366E-02
DAV:  24    -0.217823414151E+04   -0.17791E-03   -0.17185E-05  3560   0.659E-03    0.128E-02
DAV:  25    -0.217823425920E+04   -0.11769E-03   -0.15849E-05  3696   0.586E-03    0.201E-02
DAV:  26    -0.217823429396E+04   -0.34751E-04   -0.58240E-06  3592   0.357E-03    0.300E-02
DAV:  27    -0.217823431040E+04   -0.16446E-04   -0.18527E-06  3448   0.206E-03    0.191E-02
DAV:  28    -0.217823433326E+04   -0.22860E-04   -0.17662E-06  3424   0.170E-03    0.131E-02
DAV:  29    -0.217823434524E+04   -0.11980E-04   -0.97590E-07  3496   0.128E-03    0.997E-03
DAV:  30    -0.217823434887E+04   -0.36315E-05   -0.33647E-07  3288   0.878E-04
  17 F= -.22480336E+04 E0= -.22479875E+04  d E =-.149973E+01
 trial-energy change:   -1.499728  1 .order   -1.573705   -4.910320    1.762909
 step:   0.8924(harm=  0.9089)  dis= 0.09463  next Energy= -2248.279810 (dE=-0.175E+01)
 bond charge predicted
       N       E                     dE             d eps       ncg     rms          rms(c)
DAV:   1    -0.217828187960E+04   -0.47534E-01   -0.11444E+02  4952   0.127E+01    0.939E+00
DAV:   2    -0.217945677569E+04   -0.11749E+01   -0.38581E+00  6880   0.215E+00    0.140E+01
DAV:   3    -0.218444438764E+04   -0.49876E+01   -0.36009E+00  6728   0.204E+00    0.466E+01
DAV:   4    -0.217958667162E+04    0.48577E+01   -0.94854E+00  7048   0.198E+00    0.145E+01
DAV:   5    -0.217879965989E+04    0.78701E+00   -0.11027E+00  7568   0.243E+00    0.945E+00
DAV:   6    -0.217860061313E+04    0.19905E+00   -0.37787E-01  7328   0.144E+00    0.497E+00
DAV:   7    -0.217846505004E+04    0.13556E+00   -0.78596E-02  6200   0.642E-01    0.318E+00
DAV:   8    -0.217846124993E+04    0.38001E-02   -0.17265E-02  6024   0.189E-01    0.247E+00
DAV:   9    -0.217846308591E+04   -0.18360E-02   -0.73655E-03  6632   0.150E-01    0.135E+00
DAV:  10    -0.217846503196E+04   -0.19460E-02   -0.30654E-03  6760   0.102E-01    0.887E-01
DAV:  11    -0.217846734621E+04   -0.23143E-02   -0.30622E-03  6784   0.108E-01    0.720E-01
DAV:  12    -0.217846786422E+04   -0.51801E-03   -0.19812E-03  6784   0.119E-01    0.349E-01
DAV:  13    -0.217846760126E+04    0.26296E-03   -0.10374E-03  6200   0.738E-02    0.155E-01
DAV:  14    -0.217846749470E+04    0.10656E-03   -0.31106E-04  6216   0.404E-02    0.971E-02
DAV:  15    -0.217846758106E+04   -0.86359E-04   -0.84838E-05  5320   0.174E-02    0.397E-02
DAV:  16    -0.217846759042E+04   -0.93654E-05   -0.18214E-05  4104   0.927E-03    0.322E-02
DAV:  17    -0.217846759117E+04   -0.75041E-06   -0.46603E-06  3440   0.737E-03
  18 F= -.22482836E+04 E0= -.22482369E+04  d E =-.174967E+01
 curvature:  -0.93 expect dE=-0.194E+01 dE for cont linesearch -0.869E-05
 trial: gam= 0.52729 g(F)=  0.209E+01 g(S)=  0.000E+00 ort =-0.873E-02 (trialstep = 0.117E+01)
 search vector abs. value=  0.435E+01
 bond charge predicted
       N       E                     dE             d eps       ncg     rms          rms(c)
DAV:   1    -0.217904107434E+04   -0.57348E+00   -0.62612E+02  4952   0.301E+01    0.183E+01
DAV:   2    -0.218540865178E+04   -0.63676E+01   -0.20964E+01  6944   0.609E+00    0.390E+01
DAV:   3    -0.218579061286E+04   -0.38196E+00   -0.24144E+01  6256   0.344E+00    0.211E+01
DAV:   4    -0.218346484372E+04    0.23258E+01   -0.56804E+00  7672   0.509E+00    0.221E+01
DAV:   5    -0.218312778201E+04    0.33706E+00   -0.65106E+00  6992   0.400E+00    0.177E+01
DAV:   6    -0.218122946096E+04    0.18983E+01   -0.11275E+00  7424   0.254E+00    0.125E+01
DAV:   7    -0.218012138182E+04    0.11081E+01   -0.67457E-01  6336   0.132E+00    0.527E+00
DAV:   8    -0.218006511564E+04    0.56266E-01   -0.12774E-01  5552   0.410E-01    0.358E+00
DAV:   9    -0.218006623433E+04   -0.11187E-02   -0.19756E-02  7104   0.232E-01    0.303E+00
DAV:  10    -0.218005478000E+04    0.11454E-01   -0.13175E-02  6520   0.192E-01    0.220E+00
DAV:  11    -0.218005741968E+04   -0.26397E-02   -0.27473E-02  7752   0.399E-01    0.223E+00
DAV:  12    -0.218005130330E+04    0.61164E-02   -0.15888E-02  6344   0.263E-01    0.103E+00
DAV:  13    -0.218005791047E+04   -0.66072E-02   -0.12710E-02  5648   0.120E-01    0.137E+00
DAV:  14    -0.218004974717E+04    0.81633E-02   -0.48157E-03  5344   0.597E-02    0.372E-01
DAV:  15    -0.218005532808E+04   -0.55809E-02   -0.18120E-03  6048   0.597E-02    0.574E-01
DAV:  16    -0.218005592873E+04   -0.60065E-03   -0.35822E-03  6664   0.446E-02    0.743E-01
DAV:  17    -0.218005452224E+04    0.14065E-02   -0.10198E-03  5712   0.337E-02    0.116E-01
DAV:  18    -0.218005569470E+04   -0.11725E-02   -0.10358E-04  5856   0.170E-02    0.508E-02
DAV:  19    -0.218005596334E+04   -0.26864E-03   -0.36325E-05  4152   0.117E-02    0.313E-02
DAV:  20    -0.218005608201E+04   -0.11867E-03   -0.14463E-05  3648   0.799E-03    0.291E-02
DAV:  21    -0.218005613910E+04   -0.57094E-04   -0.94811E-06  3512   0.524E-03    0.195E-02
DAV:  22    -0.218005619375E+04   -0.54648E-04   -0.51536E-06  3408   0.402E-03    0.132E-02
DAV:  23    -0.218005626415E+04   -0.70404E-04   -0.81315E-06  3512   0.509E-03    0.206E-02
DAV:  24    -0.218005628760E+04   -0.23449E-04   -0.43776E-06  3504   0.318E-03    0.122E-02
DAV:  25    -0.218005630213E+04   -0.14528E-04   -0.19918E-06  3384   0.228E-03    0.102E-02
DAV:  26    -0.218005631225E+04   -0.10124E-04   -0.12812E-06  3432   0.142E-03    0.105E-02
DAV:  27    -0.218005631673E+04   -0.44799E-05   -0.62523E-07  3384   0.994E-04
  19 F= -.22498269E+04 E0= -.22497830E+04  d E =-.154330E+01
 trial-energy change:   -1.543297  1 .order   -1.558355   -2.437201   -0.679509
 step:   1.6531(harm=  1.6176)  dis= 0.11226  next Energy= -2249.967424 (dE=-0.168E+01)
 bond charge predicted
       N       E                     dE             d eps       ncg     rms          rms(c)
DAV:   1    -0.218007293965E+04   -0.16627E-01   -0.10900E+02  4952   0.125E+01    0.770E+00
DAV:   2    -0.218164070705E+04   -0.15678E+01   -0.38157E+00  6984   0.247E+00    0.238E+01
DAV:   3    -0.218115961411E+04    0.48109E+00   -0.69760E+00  6112   0.140E+00    0.135E+01
DAV:   4    -0.218047612945E+04    0.68348E+00   -0.15343E+00  7264   0.205E+00    0.684E+00
DAV:   5    -0.218046903395E+04    0.70955E-02   -0.98514E-01  6856   0.170E+00    0.735E+00
DAV:   6    -0.218022715583E+04    0.24188E+00   -0.23798E-01  7312   0.106E+00    0.469E+00
DAV:   7    -0.218017837795E+04    0.48778E-01   -0.67397E-02  6288   0.351E-01    0.153E+00
DAV:   8    -0.218020597359E+04   -0.27596E-01   -0.11173E-02  6040   0.171E-01    0.602E-01
DAV:   9    -0.218021587775E+04   -0.99042E-02   -0.31542E-03  6944   0.133E-01    0.397E-01
DAV:  10    -0.218021730858E+04   -0.14308E-02   -0.11340E-03  6488   0.869E-02    0.322E-01
DAV:  11    -0.218021742472E+04   -0.11614E-03   -0.51698E-04  6560   0.663E-02    0.224E-01
DAV:  12    -0.218021759943E+04   -0.17471E-03   -0.40291E-04  6272   0.593E-02    0.787E-02
DAV:  13    -0.218021777297E+04   -0.17354E-03   -0.13092E-04  5992   0.272E-02    0.663E-02
DAV:  14    -0.218021779491E+04   -0.21941E-04   -0.36398E-05  4880   0.118E-02    0.450E-02
DAV:  15    -0.218021782727E+04   -0.32355E-04   -0.15842E-05  3680   0.815E-03    0.167E-02
DAV:  16    -0.218021785294E+04   -0.25672E-04   -0.58167E-06  3544   0.629E-03    0.127E-02
DAV:  17    -0.218021786624E+04   -0.13303E-04   -0.35269E-06  3400   0.417E-03    0.126E-02
DAV:  18    -0.218021788082E+04   -0.14580E-04   -0.23277E-06  3392   0.286E-03    0.107E-02
DAV:  19    -0.218021789499E+04   -0.14174E-04   -0.17146E-06  3432   0.253E-03    0.112E-02
DAV:  20    -0.218021790487E+04   -0.98802E-05   -0.13281E-06  3400   0.204E-03    0.102E-02
DAV:  21    -0.218021791049E+04   -0.56112E-05   -0.87230E-07  3392   0.140E-03    0.104E-02
DAV:  22    -0.218021791481E+04   -0.43267E-05   -0.71193E-07  3360   0.104E-03
  20 F= -.22499701E+04 E0= -.22499259E+04  d E =-.168655E+01
 curvature:  -1.67 expect dE=-0.330E+01 dE for cont linesearch -0.528E-04
 trial: gam= 0.91137 g(F)=  0.197E+01 g(S)=  0.000E+00 ort = 0.117E-01 (trialstep = 0.980E+00)
 search vector abs. value=  0.561E+01
 bond charge predicted
       N       E                     dE             d eps       ncg     rms          rms(c)
DAV:   1    -0.218061934417E+04   -0.40143E+00   -0.58070E+02  4952   0.293E+01    0.164E+01
DAV:   2    -0.218498246901E+04   -0.43631E+01   -0.20887E+01  7040   0.567E+00    0.211E+01
DAV:   3    -0.219012100759E+04   -0.51385E+01   -0.67071E+00  6664   0.518E+00    0.483E+01
DAV:   4    -0.218573495212E+04    0.43861E+01   -0.19494E+01  6952   0.243E+00    0.212E+01
DAV:   5    -0.218356604307E+04    0.21689E+01   -0.37729E+00  7608   0.388E+00    0.154E+01
DAV:   6    -0.218308592290E+04    0.48012E+00   -0.11255E+00  7424   0.283E+00    0.128E+01
DAV:   7    -0.218202728282E+04    0.10586E+01   -0.55437E-01  6336   0.142E+00    0.845E+00
DAV:   8    -0.218178629163E+04    0.24099E+00   -0.10922E-01  6264   0.572E-01    0.629E+00
DAV:   9    -0.218172736288E+04    0.58929E-01   -0.25660E-02  6328   0.225E-01    0.551E+00
DAV:  10    -0.218164031213E+04    0.87051E-01   -0.10271E-01  6904   0.274E-01    0.262E+00
DAV:  11    -0.218163665199E+04    0.36601E-02   -0.61800E-03  5704   0.158E-01    0.219E+00
DAV:  12    -0.218163607305E+04    0.57894E-03   -0.53016E-03  6872   0.150E-01    0.209E+00
DAV:  13    -0.218162165244E+04    0.14421E-01   -0.18751E-02  7432   0.313E-01    0.782E-01
DAV:  14    -0.218162178625E+04   -0.13381E-03   -0.13296E-02  6432   0.160E-01    0.120E+00
DAV:  15    -0.218161488910E+04    0.68971E-02   -0.57124E-03  5568   0.770E-02    0.274E-01
DAV:  16    -0.218162079987E+04   -0.59108E-02   -0.17081E-03  5760   0.400E-02    0.480E-01
DAV:  17    -0.218162038121E+04    0.41866E-03   -0.89594E-04  5808   0.276E-02    0.113E-01
DAV:  18    -0.218162078705E+04   -0.40584E-03   -0.13907E-04  5984   0.250E-02    0.123E-01
DAV:  19    -0.218162076930E+04    0.17745E-04   -0.49207E-05  5528   0.142E-02    0.739E-02
DAV:  20    -0.218162083529E+04   -0.65988E-04   -0.14864E-05  3760   0.614E-03    0.393E-02
DAV:  21    -0.218162089359E+04   -0.58299E-04   -0.52498E-06  3576   0.426E-03    0.322E-02
DAV:  22    -0.218162094848E+04   -0.54891E-04   -0.90944E-06  3600   0.344E-03    0.117E-02
DAV:  23    -0.218162097624E+04   -0.27762E-04   -0.23465E-06  3592   0.256E-03    0.102E-02
DAV:  24    -0.218162100105E+04   -0.24805E-04   -0.16522E-06  3448   0.197E-03    0.127E-02
DAV:  25    -0.218162102989E+04   -0.28840E-04   -0.26461E-06  3512   0.219E-03    0.132E-02
DAV:  26    -0.218162103957E+04   -0.96867E-05   -0.12035E-06  3552   0.130E-03    0.973E-03
DAV:  27    -0.218162104541E+04   -0.58322E-05   -0.40848E-07  3336   0.880E-04    0.964E-03
DAV:  28    -0.218162105058E+04   -0.51742E-05   -0.42532E-07  3424   0.729E-04    0.935E-03
DAV:  29    -0.218162105276E+04   -0.21844E-05   -0.17818E-07  3320   0.590E-04
  21 F= -.22513385E+04 E0= -.22512973E+04  d E =-.136842E+01
 trial-energy change:   -1.368419  1 .order   -1.369052   -1.945368   -0.792736
 step:   1.6542(harm=  1.6542)  dis= 0.11226  next Energy= -2251.611766 (dE=-0.164E+01)
 bond charge predicted
       N       E                     dE             d eps       ncg     rms          rms(c)
DAV:   1    -0.218148169014E+04    0.13936E+00   -0.27463E+02  4952   0.201E+01    0.112E+01
DAV:   2    -0.218355731053E+04   -0.20756E+01   -0.96791E+00  6992   0.378E+00    0.160E+01
DAV:   3    -0.218634758090E+04   -0.27903E+01   -0.29508E+00  6528   0.335E+00    0.400E+01
DAV:   4    -0.218346400103E+04    0.28836E+01   -0.95228E+00  6968   0.181E+00    0.156E+01
DAV:   5    -0.218274106818E+04    0.72293E+00   -0.21289E+00  7304   0.273E+00    0.115E+01
DAV:   6    -0.218243598231E+04    0.30509E+00   -0.47289E-01  7496   0.197E+00    0.896E+00
DAV:   7    -0.218206774660E+04    0.36824E+00   -0.18981E-01  6112   0.826E-01    0.595E+00
DAV:   8    -0.218199612907E+04    0.71618E-01   -0.31483E-02  6320   0.313E-01    0.510E+00
DAV:   9    -0.218197096292E+04    0.25166E-01   -0.70034E-03  6280   0.137E-01    0.470E+00
DAV:  10    -0.218191661623E+04    0.54347E-01   -0.87136E-02  6944   0.257E-01    0.189E+00
DAV:  11    -0.218192505845E+04   -0.84422E-02   -0.80815E-03  5712   0.150E-01    0.113E+00
DAV:  12    -0.218192491762E+04    0.14083E-03   -0.29536E-03  6024   0.651E-02    0.114E+00
DAV:  13    -0.218192447420E+04    0.44342E-03   -0.35530E-03  6896   0.140E-01    0.881E-01
DAV:  14    -0.218192574447E+04   -0.12703E-02   -0.15231E-02  6728   0.111E-01    0.131E+00
DAV:  15    -0.218191337049E+04    0.12374E-01   -0.35931E-03  5424   0.668E-02    0.569E-01
DAV:  16    -0.218192120133E+04   -0.78308E-02   -0.20014E-03  5504   0.380E-02    0.328E-01
DAV:  17    -0.218192311787E+04   -0.19165E-02   -0.90229E-04  5376   0.272E-02    0.203E-01
DAV:  18    -0.218192294190E+04    0.17597E-03   -0.13658E-04  5360   0.176E-02    0.846E-02
DAV:  19    -0.218192310431E+04   -0.16241E-03   -0.41038E-05  4256   0.880E-03    0.368E-02
DAV:  20    -0.218192321457E+04   -0.11026E-03   -0.11178E-05  3480   0.669E-03    0.140E-02
DAV:  21    -0.218192323158E+04   -0.17014E-04   -0.35711E-06  3560   0.420E-03    0.123E-02
DAV:  22    -0.218192324954E+04   -0.17952E-04   -0.18229E-06  3480   0.239E-03    0.106E-02
DAV:  23    -0.218192326638E+04   -0.16846E-04   -0.15217E-06  3528   0.176E-03    0.107E-02
DAV:  24    -0.218192327766E+04   -0.11279E-04   -0.87199E-07  3448   0.144E-03    0.979E-03
DAV:  25    -0.218192328816E+04   -0.10503E-04   -0.82399E-07  3520   0.121E-03    0.951E-03
DAV:  26    -0.218192329731E+04   -0.91488E-05   -0.81197E-07  3480   0.123E-03    0.923E-03
DAV:  27    -0.218192330118E+04   -0.38703E-05   -0.45452E-07  3464   0.821E-04
  22 F= -.22516181E+04 E0= -.22515793E+04  d E =-.164803E+01
 curvature:  -2.34 expect dE=-0.797E+01 dE for cont linesearch -0.278E-03
 trial: gam= 1.82027 g(F)=  0.341E+01 g(S)=  0.000E+00 ort = 0.258E-01 (trialstep = 0.283E+00)
 search vector abs. value=  0.221E+02
 bond charge predicted
       N       E                     dE             d eps       ncg     rms          rms(c)
DAV:   1    -0.218263136590E+04   -0.70807E+00   -0.18891E+02  4952   0.167E+01    0.790E+00
DAV:   2    -0.218403914021E+04   -0.14078E+01   -0.63454E+00  6992   0.318E+00    0.135E+01
DAV:   3    -0.218456865876E+04   -0.52952E+00   -0.15996E+00  6328   0.252E+00    0.279E+01
DAV:   4    -0.218302131177E+04    0.15473E+01   -0.38634E+00  6936   0.113E+00    0.102E+01
DAV:   5    -0.218311170177E+04   -0.90390E-01   -0.10074E+00  6984   0.162E+00    0.639E+00
DAV:   6    -0.218299678138E+04    0.11492E+00   -0.24063E-01  7000   0.124E+00    0.558E+00
DAV:   7    -0.218293170391E+04    0.65077E-01   -0.82419E-02  6392   0.742E-01    0.440E+00
DAV:   8    -0.218289813826E+04    0.33566E-01   -0.26903E-02  7240   0.524E-01    0.302E+00
DAV:   9    -0.218287696827E+04    0.21170E-01   -0.20214E-02  6472   0.316E-01    0.167E+00
DAV:  10    -0.218288606419E+04   -0.90959E-02   -0.97243E-03  6712   0.144E-01    0.656E-01
DAV:  11    -0.218289499182E+04   -0.89276E-02   -0.26300E-03  6192   0.842E-02    0.358E-01
DAV:  12    -0.218289769346E+04   -0.27016E-02   -0.72645E-04  6856   0.774E-02    0.246E-01
DAV:  13    -0.218289758322E+04    0.11024E-03   -0.45088E-04  6568   0.608E-02    0.112E-01
DAV:  14    -0.218289767960E+04   -0.96382E-04   -0.16516E-04  6056   0.255E-02    0.608E-02
DAV:  15    -0.218289772597E+04   -0.46368E-04   -0.43160E-05  5384   0.145E-02    0.437E-02
DAV:  16    -0.218289772942E+04   -0.34464E-05   -0.15095E-05  3984   0.855E-03
  23 F= -.22525742E+04 E0= -.22525389E+04  d E =-.956042E+00
 ZBRENT: can't locate minimum, use default step
 trial-energy change:   -0.956042  1 .order   -0.959232   -0.978849   -0.939616
 step:   1.1323(harm=  7.0628)  dis= 0.13552  next Energy= -2263.829056 (dE=-0.122E+02)
 bond charge predicted
       N       E                     dE             d eps       ncg     rms          rms(c)
DAV:   1    -0.218265951367E+04    0.23821E+00   -0.16946E+03  4952   0.502E+01    0.226E+01
DAV:   2    -0.219187610227E+04   -0.92166E+01   -0.55263E+01  6960   0.101E+01    0.346E+01
DAV:   3    -0.218981618059E+04    0.20599E+01   -0.10832E+01  6368   0.738E+00    0.378E+01
DAV:   4    -0.219095072008E+04   -0.11345E+01   -0.21788E+01  6552   0.259E+00    0.251E+01
DAV:   5    -0.218816454195E+04    0.27862E+01   -0.23232E+00  7144   0.336E+00    0.168E+01
DAV:   6    -0.218820521088E+04   -0.40669E-01   -0.21324E+00  7480   0.353E+00    0.166E+01
DAV:   7    -0.218654894878E+04    0.16563E+01   -0.86649E-01  7336   0.291E+00    0.925E+00
DAV:   8    -0.218605410185E+04    0.49485E+00   -0.48865E-01  6728   0.180E+00    0.607E+00
DAV:   9    -0.218602401762E+04    0.30084E-01   -0.12688E-01  5744   0.556E-01    0.568E+00
DAV:  10    -0.218586317741E+04    0.16084E+00   -0.68511E-02  6840   0.576E-01    0.334E+00
DAV:  11    -0.218579925033E+04    0.63927E-01   -0.63864E-02  6504   0.497E-01    0.152E+00
DAV:  12    -0.218579898507E+04    0.26526E-03   -0.13502E-02  6336   0.226E-01    0.993E-01
DAV:  13    -0.218580413711E+04   -0.51520E-02   -0.58752E-03  7048   0.175E-01    0.652E-01
DAV:  14    -0.218580686157E+04   -0.27245E-02   -0.30740E-03  6856   0.150E-01    0.515E-01
DAV:  15    -0.218580745886E+04   -0.59729E-03   -0.14998E-03  6192   0.841E-02    0.190E-01
DAV:  16    -0.218580792112E+04   -0.46226E-03   -0.56432E-04  6592   0.446E-02    0.131E-01
DAV:  17    -0.218580804209E+04   -0.12097E-03   -0.16061E-04  6504   0.253E-02    0.855E-02
DAV:  18    -0.218580829737E+04   -0.25528E-03   -0.14555E-04  6072   0.188E-02    0.136E-01
DAV:  19    -0.218580829631E+04    0.10610E-05   -0.41638E-05  4464   0.100E-02
  24 F= -.22554349E+04 E0= -.22554109E+04  d E =-.381675E+01
 curvature:  -5.30 expect dE=-0.523E+02 dE for cont linesearch -0.295E+01
 ZBRENT: increasing intervall
 opt :   2.8308  next Energy= -2261.719791 (dE=-0.101E+02)
 bond charge predicted
       N       E                     dE             d eps       ncg     rms          rms(c)
DAV:   1    -0.217293362509E+04    0.12875E+02   -0.67434E+03  4960   0.102E+02    0.443E+01
DAV:   2    -0.221673625692E+04   -0.43803E+02   -0.28614E+02  6816   0.216E+01    0.633E+01
DAV:   3    -0.219291841567E+04    0.23818E+02   -0.35375E+01  6968   0.153E+01    0.294E+01
DAV:   4    -0.220694667744E+04   -0.14028E+02   -0.25616E+01  6936   0.699E+00    0.544E+01
DAV:   5    -0.219845546229E+04    0.84912E+01   -0.45131E+00  6288   0.392E+00    0.252E+01
DAV:   6    -0.219717563240E+04    0.12798E+01   -0.68935E+00  7576   0.558E+00    0.258E+01
DAV:   7    -0.219560919709E+04    0.15664E+01   -0.45970E+00  7400   0.501E+00    0.209E+01
DAV:   8    -0.219394101298E+04    0.16682E+01   -0.20477E+00  7528   0.387E+00    0.148E+01
DAV:   9    -0.219238149487E+04    0.15595E+01   -0.13808E+00  6648   0.193E+00    0.909E+00
DAV:  10    -0.219219237342E+04    0.18912E+00   -0.14461E-01  5632   0.555E-01    0.794E+00
DAV:  11    -0.219210198074E+04    0.90393E-01   -0.18377E-02  6336   0.256E-01    0.735E+00
DAV:  12    -0.219187050831E+04    0.23147E+00   -0.49160E-02  7400   0.437E-01    0.523E+00
DAV:  13    -0.219175137991E+04    0.11913E+00   -0.54580E-02  6280   0.363E-01    0.350E+00
DAV:  14    -0.219171260084E+04    0.38779E-01   -0.39061E-02  6768   0.370E-01    0.179E+00
DAV:  15    -0.219171985155E+04   -0.72507E-02   -0.22375E-02  6672   0.308E-01    0.199E+00
DAV:  16    -0.219170150800E+04    0.18344E-01   -0.30124E-02  6560   0.267E-01    0.741E-01
DAV:  17    -0.219170519523E+04   -0.36872E-02   -0.69703E-03  5832   0.132E-01    0.484E-01
DAV:  18    -0.219170605614E+04   -0.86091E-03   -0.23807E-03  6536   0.551E-02    0.368E-01
DAV:  19    -0.219170950747E+04   -0.34513E-02   -0.65975E-03  6552   0.617E-02    0.927E-01
DAV:  20    -0.219170586191E+04    0.36456E-02   -0.21944E-03  6096   0.503E-02    0.321E-01
DAV:  21    -0.219170687312E+04   -0.10112E-02   -0.94376E-04  6328   0.384E-02    0.157E-01
DAV:  22    -0.219170714278E+04   -0.26967E-03   -0.11748E-04  5528   0.178E-02    0.127E-01
DAV:  23    -0.219170738334E+04   -0.24056E-03   -0.67899E-05  4368   0.756E-03    0.658E-02
DAV:  24    -0.219170759873E+04   -0.21538E-03   -0.44643E-05  3792   0.705E-03    0.442E-02
DAV:  25    -0.219170779812E+04   -0.19939E-03   -0.27229E-05  3832   0.560E-03    0.246E-02
DAV:  26    -0.219170793066E+04   -0.13255E-03   -0.10645E-05  3752   0.387E-03    0.212E-02
DAV:  27    -0.219170805992E+04   -0.12926E-03   -0.12858E-05  3672   0.405E-03    0.160E-02
DAV:  28    -0.219170813628E+04   -0.76359E-04   -0.58400E-06  3728   0.271E-03    0.157E-02
DAV:  29    -0.219170818752E+04   -0.51245E-04   -0.38219E-06  3656   0.240E-03    0.199E-02
DAV:  30    -0.219170822305E+04   -0.35530E-04   -0.28668E-06  3656   0.185E-03    0.107E-02
DAV:  31    -0.219170823786E+04   -0.14808E-04   -0.11676E-06  3464   0.134E-03    0.864E-03
DAV:  32    -0.219170824605E+04   -0.81884E-05   -0.56119E-07  3248   0.927E-04    0.924E-03
DAV:  33    -0.219170825040E+04   -0.43456E-05   -0.41610E-07  3184   0.702E-04
  25 F= -.22612731E+04 E0= -.22612404E+04  d E =-.965499E+01
 curvature: -11.27 expect dE=-0.419E+03 dE for cont linesearch -0.419E+01
 ZBRENT: increasing intervall
 opt :   6.2278  next Energy= -2268.819107 (dE=-0.172E+02)
 bond charge predicted
       N       E                     dE             d eps       ncg     rms          rms(c)
DAV:   1    -0.205556521223E+04    0.13614E+03   -0.25538E+04  4960   0.209E+02    0.117E+02
DAV:   2    -0.234761700285E+04   -0.29205E+03   -0.17172E+03  6696   0.520E+01    0.103E+02
DAV:   3    -0.223796118035E+04    0.10966E+03   -0.34082E+02  6760   0.354E+01    0.762E+01
DAV:   4    -0.220201869332E+04    0.35942E+02   -0.73885E+01  7116   0.193E+01    0.535E+01
DAV:   5    -0.221555427100E+04   -0.13536E+02   -0.69237E+01  6768   0.153E+01    0.665E+01
DAV:   6    -0.219252986849E+04    0.23024E+02   -0.12117E+01  6586   0.983E+00    0.356E+01
DAV:   7    -0.219788239362E+04   -0.53525E+01   -0.30466E+01  7400   0.106E+01    0.475E+01
DAV:   8    -0.219282352499E+04    0.50589E+01   -0.13284E+01  6792   0.721E+00    0.477E+01
DAV:   9    -0.218855383216E+04    0.42697E+01   -0.39571E+00  6536   0.376E+00    0.221E+01
DAV:  10    -0.218448566551E+04    0.40682E+01   -0.38649E+00  6948   0.354E+00    0.281E+01
DAV:  11    -0.218345434084E+04    0.10313E+01   -0.17922E+00  6400   0.148E+00    0.906E+00
DAV:  12    -0.218357061210E+04   -0.11627E+00   -0.38295E-01  6690   0.843E-01    0.143E+01
DAV:  13    -0.218354654927E+04    0.24063E-01   -0.81171E-01  6632   0.822E-01    0.865E+00
DAV:  14    -0.218334417434E+04    0.20237E+00   -0.10331E-01  6288   0.667E-01    0.521E+00
DAV:  15    -0.218342919021E+04   -0.85016E-01   -0.13482E-01  6816   0.715E-01    0.783E+00
DAV:  16    -0.218348899835E+04   -0.59808E-01   -0.67214E-02  6880   0.613E-01    0.866E+00
DAV:  17    -0.218334694388E+04    0.14205E+00   -0.50475E-02  6664   0.395E-01    0.525E+00
DAV:  18    -0.218335360938E+04   -0.66655E-02   -0.10900E-02  6120   0.156E-01    0.483E+00
DAV:  19    -0.218335385521E+04   -0.24583E-03   -0.66628E-03  6904   0.138E-01    0.401E+00
DAV:  20    -0.218334807132E+04    0.57839E-02   -0.30748E-02  6632   0.116E-01    0.913E-01
DAV:  21    -0.218337314745E+04   -0.25076E-01   -0.42528E-03  6096   0.831E-02    0.146E+00
DAV:  22    -0.218337173192E+04    0.14155E-02   -0.34691E-03  6496   0.542E-02    0.333E-01
DAV:  23    -0.218337533192E+04   -0.36000E-02   -0.18877E-03  5696   0.354E-02    0.978E-01
DAV:  24    -0.218337355096E+04    0.17810E-02   -0.10299E-03  6648   0.370E-02    0.382E-01
DAV:  25    -0.218337522006E+04   -0.16691E-02   -0.45841E-04  6568   0.266E-02    0.738E-02
DAV:  26    -0.218337625721E+04   -0.10371E-02   -0.10917E-04  5544   0.132E-02    0.197E-01
DAV:  27    -0.218337669194E+04   -0.43473E-03   -0.39132E-05  3928   0.102E-02    0.163E-01
DAV:  28    -0.218337721245E+04   -0.52051E-03   -0.12671E-04  4056   0.135E-02    0.700E-02
DAV:  29    -0.218337759575E+04   -0.38330E-03   -0.41125E-05  4632   0.959E-03    0.461E-02
DAV:  30    -0.218337775968E+04   -0.16393E-03   -0.16356E-05  3776   0.595E-03    0.185E-02
DAV:  31    -0.218337793358E+04   -0.17390E-03   -0.14907E-05  3712   0.527E-03    0.236E-02
DAV:  32    -0.218337804757E+04   -0.11399E-03   -0.13594E-05  3784   0.424E-03    0.227E-02
DAV:  33    -0.218337810125E+04   -0.53684E-04   -0.53344E-06  3704   0.319E-03    0.127E-02
DAV:  34    -0.218337812790E+04   -0.26654E-04   -0.20304E-06  3592   0.202E-03    0.137E-02
DAV:  35    -0.218337814757E+04   -0.19662E-04   -0.21493E-06  3480   0.154E-03    0.245E-02
DAV:  36    -0.218337815304E+04   -0.54748E-05   -0.93329E-07  3280   0.108E-03    0.109E-02
DAV:  37    -0.218337815618E+04   -0.31418E-05   -0.37833E-07  3072   0.693E-04
  26 F= -.22528122E+04 E0= -.22527664E+04  d E =-.119403E+01
 curvature: -20.29 expect dE=-0.302E+04 dE for cont linesearch -0.870E+02
 ZBRENT: bracketing found
 ZBRENT: interpolating
 opt :   3.6038  next Energy= -2262.380683 (dE=-0.108E+02)
 bond charge predicted
       N       E                     dE             d eps       ncg     rms          rms(c)
DAV:   1    -0.212369364386E+04    0.59685E+02   -0.16053E+04  4952   0.161E+02    0.822E+01
DAV:   2    -0.224926708272E+04   -0.12557E+03   -0.98152E+02  6872   0.393E+01    0.822E+01
DAV:   3    -0.221276256361E+04    0.36505E+02   -0.11842E+02  6992   0.326E+01    0.668E+01
DAV:   4    -0.221076870476E+04    0.19939E+01   -0.54140E+01  6720   0.138E+01    0.405E+01
DAV:   5    -0.219359726222E+04    0.17171E+02   -0.24962E+01  7212   0.105E+01    0.275E+01
DAV:   6    -0.220009758063E+04   -0.65003E+01   -0.13292E+01  6712   0.783E+00    0.331E+01
DAV:   7    -0.220221080117E+04   -0.21132E+01   -0.12163E+01  6818   0.670E+00    0.456E+01
DAV:   8    -0.219873594235E+04    0.34749E+01   -0.10446E+01  7168   0.548E+00    0.253E+01
DAV:   9    -0.219402342643E+04    0.47125E+01   -0.31330E+00  6976   0.425E+00    0.111E+01
DAV:  10    -0.219360954597E+04    0.41388E+00   -0.10699E+00  6656   0.199E+00    0.916E+00
DAV:  11    -0.219355710896E+04    0.52437E-01   -0.62127E-01  6448   0.154E+00    0.718E+00
DAV:  12    -0.219360755933E+04   -0.50450E-01   -0.14280E-01  6456   0.765E-01    0.786E+00
DAV:  13    -0.219336747118E+04    0.24009E+00   -0.79977E-02  6752   0.623E-01    0.400E+00
DAV:  14    -0.219335898844E+04    0.84827E-02   -0.47053E-02  6976   0.581E-01    0.352E+00
DAV:  15    -0.219332579997E+04    0.33188E-01   -0.50362E-02  6544   0.341E-01    0.198E+00
DAV:  16    -0.219332078577E+04    0.50142E-02   -0.21474E-02  6120   0.180E-01    0.123E+00
DAV:  17    -0.219332404092E+04   -0.32551E-02   -0.13551E-02  6464   0.129E-01    0.179E+00
DAV:  18    -0.219331580008E+04    0.82408E-02   -0.14504E-02  6776   0.108E-01    0.997E-01
DAV:  19    -0.219331993853E+04   -0.41384E-02   -0.23524E-03  6480   0.787E-02    0.554E-01
DAV:  20    -0.219331945948E+04    0.47905E-03   -0.11762E-03  6480   0.453E-02    0.164E-01
DAV:  21    -0.219332009772E+04   -0.63825E-03   -0.19772E-04  6328   0.280E-02    0.107E-01
DAV:  22    -0.219332029628E+04   -0.19855E-03   -0.22605E-04  5992   0.233E-02    0.952E-02
DAV:  23    -0.219332064164E+04   -0.34537E-03   -0.31430E-04  5592   0.192E-02    0.286E-01
DAV:  24    -0.219332039393E+04    0.24771E-03   -0.26518E-04  5424   0.126E-02    0.707E-02
DAV:  25    -0.219332061748E+04   -0.22355E-03   -0.15838E-05  3624   0.631E-03    0.105E-01
DAV:  26    -0.219332065049E+04   -0.33017E-04   -0.39127E-05  3688   0.667E-03    0.235E-02
DAV:  27    -0.219332071719E+04   -0.66696E-04   -0.49299E-06  3632   0.332E-03    0.904E-03
DAV:  28    -0.219332074978E+04   -0.32590E-04   -0.21006E-06  3512   0.298E-03    0.144E-02
DAV:  29    -0.219332077851E+04   -0.28732E-04   -0.24992E-06  3552   0.248E-03    0.856E-03
DAV:  30    -0.219332080800E+04   -0.29487E-04   -0.25837E-06  3568   0.285E-03    0.767E-03
DAV:  31    -0.219332081904E+04   -0.11042E-04   -0.14591E-06  3480   0.159E-03    0.957E-03
DAV:  32    -0.219332082320E+04   -0.41605E-05   -0.44014E-07  3192   0.962E-04
  27 F= -.22628509E+04 E0= -.22628167E+04  d E =-.112328E+02
 curvature:  -0.26 expect dE=-0.128E+02 dE for cont linesearch -0.122E-01
 ZBRENT: interpolating
 opt :   3.9919  next Energy= -2263.068175 (dE=-0.115E+02)
 bond charge predicted
       N       E                     dE             d eps       ncg     rms          rms(c)
DAV:   1    -0.219295564400E+04    0.36518E+00   -0.35393E+02  4952   0.230E+01    0.106E+01
DAV:   2    -0.219500041284E+04   -0.20448E+01   -0.93115E+00  6936   0.398E+00    0.167E+01
DAV:   3    -0.219928199279E+04   -0.42816E+01   -0.41630E+00  6376   0.349E+00    0.420E+01
DAV:   4    -0.219451918697E+04    0.47628E+01   -0.57199E+00  7040   0.182E+00    0.157E+01
DAV:   5    -0.219389285776E+04    0.62633E+00   -0.12196E+00  7008   0.204E+00    0.108E+01
DAV:   6    -0.219412481029E+04   -0.23195E+00   -0.70762E-01  7928   0.191E+00    0.107E+01
DAV:   7    -0.219358463984E+04    0.54017E+00   -0.82129E-01  6616   0.157E+00    0.461E+00
DAV:   8    -0.219353137924E+04    0.53261E-01   -0.10886E-01  6872   0.756E-01    0.310E+00
DAV:   9    -0.219351047921E+04    0.20900E-01   -0.24517E-02  6312   0.368E-01    0.274E+00
DAV:  10    -0.219350689614E+04    0.35831E-02   -0.12911E-02  6680   0.294E-01    0.190E+00
DAV:  11    -0.219349865949E+04    0.82367E-02   -0.93521E-03  6736   0.281E-01    0.902E-01
DAV:  12    -0.219349888906E+04   -0.22957E-03   -0.57735E-03  6688   0.145E-01    0.470E-01
DAV:  13    -0.219349978714E+04   -0.89809E-03   -0.22335E-03  6776   0.108E-01    0.289E-01
DAV:  14    -0.219349973337E+04    0.53770E-04   -0.68448E-04  6584   0.733E-02    0.179E-01
DAV:  15    -0.219349969361E+04    0.39769E-04   -0.27749E-04  6624   0.496E-02    0.120E-01
DAV:  16    -0.219349968633E+04    0.72790E-05   -0.13127E-04  6160   0.290E-02    0.719E-02
DAV:  17    -0.219349968228E+04    0.40443E-05   -0.76103E-05  5672   0.212E-02    0.604E-02
DAV:  18    -0.219349968169E+04    0.59605E-06   -0.18687E-05  4232   0.104E-02
  28 F= -.22630130E+04 E0= -.22629781E+04  d E =-.113949E+02
[...]
DAV:  10    -0.220035233786E+04   -0.91819E-02   -0.32605E-02  6592   0.388E-01    0.950E-01
DAV:  11    -0.220035205510E+04    0.28276E-03   -0.81440E-03  6632   0.195E-01    0.908E-01
DAV:  12    -0.220035340776E+04   -0.13527E-02   -0.19920E-03  6232   0.114E-01    0.830E-01
DAV:  13    -0.220035226253E+04    0.11452E-02   -0.24330E-03  6464   0.698E-02    0.304E-01
DAV:  14    -0.220035310142E+04   -0.83889E-03   -0.35525E-04  5600   0.397E-02    0.170E-01
DAV:  15    -0.220035332801E+04   -0.22659E-03   -0.24561E-04  6656   0.262E-02    0.138E-01
DAV:  16    -0.220035341843E+04   -0.90420E-04   -0.80922E-05  6128   0.225E-02    0.542E-02
DAV:  17    -0.220035344965E+04   -0.31216E-04   -0.24016E-05  4864   0.117E-02    0.390E-02
DAV:  18    -0.220035344823E+04    0.14165E-05   -0.74199E-06  3512   0.669E-03
  34 F= -.22697969E+04 E0= -.22697511E+04  d E =-.501704E+01
 curvature:  -0.27 expect dE=-0.160E+02 dE for cont linesearch -0.298E+01
 ZBRENT: increasing intervall
 opt :   0.1880  next Energy= -2276.001196 (dE=-0.112E+02)
 bond charge predicted
       N       E                     dE             d eps       ncg     rms          rms(c)
DAV:   1    -0.220630728060E+04   -0.59538E+01   -0.45678E+02  4952   0.258E+01    0.155E+01
DAV:   2    -0.222412550523E+04   -0.17818E+02   -0.36045E+01  7056   0.840E+00    0.478E+01
DAV:   3    -0.221717717399E+04    0.69483E+01   -0.14843E+01  6312   0.470E+00    0.323E+01
DAV:   4    -0.220746305524E+04    0.97141E+01   -0.56777E+00  7448   0.467E+00    0.184E+01
DAV:   5    -0.220786389229E+04   -0.40084E+00   -0.21994E+00  6344   0.267E+00    0.171E+01
DAV:   6    -0.220837703028E+04   -0.51314E+00   -0.47615E+00  7192   0.336E+00    0.322E+01
DAV:   7    -0.220744263702E+04    0.93439E+00   -0.27220E+00  6754   0.150E+00    0.169E+01
DAV:   8    -0.220673726078E+04    0.70538E+00   -0.13500E+00  6744   0.139E+00    0.979E+00
DAV:   9    -0.220658104498E+04    0.15622E+00   -0.29532E-01  6856   0.732E-01    0.519E+00
DAV:  10    -0.220662111354E+04   -0.40069E-01   -0.14582E-01  6552   0.509E-01    0.418E+00
DAV:  11    -0.220658199942E+04    0.39114E-01   -0.64911E-02  6764   0.410E-01    0.326E+00
DAV:  12    -0.220659024646E+04   -0.82470E-02   -0.20736E-02  6720   0.271E-01    0.262E+00
DAV:  13    -0.220657853704E+04    0.11709E-01   -0.15913E-02  6574   0.153E-01    0.115E+00
DAV:  14    -0.220658249672E+04   -0.39597E-02   -0.36160E-03  6440   0.892E-02    0.844E-01
DAV:  15    -0.220658545165E+04   -0.29549E-02   -0.13348E-03  6906   0.900E-02    0.684E-01
DAV:  16    -0.220658836811E+04   -0.29165E-02   -0.30032E-03  6528   0.978E-02    0.655E-01
DAV:  17    -0.220658966075E+04   -0.12926E-02   -0.12116E-03  6384   0.781E-02    0.736E-01
DAV:  18    -0.220658939860E+04    0.26215E-03   -0.15239E-03  6256   0.430E-02    0.213E-01
DAV:  19    -0.220659000851E+04   -0.60990E-03   -0.17605E-04  5832   0.231E-02    0.231E-01
DAV:  20    -0.220658995336E+04    0.55146E-04   -0.71108E-05  5464   0.137E-02    0.227E-01
DAV:  21    -0.220658995694E+04   -0.35800E-05   -0.15845E-04  5736   0.241E-02    0.892E-02
DAV:  22    -0.220659011905E+04   -0.16210E-03   -0.91812E-05  5248   0.152E-02    0.827E-02
DAV:  23    -0.220659013704E+04   -0.17995E-04   -0.26732E-05  4064   0.807E-03    0.278E-02
DAV:  24    -0.220659015627E+04   -0.19231E-04   -0.12515E-05  3296   0.486E-03    0.680E-02
DAV:  25    -0.220659014405E+04    0.12223E-04   -0.62377E-06  3176   0.335E-03    0.207E-02
DAV:  26    -0.220659015052E+04   -0.64680E-05   -0.16101E-06  3120   0.241E-03    0.263E-02
DAV:  27    -0.220659015047E+04    0.49593E-07   -0.95645E-07  3064   0.154E-03
  35 F= -.22760138E+04 E0= -.22759588E+04  d E =-.112339E+02
 curvature:  -0.56 expect dE=-0.257E+02 dE for cont linesearch -0.376E+01
 ZBRENT: increasing intervall
 opt :   0.4135  next Energy= -2283.816494 (dE=-0.190E+02)
 bond charge predicted
       N       E                     dE             d eps       ncg     rms          rms(c)
DAV:   1    -0.221219608174E+04   -0.56059E+01   -0.18325E+03  4952   0.519E+01    0.299E+01
DAV:   2    -0.226431197698E+04   -0.52116E+02   -0.10043E+02  6896   0.161E+01    0.587E+01
DAV:   3    -0.223934518981E+04    0.24967E+02   -0.17207E+01  6664   0.102E+01    0.418E+01
DAV:   4    -0.221675299770E+04    0.22592E+02   -0.22601E+01  7328   0.857E+00    0.258E+01
DAV:   5    -0.222006542979E+04   -0.33124E+01   -0.15210E+01  6930   0.596E+00    0.448E+01
DAV:   6    -0.221768689419E+04    0.23785E+01   -0.94227E+00  6472   0.345E+00    0.218E+01
DAV:   7    -0.221485186647E+04    0.28350E+01   -0.25788E+00  6992   0.299E+00    0.937E+00
DAV:   8    -0.221488521068E+04   -0.33344E-01   -0.81082E-01  6696   0.227E+00    0.889E+00
DAV:   9    -0.221574402476E+04   -0.85881E+00   -0.42629E+00  6960   0.188E+00    0.158E+01
DAV:  10    -0.221539032811E+04    0.35370E+00   -0.22476E+00  7520   0.178E+00    0.205E+01
DAV:  11    -0.221451065982E+04    0.87967E+00   -0.19766E+00  6034   0.915E-01    0.702E+00
DAV:  12    -0.221471218887E+04   -0.20153E+00   -0.14578E-01  6544   0.605E-01    0.389E+00
DAV:  13    -0.221483718954E+04   -0.12500E+00   -0.27077E-01  6282   0.518E-01    0.872E+00
DAV:  14    -0.221466033225E+04    0.17686E+00   -0.18773E-01  6496   0.295E-01    0.173E+00
DAV:  15    -0.221471671284E+04   -0.56381E-01   -0.67356E-02  6458   0.191E-01    0.396E+00
DAV:  16    -0.221471637684E+04    0.33600E-03   -0.37153E-03  5104   0.752E-02    0.387E+00
DAV:  17    -0.221471411794E+04    0.22589E-02   -0.37211E-03  7042   0.841E-02    0.316E+00
DAV:  18    -0.221471265280E+04    0.14651E-02   -0.67805E-02  6752   0.106E-01    0.153E+00
DAV:  19    -0.221471920321E+04   -0.65504E-02   -0.31815E-03  6096   0.916E-02    0.200E+00
DAV:  20    -0.221471212497E+04    0.70782E-02   -0.71447E-03  6272   0.513E-02    0.504E-01
DAV:  21    -0.221471674049E+04   -0.46155E-02   -0.29311E-04  6064   0.293E-02    0.384E-01
DAV:  22    -0.221471829109E+04   -0.15506E-02   -0.48277E-03  6208   0.257E-02    0.100E+00
DAV:  23    -0.221471584156E+04    0.24495E-02   -0.32169E-03  5568   0.237E-02    0.110E-01
DAV:  24    -0.221471740481E+04   -0.15632E-02   -0.86875E-05  5088   0.136E-02    0.118E-01
DAV:  25    -0.221471749030E+04   -0.85488E-04   -0.17410E-04  3992   0.986E-03    0.322E-01
DAV:  26    -0.221471719732E+04    0.29298E-03   -0.12611E-04  3440   0.724E-03    0.127E-01
DAV:  27    -0.221471736032E+04   -0.16300E-03   -0.85514E-06  3432   0.444E-03    0.977E-02
DAV:  28    -0.221471741633E+04   -0.56012E-04   -0.12979E-05  3472   0.295E-03    0.402E-02
DAV:  29    -0.221471746916E+04   -0.52830E-04   -0.23349E-06  3264   0.227E-03    0.260E-02
DAV:  30    -0.221471748711E+04   -0.17955E-04   -0.11193E-06  3296   0.137E-03    0.334E-02
DAV:  31    -0.221471749224E+04   -0.51255E-05   -0.10198E-06  3320   0.114E-03    0.222E-02
DAV:  32    -0.221471749626E+04   -0.40194E-05   -0.17755E-06  3256   0.979E-04
  36 F= -.22841075E+04 E0= -.22840307E+04  d E =-.193276E+02
 curvature:  -1.16 expect dE=-0.444E+02 dE for cont linesearch -0.195E+01
 ZBRENT: increasing intervall
 opt :   0.8646  next Energy= -2284.112795 (dE=-0.193E+02)
 bond charge predicted
       N       E                     dE             d eps       ncg     rms          rms(c)
DAV:   1    -0.219597414395E+04    0.18743E+02   -0.73971E+03  4984   0.107E+02    0.585E+01
DAV:   2    -0.226683913442E+04   -0.70865E+02   -0.34689E+02  6616   0.266E+01    0.625E+01
DAV:   3    -0.225882766157E+04    0.80115E+01   -0.11321E+02  6704   0.197E+01    0.507E+01
DAV:   4    -0.222484765114E+04    0.33980E+02   -0.73650E+01  6952   0.145E+01    0.344E+01
DAV:   5    -0.223185170708E+04   -0.70041E+01   -0.26929E+01  7088   0.105E+01    0.353E+01
DAV:   6    -0.224104489024E+04   -0.91932E+01   -0.15786E+01  7104   0.836E+00    0.532E+01
DAV:   7    -0.221807836209E+04    0.22967E+02   -0.38201E+00  6936   0.473E+00    0.169E+01
DAV:   8    -0.222326891964E+04   -0.51906E+01   -0.11751E+01  6904   0.385E+00    0.462E+01
DAV:   9    -0.222319601559E+04    0.72904E-01   -0.12855E+01  6696   0.259E+00    0.301E+01
DAV:  10    -0.221858428047E+04    0.46117E+01   -0.24721E+00  7512   0.333E+00    0.186E+01
DAV:  11    -0.221694675510E+04    0.16375E+01   -0.11749E+00  6904   0.225E+00    0.919E+00
DAV:  12    -0.221768800055E+04   -0.74125E+00   -0.28233E+00  6856   0.124E+00    0.276E+01
DAV:  13    -0.221692739695E+04    0.76060E+00   -0.37579E+00  6498   0.923E-01    0.111E+01
DAV:  14    -0.221706924704E+04   -0.14185E+00   -0.10344E+00  6584   0.701E-01    0.146E+01
DAV:  15    -0.221672991760E+04    0.33933E+00   -0.10738E+00  5922   0.360E-01    0.469E+00
DAV:  16    -0.221701105012E+04   -0.28113E+00   -0.24740E-01  6872   0.317E-01    0.103E+01
DAV:  17    -0.221682635123E+04    0.18470E+00   -0.81919E-02  6506   0.281E-01    0.617E+00
DAV:  18    -0.221676539176E+04    0.60959E-01   -0.31210E-02  6576   0.184E-01    0.351E+00
DAV:  19    -0.221678040183E+04   -0.15010E-01   -0.10399E-02  6544   0.151E-01    0.314E+00
DAV:  20    -0.221679475890E+04   -0.14357E-01   -0.54694E-03  6672   0.101E-01    0.259E+00
DAV:  21    -0.221681255756E+04   -0.17799E-01   -0.30717E-03  5608   0.618E-02    0.346E+00
DAV:  22    -0.221680150106E+04    0.11056E-01   -0.44526E-03  6680   0.519E-02    0.225E+00
DAV:  23    -0.221680034429E+04    0.11568E-02   -0.11848E-02  6256   0.489E-02    0.834E-01
DAV:  24    -0.221679991846E+04    0.42583E-03   -0.38369E-03  5272   0.388E-02    0.170E+00
DAV:  25    -0.221679236496E+04    0.75535E-02   -0.27100E-04  5392   0.188E-02    0.156E+00
DAV:  26    -0.221679227632E+04    0.88635E-04   -0.95360E-03  6584   0.328E-02    0.409E-01
DAV:  27    -0.221680558262E+04   -0.13306E-01   -0.60890E-04  5088   0.279E-02    0.302E-01
DAV:  28    -0.221680576606E+04   -0.18344E-03   -0.21277E-04  5608   0.157E-02    0.107E-01
DAV:  29    -0.221680600207E+04   -0.23601E-03   -0.22932E-04  4424   0.914E-03    0.236E-01
DAV:  30    -0.221680601560E+04   -0.13526E-04   -0.45027E-05  4264   0.844E-03    0.152E-01
DAV:  31    -0.221680606161E+04   -0.46010E-04   -0.92698E-05  3864   0.647E-03    0.574E-02
DAV:  32    -0.221680626542E+04   -0.20382E-03   -0.54790E-05  3536   0.447E-03    0.175E-01
DAV:  33    -0.221680623764E+04    0.27780E-04   -0.37527E-05  3648   0.411E-03    0.611E-02
DAV:  34    -0.221680628723E+04   -0.49587E-04   -0.27198E-05  3736   0.367E-03    0.547E-02
DAV:  35    -0.221680630230E+04   -0.15067E-04   -0.43943E-06  3528   0.259E-03    0.254E-02
DAV:  36    -0.221680631196E+04   -0.96604E-05   -0.31499E-06  3328   0.156E-03    0.172E-02
DAV:  37    -0.221680632135E+04   -0.93905E-05   -0.45669E-06  3504   0.135E-03    0.320E-02
DAV:  38    -0.221680632488E+04   -0.35365E-05   -0.15540E-06  3280   0.996E-04
  37 F= -.22861064E+04 E0= -.22860250E+04  d E =-.213265E+02
 curvature:  -0.00 expect dE=-0.202E+00 dE for cont linesearch -0.153E-02
 ZBRENT: bracketing found
 ZBRENT: interpolating
 opt :   0.7064  next Energy= -2287.139561 (dE=-0.224E+02)
 bond charge predicted
       N       E                     dE             d eps       ncg     rms          rms(c)
DAV:   1    -0.221646747628E+04    0.33885E+00   -0.91347E+02  4952   0.362E+01    0.184E+01
DAV:   2    -0.224172331097E+04   -0.25256E+02   -0.56141E+01  6912   0.101E+01    0.461E+01
DAV:   3    -0.221942264528E+04    0.22301E+02   -0.72510E+00  6152   0.608E+00    0.323E+01
DAV:   4    -0.222416430511E+04   -0.47417E+01   -0.14688E+01  6808   0.283E+00    0.236E+01
DAV:   5    -0.222124580095E+04    0.29185E+01   -0.39105E+00  7328   0.297E+00    0.220E+01
DAV:   6    -0.221935989026E+04    0.18859E+01   -0.25290E+00  7984   0.284E+00    0.155E+01
DAV:   7    -0.221827877044E+04    0.10811E+01   -0.18841E+00  7136   0.236E+00    0.116E+01
DAV:   8    -0.221786496446E+04    0.41381E+00   -0.91458E-01  6496   0.111E+00    0.804E+00
DAV:   9    -0.221785966890E+04    0.52956E-02   -0.30079E-01  6648   0.508E-01    0.390E+00
DAV:  10    -0.221810115866E+04   -0.24149E+00   -0.66707E-01  6920   0.741E-01    0.921E+00
DAV:  11    -0.221823941891E+04   -0.13826E+00   -0.13802E+00  6992   0.839E-01    0.177E+01
DAV:  12    -0.221782659610E+04    0.41282E+00   -0.19708E-01  5536   0.335E-01    0.942E+00
DAV:  13    -0.221786298097E+04   -0.36385E-01   -0.10938E-01  6552   0.198E-01    0.303E+00
DAV:  14    -0.221794326206E+04   -0.80281E-01   -0.74677E-02  5944   0.134E-01    0.208E+00
DAV:  15    -0.221795301030E+04   -0.97482E-02   -0.11837E-02  5824   0.105E-01    0.875E-01
DAV:  16    -0.221795684764E+04   -0.38373E-02   -0.25602E-03  6528   0.760E-02    0.469E-01
DAV:  17    -0.221795931415E+04   -0.24665E-02   -0.13336E-03  6728   0.712E-02    0.433E-01
DAV:  18    -0.221795933085E+04   -0.16699E-04   -0.88725E-04  6616   0.459E-02    0.248E-01
DAV:  19    -0.221795933731E+04   -0.64576E-05   -0.34532E-04  6072   0.295E-02    0.144E-01
DAV:  20    -0.221795956009E+04   -0.22278E-03   -0.57823E-05  5608   0.165E-02    0.524E-02
DAV:  21    -0.221795966708E+04   -0.10700E-03   -0.66553E-05  4184   0.102E-02    0.144E-01
DAV:  22    -0.221795966152E+04    0.55635E-05   -0.11470E-05  3440   0.605E-03    0.900E-02
DAV:  23    -0.221795966822E+04   -0.67013E-05   -0.65590E-06  3504   0.635E-03    0.527E-02
DAV:  24    -0.221795967848E+04   -0.10254E-04   -0.74705E-06  3480   0.475E-03    0.130E-02
DAV:  25    -0.221795968830E+04   -0.98287E-05   -0.26089E-06  3296   0.328E-03    0.166E-02
DAV:  26    -0.221795969128E+04   -0.29749E-05   -0.16495E-06  3256   0.205E-03
  38 F= -.22873111E+04 E0= -.22872350E+04  d E =-.225312E+02
 curvature:  -2.10 expect dE=-0.106E+03 dE for cont linesearch -0.133E-01
 trial: gam= 0.34836 g(F)=  0.507E+02 g(S)=  0.000E+00 ort =-0.148E+01 (trialstep = 0.156E+00)
 search vector abs. value=  0.917E+02
 bond charge predicted
       N       E                     dE             d eps       ncg     rms          rms(c)
DAV:   1    -0.222452460622E+04   -0.65649E+01   -0.28663E+02  4952   0.203E+01    0.157E+01
DAV:   2    -0.222648769533E+04   -0.19631E+01   -0.11137E+01  6728   0.377E+00    0.191E+01
DAV:   3    -0.223410439097E+04   -0.76167E+01   -0.12821E+01  7064   0.467E+00    0.483E+01
DAV:   4    -0.223367259994E+04    0.43179E+00   -0.38194E+00  6712   0.202E+00    0.346E+01
DAV:   5    -0.222583900672E+04    0.78336E+01   -0.32811E+00  7936   0.353E+00    0.150E+01
DAV:   6    -0.222568913334E+04    0.14987E+00   -0.11794E+00  7080   0.237E+00    0.130E+01
DAV:   7    -0.222517913081E+04    0.51000E+00   -0.10739E+00  7240   0.181E+00    0.713E+00
DAV:   8    -0.222507510673E+04    0.10402E+00   -0.44405E-01  6928   0.114E+00    0.440E+00
DAV:   9    -0.222506053321E+04    0.14574E-01   -0.19870E-01  6392   0.651E-01    0.260E+00
DAV:  10    -0.222506897037E+04   -0.84372E-02   -0.82362E-02  6408   0.250E-01    0.186E+00
DAV:  11    -0.222506600675E+04    0.29636E-02   -0.28519E-02  6448   0.144E-01    0.115E+00
DAV:  12    -0.222508263569E+04   -0.16629E-01   -0.14567E-02  6704   0.183E-01    0.140E+00
DAV:  13    -0.222507865711E+04    0.39786E-02   -0.11138E-02  6568   0.137E-01    0.117E+00
DAV:  14    -0.222508098135E+04   -0.23242E-02   -0.77271E-03  7048   0.132E-01    0.686E-01
DAV:  15    -0.222508053007E+04    0.45129E-03   -0.14795E-03  6272   0.877E-02    0.351E-01
DAV:  16    -0.222508102126E+04   -0.49120E-03   -0.59465E-04  6352   0.387E-02    0.150E-01
DAV:  17    -0.222508116850E+04   -0.14723E-03   -0.14602E-04  6360   0.269E-02    0.164E-01
DAV:  18    -0.222508119155E+04   -0.23050E-04   -0.77193E-05  6128   0.161E-02    0.620E-02
DAV:  19    -0.222508122489E+04   -0.33345E-04   -0.31696E-05  5248   0.133E-02    0.333E-02
DAV:  20    -0.222508124094E+04   -0.16054E-04   -0.81780E-06  3688   0.782E-03    0.352E-02
DAV:  21    -0.222508124287E+04   -0.19218E-05   -0.53074E-06  3320   0.473E-03
  39 F= -.22944152E+04 E0= -.22943440E+04  d E =-.710412E+01
 ZBRENT: can't locate minimum, use default step
 trial-energy change:   -7.104122  1 .order   -7.111727   -7.850945   -6.372509
 step:   0.6252(harm=  0.8301)  dis= 0.13922  next Energy= -2308.156574 (dE=-0.208E+02)
 bond charge predicted
       N       E                     dE             d eps       ncg     rms          rms(c)
DAV:   1    -0.223141550414E+04   -0.63343E+01   -0.25484E+03  4976   0.613E+01    0.467E+01
DAV:   2    -0.224739184980E+04   -0.15976E+02   -0.10813E+02  6752   0.125E+01    0.399E+01
DAV:   3    -0.228213875315E+04   -0.34747E+02   -0.44929E+01  7184   0.142E+01    0.653E+01
DAV:   4    -0.224931562713E+04    0.32823E+02   -0.91760E+00  6832   0.642E+00    0.318E+01
DAV:   5    -0.224727629063E+04    0.20393E+01   -0.23618E+01  7728   0.719E+00    0.452E+01
DAV:   6    -0.224714710867E+04    0.12918E+00   -0.23775E+01  7712   0.766E+00    0.260E+01
DAV:   7    -0.224502537892E+04    0.21217E+01   -0.28048E+00  7200   0.427E+00    0.222E+01
DAV:   8    -0.224260510833E+04    0.24203E+01   -0.98128E-01  6616   0.227E+00    0.188E+01
DAV:   9    -0.224011945932E+04    0.24856E+01   -0.69528E-01  7224   0.144E+00    0.150E+01
DAV:  10    -0.223888389100E+04    0.12356E+01   -0.26019E-01  6706   0.897E-01    0.102E+01
DAV:  11    -0.223873940046E+04    0.14449E+00   -0.53765E-02  5256   0.237E-01    0.100E+01
DAV:  12    -0.223869279700E+04    0.46603E-01   -0.60637E-03  7122   0.139E-01    0.998E+00
DAV:  13    -0.223838094995E+04    0.31185E+00   -0.26631E-01  7272   0.736E-01    0.815E+00
DAV:  14    -0.223823817180E+04    0.14278E+00   -0.84742E-02  6176   0.407E-01    0.777E+00
DAV:  15    -0.223827684128E+04   -0.38669E-01   -0.58355E-01  7224   0.624E-01    0.115E+01
DAV:  16    -0.223827463203E+04    0.22093E-02   -0.72591E-02  6424   0.322E-01    0.882E+00
DAV:  17    -0.223829679582E+04   -0.22164E-01   -0.42368E-02  7184   0.281E-01    0.760E+00
DAV:  18    -0.223836860237E+04   -0.71807E-01   -0.30654E-02  6360   0.144E-01    0.996E+00
DAV:  19    -0.223830449144E+04    0.64111E-01   -0.99998E-02  6304   0.179E-01    0.639E+00
DAV:  20    -0.223825580548E+04    0.48686E-01   -0.27616E-02  6472   0.264E-01    0.499E+00
DAV:  21    -0.223823490104E+04    0.20904E-01   -0.39107E-02  6312   0.310E-01    0.388E+00
DAV:  22    -0.223823487138E+04    0.29660E-04   -0.21917E-02  6296   0.197E-01    0.282E+00
DAV:  23    -0.223828609139E+04   -0.51220E-01   -0.13043E-02  6272   0.110E-01    0.416E+00
DAV:  24    -0.223826876389E+04    0.17327E-01   -0.68508E-03  5152   0.735E-02    0.278E+00
DAV:  25    -0.223827114002E+04   -0.23761E-02   -0.95289E-03  6640   0.127E-01    0.145E+00
DAV:  26    -0.223827162775E+04   -0.48773E-03   -0.86230E-03  6944   0.923E-02    0.111E+00
DAV:  27    -0.223826480211E+04    0.68256E-02   -0.25400E-03  5480   0.373E-02    0.626E-01
DAV:  28    -0.223827230375E+04   -0.75016E-02   -0.32468E-03  5880   0.303E-02    0.113E+00
DAV:  29    -0.223827216049E+04    0.14326E-03   -0.26774E-03  5696   0.329E-02    0.423E-01
DAV:  30    -0.223827274681E+04   -0.58631E-03   -0.53051E-04  5624   0.196E-02    0.368E-01
DAV:  31    -0.223827297226E+04   -0.22545E-03   -0.18830E-04  6344   0.167E-02    0.218E-01
DAV:  32    -0.223827300131E+04   -0.29052E-04   -0.73284E-05  5928   0.120E-02    0.181E-01
DAV:  33    -0.223827300010E+04    0.12144E-05   -0.52511E-05  5528   0.101E-02    0.949E-02
DAV:  34    -0.223827302435E+04   -0.24256E-04   -0.42771E-05  4272   0.661E-03    0.118E-01
DAV:  35    -0.223827301496E+04    0.93894E-05   -0.36475E-05  4472   0.617E-03    0.216E-02
DAV:  36    -0.223827303666E+04   -0.21694E-04   -0.53536E-06  3496   0.320E-03    0.256E-02
DAV:  37    -0.223827303833E+04   -0.16768E-05   -0.21810E-06  3240   0.187E-03
  40 F= -.23075286E+04 E0= -.23074531E+04  d E =-.202175E+02
 curvature:  -0.69 expect dE=-0.110E+02 dE for cont linesearch -0.197E+01
 ZBRENT: increasing intervall
 opt :   1.5631  next Energy= -2299.713069 (dE=-0.124E+02)
