NiAl                                    
            1
    14.415084    0.000000    0.000000
    -7.207542   12.483828    0.000000
     0.000000    0.000000   31.116254
   Al   O 
   108   163
Direct configuration=     1
   0.00000000  0.00000000  0.06234511
   0.11111100  0.22222233  0.00790906
   0.11111100  0.22222233  0.13259929
   0.22222233  0.11111100  0.07816281
   0.22222233  0.11111100  0.20285304
   0.00000000  0.00000000  0.14841698
   0.00000000  0.00000000  0.27310721
   0.11111100  0.22222233  0.21867116
   0.11111100  0.22222233  0.34336139
   0.22222233  0.11111100  0.28892491
   0.22222233  0.11111100  0.41361514
   0.00000000  0.00000000  0.35917908
   0.00000000  0.33333333  0.06234511
   0.11111100  0.55555567  0.00790906
   0.11111100  0.55555567  0.13259929
   0.22222233  0.44444433  0.07816281
   0.22222233  0.44444433  0.20285304
   0.00000000  0.33333333  0.14841698
   0.00000000  0.33333333  0.27310721
   0.11111100  0.55555567  0.21867116
   0.11111100  0.55555567  0.34336139
   0.22222233  0.44444433  0.28892491
   0.22222233  0.44444433  0.41361514
   0.00000000  0.33333333  0.35917908
   0.00000000  0.66666667  0.06234511
   0.11111100  0.88888900  0.00790906
   0.11111100  0.88888900  0.13259929
   0.22222233  0.77777767  0.07816281
   0.22222233  0.77777767  0.20285304
   0.00000000  0.66666667  0.14841698
   0.00000000  0.66666667  0.27310721
   0.11111100  0.88888900  0.21867116
   0.11111100  0.88888900  0.34336139
   0.22222233  0.77777767  0.28892491
   0.22222233  0.77777767  0.41361514
   0.00000000  0.66666667  0.35917908
   0.33333333  0.00000000  0.06234511
   0.44444433  0.22222233  0.00790906
   0.44444433  0.22222233  0.13259929
   0.55555567  0.11111100  0.07816281
   0.55555567  0.11111100  0.20285304
   0.33333333  0.00000000  0.14841698
   0.33333333  0.00000000  0.27310721
   0.44444433  0.22222233  0.21867116
   0.44444433  0.22222233  0.34336139
   0.55555567  0.11111100  0.28892491
   0.55555567  0.11111100  0.41361514
   0.33333333  0.00000000  0.35917908
   0.33333333  0.33333333  0.06234511
   0.44444433  0.55555567  0.00790906
   0.44444433  0.55555567  0.13259929
   0.55555567  0.44444433  0.07816281
   0.55555567  0.44444433  0.20285304
   0.33333333  0.33333333  0.14841698
   0.33333333  0.33333333  0.27310721
   0.44444433  0.55555567  0.21867116
   0.44444433  0.55555567  0.34336139
   0.55555567  0.44444433  0.28892491
   0.55555567  0.44444433  0.41361514
   0.33333333  0.33333333  0.35917908
   0.33333333  0.66666667  0.06234511
   0.44444433  0.88888900  0.00790906
   0.44444433  0.88888900  0.13259929
   0.55555567  0.77777767  0.07816281
   0.55555567  0.77777767  0.20285304
   0.33333333  0.66666667  0.14841698
   0.33333333  0.66666667  0.27310721
   0.44444433  0.88888900  0.21867116
   0.44444433  0.88888900  0.34336139
   0.55555567  0.77777767  0.28892491
   0.55555567  0.77777767  0.41361514
   0.33333333  0.66666667  0.35917908
   0.66666667  0.00000000  0.06234511
   0.77777767  0.22222233  0.00790906
   0.77777767  0.22222233  0.13259929
   0.88888900  0.11111100  0.07816281
   0.88888900  0.11111100  0.20285304
   0.66666667  0.00000000  0.14841698
   0.66666667  0.00000000  0.27310721
   0.77777767  0.22222233  0.21867116
   0.77777767  0.22222233  0.34336139
   0.88888900  0.11111100  0.28892491
   0.88888900  0.11111100  0.41361514
   0.66666667  0.00000000  0.35917908
   0.66666667  0.33333333  0.06234511
   0.77777767  0.55555567  0.00790906
   0.77777767  0.55555567  0.13259929
   0.88888900  0.44444433  0.07816281
   0.88888900  0.44444433  0.20285304
   0.66666667  0.33333333  0.14841698
   0.66666667  0.33333333  0.27310721
   0.77777767  0.55555567  0.21867116
   0.77777767  0.55555567  0.34336139
   0.88888900  0.44444433  0.28892491
   0.88888900  0.44444433  0.41361514
   0.66666667  0.33333333  0.35917908
   0.66666667  0.66666667  0.06234511
   0.77777767  0.88888900  0.00790906
   0.77777767  0.88888900  0.13259929
   0.88888900  0.77777767  0.07816281
   0.88888900  0.77777767  0.20285304
   0.66666667  0.66666667  0.14841698
   0.66666667  0.66666667  0.27310721
   0.77777767  0.88888900  0.21867116
   0.77777767  0.88888900  0.34336139
   0.88888900  0.77777767  0.28892491
   0.88888900  0.77777767  0.41361514
   0.66666667  0.66666667  0.35917908
   0.10204867  0.00000000  0.10538105
   0.22222233  0.00906233  0.03512688
   0.00000000  0.10204867  0.10538105
   0.23128467  0.23128467  0.10538105
   0.32427100  0.21315967  0.03512688
   0.12017367  0.11111100  0.03512688
   0.32427100  0.11111100  0.24588897
   0.11111100  0.12017367  0.17563522
   0.22222233  0.21315967  0.24588897
   0.12017367  0.00906233  0.24588897
   0.21315967  0.32427100  0.17563522
   0.00906233  0.22222233  0.17563522
   0.21315967  0.22222233  0.38639732
   0.00000000  0.23128467  0.31614315
   0.11111100  0.32427100  0.38639732
   0.00906233  0.12017367  0.38639732
   0.10204867  0.10204867  0.31614315
   0.23128467  0.00000000  0.31614315
   0.10204867  0.33333333  0.10538105
   0.22222233  0.34239567  0.03512688
   0.00000000  0.43538200  0.10538105
   0.23128467  0.56461800  0.10538105
   0.32427100  0.54649300  0.03512688
   0.12017367  0.44444433  0.03512688
   0.32427100  0.44444433  0.24588897
   0.11111100  0.45350700  0.17563522
   0.22222233  0.54649300  0.24588897
   0.12017367  0.34239567  0.24588897
   0.21315967  0.65760433  0.17563522
   0.00906233  0.55555567  0.17563522
   0.21315967  0.55555567  0.38639732
   0.00000000  0.56461800  0.31614315
   0.11111100  0.65760433  0.38639732
   0.00906233  0.45350700  0.38639732
   0.10204867  0.43538200  0.31614315
   0.23128467  0.33333333  0.31614315
   0.10204867  0.66666667  0.10538105
   0.22222233  0.67572900  0.03512688
   0.00000000  0.76871533  0.10538105
   0.23128467  0.89795133  0.10538105
   0.32427100  0.87982633  0.03512688
   0.12017367  0.77777767  0.03512688
   0.32427100  0.77777767  0.24588897
   0.11111100  0.78684033  0.17563522
   0.22222233  0.87982633  0.24588897
   0.12017367  0.67572900  0.24588897
   0.21315967  0.99093767  0.17563522
   0.00906233  0.88888900  0.17563522
   0.21315967  0.88888900  0.38639732
   0.00000000  0.89795133  0.31614315
   0.11111100  0.99093767  0.38639732
   0.00906233  0.78684033  0.38639732
   0.10204867  0.76871533  0.31614315
   0.23128467  0.66666667  0.31614315
   0.43538200  0.00000000  0.10538105
   0.55555567  0.00906233  0.03512688
   0.33333333  0.10204867  0.10538105
   0.56461800  0.23128467  0.10538105
   0.65760433  0.21315967  0.03512688
   0.45350700  0.11111100  0.03512688
   0.65760433  0.11111100  0.24588897
   0.44444433  0.12017367  0.17563522
   0.55555567  0.21315967  0.24588897
   0.45350700  0.00906233  0.24588897
   0.54649300  0.32427100  0.17563522
   0.34239567  0.22222233  0.17563522
   0.54649300  0.22222233  0.38639732
   0.33333333  0.23128467  0.31614315
   0.44444433  0.32427100  0.38639732
   0.34239567  0.12017367  0.38639732
   0.43538200  0.10204867  0.31614315
   0.56461800  0.00000000  0.31614315
   0.43538200  0.33333333  0.10538105
   0.55555567  0.34239567  0.03512688
   0.33333333  0.43538200  0.10538105
   0.56461800  0.56461800  0.10538105
   0.65760433  0.54649300  0.03512688
   0.45350700  0.44444433  0.03512688
   0.65760433  0.44444433  0.24588897
   0.44444433  0.45350700  0.17563522
   0.55555567  0.54649300  0.24588897
   0.45350700  0.34239567  0.24588897
   0.54649300  0.65760433  0.17563522
   0.34239567  0.55555567  0.17563522
   0.54649300  0.55555567  0.38639732
   0.33333333  0.56461800  0.31614315
   0.44444433  0.65760433  0.38639732
   0.34239567  0.45350700  0.38639732
   0.43538200  0.43538200  0.31614315
   0.56461800  0.33333333  0.31614315
   0.43538200  0.66666667  0.10538105
   0.55555567  0.67572900  0.03512688
   0.33333333  0.76871533  0.10538105
   0.56461800  0.89795133  0.10538105
   0.65760433  0.87982633  0.03512688
   0.45350700  0.77777767  0.03512688
   0.65760433  0.77777767  0.24588897
   0.44444433  0.78684033  0.17563522
   0.55555567  0.87982633  0.24588897
   0.45350700  0.67572900  0.24588897
   0.54649300  0.99093767  0.17563522
   0.34239567  0.88888900  0.17563522
   0.54649300  0.88888900  0.38639732
   0.33333333  0.89795133  0.31614315
   0.44444433  0.99093767  0.38639732
   0.34239567  0.78684033  0.38639732
   0.43538200  0.76871533  0.31614315
   0.56461800  0.66666667  0.31614315
   0.76871533  0.00000000  0.10538105
   0.88888900  0.00906233  0.03512688
   0.66666667  0.10204867  0.10538105
   0.89795133  0.23128467  0.10538105
   0.99093767  0.21315967  0.03512688
   0.78684033  0.11111100  0.03512688
   0.99093767  0.11111100  0.24588897
   0.77777767  0.12017367  0.17563522
   0.88888900  0.21315967  0.24588897
   0.78684033  0.00906233  0.24588897
   0.87982633  0.32427100  0.17563522
   0.67572900  0.22222233  0.17563522
   0.87982633  0.22222233  0.38639732
   0.66666667  0.23128467  0.31614315
   0.77777767  0.32427100  0.38639732
   0.67572900  0.12017367  0.38639732
   0.76871533  0.10204867  0.31614315
   0.89795133  0.00000000  0.31614315
   0.76871533  0.33333333  0.10538105
   0.88888900  0.34239567  0.03512688
   0.66666667  0.43538200  0.10538105
   0.89795133  0.56461800  0.10538105
   0.99093767  0.54649300  0.03512688
   0.78684033  0.44444433  0.03512688
   0.99093767  0.44444433  0.24588897
   0.77777767  0.45350700  0.17563522
   0.88888900  0.54649300  0.24588897
   0.78684033  0.34239567  0.24588897
   0.87982633  0.65760433  0.17563522
   0.67572900  0.55555567  0.17563522
   0.87982633  0.55555567  0.38639732
   0.66666667  0.56461800  0.31614315
   0.77777767  0.65760433  0.38639732
   0.67572900  0.45350700  0.38639732
   0.76871533  0.43538200  0.31614315
   0.89795133  0.33333333  0.31614315
   0.76871533  0.66666667  0.10538105
   0.88888900  0.67572900  0.03512688
   0.66666667  0.76871533  0.10538105
   0.89795133  0.89795133  0.10538105
   0.99093767  0.87982633  0.03512688
   0.78684033  0.77777767  0.03512688
   0.99093767  0.77777767  0.24588897
   0.77777767  0.78684033  0.17563522
   0.88888900  0.87982633  0.24588897
   0.78684033  0.67572900  0.24588897
   0.87982633  0.99093767  0.17563522
   0.67572900  0.88888900  0.17563522
   0.87982633  0.88888900  0.38639732
   0.66666667  0.89795133  0.31614315
   0.77777767  0.99093767  0.38639732
   0.67572900  0.78684033  0.38639732
   0.76871533  0.76871533  0.31614315
   0.89795133  0.66666667  0.31614315
   0.46187937  0.46187937  0.44575268
Direct configuration=     2
   0.00000178  0.00000143  0.06187699
   0.11111202  0.22222434  0.01209089
   0.11111408  0.22222375  0.13252788
   0.22222698  0.11111462  0.07700319
   0.22224071  0.11112996  0.20286691
   0.00000658  0.00000679  0.14841028
   0.00002663  0.00002096  0.27314473
   0.11113281  0.22221642  0.21870325
   0.11117561  0.22221340  0.34454188
   0.22234835  0.11126430  0.28904739
   0.22235896  0.11138147  0.40951799
   0.00001936 -0.00000814  0.35964588
   0.00000002  0.33333383  0.06187706
   0.11110941  0.55555632  0.01209240
   0.11111225  0.55555676  0.13252852
   0.22222384  0.44444207  0.07700297
   0.22223112  0.44443899  0.20285964
  -0.00000300  0.33333002  0.14841272
  -0.00000489  0.33333834  0.27314535
   0.11110673  0.55554980  0.21870178
   0.11110594  0.55552284  0.34452652
   0.22224106  0.44446220  0.28902232
   0.22250375  0.44445639  0.40965794
   0.00000966  0.33335970  0.35964543
   0.00000031  0.66666963  0.06187554
   0.11111295  0.88888937  0.01209099
   0.11111665  0.88889367  0.13252609
   0.22221942  0.77777627  0.07700239
   0.22222062  0.77777961  0.20285585
   0.00000021  0.66666533  0.14841105
  -0.00001842  0.66664466  0.27314014
   0.11111432  0.88890137  0.21869963
   0.11110033  0.88890772  0.34452993
   0.22222692  0.77777565  0.28902023
   0.22221603  0.77776806  0.40948675
  -0.00004885  0.66662982  0.35965412
   0.33333516  0.00000195  0.06187724
   0.44443930  0.22221925  0.01209228
   0.44444001  0.22222013  0.13253139
   0.55555397  0.11110926  0.07700237
   0.55555720  0.11113178  0.20286295
   0.33333430  0.00000893  0.14841390
   0.33335846  0.00004827  0.27314410
   0.44444441  0.22223624  0.21871853
   0.44441969  0.22278520  0.34463646
   0.55555500  0.11115510  0.28903469
   0.55557472  0.11122695  0.40949003
   0.33340166  0.00003821  0.35963381
   0.33333047  0.33332963  0.06187673
   0.44444289  0.55555201  0.01209213
   0.44443796  0.55554920  0.13252907
   0.55555165  0.44444287  0.07700235
   0.55553629  0.44441222  0.20286372
   0.33333324  0.33332805  0.14841544
   0.33338203  0.33327680  0.27317287
   0.44442805  0.55553267  0.21870287
   0.44444130  0.55554230  0.34450557
   0.55540602  0.44421083  0.28902961
   0.55351961  0.44390969  0.41137740
   0.33381647  0.33318163  0.35979766
   0.33333362  0.66666630  0.06187744
   0.44444695  0.88889081  0.01209231
   0.44444480  0.88888878  0.13252799
   0.55555508  0.77777931  0.07700185
   0.55555734  0.77777948  0.20285497
   0.33333217  0.66666353  0.14841022
   0.33332369  0.66664284  0.27314612
   0.44444622  0.88890029  0.21870065
   0.44446236  0.88892785  0.34452564
   0.55556611  0.77777255  0.28902759
   0.55559542  0.77764474  0.40954861
   0.33327264  0.66659559  0.35963562
   0.66667009  0.00000098  0.06187556
   0.77778076  0.22222059  0.01209239
   0.77777876  0.22222382  0.13252903
   0.88888769  0.11111367  0.07700226
   0.88889322  0.11111867  0.20285777
   0.66666822  0.00000506  0.14841092
   0.66666799  0.00000726  0.27314325
   0.77777050  0.22223896  0.21870539
   0.77774330  0.22226344  0.34453183
   0.88889285  0.11112208  0.28902287
   0.88886669  0.11110715  0.40948710
   0.66666750  0.00002000  0.35965138
   0.66666575  0.33333267  0.06187846
   0.77777888  0.55555991  0.01209242
   0.77777539  0.55555273  0.13252738
   0.88889107  0.44444505  0.07700207
   0.88887032  0.44443177  0.20286406
   0.66666261  0.33333067  0.14841460
   0.66665645  0.33335920  0.27319166
   0.77777911  0.55552286  0.21869789
   0.77751430  0.55509932  0.34466994
   0.88878122  0.44442012  0.28904138
   0.88876242  0.44443290  0.40949142
   0.66665333  0.33374454  0.35971033
   0.66666521  0.66666450  0.06187626
   0.77777604  0.88888768  0.01209098
   0.77777739  0.88889052  0.13252417
   0.88888777  0.77777384  0.07700149
   0.88890281  0.77778746  0.20285209
   0.66666584  0.66666310  0.14841008
   0.66664058  0.66673176  0.27312268
   0.77778308  0.88889886  0.21869897
   0.77775176  0.88885511  0.34454319
   0.88890880  0.77779261  0.28903078
   0.88879562  0.77770784  0.40948972
   0.66697696  0.66723240  0.35966379
   0.10220337  0.00021846  0.10542885
   0.22133019  0.00612465  0.03428182
  -0.00022102  0.10198409  0.10542913
   0.23134169  0.23112283  0.10542726
   0.32721857  0.21520841  0.03428084
   0.11812274  0.11199951  0.03428422
   0.32424993  0.11107711  0.24584356
   0.11109552  0.12017295  0.17559772
   0.22218155  0.21314483  0.24583355
   0.12016522  0.00906231  0.24585460
   0.21315531  0.32426487  0.17559857
   0.00906983  0.22223050  0.17559869
   0.21503789  0.22122146  0.38725651
   0.00020591  0.23134079  0.31605934
   0.11204610  0.32722016  0.38729354
   0.00614434  0.11815898  0.38729130
   0.10193479  0.10216922  0.31605588
   0.23112509 -0.00025452  0.31606939
   0.10220297  0.33355279  0.10542783
   0.22133125  0.33944909  0.03428142
  -0.00021852  0.43532300  0.10543338
   0.23134494  0.56446164  0.10542846
   0.32721486  0.54854060  0.03428092
   0.11812124  0.44534288  0.03428033
   0.32424592  0.44445010  0.24584742
   0.11110520  0.45350742  0.17560006
   0.22222907  0.54649708  0.24586100
   0.12017197  0.34240564  0.24585726
   0.21315111  0.65758134  0.17560142
   0.00908332  0.55556594  0.17560061
   0.21518868  0.55465478  0.38729283
   0.00024912  0.56471341  0.31605740
   0.11202884  0.66054136  0.38729410
   0.00616500  0.45148739  0.38729043
   0.10199150  0.43553418  0.31605288
   0.23112451  0.33318008  0.31607004
   0.10220680  0.66688617  0.10542796
   0.22132738  0.67278675  0.03428064
  -0.00021797  0.76865570  0.10542933
   0.23134650  0.89779472  0.10542836
   0.32722399  0.88187989  0.03428033
   0.11811835  0.77866827  0.03428215
   0.32426201  0.77776693  0.24586305
   0.11110160  0.78684131  0.17560206
   0.22222652  0.87981291  0.24585680
   0.12017790  0.67574287  0.24585566
   0.21315389  0.99091903  0.17559618
   0.00906928  0.88888942  0.17560279
   0.21519889  0.88799670  0.38729731
   0.00020961  0.89799560  0.31605969
   0.11201077  0.99384709  0.38729407
   0.00616204  0.78481840  0.38728854
   0.10199077  0.76888325  0.31606561
   0.23113568  0.66646849  0.31606019
   0.43554146  0.00021789  0.10543293
   0.55465443  0.00611873  0.03427939
   0.33311126  0.10198163  0.10542722
   0.56468102  0.23112471  0.10542652
   0.66054523  0.21520706  0.03428183
   0.45145338  0.11200224  0.03428056
   0.65758972  0.11109135  0.24585431
   0.44443146  0.12016950  0.17559411
   0.55555667  0.21312739  0.24584125
   0.45351372  0.00905943  0.24585441
   0.54650139  0.32426752  0.17559643
   0.34240103  0.22222905  0.17559540
   0.54847126  0.22115242  0.38730241
   0.33324210  0.23114106  0.31592903
   0.44486152  0.32546073  0.38617229
   0.33942193  0.11810930  0.38733178
   0.43529803  0.10213398  0.31604775
   0.56446970 -0.00023469  0.31605818
   0.43554116  0.33355666  0.10542646
   0.55466213  0.33945478  0.03428141
   0.33311466  0.43532203  0.10542758
   0.56467901  0.56445999  0.10543363
   0.66054830  0.54854589  0.03428058
   0.45146220  0.44534161  0.03428060
   0.65761361  0.44451099  0.24585039
   0.44443499  0.45352350  0.17560776
   0.55558936  0.54650433  0.24586231
   0.45354260  0.34243622  0.24583370
   0.54649471  0.65760123  0.17560094
   0.34242325  0.55557674  0.17559969
   0.54859321  0.55564545  0.38603256
   0.33353002  0.56470595  0.31604551
   0.44544066  0.66043867  0.38726707
   0.33910386  0.45176024  0.38682540
   0.43535651  0.43555260  0.31603042
   0.56454063  0.33313336  0.31597790
   0.43553845  0.66688687  0.10542827
   0.55465674  0.67277810  0.03428016
   0.33311655  0.76865387  0.10542907
   0.56467899  0.89779404  0.10542852
   0.66055059  0.88188253  0.03428219
   0.45145938  0.77867281  0.03428117
   0.65759928  0.77777185  0.24585219
   0.44442852  0.78684853  0.17560198
   0.55556255  0.87981629  0.24585639
   0.45351398  0.67574751  0.24586229
   0.54648164  0.99091449  0.17560082
   0.34239868  0.88888963  0.17560106
   0.54849459  0.88796535  0.38729838
   0.33352961  0.89798042  0.31605963
   0.44532044  0.99382109  0.38728660
   0.33949826  0.78480047  0.38729150
   0.43531526  0.76886619  0.31606767
   0.56449526  0.66652559  0.31600209
   0.76887454  0.00021918  0.10542878
   0.88799954  0.00612226  0.03428383
   0.66644650  0.10198483  0.10542791
   0.89801606  0.23112663  0.10542793
   0.99387484  0.21520559  0.03428241
   0.78479191  0.11200835  0.03428125
   0.99090888  0.11109353  0.24585506
   0.77777032  0.12016958  0.17560051
   0.88889614  0.21314845  0.24585667
   0.78684837  0.00907438  0.24585457
   0.87983217  0.32426068  0.17559555
   0.67573882  0.22222718  0.17559842
   0.88187833  0.22131640  0.38729955
   0.66689469  0.23130115  0.31605031
   0.77874834  0.32715189  0.38728285
   0.67281176  0.11810629  0.38728977
   0.76867265  0.10219430  0.31606151
   0.89778047 -0.00021757  0.31606548
   0.76887456  0.33355579  0.10542703
   0.88799693  0.33945031  0.03428006
   0.66644790  0.43532063  0.10542777
   0.89801574  0.56446163  0.10542821
   0.99388044  0.54853433  0.03427984
   0.78479202  0.44533641  0.03428204
   0.99093159  0.44444261  0.24585538
   0.77776996  0.45351150  0.17559894
   0.88891424  0.54650751  0.24584730
   0.78686212  0.34238805  0.24583748
   0.87982539  0.65760373  0.17560303
   0.67574524  0.55557413  0.17559815
   0.88194050  0.55470497  0.38729645
   0.66666031  0.56472701  0.31611796
   0.77866431  0.66053981  0.38725641
   0.67320793  0.45159395  0.38707851
   0.76880969  0.43554122  0.31597900
   0.89781660  0.33310040  0.31605636
   0.76887287  0.66689029  0.10542867
   0.88798948  0.67278322  0.03428086
   0.66645121  0.76865373  0.10542995
   0.89801485  0.89779587  0.10543025
   0.99387696  0.88187759  0.03428443
   0.78479399  0.77866917  0.03428273
   0.99091715  0.77777062  0.24585442
   0.77776821  0.78683635  0.17560149
   0.88889548  0.87981302  0.24585637
   0.78681704  0.67571808  0.24587197
   0.87981720  0.99092134  0.17560230
   0.67573900  0.88889240  0.17560284
   0.88187651  0.88800902  0.38729163
   0.66689315  0.89802583  0.31605725
   0.77867779  0.99386273  0.38729062
   0.67277756  0.78481329  0.38729270
   0.76863629  0.76883547  0.31604980
   0.89779977  0.66648433  0.31604976
   0.46378133  0.46228787  0.44658575
Direct configuration=     3
   0.00000416  0.00000335  0.06124872
   0.11111339  0.22222703  0.01770325
   0.11111820  0.22222565  0.13243205
   0.22223322  0.11111949  0.07544689
   0.22226537  0.11115542  0.20288552
   0.00001542  0.00001590  0.14840129
   0.00006236  0.00004910  0.27319507
   0.11116209  0.22220849  0.21874631
   0.11126233  0.22220140  0.34612620
   0.22251748  0.11147004  0.28921178
   0.22254233  0.11174445  0.40401928
   0.00004535 -0.00001905  0.36027236
   0.00000004  0.33333449  0.06124890
   0.11110728  0.55555720  0.01770678
   0.11111393  0.55555823  0.13243355
   0.22222587  0.44443904  0.07544636
   0.22224290  0.44443182  0.20286850
  -0.00000703  0.33332558  0.14840700
  -0.00001144  0.33334505  0.27319653
   0.11110101  0.55554193  0.21874288
   0.11109915  0.55547879  0.34609022
   0.22226620  0.44448617  0.28915304
   0.22288144  0.44447258  0.40434706
   0.00002264  0.33339509  0.36027130
   0.00000073  0.66667361  0.06124532
   0.11111557  0.88888987  0.01770348
   0.11112424  0.88889993  0.13242786
   0.22221552  0.77777440  0.07544500
   0.22221832  0.77778221  0.20285962
   0.00000050  0.66666355  0.14840308
  -0.00004314  0.66661513  0.27318432
   0.11111877  0.88891796  0.21873784
   0.11108601  0.88893286  0.34609822
   0.22223308  0.77777295  0.28914815
   0.22220758  0.77775517  0.40394610
  -0.00011440  0.66658038  0.36029167
   0.33333760  0.00000456  0.06124931
   0.44443254  0.22221511  0.01770651
   0.44443420  0.22221718  0.13244027
   0.55555170  0.11110692  0.07544497
   0.55555927  0.11115967  0.20287625
   0.33333560  0.00002091  0.14840976
   0.33339219  0.00011306  0.27319361
   0.44444451  0.22225490  0.21878211
   0.44438662  0.22354062  0.34634772
   0.55555410  0.11121428  0.28918203
   0.55560028  0.11138257  0.40395380
   0.33349335  0.00008949  0.36024409
   0.33332662  0.33332466  0.06124813
   0.44444095  0.55554711  0.01770616
   0.44442940  0.55554052  0.13243484
   0.55554625  0.44444091  0.07544491
   0.55551030  0.44436911  0.20287804
   0.33333311  0.33332095  0.14841336
   0.33344739  0.33320093  0.27326098
   0.44440619  0.55550182  0.21874542
   0.44443722  0.55552437  0.34604115
   0.55520519  0.44389746  0.28917012
   0.55078706  0.44319215  0.40837416
   0.33446488  0.33297804  0.36062785
   0.33333400  0.66666580  0.06124977
   0.44445046  0.88889323  0.01770658
   0.44444542  0.88888849  0.13243230
   0.55555429  0.77778153  0.07544375
   0.55555959  0.77778192  0.20285756
   0.33333061  0.66665932  0.14840115
   0.33331075  0.66661085  0.27319835
   0.44444876  0.88891544  0.21874024
   0.44448655  0.88897999  0.34608815
   0.55558012  0.77776569  0.28916540
   0.55564878  0.77746634  0.40409099
   0.33319119  0.66650019  0.36024832
   0.66667469  0.00000228  0.06124539
   0.77778491  0.22221826  0.01770676
   0.77778024  0.22222583  0.13243474
   0.88888593  0.11111725  0.07544470
   0.88889889  0.11112896  0.20286412
   0.66667029  0.00001184  0.14840277
   0.66666976  0.00001701  0.27319161
   0.77776088  0.22226127  0.21875133
   0.77769719  0.22231861  0.34610267
   0.88889802  0.11113696  0.28915433
   0.88883675  0.11110197  0.40394692
   0.66666862  0.00004684  0.36028525
   0.66666453  0.33333177  0.06125218
   0.77778050  0.55556560  0.01770683
   0.77777232  0.55554878  0.13243087
   0.88889384  0.44444600  0.07544425
   0.88884524  0.44441491  0.20287885
   0.66665716  0.33332711  0.14841141
   0.66664273  0.33339391  0.27330500
   0.77778105  0.55547883  0.21873376
   0.77716085  0.55448686  0.34642613
   0.88863657  0.44438762  0.28919769
   0.88859253  0.44441755  0.40395705
   0.66663544  0.33429642  0.36042331
   0.66666326  0.66666159  0.06124703
   0.77777385  0.88888590  0.01770346
   0.77777702  0.88889256  0.13242336
   0.88888612  0.77776871  0.07544291
   0.88892135  0.77780060  0.20285081
   0.66666472  0.66665831  0.14840083
   0.66660557  0.66681912  0.27314344
   0.77779034  0.88891210  0.21873630
   0.77771700  0.88880963  0.34612928
   0.88893536  0.77781267  0.28917286
   0.88867030  0.77761413  0.40395307
   0.66739341  0.66799167  0.36031430
   0.10241100  0.00051164  0.10549300
   0.22013287  0.00218202  0.03314768
  -0.00051766  0.10189743  0.10549365
   0.23141822  0.23090562  0.10548928
   0.33117446  0.21795800  0.03314539
   0.11537022  0.11319196  0.03315330
   0.32422166  0.11103162  0.24578262
   0.11107474  0.12017200  0.17554740
   0.22212682  0.21312492  0.24575917
   0.12015389  0.00906229  0.24580847
   0.21314947  0.32425664  0.17554938
   0.00907989  0.22224146  0.17554967
   0.21755863  0.21987820  0.38840961
   0.00048227  0.23141611  0.31594687
   0.11330108  0.33117817  0.38849634
   0.00222816  0.11545511  0.38849108
   0.10178197  0.10233102  0.31593876
   0.23091092 -0.00059610  0.31597040
   0.10241006  0.33384731  0.10549061
   0.22013533  0.33549453  0.03314674
  -0.00051178  0.43524382  0.10550360
   0.23142582  0.56425179  0.10549209
   0.33116577  0.55128866  0.03314559
   0.11536672  0.44654880  0.03314420
   0.32421226  0.44445783  0.24579166
   0.11109742  0.45350798  0.17555287
   0.22223812  0.54650255  0.24582346
   0.12016970  0.34241902  0.24581469
   0.21313962  0.65755049  0.17555606
   0.00911150  0.55557972  0.17555416
   0.21791179  0.55344571  0.38849468
   0.00058345  0.56484146  0.31594232
   0.11326066  0.66448308  0.38849765
   0.00227654  0.44877690  0.38848905
   0.10191478  0.43573842  0.31593174
   0.23090958  0.33297440  0.31597191
   0.10241902  0.66718076  0.10549091
   0.22012628  0.66883802  0.03314493
  -0.00051051  0.76857567  0.10549413
   0.23142948  0.89758454  0.10549186
   0.33118714  0.88463592  0.03314419
   0.11535995  0.77986353  0.03314845
   0.32424993  0.77775253  0.24582826
   0.11108899  0.78684263  0.17555756
   0.22223213  0.87979488  0.24581361
   0.12018357  0.67576148  0.24581095
   0.21314613  0.99089402  0.17554378
   0.00907861  0.88888999  0.17555925
   0.21793570  0.88679917  0.38850516
   0.00049091  0.89805500  0.31594769
   0.11321834  0.99775177  0.38849758
   0.00226959  0.78210481  0.38848464
   0.10191307  0.76910860  0.31596154
   0.23093572  0.66620252  0.31594884
   0.43575546  0.00051031  0.10550256
   0.55344489  0.00216818  0.03314200
   0.33281321  0.10189166  0.10548918
   0.56476560  0.23091004  0.10548754
   0.66449217  0.21795483  0.03314770
   0.44869725  0.11319835  0.03314473
   0.65757010  0.11106499  0.24580779
   0.44441419  0.12016391  0.17553894
   0.55555801  0.21308406  0.24577720
   0.45352274  0.00905554  0.24580802
   0.54651265  0.32426284  0.17554437
   0.34240823  0.22223806  0.17554194
   0.55112625  0.21971652  0.38851712
   0.33311967  0.23094833  0.31564167
   0.44542142  0.32705745  0.38587027
   0.33543094  0.11533874  0.38858591
   0.43518534  0.10224847  0.31591972
   0.56427066 -0.00054967  0.31594416
   0.43575476  0.33385638  0.10548740
   0.55346292  0.33550786  0.03314672
   0.33282118  0.43524155  0.10549002
   0.56476090  0.56424792  0.10550420
   0.66449936  0.55130104  0.03314479
   0.44871791  0.44654583  0.03314483
   0.65762605  0.44460044  0.24579860
   0.44442244  0.45354564  0.17557089
   0.55563459  0.54651955  0.24582652
   0.45359037  0.34249065  0.24575952
   0.54649700  0.65759706  0.17555492
   0.34246027  0.55560502  0.17555199
   0.55141188  0.55576594  0.38554302
   0.33379399  0.56482399  0.31591447
   0.44677781  0.66424259  0.38843433
   0.33468598  0.44941594  0.38739991
   0.43532229  0.43578156  0.31587912
   0.56443679  0.33286498  0.31575613
   0.43574842  0.66718240  0.10549164
   0.55345030  0.66881775  0.03314380
   0.33282560  0.76857137  0.10549352
   0.56476084  0.89758294  0.10549223
   0.66450470  0.88464212  0.03314856
   0.44871131  0.77987417  0.03314617
   0.65759251  0.77776403  0.24580283
   0.44440730  0.78685953  0.17555736
   0.55557179  0.87980282  0.24581265
   0.45352335  0.67577236  0.24582648
   0.54646640  0.99088338  0.17555465
   0.34240273  0.88889047  0.17555522
   0.55118090  0.88672574  0.38850766
   0.33379304  0.89801945  0.31594754
   0.44649625  0.99769090  0.38848009
   0.33560970  0.78206281  0.38849157
   0.43522569  0.76906865  0.31596638
   0.56433053  0.66633625  0.31581278
   0.76908820  0.00051334  0.10549283
   0.88680581  0.00217643  0.03315240
   0.66615103  0.10189916  0.10549081
   0.89810292  0.23091452  0.10549085
   0.99781676  0.21795138  0.03314907
   0.78204275  0.11321267  0.03314635
   0.99087023  0.11107008  0.24580956
   0.77776046  0.12016409  0.17555392
   0.88890573  0.21313340  0.24581331
   0.78685916  0.00909055  0.24580840
   0.87984000  0.32424684  0.17554230
   0.67575199  0.22223369  0.17554902
   0.88463228  0.22010057  0.38851041
   0.66720071  0.23132328  0.31592571
   0.78005107  0.33101828  0.38847130
   0.66889658  0.11533170  0.38848750
   0.76861537  0.10238976  0.31595194
   0.89755117 -0.00050956  0.31596125
   0.76908826  0.33385436  0.10548873
   0.88679971  0.33549740  0.03314357
   0.66615430  0.43523826  0.10549047
   0.89810218  0.56425177  0.10549151
   0.99782990  0.55127396  0.03314304
   0.78204302  0.44653366  0.03314821