 257 257   0   0
  0.1653678E+02  0.1619800E-08  0.1619800E-08  0.1619800E-08  0.2000000E-15
   1.0000000000000000E-004
  CAR 
 NiAl                                    
     10.46312750    -15.48821509  301      6.81608146      1.00000000
    -15.488  0.0000E+00  0.0000E+00
    -15.402  0.0000E+00  0.0000E+00
    -15.315  0.0000E+00  0.0000E+00
    -15.229  0.0000E+00  0.0000E+00
    -15.142  0.0000E+00  0.0000E+00
    -15.056  0.0000E+00  0.0000E+00
    -14.969  0.0000E+00  0.0000E+00
    -14.883  0.0000E+00  0.0000E+00
    -14.796  0.0000E+00  0.0000E+00
    -14.710  0.0000E+00  0.0000E+00
    -14.623  0.0000E+00  0.0000E+00
    -14.537  0.3088E-10  0.2672E-11
    -14.450  0.1753E-04  0.1517E-05
    -14.364  0.3407E-01  0.2948E-02
    -14.277  0.4349E+00  0.4057E-01
    -14.191  0.1087E+00  0.4998E-01
    -14.104  0.2511E-03  0.5000E-01
    -14.018  0.2203E-08  0.5000E-01
    -13.931  0.6417E-16  0.5000E-01
    -13.845  0.0000E+00  0.5000E-01
    -13.758  0.0000E+00  0.5000E-01
    -13.672  0.0000E+00  0.5000E-01
    -13.585  0.0000E+00  0.5000E-01
    -13.499  0.0000E+00  0.5000E-01
    -13.412  0.0000E+00  0.5000E-01
    -13.326  0.0000E+00  0.5000E-01
    -13.239  0.0000E+00  0.5000E-01
    -13.153  0.0000E+00  0.5000E-01
    -13.066  0.0000E+00  0.5000E-01
    -12.980  0.0000E+00  0.5000E-01
    -12.893  0.0000E+00  0.5000E-01
    -12.807  0.0000E+00  0.5000E-01
    -12.720  0.0000E+00  0.5000E-01
    -12.634  0.0000E+00  0.5000E-01
    -12.547  0.0000E+00  0.5000E-01
    -12.461  0.0000E+00  0.5000E-01
    -12.374  0.0000E+00  0.5000E-01
    -12.288  0.0000E+00  0.5000E-01
    -12.201  0.0000E+00  0.5000E-01
    -12.115  0.0000E+00  0.5000E-01
    -12.028  0.0000E+00  0.5000E-01
    -11.942  0.0000E+00  0.5000E-01
    -11.855  0.0000E+00  0.5000E-01
    -11.769  0.0000E+00  0.5000E-01
    -11.682  0.0000E+00  0.5000E-01
    -11.596  0.0000E+00  0.5000E-01
    -11.509  0.0000E+00  0.5000E-01
    -11.423  0.0000E+00  0.5000E-01
    -11.336  0.0000E+00  0.5000E-01
    -11.249  0.0000E+00  0.5000E-01
    -11.163  0.0000E+00  0.5000E-01
    -11.076  0.0000E+00  0.5000E-01
    -10.990  0.0000E+00  0.5000E-01
    -10.903  0.0000E+00  0.5000E-01
    -10.817  0.0000E+00  0.5000E-01
    -10.730  0.0000E+00  0.5000E-01
    -10.644  0.0000E+00  0.5000E-01
    -10.557  0.0000E+00  0.5000E-01
    -10.471  0.0000E+00  0.5000E-01
    -10.384  0.0000E+00  0.5000E-01
    -10.298  0.0000E+00  0.5000E-01
    -10.211  0.0000E+00  0.5000E-01
    -10.125  0.0000E+00  0.5000E-01
    -10.038  0.0000E+00  0.5000E-01
     -9.952  0.0000E+00  0.5000E-01
     -9.865  0.0000E+00  0.5000E-01
     -9.779  0.0000E+00  0.5000E-01
     -9.692  0.0000E+00  0.5000E-01
     -9.606  0.0000E+00  0.5000E-01
     -9.519  0.0000E+00  0.5000E-01
     -9.433  0.0000E+00  0.5000E-01
     -9.346  0.0000E+00  0.5000E-01
     -9.260  0.0000E+00  0.5000E-01
     -9.173  0.0000E+00  0.5000E-01
     -9.087  0.0000E+00  0.5000E-01
     -9.000  0.0000E+00  0.5000E-01
     -8.914  0.0000E+00  0.5000E-01
     -8.827  0.0000E+00  0.5000E-01
     -8.741  0.0000E+00  0.5000E-01
     -8.654  0.0000E+00  0.5000E-01
     -8.568  0.0000E+00  0.5000E-01
     -8.481  0.0000E+00  0.5000E-01
     -8.395  0.0000E+00  0.5000E-01
     -8.308  0.0000E+00  0.5000E-01
     -8.222  0.0000E+00  0.5000E-01
     -8.135  0.0000E+00  0.5000E-01
     -8.049  0.0000E+00  0.5000E-01
     -7.962  0.0000E+00  0.5000E-01
     -7.876  0.0000E+00  0.5000E-01
     -7.789  0.0000E+00  0.5000E-01
     -7.703  0.0000E+00  0.5000E-01
     -7.616  0.0000E+00  0.5000E-01
     -7.530  0.0000E+00  0.5000E-01
     -7.443  0.0000E+00  0.5000E-01
     -7.357  0.0000E+00  0.5000E-01
     -7.270  0.0000E+00  0.5000E-01
     -7.184  0.0000E+00  0.5000E-01
     -7.097  0.0000E+00  0.5000E-01
     -7.011  0.0000E+00  0.5000E-01
     -6.924  0.0000E+00  0.5000E-01
     -6.838  0.0000E+00  0.5000E-01
     -6.751  0.0000E+00  0.5000E-01
     -6.665  0.0000E+00  0.5000E-01
     -6.578  0.0000E+00  0.5000E-01
     -6.492  0.0000E+00  0.5000E-01
     -6.405  0.0000E+00  0.5000E-01
     -6.319  0.0000E+00  0.5000E-01
     -6.232  0.0000E+00  0.5000E-01
     -6.146  0.0000E+00  0.5000E-01
     -6.059  0.0000E+00  0.5000E-01
     -5.973  0.0000E+00  0.5000E-01
     -5.886  0.0000E+00  0.5000E-01
     -5.800  0.0000E+00  0.5000E-01
     -5.713  0.0000E+00  0.5000E-01
     -5.627  0.0000E+00  0.5000E-01
     -5.540  0.0000E+00  0.5000E-01
     -5.454  0.0000E+00  0.5000E-01
     -5.367  0.0000E+00  0.5000E-01
     -5.281  0.0000E+00  0.5000E-01
     -5.194  0.0000E+00  0.5000E-01
     -5.108  0.0000E+00  0.5000E-01
     -5.021  0.0000E+00  0.5000E-01
     -4.935  0.0000E+00  0.5000E-01
     -4.848  0.0000E+00  0.5000E-01
     -4.762  0.0000E+00  0.5000E-01
     -4.675  0.1163E-15  0.5000E-01
     -4.589  0.1969E-08  0.5000E-01
     -4.502  0.1010E-03  0.5001E-01
     -4.416  0.2112E-01  0.5184E-01
     -4.329  0.6064E-01  0.5708E-01
     -4.243  0.2724E+00  0.8065E-01
     -4.156  0.3009E+00  0.1067E+00
     -4.070  0.6143E+00  0.1598E+00
     -3.983  0.3932E+00  0.1938E+00
     -3.897  0.2768E+00  0.2178E+00
     -3.810  0.3450E+00  0.2476E+00
     -3.724  0.6498E+00  0.3038E+00
     -3.637  0.1057E+01  0.3953E+00
     -3.551  0.1208E+01  0.4997E+00
     -3.464  0.5747E+00  0.5495E+00
     -3.378  0.9039E-01  0.5573E+00
     -3.291  0.4081E+00  0.5926E+00
     -3.205  0.5719E+00  0.6421E+00
     -3.118  0.1502E+01  0.7720E+00
     -3.032  0.9754E+00  0.8564E+00
     -2.945  0.1238E+01  0.9634E+00
     -2.859  0.1131E+01  0.1061E+01
     -2.772  0.7045E+00  0.1122E+01
     -2.686  0.4302E+00  0.1159E+01
     -2.599  0.8770E+00  0.1235E+01
     -2.513  0.1407E+01  0.1357E+01
     -2.426  0.2124E+01  0.1541E+01
     -2.340  0.6913E+00  0.1601E+01
     -2.253  0.2167E+00  0.1619E+01
     -2.167  0.6129E+00  0.1672E+01
     -2.080  0.7371E+00  0.1736E+01
     -1.994  0.2338E+01  0.1938E+01
     -1.907  0.1502E+01  0.2068E+01
     -1.821  0.1504E+01  0.2198E+01
     -1.734  0.1241E+01  0.2306E+01
     -1.647  0.1113E+01  0.2402E+01
     -1.561  0.1239E+01  0.2509E+01
     -1.474  0.2021E+01  0.2684E+01
     -1.388  0.1570E+01  0.2820E+01
     -1.301  0.1013E+01  0.2907E+01
     -1.215  0.7141E+00  0.2969E+01
     -1.128  0.6470E+00  0.3025E+01
     -1.042  0.1586E+01  0.3162E+01
     -0.955  0.7975E+00  0.3231E+01
     -0.869  0.1026E+01  0.3320E+01
     -0.782  0.2768E+01  0.3559E+01
     -0.696  0.2556E+01  0.3781E+01
     -0.609  0.1778E+01  0.3934E+01
     -0.523  0.7431E+00  0.3999E+01
     -0.436  0.5418E+00  0.4045E+01
     -0.350  0.3349E+01  0.4335E+01
     -0.263  0.1792E+01  0.4490E+01
     -0.177  0.2101E+01  0.4672E+01
     -0.090  0.7717E+00  0.4739E+01
     -0.004  0.7365E+00  0.4802E+01
      0.083  0.7504E+00  0.4867E+01
      0.169  0.1509E+01  0.4998E+01
      0.256  0.1589E+01  0.5135E+01
      0.342  0.2294E+01  0.5334E+01
      0.429  0.2058E+01  0.5512E+01
      0.515  0.2645E+01  0.5741E+01
      0.602  0.1709E+01  0.5888E+01
      0.688  0.7810E+00  0.5956E+01
      0.775  0.1072E+01  0.6049E+01
      0.861  0.3383E+01  0.6341E+01
      0.948  0.1772E+01  0.6495E+01
      1.034  0.2627E+00  0.6517E+01
      1.121  0.1427E+01  0.6641E+01
      1.207  0.1343E+01  0.6757E+01
      1.294  0.4656E+01  0.7160E+01
      1.380  0.2068E+01  0.7339E+01
      1.467  0.1953E+01  0.7508E+01
      1.553  0.1947E+01  0.7676E+01
      1.640  0.1353E+01  0.7793E+01
      1.726  0.1180E+01  0.7895E+01
      1.813  0.2989E+01  0.8154E+01
      1.899  0.2114E+01  0.8337E+01
      1.986  0.2707E+01  0.8571E+01
      2.072  0.8741E+00  0.8646E+01
      2.159  0.3685E+00  0.8678E+01
      2.245  0.2542E+00  0.8700E+01
      2.332  0.1982E+01  0.8872E+01
      2.418  0.3342E+01  0.9161E+01
      2.505  0.2401E+01  0.9369E+01
      2.591  0.2951E+01  0.9624E+01
      2.678  0.2407E+01  0.9832E+01
      2.764  0.1602E+01  0.9971E+01
      2.851  0.2386E+01  0.1018E+02
      2.937  0.4480E+01  0.1056E+02
      3.024  0.2916E+01  0.1082E+02
      3.110  0.1425E+01  0.1094E+02
      3.197  0.2242E+01  0.1113E+02
      3.283  0.7287E+00  0.1120E+02
      3.370  0.1531E+01  0.1133E+02
      3.456  0.2938E+01  0.1158E+02
      3.543  0.1556E+01  0.1172E+02
      3.629  0.2398E+01  0.1193E+02
      3.716  0.3381E+01  0.1222E+02
      3.802  0.5690E+00  0.1227E+02
      3.889  0.1007E+01  0.1235E+02
      3.975  0.6107E+01  0.1288E+02
      4.062  0.2294E+01  0.1308E+02
      4.148  0.1262E+01  0.1319E+02
      4.235  0.2725E+01  0.1343E+02
      4.321  0.1057E+01  0.1352E+02
      4.408  0.1840E+01  0.1368E+02
      4.494  0.4988E+01  0.1411E+02
      4.581  0.1833E+01  0.1427E+02
      4.667  0.1851E+01  0.1443E+02
      4.754  0.2938E+01  0.1468E+02
      4.840  0.1377E+01  0.1480E+02
      4.927  0.2223E+01  0.1499E+02
      5.013  0.3166E+01  0.1527E+02
      5.100  0.2393E+01  0.1547E+02
      5.186  0.3063E+01  0.1574E+02
      5.273  0.1472E+01  0.1587E+02
      5.359  0.1231E+01  0.1597E+02
      5.446  0.1451E+01  0.1610E+02
      5.532  0.2147E+01  0.1628E+02
      5.619  0.3344E+01  0.1657E+02
      5.705  0.3229E+01  0.1685E+02
      5.792  0.4091E+01  0.1721E+02
      5.878  0.2414E+01  0.1741E+02
      5.965  0.2212E+01  0.1761E+02
      6.051  0.2089E+01  0.1779E+02
      6.138  0.3664E+01  0.1810E+02
      6.224  0.2895E+01  0.1835E+02
      6.311  0.1798E+01  0.1851E+02
      6.397  0.2073E+01  0.1869E+02
      6.484  0.6916E+00  0.1875E+02
      6.570  0.2236E+01  0.1894E+02
      6.657  0.2051E+01  0.1912E+02
      6.743  0.8371E+00  0.1919E+02
      6.830  0.2423E+01  0.1940E+02
      6.916  0.3036E+01  0.1966E+02
      7.003  0.3047E+01  0.1993E+02
      7.089  0.4228E+01  0.2029E+02
      7.176  0.4663E+01  0.2070E+02
      7.262  0.1970E+01  0.2087E+02
      7.349  0.2536E+01  0.2109E+02
      7.435  0.1941E+01  0.2125E+02
      7.522  0.2147E+01  0.2144E+02
      7.608  0.6490E+01  0.2200E+02
      7.695  0.2629E+01  0.2223E+02
      7.781  0.3171E+01  0.2250E+02
      7.868  0.3503E+01  0.2281E+02
      7.954  0.2270E+01  0.2300E+02
      8.041  0.7266E+00  0.2307E+02
      8.128  0.1973E+01  0.2324E+02
      8.214  0.3666E+01  0.2355E+02
      8.301  0.2606E+01  0.2378E+02
      8.387  0.9329E+00  0.2386E+02
      8.474  0.1175E+01  0.2396E+02
      8.560  0.3746E+01  0.2429E+02
      8.647  0.3475E+01  0.2459E+02
      8.733  0.2001E+01  0.2476E+02
      8.820  0.2549E+01  0.2498E+02
      8.906  0.2118E+01  0.2516E+02
      8.993  0.3250E+01  0.2544E+02
      9.079  0.2489E+01  0.2566E+02
      9.166  0.1349E+01  0.2578E+02
      9.252  0.1398E+00  0.2579E+02
      9.339  0.1300E+00  0.2580E+02
      9.425  0.5616E-02  0.2580E+02
      9.512  0.2362E-05  0.2580E+02
      9.598  0.4058E-11  0.2580E+02
      9.685  0.0000E+00  0.2580E+02
      9.771  0.0000E+00  0.2580E+02
      9.858  0.0000E+00  0.2580E+02
      9.944  0.0000E+00  0.2580E+02
     10.031  0.0000E+00  0.2580E+02
     10.117  0.0000E+00  0.2580E+02
     10.204  0.0000E+00  0.2580E+02
     10.290  0.0000E+00  0.2580E+02
     10.377  0.0000E+00  0.2580E+02
     10.463  0.0000E+00  0.2580E+02
