NiAl                                    
            1
    16.198000    0.000000    0.000000
     0.000000   16.198000    0.000000
     0.000000    0.000000   16.198000
   Al   O 
   256     1
Direct configuration=     1
   0.00000000  0.00000000  0.00000000
   0.00000000  0.12500000  0.12500000
   0.12500000  0.00000000  0.12500000
   0.12500000  0.12500000  0.00000000
   0.00000000  0.00000000  0.25000000
   0.00000000  0.12500000  0.37500000
   0.12500000  0.00000000  0.37500000
   0.12500000  0.12500000  0.25000000
   0.00000000  0.00000000  0.50000000
   0.00000000  0.12500000  0.62500000
   0.12500000  0.00000000  0.62500000
   0.12500000  0.12500000  0.50000000
   0.00000000  0.00000000  0.75000000
   0.00000000  0.12500000  0.87500000
   0.12500000  0.00000000  0.87500000
   0.12500000  0.12500000  0.75000000
   0.00000000  0.25000000  0.00000000
   0.00000000  0.37500000  0.12500000
   0.12500000  0.25000000  0.12500000
   0.12500000  0.37500000  0.00000000
   0.00000000  0.25000000  0.25000000
   0.00000000  0.37500000  0.37500000
   0.12500000  0.25000000  0.37500000
   0.12500000  0.37500000  0.25000000
   0.00000000  0.25000000  0.50000000
   0.00000000  0.37500000  0.62500000
   0.12500000  0.25000000  0.62500000
   0.12500000  0.37500000  0.50000000
   0.00000000  0.25000000  0.75000000
   0.00000000  0.37500000  0.87500000
   0.12500000  0.25000000  0.87500000
   0.12500000  0.37500000  0.75000000
   0.00000000  0.50000000  0.00000000
   0.00000000  0.62500000  0.12500000
   0.12500000  0.50000000  0.12500000
   0.12500000  0.62500000  0.00000000
   0.00000000  0.50000000  0.25000000
   0.00000000  0.62500000  0.37500000
   0.12500000  0.50000000  0.37500000
   0.12500000  0.62500000  0.25000000
   0.00000000  0.50000000  0.50000000
   0.00000000  0.62500000  0.62500000
   0.12500000  0.50000000  0.62500000
   0.12500000  0.62500000  0.50000000
   0.00000000  0.50000000  0.75000000
   0.00000000  0.62500000  0.87500000
   0.12500000  0.50000000  0.87500000
   0.12500000  0.62500000  0.75000000
   0.00000000  0.75000000  0.00000000
   0.00000000  0.87500000  0.12500000
   0.12500000  0.75000000  0.12500000
   0.12500000  0.87500000  0.00000000
   0.00000000  0.75000000  0.25000000
   0.00000000  0.87500000  0.37500000
   0.12500000  0.75000000  0.37500000
   0.12500000  0.87500000  0.25000000
   0.00000000  0.75000000  0.50000000
   0.00000000  0.87500000  0.62500000
   0.12500000  0.75000000  0.62500000
   0.12500000  0.87500000  0.50000000
   0.00000000  0.75000000  0.75000000
   0.00000000  0.87500000  0.87500000
   0.12500000  0.75000000  0.87500000
   0.12500000  0.87500000  0.75000000
   0.25000000  0.00000000  0.00000000
   0.25000000  0.12500000  0.12500000
   0.37500000  0.00000000  0.12500000
   0.37500000  0.12500000  0.00000000
   0.25000000  0.00000000  0.25000000
   0.25000000  0.12500000  0.37500000
   0.37500000  0.00000000  0.37500000
   0.37500000  0.12500000  0.25000000
   0.25000000  0.00000000  0.50000000
   0.25000000  0.12500000  0.62500000
   0.37500000  0.00000000  0.62500000
   0.37500000  0.12500000  0.50000000
   0.25000000  0.00000000  0.75000000
   0.25000000  0.12500000  0.87500000
   0.37500000  0.00000000  0.87500000
   0.37500000  0.12500000  0.75000000
   0.25000000  0.25000000  0.00000000
   0.25000000  0.37500000  0.12500000
   0.37500000  0.25000000  0.12500000
   0.37500000  0.37500000  0.00000000
   0.25000000  0.25000000  0.25000000
   0.25000000  0.37500000  0.37500000
   0.37500000  0.25000000  0.37500000
   0.37500000  0.37500000  0.25000000
   0.25000000  0.25000000  0.50000000
   0.25000000  0.37500000  0.62500000
   0.37500000  0.25000000  0.62500000
   0.37500000  0.37500000  0.50000000
   0.25000000  0.25000000  0.75000000
   0.25000000  0.37500000  0.87500000
   0.37500000  0.25000000  0.87500000
   0.37500000  0.37500000  0.75000000
   0.25000000  0.50000000  0.00000000
   0.25000000  0.62500000  0.12500000
   0.37500000  0.50000000  0.12500000
   0.37500000  0.62500000  0.00000000
   0.25000000  0.50000000  0.25000000
   0.25000000  0.62500000  0.37500000
   0.37500000  0.50000000  0.37500000
   0.37500000  0.62500000  0.25000000
   0.25000000  0.50000000  0.50000000
   0.25000000  0.62500000  0.62500000
   0.37500000  0.50000000  0.62500000
   0.37500000  0.62500000  0.50000000
   0.25000000  0.50000000  0.75000000
   0.25000000  0.62500000  0.87500000
   0.37500000  0.50000000  0.87500000
   0.37500000  0.62500000  0.75000000
   0.25000000  0.75000000  0.00000000
   0.25000000  0.87500000  0.12500000
   0.37500000  0.75000000  0.12500000
   0.37500000  0.87500000  0.00000000
   0.25000000  0.75000000  0.25000000
   0.25000000  0.87500000  0.37500000
   0.37500000  0.75000000  0.37500000
   0.37500000  0.87500000  0.25000000
   0.25000000  0.75000000  0.50000000
   0.25000000  0.87500000  0.62500000
   0.37500000  0.75000000  0.62500000
   0.37500000  0.87500000  0.50000000
   0.25000000  0.75000000  0.75000000
   0.25000000  0.87500000  0.87500000
   0.37500000  0.75000000  0.87500000
   0.37500000  0.87500000  0.75000000
   0.50000000  0.00000000  0.00000000
   0.50000000  0.12500000  0.12500000
   0.62500000  0.00000000  0.12500000
   0.62500000  0.12500000  0.00000000
   0.50000000  0.00000000  0.25000000
   0.50000000  0.12500000  0.37500000
   0.62500000  0.00000000  0.37500000
   0.62500000  0.12500000  0.25000000
   0.50000000  0.00000000  0.50000000
   0.50000000  0.12500000  0.62500000
   0.62500000  0.00000000  0.62500000
   0.62500000  0.12500000  0.50000000
   0.50000000  0.00000000  0.75000000
   0.50000000  0.12500000  0.87500000
   0.62500000  0.00000000  0.87500000
   0.62500000  0.12500000  0.75000000
   0.50000000  0.25000000  0.00000000
   0.50000000  0.37500000  0.12500000
   0.62500000  0.25000000  0.12500000
   0.62500000  0.37500000  0.00000000
   0.50000000  0.25000000  0.25000000
   0.50000000  0.37500000  0.37500000
   0.62500000  0.25000000  0.37500000
   0.62500000  0.37500000  0.25000000
   0.50000000  0.25000000  0.50000000
   0.50000000  0.37500000  0.62500000
   0.62500000  0.25000000  0.62500000
   0.62500000  0.37500000  0.50000000
   0.50000000  0.25000000  0.75000000
   0.50000000  0.37500000  0.87500000
   0.62500000  0.25000000  0.87500000
   0.62500000  0.37500000  0.75000000
   0.50000000  0.50000000  0.00000000
   0.50000000  0.62500000  0.12500000
   0.62500000  0.50000000  0.12500000
   0.62500000  0.62500000  0.00000000
   0.50000000  0.50000000  0.25000000
   0.50000000  0.62500000  0.37500000
   0.62500000  0.50000000  0.37500000
   0.62500000  0.62500000  0.25000000
   0.50000000  0.50000000  0.50000000
   0.50000000  0.62500000  0.62500000
   0.62500000  0.50000000  0.62500000
   0.62500000  0.62500000  0.50000000
   0.50000000  0.50000000  0.75000000
   0.50000000  0.62500000  0.87500000
   0.62500000  0.50000000  0.87500000
   0.62500000  0.62500000  0.75000000
   0.50000000  0.75000000  0.00000000
   0.50000000  0.87500000  0.12500000
   0.62500000  0.75000000  0.12500000
   0.62500000  0.87500000  0.00000000
   0.50000000  0.75000000  0.25000000
   0.50000000  0.87500000  0.37500000
   0.62500000  0.75000000  0.37500000
   0.62500000  0.87500000  0.25000000
   0.50000000  0.75000000  0.50000000
   0.50000000  0.87500000  0.62500000
   0.62500000  0.75000000  0.62500000
   0.62500000  0.87500000  0.50000000
   0.50000000  0.75000000  0.75000000
   0.50000000  0.87500000  0.87500000
   0.62500000  0.75000000  0.87500000
   0.62500000  0.87500000  0.75000000
   0.75000000  0.00000000  0.00000000
   0.75000000  0.12500000  0.12500000
   0.87500000  0.00000000  0.12500000
   0.87500000  0.12500000  0.00000000
   0.75000000  0.00000000  0.25000000
   0.75000000  0.12500000  0.37500000
   0.87500000  0.00000000  0.37500000
   0.87500000  0.12500000  0.25000000
   0.75000000  0.00000000  0.50000000
   0.75000000  0.12500000  0.62500000
   0.87500000  0.00000000  0.62500000
   0.87500000  0.12500000  0.50000000
   0.75000000  0.00000000  0.75000000
   0.75000000  0.12500000  0.87500000
   0.87500000  0.00000000  0.87500000
   0.87500000  0.12500000  0.75000000
   0.75000000  0.25000000  0.00000000
   0.75000000  0.37500000  0.12500000
   0.87500000  0.25000000  0.12500000
   0.87500000  0.37500000  0.00000000
   0.75000000  0.25000000  0.25000000
   0.75000000  0.37500000  0.37500000
   0.87500000  0.25000000  0.37500000
   0.87500000  0.37500000  0.25000000
   0.75000000  0.25000000  0.50000000
   0.75000000  0.37500000  0.62500000
   0.87500000  0.25000000  0.62500000
   0.87500000  0.37500000  0.50000000
   0.75000000  0.25000000  0.75000000
   0.75000000  0.37500000  0.87500000
   0.87500000  0.25000000  0.87500000
   0.87500000  0.37500000  0.75000000
   0.75000000  0.50000000  0.00000000
   0.75000000  0.62500000  0.12500000
   0.87500000  0.50000000  0.12500000
   0.87500000  0.62500000  0.00000000
   0.75000000  0.50000000  0.25000000
   0.75000000  0.62500000  0.37500000
   0.87500000  0.50000000  0.37500000
   0.87500000  0.62500000  0.25000000
   0.75000000  0.50000000  0.50000000
   0.75000000  0.62500000  0.62500000
   0.87500000  0.50000000  0.62500000
   0.87500000  0.62500000  0.50000000
   0.75000000  0.50000000  0.75000000
   0.75000000  0.62500000  0.87500000
   0.87500000  0.50000000  0.87500000
   0.87500000  0.62500000  0.75000000
   0.75000000  0.75000000  0.00000000
   0.75000000  0.87500000  0.12500000
   0.87500000  0.75000000  0.12500000
   0.87500000  0.87500000  0.00000000
   0.75000000  0.75000000  0.25000000
   0.75000000  0.87500000  0.37500000
   0.87500000  0.75000000  0.37500000
   0.87500000  0.87500000  0.25000000
   0.75000000  0.75000000  0.50000000
   0.75000000  0.87500000  0.62500000
   0.87500000  0.75000000  0.62500000
   0.87500000  0.87500000  0.50000000
   0.75000000  0.75000000  0.75000000
   0.75000000  0.87500000  0.87500000
   0.87500000  0.75000000  0.87500000
   0.87500000  0.87500000  0.75000000
   0.06250000  0.00000000  0.00000000
Direct configuration=     2
  -0.16597617 -0.00000000 -0.00000000
  -0.00008947  0.12531596  0.12531596
   0.12539087 -0.00000000  0.12556707
   0.12539087  0.12556707 -0.00000000
   0.00001384 -0.00000000  0.24998469
   0.00000731  0.12498660  0.37499363
   0.12498225 -0.00000000  0.37497835
   0.12500948  0.12499925  0.25005269
   0.00001805 -0.00000000  0.50000000
   0.00000731  0.12498660  0.62500637
   0.12498225 -0.00000000  0.62502165
   0.12499244  0.12499608  0.50000000
   0.00001384 -0.00000000  0.75001531
  -0.00008947  0.12531596  0.87468404
   0.12539087 -0.00000000  0.87443293
   0.12500948  0.12499925  0.74994731
   0.00001384  0.24998469 -0.00000000
   0.00000731  0.37499363  0.12498660
   0.12500948  0.25005269  0.12499925
   0.12498225  0.37497835 -0.00000000
   0.00001542  0.24996477  0.24996477
   0.00000165  0.37499850  0.37499850
   0.12498334  0.24998551  0.37499091
   0.12498334  0.37499091  0.24998551
   0.00001530  0.24999318  0.50000000
   0.00000165  0.37499850  0.62500150
   0.12498334  0.24998551  0.62500909
   0.12500104  0.37501356  0.50000000
   0.00001542  0.24996477  0.75003523
   0.00000731  0.37499363  0.87501340
   0.12500948  0.25005269  0.87500075
   0.12498334  0.37499091  0.75001449
   0.00001805  0.50000000 -0.00000000
   0.00000731  0.62500637  0.12498660
   0.12499244  0.50000000  0.12499608
   0.12498225  0.62502165 -0.00000000
   0.00001530  0.50000000  0.24999318
   0.00000165  0.62500150  0.37499850
   0.12500104  0.50000000  0.37501356
   0.12498334  0.62500909  0.24998551
   0.00000009  0.50000000  0.50000000
   0.00000165  0.62500150  0.62500150
   0.12500104  0.50000000  0.62498644
   0.12500104  0.62498644  0.50000000
   0.00001530  0.50000000  0.75000682
   0.00000731  0.62500637  0.87501340
   0.12499244  0.50000000  0.87500392
   0.12498334  0.62500909  0.75001449
   0.00001384  0.75001531 -0.00000000
  -0.00008947  0.87468404  0.12531596
   0.12500948  0.74994731  0.12499925
   0.12539087  0.87443293 -0.00000000
   0.00001542  0.75003523  0.24996477
   0.00000731  0.87501340  0.37499363
   0.12498334  0.75001449  0.37499091
   0.12500948  0.87500075  0.25005269
   0.00001530  0.75000682  0.50000000
   0.00000731  0.87501340  0.62500637
   0.12498334  0.75001449  0.62500909
   0.12499244  0.87500392  0.50000000
   0.00001542  0.75003523  0.75003523
  -0.00008947  0.87468404  0.87468404
   0.12500948  0.74994731  0.87500075
   0.12500948  0.87500075  0.74994731
   0.25042683 -0.00000000 -0.00000000
   0.24989868  0.12492720  0.12492720
   0.37498291 -0.00000000  0.12496917
   0.37498291  0.12496917 -0.00000000
   0.24996277 -0.00000000  0.24999807
   0.24998542  0.12498321  0.37500263
   0.37499497 -0.00000000  0.37499578
   0.37501306  0.12500733  0.25000373
   0.25000099 -0.00000000  0.50000000
   0.24998542  0.12498321  0.62499737
   0.37499497 -0.00000000  0.62500422
   0.37499873  0.12500654  0.50000000
   0.24996277 -0.00000000  0.75000193
   0.24989868  0.12492720  0.87507280
   0.37498291 -0.00000000  0.87503083
   0.37501306  0.12500733  0.74999627
   0.24996277  0.24999807 -0.00000000
   0.24998542  0.37500263  0.12498321
   0.37501306  0.25000373  0.12500733
   0.37499497  0.37499578 -0.00000000
   0.25001930  0.25001005  0.25001005
   0.24998585  0.37499626  0.37499626
   0.37499511  0.24999030  0.37499771
   0.37499511  0.37499771  0.24999030
   0.24999901  0.24998946  0.50000000
   0.24998585  0.37499626  0.62500374
   0.37499511  0.24999030  0.62500229
   0.37499355  0.37498941  0.50000000
   0.25001930  0.25001005  0.74998995
   0.24998542  0.37500263  0.87501679
   0.37501306  0.25000373  0.87499267
   0.37499511  0.37499771  0.75000970
   0.25000099  0.50000000 -0.00000000
   0.24998542  0.62499737  0.12498321
   0.37499873  0.50000000  0.12500654
   0.37499497  0.62500422 -0.00000000
   0.24999901  0.50000000  0.24998946
   0.24998585  0.62500374  0.37499626
   0.37499355  0.50000000  0.37498941
   0.37499511  0.62500229  0.24999030
   0.24999873  0.50000000  0.50000000
   0.24998585  0.62500374  0.62500374
   0.37499355  0.50000000  0.62501059
   0.37499355  0.62501059  0.50000000
   0.24999901  0.50000000  0.75001054
   0.24998542  0.62499737  0.87501679
   0.37499873  0.50000000  0.87499346
   0.37499511  0.62500229  0.75000970
   0.24996277  0.75000193 -0.00000000
   0.24989868  0.87507280  0.12492720
   0.37501306  0.74999627  0.12500733
   0.37498291  0.87503083 -0.00000000
   0.25001930  0.74998995  0.25001005
   0.24998542  0.87501679  0.37500263
   0.37499511  0.75000970  0.37499771
   0.37501306  0.87499267  0.25000373
   0.24999901  0.75001054  0.50000000
   0.24998542  0.87501679  0.62499737
   0.37499511  0.75000970  0.62500229
   0.37499873  0.87499346  0.50000000
   0.25001930  0.74998995  0.74998995
   0.24989868  0.87507280  0.87507280
   0.37501306  0.74999627  0.87499267
   0.37501306  0.87499267  0.74999627
   0.50001118 -0.00000000 -0.00000000
   0.49999538  0.12499645  0.12499645
   0.62500534 -0.00000000  0.12498686
   0.62500534  0.12498686 -0.00000000
   0.49999505 -0.00000000  0.25000249
   0.49999073  0.12499941  0.37499310
   0.62500569 -0.00000000  0.37498883
   0.62500264  0.12499888  0.24999366
   0.49999124 -0.00000000  0.50000000
   0.49999073  0.12499941  0.62500690
   0.62500569 -0.00000000  0.62501117
   0.62501134  0.12500165  0.50000000
   0.49999505 -0.00000000  0.74999751
   0.49999538  0.12499645  0.87500355
   0.62500534 -0.00000000  0.87501314
   0.62500264  0.12499888  0.75000634
   0.49999505  0.25000249 -0.00000000
   0.49999073  0.37499310  0.12499941
   0.62500264  0.24999366  0.12499888
   0.62500569  0.37498883 -0.00000000
   0.49999116  0.24999481  0.24999481
   0.50000809  0.37499698  0.37499698
   0.62498942  0.24999433  0.37500922
   0.62498942  0.37500922  0.24999433
   0.50000160  0.24999569  0.50000000
   0.50000809  0.37499698  0.62500302
   0.62498942  0.24999433  0.62499078
   0.62498978  0.37501503  0.50000000
   0.49999116  0.24999481  0.75000519
   0.49999073  0.37499310  0.87500059
   0.62500264  0.24999366  0.87500112
   0.62498942  0.37500922  0.75000567
   0.49999124  0.50000000 -0.00000000
   0.49999073  0.62500690  0.12499941
   0.62501134  0.50000000  0.12500165
   0.62500569  0.62501117 -0.00000000
   0.50000160  0.50000000  0.24999569
   0.50000809  0.62500302  0.37499698
   0.62498978  0.50000000  0.37501503
   0.62498942  0.62499078  0.24999433
   0.50005495  0.50000000  0.50000000
   0.50000809  0.62500302  0.62500302
   0.62498978  0.50000000  0.62498497
   0.62498978  0.62498497  0.50000000
   0.50000160  0.50000000  0.75000431
   0.49999073  0.62500690  0.87500059
   0.62501134  0.50000000  0.87499835
   0.62498942  0.62499078  0.75000567
   0.49999505  0.74999751 -0.00000000
   0.49999538  0.87500355  0.12499645
   0.62500264  0.75000634  0.12499888
   0.62500534  0.87501314 -0.00000000
   0.49999116  0.75000519  0.24999481
   0.49999073  0.87500059  0.37499310
   0.62498942  0.75000567  0.37500922
   0.62500264  0.87500112  0.24999366
   0.50000160  0.75000431  0.50000000
   0.49999073  0.87500059  0.62500690
   0.62498942  0.75000567  0.62499078
   0.62501134  0.87499835  0.50000000
   0.49999116  0.75000519  0.75000519
   0.49999538  0.87500355  0.87500355
   0.62500264  0.75000634  0.87500112
   0.62500264  0.87500112  0.75000634
   0.75000052 -0.00000000 -0.00000000
   0.75001003  0.12497526  0.12497526
   0.87507882 -0.00000000  0.12495569
   0.87507882  0.12495569 -0.00000000
   0.74998436 -0.00000000  0.25000683
   0.74999884  0.12500238  0.37500578
   0.87501109 -0.00000000  0.37499627
   0.87503573  0.12497543  0.24998440
   0.74999884 -0.00000000  0.50000000
   0.74999884  0.12500238  0.62499422
   0.87501109 -0.00000000  0.62500373
   0.87500987  0.12499713  0.50000000
   0.74998436 -0.00000000  0.74999317
   0.75001003  0.12497526  0.87502474
   0.87507882 -0.00000000  0.87504431
   0.87503573  0.12497543  0.75001560
   0.74998436  0.25000683 -0.00000000
   0.74999884  0.37500578  0.12500238
   0.87503573  0.24998440  0.12497543
   0.87501109  0.37499627 -0.00000000
   0.75001249  0.24999102  0.24999102
   0.75001193  0.37500241  0.37500241
   0.87499804  0.24999870  0.37499359
   0.87499804  0.37499359  0.24999870
   0.74999970  0.25000033  0.50000000
   0.75001193  0.37500241  0.62499759
   0.87499804  0.24999870  0.62500641
   0.87499648  0.37500866  0.50000000
   0.75001249  0.24999102  0.75000898
   0.74999884  0.37500578  0.87499762
   0.87503573  0.24998440  0.87502457
   0.87499804  0.37499359  0.75000130
   0.74999884  0.50000000 -0.00000000
   0.74999884  0.62499422  0.12500238
   0.87500987  0.50000000  0.12499713
   0.87501109  0.62500373 -0.00000000
   0.74999970  0.50000000  0.25000033
   0.75001193  0.62499759  0.37500241
   0.87499648  0.50000000  0.37500866
   0.87499804  0.62500641  0.24999870
   0.75001449  0.50000000  0.50000000
   0.75001193  0.62499759  0.62499759
   0.87499648  0.50000000  0.62499134
   0.87499648  0.62499134  0.50000000
   0.74999970  0.50000000  0.74999967
   0.74999884  0.62499422  0.87499762
   0.87500987  0.50000000  0.87500287
   0.87499804  0.62500641  0.75000130
   0.74998436  0.74999317 -0.00000000
   0.75001003  0.87502474  0.12497526
   0.87503573  0.75001560  0.12497543
   0.87507882  0.87504431 -0.00000000
   0.75001249  0.75000898  0.24999102
   0.74999884  0.87499762  0.37500578
   0.87499804  0.75000130  0.37499359
   0.87503573  0.87502457  0.24998440
   0.74999970  0.74999967  0.50000000
   0.74999884  0.87499762  0.62499422
   0.87499804  0.75000130  0.62500641
   0.87500987  0.87500287  0.50000000
   0.75001249  0.75000898  0.75000898
   0.75001003  0.87502474  0.87502474
   0.87503573  0.75001560  0.87502457
   0.87503573  0.87502457  0.75001560
   0.22676904 -0.00000000 -0.00000000
Direct configuration=     3
  -0.02260433 -0.00000000 -0.00000000
  -0.00001218  0.12504303  0.12504303
   0.12505323 -0.00000000  0.12507723
   0.12505323  0.12507723 -0.00000000
   0.00000188 -0.00000000  0.24999791
   0.00000100  0.12499818  0.37499913
   0.12499758 -0.00000000  0.37499705
   0.12500129  0.12499990  0.25000718
   0.00000246 -0.00000000  0.50000000
   0.00000100  0.12499818  0.62500087
   0.12499758 -0.00000000  0.62500295
   0.12499897  0.12499947  0.50000000
   0.00000188 -0.00000000  0.75000209
  -0.00001218  0.12504303  0.87495697
   0.12505323 -0.00000000  0.87492277
   0.12500129  0.12499990  0.74999282
   0.00000188  0.24999791 -0.00000000
   0.00000100  0.37499913  0.12499818
   0.12500129  0.25000718  0.12499990
   0.12499758  0.37499705 -0.00000000
   0.00000210  0.24999520  0.24999520
   0.00000022  0.37499980  0.37499980
   0.12499773  0.24999803  0.37499876
   0.12499773  0.37499876  0.24999803
   0.00000208  0.24999907  0.50000000
   0.00000022  0.37499980  0.62500020
   0.12499773  0.24999803  0.62500124
   0.12500014  0.37500185  0.50000000
   0.00000210  0.24999520  0.75000480
   0.00000100  0.37499913  0.87500182
   0.12500129  0.25000718  0.87500010
   0.12499773  0.37499876  0.75000197
   0.00000246  0.50000000 -0.00000000
   0.00000100  0.62500087  0.12499818
   0.12499897  0.50000000  0.12499947
   0.12499758  0.62500295 -0.00000000
   0.00000208  0.50000000  0.24999907
   0.00000022  0.62500020  0.37499980
   0.12500014  0.50000000  0.37500185
   0.12499773  0.62500124  0.24999803
   0.00000001  0.50000000  0.50000000
   0.00000022  0.62500020  0.62500020
   0.12500014  0.50000000  0.62499815
   0.12500014  0.62499815  0.50000000
   0.00000208  0.50000000  0.75000093
   0.00000100  0.62500087  0.87500182
   0.12499897  0.50000000  0.87500053
   0.12499773  0.62500124  0.75000197
   0.00000188  0.75000209 -0.00000000
  -0.00001218  0.87495697  0.12504303
   0.12500129  0.74999282  0.12499990
   0.12505323  0.87492277 -0.00000000
   0.00000210  0.75000480  0.24999520
   0.00000100  0.87500182  0.37499913
   0.12499773  0.75000197  0.37499876
   0.12500129  0.87500010  0.25000718
   0.00000208  0.75000093  0.50000000
   0.00000100  0.87500182  0.62500087
   0.12499773  0.75000197  0.62500124
   0.12499897  0.87500053  0.50000000
   0.00000210  0.75000480  0.75000480
  -0.00001218  0.87495697  0.87495697
   0.12500129  0.74999282  0.87500010
   0.12500129  0.87500010  0.74999282
   0.25005813 -0.00000000 -0.00000000
   0.24998620  0.12499009  0.12499009
   0.37499767 -0.00000000  0.12499580
   0.37499767  0.12499580 -0.00000000
   0.24999493 -0.00000000  0.24999974
   0.24999801  0.12499771  0.37500036
   0.37499932 -0.00000000  0.37499943
   0.37500178  0.12500100  0.25000051
   0.25000014 -0.00000000  0.50000000
   0.24999801  0.12499771  0.62499964
   0.37499932 -0.00000000  0.62500057
   0.37499983  0.12500089  0.50000000
   0.24999493 -0.00000000  0.75000026
   0.24998620  0.12499009  0.87500991
   0.37499767 -0.00000000  0.87500420
   0.37500178  0.12500100  0.74999949
   0.24999493  0.24999974 -0.00000000
   0.24999801  0.37500036  0.12499771
   0.37500178  0.25000051  0.12500100
   0.37499932  0.37499943 -0.00000000
   0.25000263  0.25000137  0.25000137
   0.24999807  0.37499949  0.37499949
   0.37499933  0.24999868  0.37499969
   0.37499933  0.37499969  0.24999868
   0.24999987  0.24999857  0.50000000
   0.24999807  0.37499949  0.62500051
   0.37499933  0.24999868  0.62500031
   0.37499912  0.37499856  0.50000000
   0.25000263  0.25000137  0.74999863
   0.24999801  0.37500036  0.87500229
   0.37500178  0.25000051  0.87499900
   0.37499933  0.37499969  0.75000132
   0.25000014  0.50000000 -0.00000000
   0.24999801  0.62499964  0.12499771
   0.37499983  0.50000000  0.12500089
   0.37499932  0.62500057 -0.00000000
   0.24999987  0.50000000  0.24999857
   0.24999807  0.62500051  0.37499949
   0.37499912  0.50000000  0.37499856
   0.37499933  0.62500031  0.24999868
   0.24999983  0.50000000  0.50000000
   0.24999807  0.62500051  0.62500051
   0.37499912  0.50000000  0.62500144
   0.37499912  0.62500144  0.50000000
   0.24999987  0.50000000  0.75000143
   0.24999801  0.62499964  0.87500229
   0.37499983  0.50000000  0.87499911
   0.37499933  0.62500031  0.75000132
   0.24999493  0.75000026 -0.00000000
   0.24998620  0.87500991  0.12499009
   0.37500178  0.74999949  0.12500100
   0.37499767  0.87500420 -0.00000000
   0.25000263  0.74999863  0.25000137
   0.24999801  0.87500229  0.37500036
   0.37499933  0.75000132  0.37499969
   0.37500178  0.87499900  0.25000051
   0.24999987  0.75000143  0.50000000
   0.24999801  0.87500229  0.62499964
   0.37499933  0.75000132  0.62500031
   0.37499983  0.87499911  0.50000000
   0.25000263  0.74999863  0.74999863
   0.24998620  0.87500991  0.87500991
   0.37500178  0.74999949  0.87499900
   0.37500178  0.87499900  0.74999949
   0.50000152 -0.00000000 -0.00000000
   0.49999937  0.12499952  0.12499952
   0.62500073 -0.00000000  0.12499821
   0.62500073  0.12499821 -0.00000000
   0.49999933 -0.00000000  0.25000034
   0.49999874  0.12499992  0.37499906
   0.62500077 -0.00000000  0.37499848
   0.62500036  0.12499985  0.24999914
   0.49999881 -0.00000000  0.50000000
   0.49999874  0.12499992  0.62500094
   0.62500077 -0.00000000  0.62500152
   0.62500154  0.12500022  0.50000000
   0.49999933 -0.00000000  0.74999966
   0.49999937  0.12499952  0.87500048
   0.62500073 -0.00000000  0.87500179
   0.62500036  0.12499985  0.75000086
   0.49999933  0.25000034 -0.00000000
   0.49999874  0.37499906  0.12499992
   0.62500036  0.24999914  0.12499985
   0.62500077  0.37499848 -0.00000000
   0.49999880  0.24999929  0.24999929
   0.50000110  0.37499959  0.37499959
   0.62499856  0.24999923  0.37500126
   0.62499856  0.37500126  0.24999923
   0.50000022  0.24999941  0.50000000
   0.50000110  0.37499959  0.62500041
   0.62499856  0.24999923  0.62499874
   0.62499861  0.37500205  0.50000000
   0.49999880  0.24999929  0.75000071
   0.49999874  0.37499906  0.87500008
   0.62500036  0.24999914  0.87500015
   0.62499856  0.37500126  0.75000077
   0.49999881  0.50000000 -0.00000000
   0.49999874  0.62500094  0.12499992
   0.62500154  0.50000000  0.12500022
   0.62500077  0.62500152 -0.00000000
   0.50000022  0.50000000  0.24999941
   0.50000110  0.62500041  0.37499959
   0.62499861  0.50000000  0.37500205
   0.62499856  0.62499874  0.24999923
   0.50000748  0.50000000  0.50000000
   0.50000110  0.62500041  0.62500041
   0.62499861  0.50000000  0.62499795
   0.62499861  0.62499795  0.50000000
   0.50000022  0.50000000  0.75000059
   0.49999874  0.62500094  0.87500008
   0.62500154  0.50000000  0.87499978
   0.62499856  0.62499874  0.75000077
   0.49999933  0.74999966 -0.00000000
   0.49999937  0.87500048  0.12499952
   0.62500036  0.75000086  0.12499985
   0.62500073  0.87500179 -0.00000000
   0.49999880  0.75000071  0.24999929
   0.49999874  0.87500008  0.37499906
   0.62499856  0.75000077  0.37500126
   0.62500036  0.87500015  0.24999914
   0.50000022  0.75000059  0.50000000
   0.49999874  0.87500008  0.62500094
   0.62499856  0.75000077  0.62499874
   0.62500154  0.87499978  0.50000000
   0.49999880  0.75000071  0.75000071
   0.49999937  0.87500048  0.87500048
   0.62500036  0.75000086  0.87500015
   0.62500036  0.87500015  0.75000086
   0.75000007 -0.00000000 -0.00000000
   0.75000137  0.12499663  0.12499663
   0.87501073 -0.00000000  0.12499396
   0.87501073  0.12499396 -0.00000000
   0.74999787 -0.00000000  0.25000093
   0.74999984  0.12500032  0.37500079
   0.87500151 -0.00000000  0.37499949
   0.87500487  0.12499665  0.24999787
   0.74999984 -0.00000000  0.50000000
   0.74999984  0.12500032  0.62499921
   0.87500151 -0.00000000  0.62500051
   0.87500134  0.12499961  0.50000000
   0.74999787 -0.00000000  0.74999907
   0.75000137  0.12499663  0.87500337
   0.87501073 -0.00000000  0.87500604
   0.87500487  0.12499665  0.75000213
   0.74999787  0.25000093 -0.00000000
   0.74999984  0.37500079  0.12500032
   0.87500487  0.24999787  0.12499665
   0.87500151  0.37499949 -0.00000000
   0.75000170  0.24999878  0.24999878
   0.75000163  0.37500033  0.37500033
   0.87499973  0.24999982  0.37499913
   0.87499973  0.37499913  0.24999982
   0.74999996  0.25000004  0.50000000
   0.75000163  0.37500033  0.62499967
   0.87499973  0.24999982  0.62500087
   0.87499952  0.37500118  0.50000000
   0.75000170  0.24999878  0.75000122
   0.74999984  0.37500079  0.87499968
   0.87500487  0.24999787  0.87500335
   0.87499973  0.37499913  0.75000018
   0.74999984  0.50000000 -0.00000000
   0.74999984  0.62499921  0.12500032
   0.87500134  0.50000000  0.12499961
   0.87500151  0.62500051 -0.00000000
   0.74999996  0.50000000  0.25000004
   0.75000163  0.62499967  0.37500033
   0.87499952  0.50000000  0.37500118
   0.87499973  0.62500087  0.24999982
   0.75000197  0.50000000  0.50000000
   0.75000163  0.62499967  0.62499967
   0.87499952  0.50000000  0.62499882
   0.87499952  0.62499882  0.50000000
   0.74999996  0.50000000  0.74999996
   0.74999984  0.62499921  0.87499968
   0.87500134  0.50000000  0.87500039
   0.87499973  0.62500087  0.75000018
   0.74999787  0.74999907 -0.00000000
   0.75000137  0.87500337  0.12499663
   0.87500487  0.75000213  0.12499665
   0.87501073  0.87500604 -0.00000000
   0.75000170  0.75000122  0.24999878
   0.74999984  0.87499968  0.37500079
   0.87499973  0.75000018  0.37499913
   0.87500487  0.87500335  0.24999787
   0.74999996  0.74999996  0.50000000
   0.74999984  0.87499968  0.62499921
   0.87499973  0.75000018  0.62500087
   0.87500134  0.87500039  0.50000000
   0.75000170  0.75000122  0.75000122
   0.75000137  0.87500337  0.87500337
   0.87500487  0.75000213  0.87500335
   0.87500487  0.87500335  0.75000213
   0.08487183 -0.00000000 -0.00000000
Direct configuration=     4
  -0.02278537 -0.00000000 -0.00000000
  -0.00001228  0.12504337  0.12504337
   0.12505366 -0.00000000  0.12507785
   0.12505366  0.12507785 -0.00000000
   0.00000190 -0.00000000  0.24999790
   0.00000100  0.12499816  0.37499913
   0.12499756 -0.00000000  0.37499703
   0.12500130  0.12499990  0.25000723
   0.00000248 -0.00000000  0.50000000
   0.00000100  0.12499816  0.62500087