       N       E                     dE             d eps       ncg     rms          rms(c)
DAV:   1     0.117804008487E+05    0.11780E+05   -0.57206E+05 11904   0.131E+03
DAV:   2    -0.331308099251E+03   -0.12112E+05   -0.11671E+05 11736   0.440E+02
DAV:   3    -0.137923994001E+04   -0.10479E+04   -0.93042E+03 18352   0.123E+02
DAV:   4    -0.148167897332E+04   -0.10244E+03   -0.97360E+02 16648   0.439E+01
DAV:   5    -0.149037648255E+04   -0.86975E+01   -0.85210E+01 19960   0.100E+01    0.128E+02
DAV:   6    -0.173079311142E+04   -0.24042E+03   -0.54403E+03 15928   0.160E+02    0.209E+02
DAV:   7    -0.133760091549E+04    0.39319E+03   -0.10975E+03 14428   0.880E+01    0.433E+01
DAV:   8    -0.132488362458E+04    0.12717E+02   -0.40793E+02 19988   0.326E+01    0.252E+01
DAV:   9    -0.132601530260E+04   -0.11317E+01   -0.37364E+01 17712   0.265E+01    0.308E+01
DAV:  10    -0.131916210707E+04    0.68532E+01   -0.15758E+01 14152   0.221E+01    0.953E+00
DAV:  11    -0.131909488097E+04    0.67226E-01   -0.67883E+00 16720   0.973E+00    0.686E+00
DAV:  12    -0.131901915939E+04    0.75722E-01   -0.18170E+00 13440   0.511E+00    0.400E+00
DAV:  13    -0.131897726190E+04    0.41897E-01   -0.37894E-01 14856   0.304E+00    0.331E+00
DAV:  14    -0.131891435015E+04    0.62912E-01   -0.25500E-01 16376   0.244E+00    0.215E+00
DAV:  15    -0.131891842619E+04   -0.40760E-02   -0.20482E-01 19528   0.164E+00    0.199E+00
DAV:  16    -0.131890878922E+04    0.96370E-02   -0.81315E-02 14040   0.142E+00    0.134E+00
DAV:  17    -0.131890995028E+04   -0.11611E-02   -0.33962E-02 15728   0.899E-01    0.109E+00
DAV:  18    -0.131890531679E+04    0.46335E-02   -0.15628E-02 14632   0.701E-01    0.652E-01
DAV:  19    -0.131890565229E+04   -0.33550E-03   -0.57486E-03 19736   0.228E-01    0.522E-01
DAV:  20    -0.131890548504E+04    0.16725E-03   -0.10634E-03 15456   0.169E-01    0.444E-01
DAV:  21    -0.131890548561E+04   -0.56883E-06   -0.69603E-04 17088   0.944E-02    0.285E-01
DAV:  22    -0.131890546183E+04    0.23775E-04   -0.31829E-04 14408   0.889E-02    0.226E-01
DAV:  23    -0.131890539442E+04    0.67410E-04   -0.10824E-04 15904   0.452E-02    0.143E-01
DAV:  24    -0.131890537247E+04    0.21955E-04   -0.52965E-05 19160   0.216E-02    0.114E-01
DAV:  25    -0.131890533675E+04    0.35721E-04   -0.42255E-05 18384   0.198E-02    0.705E-02
DAV:  26    -0.131890532084E+04    0.15902E-04   -0.25931E-05 17896   0.144E-02    0.511E-02
DAV:  27    -0.131890531469E+04    0.61481E-05   -0.98031E-06 16584   0.114E-02    0.393E-02
DAV:  28    -0.131890530902E+04    0.56754E-05   -0.19890E-05 19032   0.989E-03    0.142E-02
DAV:  29    -0.131890530919E+04   -0.17099E-06   -0.19252E-06 13728   0.545E-03    0.121E-02
DAV:  30    -0.131890530969E+04   -0.50134E-06   -0.53889E-07 11568   0.304E-03    0.875E-03
DAV:  31    -0.131890530975E+04   -0.56898E-07   -0.47011E-07 10152   0.162E-03
   1 F= -.14276984E+04 E0= -.14276507E+04  d E =-.142770E+04
       N       E                     dE             d eps       ncg     rms          rms(c)
DAV:   1    -0.131103829838E+04    0.78670E+01   -0.44651E+03 14894   0.599E+01    0.213E+01
DAV:   2    -0.134447380947E+04   -0.33436E+02   -0.28037E+02 17748   0.502E+01    0.787E+01
DAV:   3    -0.133509962622E+04    0.93742E+01   -0.94119E+01 17352   0.179E+01    0.243E+01
DAV:   4    -0.132643298092E+04    0.86666E+01   -0.15867E+01 19840   0.131E+01    0.191E+01
DAV:   5    -0.132638404306E+04    0.48938E-01   -0.10854E+01 20704   0.858E+00    0.182E+01
DAV:   6    -0.132518575337E+04    0.11983E+01   -0.40019E+00 20568   0.104E+01    0.160E+01
DAV:   7    -0.132519227942E+04   -0.65261E-02   -0.14926E+00 16088   0.457E+00    0.145E+01
DAV:   8    -0.132517242327E+04    0.19856E-01   -0.43535E-01 14016   0.412E+00    0.131E+01
DAV:   9    -0.132523562883E+04   -0.63206E-01   -0.39406E-01 17120   0.373E+00    0.105E+01
DAV:  10    -0.132513042515E+04    0.10520E+00   -0.26168E-01 15984   0.368E+00    0.892E+00
DAV:  11    -0.132511887798E+04    0.11547E-01   -0.94681E-02 17784   0.126E+00    0.797E+00
DAV:  12    -0.132511530224E+04    0.35757E-02   -0.25196E-02 14048   0.766E-01    0.753E+00
DAV:  13    -0.132511139761E+04    0.39046E-02   -0.12573E-02 15776   0.477E-01    0.644E+00
DAV:  14    -0.132511095934E+04    0.43827E-03   -0.77939E-03 17360   0.366E-01    0.562E+00
DAV:  15    -0.132510812676E+04    0.28326E-02   -0.44614E-03 15296   0.365E-01    0.451E+00
DAV:  16    -0.132510770134E+04    0.42542E-03   -0.36297E-03 16240   0.224E-01    0.375E+00
DAV:  17    -0.132510686128E+04    0.84006E-03   -0.18394E-03 14960   0.193E-01    0.300E+00
DAV:  18    -0.132510625766E+04    0.60362E-03   -0.83255E-04 21096   0.833E-02    0.242E+00
DAV:  19    -0.132510597805E+04    0.27961E-03   -0.31168E-04 14920   0.716E-02    0.196E+00
DAV:  20    -0.132510560034E+04    0.37771E-03   -0.43681E-04 14128   0.663E-02    0.967E-01
DAV:  21    -0.132510555149E+04    0.48855E-04   -0.40379E-04 20288   0.683E-02    0.102E+00
DAV:  22    -0.132510549602E+04    0.55462E-04   -0.92719E-05 16256   0.433E-02    0.806E-01
DAV:  23    -0.132510543363E+04    0.62395E-04   -0.26686E-04 13736   0.433E-02    0.195E-01
DAV:  24    -0.132510543284E+04    0.78499E-06   -0.10120E-04 15704   0.304E-02    0.179E-02
DAV:  25    -0.132510543430E+04   -0.14548E-05   -0.27474E-05 19256   0.184E-02    0.449E-02
DAV:  26    -0.132510543380E+04    0.49940E-06   -0.57805E-06 13816   0.786E-03    0.254E-02
DAV:  27    -0.132510543340E+04    0.39862E-06   -0.17877E-06 15568   0.616E-03    0.147E-02
DAV:  28    -0.132510543314E+04    0.26399E-06   -0.18530E-06 18248   0.525E-03    0.104E-02
DAV:  29    -0.132510543310E+04    0.37609E-07   -0.41253E-07 12208   0.253E-03
   2 F= -.14338984E+04 E0= -.14338482E+04  d E =-.620000E+01
       N       E                     dE             d eps       ncg     rms          rms(c)
DAV:   1    -0.132509520613E+04    0.10227E-01   -0.13341E+01 11744   0.324E+00    0.647E-01
DAV:   2    -0.132510668260E+04   -0.11476E-01   -0.12978E-01 16960   0.424E-01    0.471E-01
DAV:   3    -0.132510886210E+04   -0.21795E-02   -0.14701E-02 15756   0.639E-01    0.581E-01
DAV:   4    -0.132510653206E+04    0.23300E-02   -0.10871E-02 15496   0.662E-01    0.305E-01
DAV:   5    -0.132510748439E+04   -0.95233E-03   -0.53645E-03 17814   0.441E-01    0.396E-01
DAV:   6    -0.132510599006E+04    0.14943E-02   -0.25796E-03 16104   0.314E-01    0.961E-02
DAV:   7    -0.132510600056E+04   -0.10502E-04   -0.69391E-04 19088   0.107E-01    0.100E-01
DAV:   8    -0.132510595319E+04    0.47367E-04   -0.42159E-04 16440   0.953E-02    0.486E-02
DAV:   9    -0.132510597632E+04   -0.23125E-04   -0.19753E-04 17918   0.700E-02    0.557E-02
DAV:  10    -0.132510595682E+04    0.19497E-04   -0.11931E-04 15704   0.721E-02    0.298E-02
DAV:  11    -0.132510594706E+04    0.97597E-05   -0.32610E-05 16406   0.299E-02    0.129E-02
DAV:  12    -0.132510594695E+04    0.11051E-06   -0.17055E-05 16672   0.147E-02    0.679E-03
DAV:  13    -0.132510594711E+04   -0.16484E-06   -0.35692E-06 15534   0.624E-03    0.421E-03
DAV:  14    -0.132510594711E+04    0.65338E-08   -0.11940E-06 13848   0.511E-03    0.236E-03
DAV:  15    -0.132510594713E+04   -0.23865E-07   -0.33152E-07  9462   0.223E-03
   3 F= -.14338990E+04 E0= -.14338481E+04  d E =-.620059E+01
       N       E                     dE             d eps       ncg     rms          rms(c)
DAV:   1    -0.132510704651E+04   -0.10994E-02   -0.32060E+00 11780   0.159E+00    0.275E-01
DAV:   2    -0.132510994595E+04   -0.28994E-02   -0.27760E-02 16056   0.323E-01    0.445E-01
DAV:   3    -0.132510922127E+04    0.72467E-03   -0.41681E-03 14114   0.256E-01    0.181E-01
DAV:   4    -0.132510960059E+04   -0.37932E-03   -0.15998E-03 17144   0.208E-01    0.256E-01
DAV:   5    -0.132510951419E+04    0.86404E-04   -0.17533E-03 16480   0.263E-01    0.216E-01
DAV:   6    -0.132510924123E+04    0.27296E-03   -0.67506E-04 16744   0.148E-01    0.914E-02
DAV:   7    -0.132510920111E+04    0.40118E-04   -0.26715E-04 17968   0.749E-02    0.546E-02
DAV:   8    -0.132510919404E+04    0.70737E-05   -0.94724E-05 18432   0.306E-02    0.413E-02
DAV:   9    -0.132510920328E+04   -0.92381E-05   -0.80907E-05 17784   0.526E-02    0.426E-02
DAV:  10    -0.132510919027E+04    0.13007E-04   -0.29903E-05 15816   0.389E-02    0.169E-02
DAV:  11    -0.132510918915E+04    0.11207E-05   -0.11926E-05 16392   0.191E-02    0.108E-02
DAV:  12    -0.132510918866E+04    0.48470E-06   -0.44116E-06 15208   0.898E-03    0.496E-03
DAV:  13    -0.132510918874E+04   -0.79846E-07   -0.16034E-06 15336   0.375E-03    0.392E-03
DAV:  14    -0.132510918873E+04    0.13431E-07   -0.34165E-07  9872   0.221E-03
   4 F= -.14339022E+04 E0= -.14338517E+04  d E =-.620379E+01
       N       E                     dE             d eps       ncg     rms          rms(c)
DAV:   1    -0.132520501003E+04   -0.95821E-01   -0.22341E+00 11788   0.179E+00    0.441E-01
DAV:   2    -0.132522628287E+04   -0.21273E-01   -0.93964E-02 12664   0.151E+00    0.148E+00
DAV:   3    -0.132520807895E+04    0.18204E-01   -0.31050E-02 12744   0.113E+00    0.263E-01
DAV:   4    -0.132520831809E+04   -0.23914E-03   -0.10700E-02 20184   0.311E-01    0.198E-01
DAV:   5    -0.132520798241E+04    0.33569E-03   -0.18073E-03 16536   0.190E-01    0.106E-01
DAV:   6    -0.132520814467E+04   -0.16226E-03   -0.97633E-04 16544   0.191E-01    0.153E-01
DAV:   7    -0.132520795958E+04    0.18509E-03   -0.53865E-04 15400   0.156E-01    0.543E-02
DAV:   8    -0.132520797784E+04   -0.18257E-04   -0.24623E-04 16448   0.865E-02    0.620E-02
DAV:   9    -0.132520794726E+04    0.30574E-04   -0.10734E-04 14984   0.631E-02    0.195E-02
DAV:  10    -0.132520794938E+04   -0.21147E-05   -0.39054E-05 16624   0.252E-02    0.216E-02
DAV:  11    -0.132520794709E+04    0.22855E-05   -0.13712E-05 14448   0.186E-02    0.115E-02
DAV:  12    -0.132520794596E+04    0.11338E-05   -0.57181E-06 17480   0.752E-03    0.535E-03
DAV:  13    -0.132520794596E+04   -0.66866E-08   -0.25158E-06 16184   0.790E-03    0.529E-03
DAV:  14    -0.132520794576E+04    0.20582E-06   -0.90363E-07 13760   0.501E-03    0.178E-03
DAV:  15    -0.132520794577E+04   -0.14268E-07   -0.27742E-07  8512   0.236E-03
   5 F= -.14340006E+04 E0= -.14339500E+04  d E =-.983851E-01
       N       E                     dE             d eps       ncg     rms          rms(c)
DAV:   1    -0.132532401723E+04   -0.11607E+00   -0.20112E+01 11778   0.535E+00    0.132E+00
DAV:   2    -0.132552111000E+04   -0.19709E+00   -0.85326E-01 12680   0.456E+00    0.442E+00
DAV:   3    -0.132535072295E+04    0.17039E+00   -0.28517E-01 12896   0.342E+00    0.780E-01
DAV:   4    -0.132535422969E+04   -0.35067E-02   -0.10296E-01 20320   0.915E-01    0.613E-01
DAV:   5    -0.132535154868E+04    0.26810E-02   -0.17388E-02 15944   0.605E-01    0.349E-01
DAV:   6    -0.132535307185E+04   -0.15232E-02   -0.96171E-03 16304   0.586E-01    0.491E-01
DAV:   7    -0.132535135199E+04    0.17199E-02   -0.51703E-03 15574   0.479E-01    0.223E-01
DAV:   8    -0.132535136787E+04   -0.15883E-04   -0.24837E-03 16712   0.273E-01    0.197E-01
DAV:   9    -0.132535108304E+04    0.28483E-03   -0.12032E-03 15998   0.211E-01    0.684E-02
DAV:  10    -0.132535110377E+04   -0.20737E-04   -0.44612E-04 17048   0.861E-02    0.730E-02
DAV:  11    -0.132535107036E+04    0.33413E-04   -0.15848E-04 14968   0.677E-02    0.310E-02
DAV:  12    -0.132535106250E+04    0.78657E-05   -0.53558E-05 18336   0.249E-02    0.166E-02
DAV:  13    -0.132535106275E+04   -0.24922E-06   -0.20434E-05 16576   0.227E-02    0.170E-02
DAV:  14    -0.132535106091E+04    0.18336E-05   -0.97196E-06 14504   0.148E-02    0.472E-03
DAV:  15    -0.132535106109E+04   -0.17750E-06   -0.31593E-06 15112   0.769E-03    0.613E-03
DAV:  16    -0.132535106084E+04    0.24667E-06   -0.14801E-06 14128   0.562E-03    0.267E-03
DAV:  17    -0.132535106083E+04    0.78580E-08   -0.53146E-07 11072   0.236E-03
   6 F= -.14341429E+04 E0= -.14340921E+04  d E =-.240678E+00
       N       E                     dE             d eps       ncg     rms          rms(c)
DAV:   1    -0.132535261912E+04   -0.15583E-02   -0.34562E-01 11842   0.700E-01    0.163E-01
DAV:   2    -0.132535572549E+04   -0.31064E-02   -0.12961E-02 12712   0.563E-01    0.585E-01
DAV:   3    -0.132535311656E+04    0.26089E-02   -0.45135E-03 12774   0.426E-01    0.108E-01
DAV:   4    -0.132535312338E+04   -0.68228E-05   -0.15652E-03 20568   0.126E-01    0.764E-02
DAV:   5    -0.132535306939E+04    0.53990E-04   -0.27485E-04 17240   0.722E-02    0.412E-02
DAV:   6    -0.132535309106E+04   -0.21670E-04   -0.14529E-04 16712   0.740E-02    0.566E-02
DAV:   7    -0.132535306532E+04    0.25739E-04   -0.77285E-05 15504   0.590E-02    0.190E-02
DAV:   8    -0.132535306810E+04   -0.27763E-05   -0.34380E-05 16608   0.330E-02    0.220E-02
DAV:   9    -0.132535306419E+04    0.39050E-05   -0.13437E-05 15048   0.223E-02    0.764E-03
DAV:  10    -0.132535306431E+04   -0.11407E-06   -0.47295E-06 16600   0.919E-03    0.716E-03
DAV:  11    -0.132535306406E+04    0.24657E-06   -0.14980E-06 13768   0.532E-03    0.334E-03
DAV:  12    -0.132535306394E+04    0.11580E-06   -0.60831E-07 12448   0.288E-03    0.260E-03
DAV:  13    -0.132535306389E+04    0.57662E-07   -0.39672E-07 10648   0.309E-03
   7 F= -.14341448E+04 E0= -.14340940E+04  d E =-.242606E+00
       N       E                     dE             d eps       ncg     rms          rms(c)
DAV:   1    -0.132536754752E+04   -0.14484E-01   -0.11167E+01 11744   0.369E+00    0.467E-01
DAV:   2    -0.132537904668E+04   -0.11499E-01   -0.12446E-01 16232   0.644E-01    0.451E-01
DAV:   3    -0.132538042618E+04   -0.13795E-02   -0.15477E-02 14056   0.748E-01    0.536E-01
DAV:   4    -0.132537886987E+04    0.15563E-02   -0.35604E-03 14592   0.422E-01    0.264E-01
DAV:   5    -0.132537872695E+04    0.14292E-03   -0.21998E-03 14744   0.358E-01    0.239E-01
DAV:   6    -0.132537843438E+04    0.29257E-03   -0.10834E-03 14304   0.207E-01    0.118E-01
DAV:   7    -0.132537837677E+04    0.57612E-04   -0.60693E-04 14694   0.158E-01    0.765E-02
DAV:   8    -0.132537836833E+04    0.84355E-05   -0.29422E-04 16048   0.817E-02    0.514E-02
DAV:   9    -0.132537835560E+04    0.12731E-04   -0.12163E-04 15102   0.605E-02    0.287E-02
DAV:  10    -0.132537835482E+04    0.78493E-06   -0.53512E-05 15976   0.276E-02    0.175E-02
DAV:  11    -0.132537835515E+04   -0.33317E-06   -0.23830E-05 15718   0.256E-02    0.180E-02
DAV:  12    -0.132537835267E+04    0.24810E-05   -0.12026E-05 15448   0.181E-02    0.665E-03
DAV:  13    -0.132537835312E+04   -0.45163E-06   -0.50676E-06 17176   0.830E-03    0.676E-03
DAV:  14    -0.132537835287E+04    0.25004E-06   -0.15480E-06 14648   0.667E-03    0.249E-03
DAV:  15    -0.132537835288E+04   -0.13657E-07   -0.52101E-07 11920   0.256E-03
   8 F= -.14341701E+04 E0= -.14341191E+04  d E =-.253403E-01
       N       E                     dE             d eps       ncg     rms          rms(c)
DAV:   1    -0.132536623704E+04    0.12116E-01   -0.23815E+01 11736   0.539E+00    0.689E-01
DAV:   2    -0.132539328733E+04   -0.27050E-01   -0.28846E-01 16056   0.100E+00    0.702E-01
DAV:   3    -0.132539607028E+04   -0.27830E-02   -0.38347E-02 14024   0.116E+00    0.819E-01
DAV:   4    -0.132539252379E+04    0.35465E-02   -0.92667E-03 14536   0.616E-01    0.414E-01
DAV:   5    -0.132539169976E+04    0.82403E-03   -0.45592E-03 14728   0.475E-01    0.290E-01
DAV:   6    -0.132539143632E+04    0.26344E-03   -0.22727E-03 15040   0.248E-01    0.175E-01
DAV:   7    -0.132539133474E+04    0.10159E-03   -0.12937E-03 14656   0.228E-01    0.119E-01
DAV:   8    -0.132539132864E+04    0.60954E-05   -0.63305E-04 16368   0.124E-01    0.822E-02
DAV:   9    -0.132539129486E+04    0.33779E-04   -0.29835E-04 14976   0.103E-01    0.492E-02
DAV:  10    -0.132539128794E+04    0.69160E-05   -0.12860E-04 15952   0.485E-02    0.285E-02
DAV:  11    -0.132539128864E+04   -0.69356E-06   -0.59422E-05 15432   0.424E-02    0.286E-02
DAV:  12    -0.132539128211E+04    0.65300E-05   -0.27399E-05 15416   0.277E-02    0.996E-03
DAV:  13    -0.132539128302E+04   -0.90932E-06   -0.11654E-05 18096   0.117E-02    0.102E-02
DAV:  14    -0.132539128248E+04    0.54242E-06   -0.34054E-06 15632   0.955E-03    0.443E-03
DAV:  15    -0.132539128252E+04   -0.40622E-07   -0.13038E-06 17368   0.391E-03    0.359E-03
DAV:  16    -0.132539128243E+04    0.84452E-07   -0.57039E-07 12488   0.419E-03
   9 F= -.14341832E+04 E0= -.14341318E+04  d E =-.384260E-01
       N       E                     dE             d eps       ncg     rms          rms(c)
DAV:   1    -0.132539628594E+04   -0.50034E-02   -0.49549E+00 11736   0.270E+00    0.236E-01
DAV:   2    -0.132540143155E+04   -0.51456E-02   -0.49711E-02 15192   0.547E-01    0.462E-01
DAV:   3    -0.132540076823E+04    0.66332E-03   -0.10489E-02 13568   0.520E-01    0.171E-01
DAV:   4    -0.132540082766E+04   -0.59427E-04   -0.25125E-03 15384   0.226E-01    0.191E-01
DAV:   5    -0.132540060873E+04    0.21893E-03   -0.14346E-03 15094   0.204E-01    0.668E-02
DAV:   6    -0.132540064320E+04   -0.34473E-04   -0.46999E-04 16528   0.937E-02    0.696E-02
DAV:   7    -0.132540061103E+04    0.32175E-04   -0.20859E-04 14854   0.855E-02    0.261E-02
DAV:   8    -0.132540061873E+04   -0.77073E-05   -0.11516E-04 20376   0.359E-02    0.299E-02
DAV:   9    -0.132540061218E+04    0.65504E-05   -0.32290E-05 16552   0.311E-02    0.989E-03
DAV:  10    -0.132540061281E+04   -0.62639E-06   -0.10976E-05 16184   0.995E-03    0.835E-03
DAV:  11    -0.132540061250E+04    0.31071E-06   -0.35262E-06 14624   0.939E-03    0.672E-03
DAV:  12    -0.132540061208E+04    0.42016E-06   -0.12797E-06 14016   0.531E-03    0.331E-03
DAV:  13    -0.132540061208E+04   -0.57917E-08   -0.71962E-07 13872   0.306E-03
  10 F= -.14341925E+04 E0= -.14341411E+04  d E =-.929599E-02
       N       E                     dE             d eps       ncg     rms          rms(c)
DAV:   1    -0.132537689964E+04    0.23712E-01   -0.29876E+01 11736   0.663E+00    0.613E-01
DAV:   2    -0.132541246762E+04   -0.35568E-01   -0.34586E-01 15280   0.143E+00    0.120E+00
DAV:   3    -0.132540811575E+04    0.43519E-02   -0.71197E-02 13504   0.135E+00    0.441E-01
DAV:   4    -0.132540848210E+04   -0.36636E-03   -0.16560E-02 15400   0.590E-01    0.488E-01
DAV:   5    -0.132540701174E+04    0.14704E-02   -0.91824E-03 15296   0.517E-01    0.164E-01
DAV:   6    -0.132540725166E+04   -0.23992E-03   -0.29884E-03 16496   0.234E-01    0.178E-01
DAV:   7    -0.132540704896E+04    0.20269E-03   -0.13477E-03 14568   0.218E-01    0.670E-02
DAV:   8    -0.132540709733E+04   -0.48368E-04   -0.71639E-04 20264   0.909E-02    0.735E-02
DAV:   9    -0.132540705911E+04    0.38222E-04   -0.21283E-04 16600   0.820E-02    0.283E-02
DAV:  10    -0.132540705997E+04   -0.86419E-06   -0.71945E-05 16224   0.284E-02    0.198E-02
DAV:  11    -0.132540705979E+04    0.18113E-06   -0.22912E-05 14696   0.241E-02    0.178E-02
DAV:  12    -0.132540705762E+04    0.21732E-05   -0.10520E-05 14848   0.162E-02    0.803E-03
DAV:  13    -0.132540705770E+04   -0.76267E-07   -0.48964E-06 16912   0.836E-03    0.690E-03
DAV:  14    -0.132540705751E+04    0.18830E-06   -0.24667E-06 14376   0.841E-03    0.326E-03
DAV:  15    -0.132540705749E+04    0.20707E-07   -0.69449E-07 13264   0.343E-03
  11 F= -.14341990E+04 E0= -.14341476E+04  d E =-.157599E-01
       N       E                     dE             d eps       ncg     rms          rms(c)
DAV:   1    -0.132540662671E+04    0.43080E-03   -0.10629E+00 11746   0.125E+00    0.106E-01
DAV:   2    -0.132540766567E+04   -0.10390E-02   -0.10404E-02 15304   0.237E-01    0.194E-01
DAV:   3    -0.132540757143E+04    0.94246E-04   -0.20287E-03 13476   0.227E-01    0.822E-02
DAV:   4    -0.132540756989E+04    0.15321E-05   -0.46021E-04 15096   0.100E-01    0.826E-02
DAV:   5    -0.132540753118E+04    0.38719E-04   -0.26769E-04 15096   0.891E-02    0.318E-02
DAV:   6    -0.132540753661E+04   -0.54327E-05   -0.91293E-05 16248   0.422E-02    0.304E-02
DAV:   7    -0.132540753095E+04    0.56587E-05   -0.43215E-05 15022   0.383E-02    0.126E-02
DAV:   8    -0.132540753218E+04   -0.12320E-05   -0.22866E-05 19768   0.162E-02    0.130E-02
DAV:   9    -0.132540753109E+04    0.10881E-05   -0.67239E-06 16150   0.136E-02    0.449E-03
DAV:  10    -0.132540753144E+04   -0.34241E-06   -0.23370E-06 17088   0.482E-03    0.418E-03
DAV:  11    -0.132540753136E+04    0.71486E-07   -0.74539E-07 13040   0.438E-03
  12 F= -.14341995E+04 E0= -.14341481E+04  d E =-.162191E-01
       N       E                     dE             d eps       ncg     rms          rms(c)
DAV:   1    -0.132540975185E+04   -0.22204E-02   -0.21587E+00 11736   0.184E+00    0.186E-01
DAV:   2    -0.132541275328E+04   -0.30014E-02   -0.24258E-02 14568   0.475E-01    0.454E-01
DAV:   3    -0.132541178541E+04    0.96786E-03   -0.79053E-03 13520   0.458E-01    0.129E-01
DAV:   4    -0.132541194552E+04   -0.16011E-03   -0.20531E-03 16832   0.188E-01    0.163E-01
DAV:   5    -0.132541177861E+04    0.16691E-03   -0.10152E-03 15104   0.174E-01    0.456E-02
DAV:   6    -0.132541181396E+04   -0.35352E-04   -0.36748E-04 18952   0.693E-02    0.549E-02
DAV:   7    -0.132541179084E+04    0.23122E-04   -0.96130E-05 14800   0.597E-02    0.191E-02
DAV:   8    -0.132541179379E+04   -0.29445E-05   -0.46074E-05 19944   0.221E-02    0.207E-02
DAV:   9    -0.132541179169E+04    0.20961E-05   -0.16838E-05 15976   0.225E-02    0.103E-02
DAV:  10    -0.132541179242E+04   -0.73385E-06   -0.71355E-06 16912   0.113E-02    0.921E-03
DAV:  11    -0.132541179185E+04    0.56949E-06   -0.35278E-06 15520   0.103E-02    0.389E-03
DAV:  12    -0.132541179163E+04    0.22569E-06   -0.11370E-06 14816   0.391E-03    0.185E-03
DAV:  13    -0.132541179166E+04   -0.31294E-07   -0.30478E-07  9472   0.267E-03
  13 F= -.14342037E+04 E0= -.14341523E+04  d E =-.428072E-02
       N       E                     dE             d eps       ncg     rms          rms(c)
DAV:   1    -0.132540690996E+04    0.48817E-02   -0.84302E+00 11736   0.364E+00    0.367E-01
DAV:   2    -0.132541858870E+04   -0.11679E-01   -0.95595E-02 14448   0.935E-01    0.890E-01
DAV:   3    -0.132541496129E+04    0.36274E-02   -0.30544E-02 13528   0.905E-01    0.254E-01
DAV:   4    -0.132541557341E+04   -0.61212E-03   -0.80193E-03 16784   0.368E-01    0.317E-01
DAV:   5    -0.132541494874E+04    0.62467E-03   -0.39180E-03 14920   0.340E-01    0.904E-02
DAV:   6    -0.132541508150E+04   -0.13276E-03   -0.14169E-03 18920   0.134E-01    0.106E-01
DAV:   7    -0.132541499763E+04    0.83862E-04   -0.36944E-04 14696   0.117E-01    0.393E-02
DAV:   8    -0.132541500828E+04   -0.10648E-04   -0.17496E-04 19784   0.443E-02    0.404E-02
DAV:   9    -0.132541500048E+04    0.78022E-05   -0.63979E-05 15960   0.444E-02    0.210E-02
DAV:  10    -0.132541500252E+04   -0.20370E-05   -0.28952E-05 16936   0.226E-02    0.181E-02
DAV:  11    -0.132541500058E+04    0.19397E-05   -0.14336E-05 15576   0.211E-02    0.869E-03
DAV:  12    -0.132541499980E+04    0.77477E-06   -0.48271E-06 16152   0.884E-03    0.359E-03
DAV:  13    -0.132541499987E+04   -0.73851E-07   -0.14325E-06 14648   0.519E-03    0.379E-03
DAV:  14    -0.132541499987E+04    0.46202E-08   -0.80994E-07 12872   0.462E-03
  14 F= -.14342070E+04 E0= -.14341556E+04  d E =-.758077E-02
       N       E                     dE             d eps       ncg     rms          rms(c)
DAV:   1    -0.132541494829E+04    0.51588E-04   -0.21754E+00 11736   0.184E+00    0.139E-01
DAV:   2    -0.132541691843E+04   -0.19701E-02   -0.22403E-02 15740   0.308E-01    0.207E-01
DAV:   3    -0.132541690459E+04    0.13840E-04   -0.31898E-03 13504   0.288E-01    0.120E-01
DAV:   4    -0.132541692437E+04   -0.19775E-04   -0.66718E-04 14032   0.156E-01    0.124E-01
DAV:   5    -0.132541680140E+04    0.12296E-03   -0.36439E-04 13886   0.116E-01    0.301E-02
DAV:   6    -0.132541681757E+04   -0.16170E-04   -0.18302E-04 18992   0.438E-02    0.360E-02
DAV:   7    -0.132541680949E+04    0.80835E-05   -0.54072E-05 15038   0.391E-02    0.135E-02
DAV:   8    -0.132541681182E+04   -0.23296E-05   -0.20740E-05 17544   0.199E-02    0.181E-02
DAV:   9    -0.132541680956E+04    0.22644E-05   -0.10807E-05 15520   0.195E-02    0.658E-03
DAV:  10    -0.132541681004E+04   -0.48781E-06   -0.41856E-06 18560   0.739E-03    0.594E-03
DAV:  11    -0.132541680977E+04    0.27453E-06   -0.13187E-06 14864   0.660E-03    0.292E-03
DAV:  12    -0.132541680959E+04    0.17878E-06   -0.35901E-07  9664   0.238E-03    0.164E-03
DAV:  13    -0.132541680962E+04   -0.31308E-07   -0.20509E-07  7472   0.208E-03
  15 F= -.14342089E+04 E0= -.14341575E+04  d E =-.182059E-02
       N       E                     dE             d eps       ncg     rms          rms(c)
DAV:   1    -0.132541520222E+04    0.16074E-02   -0.25765E+00 11736   0.200E+00    0.151E-01
DAV:   2    -0.132541753339E+04   -0.23312E-02   -0.26601E-02 15780   0.334E-01    0.222E-01
DAV:   3    -0.132541752554E+04    0.78487E-05   -0.37576E-03 13510   0.313E-01    0.131E-01
DAV:   4    -0.132541754061E+04   -0.15069E-04   -0.77885E-04 14048   0.169E-01    0.133E-01
DAV:   5    -0.132541739975E+04    0.14086E-03   -0.41923E-04 13910   0.124E-01    0.329E-02
DAV:   6    -0.132541741826E+04   -0.18512E-04   -0.21014E-04 18744   0.474E-02    0.393E-02
DAV:   7    -0.132541740892E+04    0.93468E-05   -0.64933E-05 14844   0.426E-02    0.149E-02
DAV:   8    -0.132541741174E+04   -0.28269E-05   -0.25411E-05 17632   0.216E-02    0.198E-02
DAV:   9    -0.132541740908E+04    0.26577E-05   -0.12784E-05 15576   0.213E-02    0.730E-03
DAV:  10    -0.132541740963E+04   -0.54882E-06   -0.50459E-06 18560   0.788E-03    0.617E-03
DAV:  11    -0.132541740934E+04    0.28915E-06   -0.15122E-06 15072   0.703E-03    0.336E-03
DAV:  12    -0.132541740913E+04    0.21260E-06   -0.43188E-07 10928   0.278E-03    0.173E-03
DAV:  13    -0.132541740917E+04   -0.40309E-07   -0.22540E-07  8110   0.190E-03
  16 F= -.14342095E+04 E0= -.14341582E+04  d E =-.243751E-02
       N       E                     dE             d eps       ncg     rms          rms(c)
DAV:   1    -0.132541746402E+04   -0.54886E-04   -0.86090E-01 11752   0.117E+00    0.972E-02
DAV:   2    -0.132541841695E+04   -0.95293E-03   -0.96505E-03 15320   0.247E-01    0.219E-01
DAV:   3    -0.132541825881E+04    0.15814E-03   -0.21230E-03 13536   0.219E-01    0.602E-02
DAV:   4    -0.132541834368E+04   -0.84866E-04   -0.53916E-04 15496   0.115E-01    0.107E-01
DAV:   5    -0.132541825677E+04    0.86901E-04   -0.30994E-04 14656   0.101E-01    0.163E-02
DAV:   6    -0.132541827406E+04   -0.17291E-04   -0.13040E-04 19848   0.381E-02    0.325E-02
DAV:   7    -0.132541826520E+04    0.88679E-05   -0.29109E-05 15720   0.337E-02    0.839E-03
DAV:   8    -0.132541826592E+04   -0.71836E-06   -0.10815E-05 18448   0.114E-02    0.953E-03
DAV:   9    -0.132541826537E+04    0.54059E-06   -0.29342E-06 14704   0.966E-03    0.471E-03
DAV:  10    -0.132541826561E+04   -0.23426E-06   -0.13838E-06 17088   0.474E-03    0.523E-03
DAV:  11    -0.132541826548E+04    0.13221E-06   -0.78173E-07 13672   0.500E-03    0.284E-03
DAV:  12    -0.132541826536E+04    0.12153E-06   -0.22532E-07  7328   0.238E-03    0.139E-03
DAV:  13    -0.132541826538E+04   -0.28856E-07   -0.12132E-07  6768   0.193E-03
  17 F= -.14342103E+04 E0= -.14341590E+04  d E =-.873906E-03
       N       E                     dE             d eps       ncg     rms          rms(c)
DAV:   1    -0.132541796268E+04    0.30267E-03   -0.47021E-01 11752   0.862E-01    0.719E-02
DAV:   2    -0.132541848191E+04   -0.51923E-03   -0.52563E-03 15272   0.183E-01    0.162E-01
DAV:   3    -0.132541839543E+04    0.86482E-04   -0.11622E-03 13512   0.162E-01    0.441E-02
DAV:   4    -0.132541844307E+04   -0.47646E-04   -0.29626E-04 15464   0.854E-02    0.800E-02
DAV:   5    -0.132541839488E+04    0.48196E-04   -0.17104E-04 14576   0.751E-02    0.121E-02
DAV:   6    -0.132541840441E+04   -0.95345E-05   -0.72672E-05 19864   0.284E-02    0.240E-02
DAV:   7    -0.132541839962E+04    0.47937E-05   -0.15944E-05 15696   0.248E-02    0.636E-03
DAV:   8    -0.132541840003E+04   -0.41076E-06   -0.59433E-06 18248   0.858E-03    0.712E-03
DAV:   9    -0.132541839974E+04    0.29425E-06   -0.16585E-06 14576   0.722E-03    0.356E-03
DAV:  10    -0.132541839985E+04   -0.11827E-06   -0.73032E-07 14160   0.379E-03    0.414E-03
DAV:  11    -0.132541839977E+04    0.79803E-07   -0.46444E-07 11552   0.388E-03
  18 F= -.14342105E+04 E0= -.14341591E+04  d E =-.102278E-02
       N       E                     dE             d eps       ncg     rms          rms(c)
DAV:   1    -0.132541786129E+04    0.53856E-03   -0.11274E+00 11736   0.132E+00    0.109E-01
DAV:   2    -0.132541891973E+04   -0.10584E-02   -0.12077E-02 15836   0.217E-01    0.155E-01
DAV:   3    -0.132541890092E+04    0.18812E-04   -0.16201E-03 13544   0.201E-01    0.754E-02
DAV:   4    -0.132541887006E+04    0.30862E-04   -0.26589E-04 13672   0.102E-01    0.492E-02
DAV:   5    -0.132541887687E+04   -0.68084E-05   -0.23651E-04 16550   0.794E-02    0.475E-02
DAV:   6    -0.132541886312E+04    0.13753E-04   -0.77857E-05 14472   0.435E-02    0.185E-02
DAV:   7    -0.132541886387E+04   -0.75504E-06   -0.33614E-05 16150   0.241E-02    0.154E-02
DAV:   8    -0.132541886314E+04    0.73046E-06   -0.14146E-05 16136   0.142E-02    0.714E-03
DAV:   9    -0.132541886441E+04   -0.12707E-05   -0.61645E-06 16248   0.130E-02    0.127E-02
DAV:  10    -0.132541886324E+04    0.11714E-05   -0.28805E-06 15120   0.107E-02    0.402E-03
DAV:  11    -0.132541886324E+04   -0.91677E-09   -0.14548E-06 16344   0.580E-03    0.372E-03
DAV:  12    -0.132541886309E+04    0.14600E-06   -0.44188E-07 10392   0.364E-03    0.119E-03
DAV:  13    -0.132541886314E+04   -0.44805E-07   -0.12929E-07  7248   0.133E-03
  19 F= -.14342109E+04 E0= -.14341596E+04  d E =-.426102E-03
       N       E                     dE             d eps       ncg     rms          rms(c)
DAV:   1    -0.132541886352E+04   -0.42364E-06   -0.53784E-04 11868   0.290E-02    0.241E-03
DAV:   2    -0.132541886400E+04   -0.48024E-06   -0.57670E-06 15768   0.524E-03    0.369E-03
DAV:   3    -0.132541886398E+04    0.17171E-07   -0.88503E-07 12392   0.512E-03    0.186E-03
DAV:   4    -0.132541886398E+04    0.29177E-08   -0.13945E-07  7248   0.213E-03    0.127E-03
DAV:   5    -0.132541886396E+04    0.15309E-07   -0.10367E-07  7040   0.184E-03    0.129E-03
DAV:   6    -0.132541886393E+04    0.32880E-07   -0.49804E-08  6312   0.109E-03
  20 F= -.14342109E+04 E0= -.14341596E+04  d E =-.426108E-03
       N       E                     dE             d eps       ncg     rms          rms(c)
DAV:   1    -0.132541893472E+04   -0.70762E-04   -0.13010E-01 11752   0.454E-01    0.444E-02
DAV:   2    -0.132541910906E+04   -0.17434E-03   -0.17401E-03 15072   0.118E-01    0.916E-02
DAV:   3    -0.132541907376E+04    0.35300E-04   -0.42506E-04 13576   0.102E-01    0.205E-02
DAV:   4    -0.132541907923E+04   -0.54707E-05   -0.89913E-05 16192   0.372E-02    0.286E-02
DAV:   5    -0.132541907526E+04    0.39723E-05   -0.42885E-05 14862   0.345E-02    0.930E-03
DAV:   6    -0.132541907630E+04   -0.10454E-05   -0.13995E-05 15912   0.129E-02    0.100E-02
DAV:   7    -0.132541907594E+04    0.36246E-06   -0.53664E-06 14598   0.108E-02    0.403E-03
DAV:   8    -0.132541907617E+04   -0.23328E-06   -0.24246E-06 17248   0.510E-03    0.553E-03
DAV:   9    -0.132541907601E+04    0.16445E-06   -0.94706E-07 13848   0.548E-03    0.198E-03
DAV:  10    -0.132541907613E+04   -0.11609E-06   -0.41483E-07 10544   0.319E-03    0.269E-03
DAV:  11    -0.132541907609E+04    0.41284E-07   -0.23963E-07  8432   0.262E-03
  21 F= -.14342111E+04 E0= -.14341598E+04  d E =-.199103E-03
       N       E                     dE             d eps       ncg     rms          rms(c)
DAV:   1    -0.132541907711E+04   -0.98502E-06   -0.14774E-02 11776   0.153E-01    0.148E-02
DAV:   2    -0.132541909670E+04   -0.19591E-04   -0.19921E-04 15168   0.387E-02    0.298E-02
DAV:   3    -0.132541909314E+04    0.35625E-05   -0.45648E-05 13592   0.334E-02    0.714E-03
DAV:   4    -0.132541909361E+04   -0.47325E-06   -0.94219E-06 15848   0.122E-02    0.920E-03
DAV:   5    -0.132541909327E+04    0.34378E-06   -0.46749E-06 14758   0.113E-02    0.335E-03
DAV:   6    -0.132541909339E+04   -0.12456E-06   -0.15997E-06 14632   0.435E-03    0.291E-03
DAV:   7    -0.132541909336E+04    0.32371E-07   -0.54033E-07  9804   0.360E-03
  22 F= -.14342111E+04 E0= -.14341598E+04  d E =-.212167E-03
       N       E                     dE             d eps       ncg     rms          rms(c)
DAV:   1    -0.132541910440E+04   -0.11008E-04   -0.29361E-02 11798   0.215E-01    0.187E-02
DAV:   2    -0.132541913498E+04   -0.30574E-04   -0.34666E-04 16040   0.373E-02    0.261E-02
DAV:   3    -0.132541913479E+04    0.19005E-06   -0.47458E-05 13694   0.348E-02    0.160E-02
DAV:   4    -0.132541913426E+04    0.52227E-06   -0.10652E-05 13968   0.173E-02    0.141E-02
DAV:   5    -0.132541913309E+04    0.11751E-05   -0.45327E-06 14424   0.124E-02    0.438E-03
DAV:   6    -0.132541913337E+04   -0.28651E-06   -0.29833E-06 18040   0.741E-03    0.598E-03
DAV:   7    -0.132541913309E+04    0.28325E-06   -0.11353E-06 13960   0.640E-03    0.174E-03
DAV:   8    -0.132541913311E+04   -0.16240E-07   -0.41264E-07 10472   0.200E-03
  23 F= -.14342112E+04 E0= -.14341598E+04  d E =-.334629E-04
       N       E                     dE             d eps       ncg     rms          rms(c)
DAV:   1    -0.132541913472E+04   -0.16281E-05   -0.51399E-03 11804   0.899E-02    0.809E-03
DAV:   2    -0.132541914035E+04   -0.56259E-05   -0.60913E-05 15632   0.172E-02    0.132E-02
DAV:   3    -0.132541914002E+04    0.32510E-06   -0.10580E-05 13458   0.162E-02    0.614E-03
DAV:   4    -0.132541914010E+04   -0.83775E-07   -0.22012E-06 14126   0.740E-03    0.674E-03
DAV:   5    -0.132541913982E+04    0.28655E-06   -0.11613E-06 13776   0.623E-03    0.185E-03
DAV:   6    -0.132541913987E+04   -0.49928E-07   -0.46580E-07 11392   0.333E-03
  24 F= -.14342112E+04 E0= -.14341598E+04  d E =-.375873E-04
       N       E                     dE             d eps       ncg     rms          rms(c)
DAV:   1    -0.132541912957E+04    0.10247E-04   -0.10438E-02 11776   0.124E-01    0.118E-02
DAV:   2    -0.132541914125E+04   -0.11684E-04   -0.12220E-04 15800   0.230E-02    0.197E-02
DAV:   3    -0.132541914042E+04    0.83937E-06   -0.16880E-05 13368   0.198E-02    0.786E-03
DAV:   4    -0.132541914103E+04   -0.61960E-06   -0.42892E-06 14080   0.120E-02    0.113E-02
DAV:   5    -0.132541914028E+04    0.75279E-06   -0.31771E-06 14416   0.110E-02    0.467E-03
DAV:   6    -0.132541914031E+04   -0.25924E-07   -0.12945E-06 15688   0.390E-03    0.243E-03
DAV:   7    -0.132541914030E+04    0.84547E-08   -0.40170E-07  9976   0.331E-03
  25 F= -.14342112E+04 E0= -.14341598E+04  d E =-.604602E-05
       N       E                     dE             d eps       ncg     rms          rms(c)
DAV:   1    -0.132541914071E+04   -0.39883E-06   -0.10763E-04 11876   0.127E-02    0.152E-03
DAV:   2    -0.132541914087E+04   -0.16417E-06   -0.12878E-06 14680   0.358E-03    0.340E-03
DAV:   3    -0.132541914082E+04    0.55574E-07   -0.44625E-07 10880   0.349E-03    0.902E-04
DAV:   4    -0.132541914083E+04   -0.10434E-07   -0.97490E-08  6488   0.185E-03    0.170E-03
DAV:   5    -0.132541914080E+04    0.29366E-07   -0.59157E-08  6264   0.147E-03    0.232E-04
DAV:   6    -0.132541914080E+04   -0.83746E-08   -0.22082E-08  6168   0.508E-04
  26 F= -.14342112E+04 E0= -.14341598E+04  d E =-.597897E-05
       N       E                     dE             d eps       ncg     rms          rms(c)
DAV:   1    -0.132541913903E+04    0.17657E-05   -0.49505E-03 11776   0.880E-02    0.706E-03
DAV:   2    -0.132541914397E+04   -0.49402E-05   -0.54185E-05 15792   0.166E-02    0.126E-02
DAV:   3    -0.132541914352E+04    0.44612E-06   -0.91960E-06 13576   0.145E-02    0.403E-03
DAV:   4    -0.132541914355E+04   -0.28653E-07   -0.17438E-06 14272   0.593E-03    0.463E-03
DAV:   5    -0.132541914343E+04    0.12096E-06   -0.84655E-07 12728   0.481E-03    0.150E-03
DAV:   6    -0.132541914346E+04   -0.23108E-07   -0.30831E-07  9344   0.244E-03
  27 F= -.14342112E+04 E0= -.14341598E+04  d E =-.288413E-05
       N       E                     dE             d eps       ncg     rms          rms(c)
DAV:   1    -0.132541914335E+04    0.84132E-07   -0.79118E-07 11712   0.247E-03    0.579E-04
DAV:   2    -0.132541914338E+04   -0.28005E-07   -0.12592E-07  6800   0.169E-03    0.156E-03
DAV:   3    -0.132541914336E+04    0.18059E-07   -0.49272E-08  6224   0.145E-03    0.314E-04
DAV:   4    -0.132541914336E+04    0.30705E-08   -0.20246E-08  6176   0.603E-04    0.534E-04
DAV:   5    -0.132541914335E+04    0.26921E-08   -0.16150E-08  6176   0.539E-04    0.155E-04
DAV:   6    -0.132541914335E+04   -0.23574E-08   -0.69881E-09  6184   0.235E-04
  28 F= -.14342112E+04 E0= -.14341598E+04  d E =-.278070E-05
       N       E                     dE             d eps       ncg     rms          rms(c)
DAV:   1    -0.132541914495E+04   -0.15982E-05   -0.83403E-04 11790   0.361E-02    0.305E-03
DAV:   2    -0.132541914575E+04   -0.79646E-06   -0.97221E-06 16288   0.572E-03    0.346E-03
DAV:   3    -0.132541914579E+04   -0.38614E-07   -0.10161E-06 13156   0.541E-03    0.312E-03
DAV:   4    -0.132541914573E+04    0.58302E-07   -0.27958E-07 10896   0.346E-03    0.232E-03
DAV:   5    -0.132541914568E+04    0.46311E-07   -0.10469E-07  6592   0.223E-03    0.739E-04
DAV:   6    -0.132541914567E+04    0.10521E-07   -0.58722E-08  6264   0.107E-03
  29 F= -.14342112E+04 E0= -.14341598E+04  d E =-.122196E-05
       N       E                     dE             d eps       ncg     rms          rms(c)
DAV:   1    -0.132541914600E+04   -0.32176E-06   -0.65469E-05 11804   0.102E-02    0.100E-03
DAV:   2    -0.132541914607E+04   -0.69893E-07   -0.78825E-07 13944   0.206E-03    0.146E-03
DAV:   3    -0.132541914607E+04    0.62500E-08   -0.16817E-07  6456   0.217E-03    0.779E-04
DAV:   4    -0.132541914606E+04    0.71013E-08   -0.32587E-08  6128   0.971E-04    0.689E-04
DAV:   5    -0.132541914606E+04    0.24665E-08   -0.22374E-08  6096   0.786E-04    0.278E-04
DAV:   6    -0.132541914606E+04    0.68394E-09   -0.11738E-08  6096   0.447E-04
  30 F= -.14342112E+04 E0= -.14341598E+04  d E =-.130200E-05
