NiAl                                    
            1
    14.500000    0.000000    0.000000
     0.000000   14.500000    0.000000
     0.000000    0.000000   14.500000
   Ni   Al   O 
   125   125     1
Direct configuration=     1
   0.00000000  0.00000000  0.00000000
   0.00000000  0.00000000  0.20000000
   0.00000000  0.00000000  0.40000000
   0.00000000  0.00000000  0.60000000
   0.00000000  0.00000000  0.80000000
   0.00000000  0.20000000  0.00000000
   0.00000000  0.20000000  0.20000000
   0.00000000  0.20000000  0.40000000
   0.00000000  0.20000000  0.60000000
   0.00000000  0.20000000  0.80000000
   0.00000000  0.40000000  0.00000000
   0.00000000  0.40000000  0.20000000
   0.00000000  0.40000000  0.40000000
   0.00000000  0.40000000  0.60000000
   0.00000000  0.40000000  0.80000000
   0.00000000  0.60000000  0.00000000
   0.00000000  0.60000000  0.20000000
   0.00000000  0.60000000  0.40000000
   0.00000000  0.60000000  0.60000000
   0.00000000  0.60000000  0.80000000
   0.00000000  0.80000000  0.00000000
   0.00000000  0.80000000  0.20000000
   0.00000000  0.80000000  0.40000000
   0.00000000  0.80000000  0.60000000
   0.00000000  0.80000000  0.80000000
   0.20000000  0.00000000  0.00000000
   0.20000000  0.00000000  0.20000000
   0.20000000  0.00000000  0.40000000
   0.20000000  0.00000000  0.60000000
   0.20000000  0.00000000  0.80000000
   0.20000000  0.20000000  0.00000000
   0.20000000  0.20000000  0.20000000
   0.20000000  0.20000000  0.40000000
   0.20000000  0.20000000  0.60000000
   0.20000000  0.20000000  0.80000000
   0.20000000  0.40000000  0.00000000
   0.20000000  0.40000000  0.20000000
   0.20000000  0.40000000  0.40000000
   0.20000000  0.40000000  0.60000000
   0.20000000  0.40000000  0.80000000
   0.20000000  0.60000000  0.00000000
   0.20000000  0.60000000  0.20000000
   0.20000000  0.60000000  0.40000000
   0.20000000  0.60000000  0.60000000
   0.20000000  0.60000000  0.80000000
   0.20000000  0.80000000  0.00000000
   0.20000000  0.80000000  0.20000000
   0.20000000  0.80000000  0.40000000
   0.20000000  0.80000000  0.60000000
   0.20000000  0.80000000  0.80000000
   0.40000000  0.00000000  0.00000000
   0.40000000  0.00000000  0.20000000
   0.40000000  0.00000000  0.40000000
   0.40000000  0.00000000  0.60000000
   0.40000000  0.00000000  0.80000000
   0.40000000  0.20000000  0.00000000
   0.40000000  0.20000000  0.20000000
   0.40000000  0.20000000  0.40000000
   0.40000000  0.20000000  0.60000000
   0.40000000  0.20000000  0.80000000
   0.40000000  0.40000000  0.00000000
   0.40000000  0.40000000  0.20000000
   0.40000000  0.40000000  0.40000000
   0.40000000  0.40000000  0.60000000
   0.40000000  0.40000000  0.80000000
   0.40000000  0.60000000  0.00000000
   0.40000000  0.60000000  0.20000000
   0.40000000  0.60000000  0.40000000
   0.40000000  0.60000000  0.60000000
   0.40000000  0.60000000  0.80000000
   0.40000000  0.80000000  0.00000000
   0.40000000  0.80000000  0.20000000
   0.40000000  0.80000000  0.40000000
   0.40000000  0.80000000  0.60000000
   0.40000000  0.80000000  0.80000000
   0.60000000  0.00000000  0.00000000
   0.60000000  0.00000000  0.20000000
   0.60000000  0.00000000  0.40000000
   0.60000000  0.00000000  0.60000000
   0.60000000  0.00000000  0.80000000
   0.60000000  0.20000000  0.00000000
   0.60000000  0.20000000  0.20000000
   0.60000000  0.20000000  0.40000000
   0.60000000  0.20000000  0.60000000
   0.60000000  0.20000000  0.80000000
   0.60000000  0.40000000  0.00000000
   0.60000000  0.40000000  0.20000000
   0.60000000  0.40000000  0.40000000
   0.60000000  0.40000000  0.60000000
   0.60000000  0.40000000  0.80000000
   0.60000000  0.60000000  0.00000000
   0.60000000  0.60000000  0.20000000
   0.60000000  0.60000000  0.40000000
   0.60000000  0.60000000  0.60000000
   0.60000000  0.60000000  0.80000000
   0.60000000  0.80000000  0.00000000
   0.60000000  0.80000000  0.20000000
   0.60000000  0.80000000  0.40000000
   0.60000000  0.80000000  0.60000000
   0.60000000  0.80000000  0.80000000
   0.80000000  0.00000000  0.00000000
   0.80000000  0.00000000  0.20000000
   0.80000000  0.00000000  0.40000000
   0.80000000  0.00000000  0.60000000
   0.80000000  0.00000000  0.80000000
   0.80000000  0.20000000  0.00000000
   0.80000000  0.20000000  0.20000000
   0.80000000  0.20000000  0.40000000
   0.80000000  0.20000000  0.60000000
   0.80000000  0.20000000  0.80000000
   0.80000000  0.40000000  0.00000000
   0.80000000  0.40000000  0.20000000
   0.80000000  0.40000000  0.40000000
   0.80000000  0.40000000  0.60000000
   0.80000000  0.40000000  0.80000000
   0.80000000  0.60000000  0.00000000
   0.80000000  0.60000000  0.20000000
   0.80000000  0.60000000  0.40000000
   0.80000000  0.60000000  0.60000000
   0.80000000  0.60000000  0.80000000
   0.80000000  0.80000000  0.00000000
   0.80000000  0.80000000  0.20000000
   0.80000000  0.80000000  0.40000000
   0.80000000  0.80000000  0.60000000
   0.80000000  0.80000000  0.80000000
   0.10000000  0.10000000  0.10000000
   0.10000000  0.10000000  0.30000000
   0.10000000  0.10000000  0.50000000
   0.10000000  0.10000000  0.70000000
   0.10000000  0.10000000  0.90000000
   0.10000000  0.30000000  0.10000000
   0.10000000  0.30000000  0.30000000
   0.10000000  0.30000000  0.50000000
   0.10000000  0.30000000  0.70000000
   0.10000000  0.30000000  0.90000000
   0.10000000  0.50000000  0.10000000
   0.10000000  0.50000000  0.30000000
   0.10000000  0.50000000  0.50000000
   0.10000000  0.50000000  0.70000000
   0.10000000  0.50000000  0.90000000
   0.10000000  0.70000000  0.10000000
   0.10000000  0.70000000  0.30000000
   0.10000000  0.70000000  0.50000000
   0.10000000  0.70000000  0.70000000
   0.10000000  0.70000000  0.90000000
   0.10000000  0.90000000  0.10000000
   0.10000000  0.90000000  0.30000000
   0.10000000  0.90000000  0.50000000
   0.10000000  0.90000000  0.70000000
   0.10000000  0.90000000  0.90000000
   0.30000000  0.10000000  0.10000000
   0.30000000  0.10000000  0.30000000
   0.30000000  0.10000000  0.50000000
   0.30000000  0.10000000  0.70000000
   0.30000000  0.10000000  0.90000000
   0.30000000  0.30000000  0.10000000
   0.30000000  0.30000000  0.30000000
   0.30000000  0.30000000  0.50000000
   0.30000000  0.30000000  0.70000000
   0.30000000  0.30000000  0.90000000
   0.30000000  0.50000000  0.10000000
   0.30000000  0.50000000  0.30000000
   0.30000000  0.50000000  0.50000000
   0.30000000  0.50000000  0.70000000
   0.30000000  0.50000000  0.90000000
   0.30000000  0.70000000  0.10000000
   0.30000000  0.70000000  0.30000000
   0.30000000  0.70000000  0.50000000
   0.30000000  0.70000000  0.70000000
   0.30000000  0.70000000  0.90000000
   0.30000000  0.90000000  0.10000000
   0.30000000  0.90000000  0.30000000
   0.30000000  0.90000000  0.50000000
   0.30000000  0.90000000  0.70000000
   0.30000000  0.90000000  0.90000000
   0.50000000  0.10000000  0.10000000
   0.50000000  0.10000000  0.30000000
   0.50000000  0.10000000  0.50000000
   0.50000000  0.10000000  0.70000000
   0.50000000  0.10000000  0.90000000
   0.50000000  0.30000000  0.10000000
   0.50000000  0.30000000  0.30000000
   0.50000000  0.30000000  0.50000000
   0.50000000  0.30000000  0.70000000
   0.50000000  0.30000000  0.90000000
   0.50000000  0.50000000  0.10000000
   0.50000000  0.50000000  0.30000000
   0.50000000  0.50000000  0.50000000
   0.50000000  0.50000000  0.70000000
   0.50000000  0.50000000  0.90000000
   0.50000000  0.70000000  0.10000000
   0.50000000  0.70000000  0.30000000
   0.50000000  0.70000000  0.50000000
   0.50000000  0.70000000  0.70000000
   0.50000000  0.70000000  0.90000000
   0.50000000  0.90000000  0.10000000
   0.50000000  0.90000000  0.30000000
   0.50000000  0.90000000  0.50000000
   0.50000000  0.90000000  0.70000000
   0.50000000  0.90000000  0.90000000
   0.70000000  0.10000000  0.10000000
   0.70000000  0.10000000  0.30000000
   0.70000000  0.10000000  0.50000000
   0.70000000  0.10000000  0.70000000
   0.70000000  0.10000000  0.90000000
   0.70000000  0.30000000  0.10000000
   0.70000000  0.30000000  0.30000000
   0.70000000  0.30000000  0.50000000
   0.70000000  0.30000000  0.70000000
   0.70000000  0.30000000  0.90000000
   0.70000000  0.50000000  0.10000000
   0.70000000  0.50000000  0.30000000
   0.70000000  0.50000000  0.50000000
   0.70000000  0.50000000  0.70000000
   0.70000000  0.50000000  0.90000000
   0.70000000  0.70000000  0.10000000
   0.70000000  0.70000000  0.30000000
   0.70000000  0.70000000  0.50000000
   0.70000000  0.70000000  0.70000000
   0.70000000  0.70000000  0.90000000
   0.70000000  0.90000000  0.10000000
   0.70000000  0.90000000  0.30000000
   0.70000000  0.90000000  0.50000000
   0.70000000  0.90000000  0.70000000
   0.70000000  0.90000000  0.90000000
   0.90000000  0.10000000  0.10000000
   0.90000000  0.10000000  0.30000000
   0.90000000  0.10000000  0.50000000
   0.90000000  0.10000000  0.70000000
   0.90000000  0.10000000  0.90000000
   0.90000000  0.30000000  0.10000000
   0.90000000  0.30000000  0.30000000
   0.90000000  0.30000000  0.50000000
   0.90000000  0.30000000  0.70000000
   0.90000000  0.30000000  0.90000000
   0.90000000  0.50000000  0.10000000
   0.90000000  0.50000000  0.30000000
   0.90000000  0.50000000  0.50000000
   0.90000000  0.50000000  0.70000000
   0.90000000  0.50000000  0.90000000
   0.90000000  0.70000000  0.10000000
   0.90000000  0.70000000  0.30000000
   0.90000000  0.70000000  0.50000000
   0.90000000  0.70000000  0.70000000
   0.90000000  0.70000000  0.90000000
   0.90000000  0.90000000  0.10000000
   0.90000000  0.90000000  0.30000000
   0.90000000  0.90000000  0.50000000
   0.90000000  0.90000000  0.70000000
   0.90000000  0.90000000  0.90000000
   0.40000000  0.20000000  0.90000000
Direct configuration=     2
   0.00001407 -0.00000637  0.00000210
  -0.00000613  0.00000610  0.19998881
  -0.00000372  0.00000679  0.40000000
  -0.00000613  0.00000610  0.60001119
   0.00001407 -0.00000637  0.79999790
  -0.00006010  0.20000000 -0.00002475
   0.00000629  0.20000000  0.20001513
   0.00000509  0.20000000  0.40000000
   0.00000629  0.20000000  0.59998487
  -0.00006010  0.20000000  0.80002475
   0.00001407  0.40000637  0.00000210
  -0.00000613  0.39999390  0.19998881
  -0.00000372  0.39999321  0.40000000
  -0.00000613  0.39999390  0.60001119
   0.00001407  0.40000637  0.79999790
   0.00000959  0.59999041 -0.00000124
   0.00001437  0.59998563  0.20000563
   0.00000688  0.59999312  0.40000000
   0.00001437  0.59998563  0.59999437
   0.00000959  0.59999041  0.80000124
   0.00000959  0.80000959 -0.00000124
   0.00001437  0.80001437  0.20000563
   0.00000688  0.80000688  0.40000000
   0.00001437  0.80001437  0.59999437
   0.00000959  0.80000959  0.80000124
   0.20005293  0.00005293  0.00004753
   0.19999119 -0.00000881  0.19999768
   0.19999764 -0.00000236  0.40000000
   0.19999119 -0.00000881  0.60000232
   0.20005293  0.00005293  0.79995247
   0.19988792  0.20000000 -0.00015503
   0.20001188  0.20000000  0.19991595
   0.19998546  0.20000000  0.40000000
   0.20001188  0.20000000  0.60008405
   0.19988792  0.20000000  0.80015503
   0.20005293  0.39994707  0.00004753
   0.19999119  0.40000881  0.19999768
   0.19999764  0.40000236  0.40000000
   0.19999119  0.40000881  0.60000232
   0.20005293  0.39994707  0.79995247
   0.19999363  0.59998593  0.00000210
   0.20000610  0.60000613  0.19998881
   0.20000679  0.60000372  0.40000000
   0.20000610  0.60000613  0.60001119
   0.19999363  0.59998593  0.79999790
   0.19999363  0.80001407  0.00000210
   0.20000610  0.79999387  0.19998881
   0.20000679  0.79999628  0.40000000
   0.20000610  0.79999387  0.60001119
   0.19999363  0.80001407  0.79999790
   0.40000000 -0.00011208 -0.00015503
   0.40000000  0.00001188  0.19991595
   0.40000000 -0.00001454  0.40000000
   0.40000000  0.00001188  0.60008405
   0.40000000 -0.00011208  0.80015503
   0.40000000  0.20000000  0.02687777
   0.40000000  0.20000000  0.19946032
   0.40000000  0.20000000  0.40000000
   0.40000000  0.20000000  0.60053968
   0.40000000  0.20000000  0.77312223
   0.40000000  0.40011208 -0.00015503
   0.40000000  0.39998812  0.19991595
   0.40000000  0.40001454  0.40000000
   0.40000000  0.39998812  0.60008405
   0.40000000  0.40011208  0.80015503
   0.40000000  0.60006010 -0.00002475
   0.40000000  0.59999371  0.20001513
   0.40000000  0.59999491  0.40000000
   0.40000000  0.59999371  0.59998487
   0.40000000  0.60006010  0.80002475
   0.40000000  0.79993990 -0.00002475
   0.40000000  0.80000629  0.20001513
   0.40000000  0.80000509  0.40000000
   0.40000000  0.80000629  0.59998487
   0.40000000  0.79993990  0.80002475
   0.59994707  0.00005293  0.00004753
   0.60000881 -0.00000881  0.19999768
   0.60000236 -0.00000236  0.40000000
   0.60000881 -0.00000881  0.60000232
   0.59994707  0.00005293  0.79995247
   0.60011208  0.20000000 -0.00015503
   0.59998812  0.20000000  0.19991595
   0.60001454  0.20000000  0.40000000
   0.59998812  0.20000000  0.60008405
   0.60011208  0.20000000  0.80015503
   0.59994707  0.39994707  0.00004753
   0.60000881  0.40000881  0.19999768
   0.60000236  0.40000236  0.40000000
   0.60000881  0.40000881  0.60000232
   0.59994707  0.39994707  0.79995247
   0.60000637  0.59998593  0.00000210
   0.59999390  0.60000613  0.19998881
   0.59999321  0.60000372  0.40000000
   0.59999390  0.60000613  0.60001119
   0.60000637  0.59998593  0.79999790
   0.60000637  0.80001407  0.00000210
   0.59999390  0.79999387  0.19998881
   0.59999321  0.79999628  0.40000000
   0.59999390  0.79999387  0.60001119
   0.60000637  0.80001407  0.79999790
   0.79998593 -0.00000637  0.00000210
   0.80000613  0.00000610  0.19998881
   0.80000372  0.00000679  0.40000000
   0.80000613  0.00000610  0.60001119
   0.79998593 -0.00000637  0.79999790
   0.80006010  0.20000000 -0.00002475
   0.79999371  0.20000000  0.20001513
   0.79999491  0.20000000  0.40000000
   0.79999371  0.20000000  0.59998487
   0.80006010  0.20000000  0.80002475
   0.79998593  0.40000637  0.00000210
   0.80000613  0.39999390  0.19998881
   0.80000372  0.39999321  0.40000000
   0.80000613  0.39999390  0.60001119
   0.79998593  0.40000637  0.79999790
   0.79999041  0.59999041 -0.00000124
   0.79998563  0.59998563  0.20000563
   0.79999312  0.59999312  0.40000000
   0.79998563  0.59998563  0.59999437
   0.79999041  0.59999041  0.80000124
   0.79999041  0.80000959 -0.00000124
   0.79998563  0.80001437  0.20000563
   0.79999312  0.80000688  0.40000000
   0.79998563  0.80001437  0.59999437
   0.79999041  0.80000959  0.80000124
   0.09997911  0.10000935  0.10002221
   0.10000768  0.10001495  0.29999500
   0.10000768  0.10001495  0.50000500
   0.09997911  0.10000935  0.69997779
   0.09994934  0.10001886  0.90000000
   0.09997911  0.29999065  0.10002221
   0.10000768  0.29998505  0.29999500
   0.10000768  0.29998505  0.50000500
   0.09997911  0.29999065  0.69997779
   0.09994934  0.29998114  0.90000000
   0.09998469  0.50001531  0.10002096
   0.09998148  0.50001852  0.29999414
   0.09998148  0.50001852  0.50000586
   0.09998469  0.50001531  0.69997904
   0.10001003  0.49998997  0.90000000
   0.09997870  0.70000000  0.10000749
   0.09998266  0.70000000  0.29999594
   0.09998266  0.70000000  0.50000406
   0.09997870  0.70000000  0.69999251
   0.09999933  0.70000000  0.90000000
   0.09998469  0.89998469  0.10002096
   0.09998148  0.89998148  0.29999414
   0.09998148  0.89998148  0.50000586
   0.09998469  0.89998469  0.69997904
   0.10001003  0.90001003  0.90000000
   0.29985972  0.09985972  0.10024933
   0.30002799  0.10002799  0.30001697
   0.30002799  0.10002799  0.49998303
   0.29985972  0.09985972  0.69975067
   0.29845131  0.09845131  0.90000000
   0.29985972  0.30014028  0.10024933
   0.30002799  0.29997201  0.30001697
   0.30002799  0.29997201  0.49998303
   0.29985972  0.30014028  0.69975067
   0.29845131  0.30154869  0.90000000
   0.30000935  0.50002089  0.10002221
   0.30001495  0.49999232  0.29999500
   0.30001495  0.49999232  0.50000500
   0.30000935  0.50002089  0.69997779
   0.30001886  0.50005066  0.90000000
   0.30000924  0.70000000  0.10002376
   0.30002532  0.70000000  0.29998938
   0.30002532  0.70000000  0.50001062
   0.30000924  0.70000000  0.69997624
   0.29998287  0.70000000  0.90000000
   0.30000935  0.89997911  0.10002221
   0.30001495  0.90000768  0.29999500
   0.30001495  0.90000768  0.50000500
   0.30000935  0.89997911  0.69997779
   0.30001886  0.89994934  0.90000000
   0.50014028  0.09985972  0.10024933
   0.49997201  0.10002799  0.30001697
   0.49997201  0.10002799  0.49998303
   0.50014028  0.09985972  0.69975067
   0.50154869  0.09845131  0.90000000
   0.50014028  0.30014028  0.10024933
   0.49997201  0.29997201  0.30001697
   0.49997201  0.29997201  0.49998303
   0.50014028  0.30014028  0.69975067
   0.50154869  0.30154869  0.90000000
   0.49999065  0.50002089  0.10002221
   0.49998505  0.49999232  0.29999500
   0.49998505  0.49999232  0.50000500
   0.49999065  0.50002089  0.69997779
   0.49998114  0.50005066  0.90000000
   0.49999076  0.70000000  0.10002376
   0.49997468  0.70000000  0.29998938
   0.49997468  0.70000000  0.50001062
   0.49999076  0.70000000  0.69997624
   0.50001713  0.70000000  0.90000000
   0.49999065  0.89997911  0.10002221
   0.49998505  0.90000768  0.29999500
   0.49998505  0.90000768  0.50000500
   0.49999065  0.89997911  0.69997779
   0.49998114  0.89994934  0.90000000
   0.70002089  0.10000935  0.10002221
   0.69999232  0.10001495  0.29999500
   0.69999232  0.10001495  0.50000500
   0.70002089  0.10000935  0.69997779
   0.70005066  0.10001886  0.90000000
   0.70002089  0.29999065  0.10002221
   0.69999232  0.29998505  0.29999500
   0.69999232  0.29998505  0.50000500
   0.70002089  0.29999065  0.69997779
   0.70005066  0.29998114  0.90000000
   0.70001531  0.50001531  0.10002096
   0.70001852  0.50001852  0.29999414
   0.70001852  0.50001852  0.50000586
   0.70001531  0.50001531  0.69997904
   0.69998997  0.49998997  0.90000000
   0.70002130  0.70000000  0.10000749
   0.70001734  0.70000000  0.29999594
   0.70001734  0.70000000  0.50000406
   0.70002130  0.70000000  0.69999251
   0.70000067  0.70000000  0.90000000
   0.70001531  0.89998469  0.10002096
   0.70001852  0.89998148  0.29999414
   0.70001852  0.89998148  0.50000586
   0.70001531  0.89998469  0.69997904
   0.69998997  0.90001003  0.90000000
   0.90000000  0.10000924  0.10002376
   0.90000000  0.10002532  0.29998938
   0.90000000  0.10002532  0.50001062
   0.90000000  0.10000924  0.69997624
   0.90000000  0.09998287  0.90000000
   0.90000000  0.29999076  0.10002376
   0.90000000  0.29997468  0.29998938
   0.90000000  0.29997468  0.50001062
   0.90000000  0.29999076  0.69997624
   0.90000000  0.30001713  0.90000000
   0.90000000  0.50002130  0.10000749
   0.90000000  0.50001734  0.29999594
   0.90000000  0.50001734  0.50000406
   0.90000000  0.50002130  0.69999251
   0.90000000  0.50000067  0.90000000
   0.90000000  0.70000000  0.10002315
   0.90000000  0.70000000  0.29998700
   0.90000000  0.70000000  0.50001300
   0.90000000  0.70000000  0.69997685
   0.90000000  0.70000000  0.90000000
   0.90000000  0.89997870  0.10000749
   0.90000000  0.89998266  0.29999594
   0.90000000  0.89998266  0.50000406
   0.90000000  0.89997870  0.69999251
   0.90000000  0.89999933  0.90000000
   0.40000000  0.20000000  0.90000000
Direct configuration=     3
   0.00001494 -0.00000677  0.00000223
  -0.00000651  0.00000648  0.19998812
  -0.00000395  0.00000722  0.40000000
  -0.00000651  0.00000648  0.60001188
   0.00001494 -0.00000677  0.79999777
  -0.00006385  0.20000000 -0.00002629
   0.00000668  0.20000000  0.20001607
   0.00000541  0.20000000  0.40000000
   0.00000668  0.20000000  0.59998393
  -0.00006385  0.20000000  0.80002629
   0.00001494  0.40000677  0.00000223
  -0.00000651  0.39999352  0.19998812
  -0.00000395  0.39999278  0.40000000
  -0.00000651  0.39999352  0.60001188
   0.00001494  0.40000677  0.79999777
   0.00001018  0.59998982 -0.00000131
   0.00001526  0.59998474  0.20000598
   0.00000731  0.59999269  0.40000000
   0.00001526  0.59998474  0.59999402
   0.00001018  0.59998982  0.80000131
   0.00001018  0.80001018 -0.00000131
   0.00001526  0.80001526  0.20000598
   0.00000731  0.80000731  0.40000000
   0.00001526  0.80001526  0.59999402
   0.00001018  0.80001018  0.80000131
   0.20005623  0.00005623  0.00005049
   0.19999064 -0.00000936  0.19999754
   0.19999749 -0.00000251  0.40000000
   0.19999064 -0.00000936  0.60000246
   0.20005623  0.00005623  0.79994951
   0.19988093  0.20000000 -0.00016470
   0.20001262  0.20000000  0.19991071
   0.19998455  0.20000000  0.40000000
   0.20001262  0.20000000  0.60008929
   0.19988093  0.20000000  0.80016470
   0.20005623  0.39994377  0.00005049
   0.19999064  0.40000936  0.19999754
   0.19999749  0.40000251  0.40000000
   0.19999064  0.40000936  0.60000246
   0.20005623  0.39994377  0.79994951
   0.19999323  0.59998506  0.00000223
   0.20000648  0.60000651  0.19998812
   0.20000722  0.60000395  0.40000000
   0.20000648  0.60000651  0.60001188
   0.19999323  0.59998506  0.79999777
   0.19999323  0.80001494  0.00000223
   0.20000648  0.79999349  0.19998812
   0.20000722  0.79999605  0.40000000
   0.20000648  0.79999349  0.60001188
   0.19999323  0.80001494  0.79999777
   0.40000000 -0.00011907 -0.00016470
   0.40000000  0.00001262  0.19991071
   0.40000000 -0.00001545  0.40000000
   0.40000000  0.00001262  0.60008929
   0.40000000 -0.00011907  0.80016470
   0.40000000  0.20000000  0.02855331
   0.40000000  0.20000000  0.19942668
   0.40000000  0.20000000  0.40000000
   0.40000000  0.20000000  0.60057332
   0.40000000  0.20000000  0.77144669
   0.40000000  0.40011907 -0.00016470
   0.40000000  0.39998738  0.19991071
   0.40000000  0.40001545  0.40000000
   0.40000000  0.39998738  0.60008929
   0.40000000  0.40011907  0.80016470
   0.40000000  0.60006385 -0.00002629
   0.40000000  0.59999332  0.20001607
   0.40000000  0.59999459  0.40000000
   0.40000000  0.59999332  0.59998393
   0.40000000  0.60006385  0.80002629
   0.40000000  0.79993615 -0.00002629
   0.40000000  0.80000668  0.20001607
   0.40000000  0.80000541  0.40000000
   0.40000000  0.80000668  0.59998393
   0.40000000  0.79993615  0.80002629
   0.59994377  0.00005623  0.00005049
   0.60000936 -0.00000936  0.19999754
   0.60000251 -0.00000251  0.40000000
   0.60000936 -0.00000936  0.60000246
   0.59994377  0.00005623  0.79994951
   0.60011907  0.20000000 -0.00016470
   0.59998738  0.20000000  0.19991071
   0.60001545  0.20000000  0.40000000
   0.59998738  0.20000000  0.60008929
   0.60011907  0.20000000  0.80016470
   0.59994377  0.39994377  0.00005049
   0.60000936  0.40000936  0.19999754
   0.60000251  0.40000251  0.40000000
   0.60000936  0.40000936  0.60000246
   0.59994377  0.39994377  0.79994951
   0.60000677  0.59998506  0.00000223
   0.59999352  0.60000651  0.19998812
   0.59999278  0.60000395  0.40000000
   0.59999352  0.60000651  0.60001188
   0.60000677  0.59998506  0.79999777
   0.60000677  0.80001494  0.00000223
   0.59999352  0.79999349  0.19998812
   0.59999278  0.79999605  0.40000000
   0.59999352  0.79999349  0.60001188
   0.60000677  0.80001494  0.79999777
   0.79998506 -0.00000677  0.00000223
   0.80000651  0.00000648  0.19998812
   0.80000395  0.00000722  0.40000000
   0.80000651  0.00000648  0.60001188
   0.79998506 -0.00000677  0.79999777
   0.80006385  0.20000000 -0.00002629
   0.79999332  0.20000000  0.20001607
   0.79999459  0.20000000  0.40000000
   0.79999332  0.20000000  0.59998393
   0.80006385  0.20000000  0.80002629
   0.79998506  0.40000677  0.00000223
   0.80000651  0.39999352  0.19998812
   0.80000395  0.39999278  0.40000000
   0.80000651  0.39999352  0.60001188
   0.79998506  0.40000677  0.79999777
   0.79998982  0.59998982 -0.00000131
   0.79998474  0.59998474  0.20000598
   0.79999269  0.59999269  0.40000000
   0.79998474  0.59998474  0.59999402
   0.79998982  0.59998982  0.80000131
   0.79998982  0.80001018 -0.00000131
   0.79998474  0.80001526  0.20000598
   0.79999269  0.80000731  0.40000000
   0.79998474  0.80001526  0.59999402
   0.79998982  0.80001018  0.80000131
   0.09997780  0.10000993  0.10002360
   0.10000816  0.10001588  0.29999469
   0.10000816  0.10001588  0.50000531
   0.09997780  0.10000993  0.69997640
   0.09994618  0.10002004  0.90000000
   0.09997780  0.29999007  0.10002360
   0.10000816  0.29998412  0.29999469
   0.10000816  0.29998412  0.50000531
   0.09997780  0.29999007  0.69997640
   0.09994618  0.29997996  0.90000000
   0.09998373  0.50001627  0.10002227
   0.09998033  0.50001967  0.29999377
   0.09998033  0.50001967  0.50000623
   0.09998373  0.50001627  0.69997773
   0.10001066  0.49998934  0.90000000
   0.09997737  0.70000000  0.10000796
   0.09998157  0.70000000  0.29999569
   0.09998157  0.70000000  0.50000431
   0.09997737  0.70000000  0.69999204
   0.09999929  0.70000000  0.90000000
   0.09998373  0.89998373  0.10002227
   0.09998033  0.89998033  0.29999377
   0.09998033  0.89998033  0.50000623
   0.09998373  0.89998373  0.69997773
   0.10001066  0.90001066  0.90000000
   0.29985097  0.09985097  0.10026487
   0.30002974  0.10002974  0.30001803
   0.30002974  0.10002974  0.49998197
   0.29985097  0.09985097  0.69973513
   0.29835477  0.09835477  0.90000000
   0.29985097  0.30014903  0.10026487
   0.30002974  0.29997026  0.30001803
   0.30002974  0.29997026  0.49998197
   0.29985097  0.30014903  0.69973513
   0.29835477  0.30164523  0.90000000
   0.30000993  0.50002220  0.10002360
   0.30001588  0.49999184  0.29999469
   0.30001588  0.49999184  0.50000531
   0.30000993  0.50002220  0.69997640
   0.30002004  0.50005382  0.90000000
   0.30000981  0.70000000  0.10002525
   0.30002690  0.70000000  0.29998872
   0.30002690  0.70000000  0.50001128
   0.30000981  0.70000000  0.69997475
   0.29998181  0.70000000  0.90000000
   0.30000993  0.89997780  0.10002360
   0.30001588  0.90000816  0.29999469
   0.30001588  0.90000816  0.50000531
   0.30000993  0.89997780  0.69997640
   0.30002004  0.89994618  0.90000000
   0.50014903  0.09985097  0.10026487
   0.49997026  0.10002974  0.30001803
   0.49997026  0.10002974  0.49998197
   0.50014903  0.09985097  0.69973513
   0.50164523  0.09835477  0.90000000
   0.50014903  0.30014903  0.10026487
   0.49997026  0.29997026  0.30001803
   0.49997026  0.29997026  0.49998197
   0.50014903  0.30014903  0.69973513
   0.50164523  0.30164523  0.90000000
   0.49999007  0.50002220  0.10002360
   0.49998412  0.49999184  0.29999469
   0.49998412  0.49999184  0.50000531
   0.49999007  0.50002220  0.69997640
   0.49997996  0.50005382  0.90000000
   0.49999019  0.70000000  0.10002525
   0.49997310  0.70000000  0.29998872
   0.49997310  0.70000000  0.50001128
   0.49999019  0.70000000  0.69997475
   0.50001819  0.70000000  0.90000000
   0.49999007  0.89997780  0.10002360
   0.49998412  0.90000816  0.29999469
   0.49998412  0.90000816  0.50000531
   0.49999007  0.89997780  0.69997640
   0.49997996  0.89994618  0.90000000
   0.70002220  0.10000993  0.10002360
   0.69999184  0.10001588  0.29999469
   0.69999184  0.10001588  0.50000531
   0.70002220  0.10000993  0.69997640
   0.70005382  0.10002004  0.90000000
   0.70002220  0.29999007  0.10002360
   0.69999184  0.29998412  0.29999469
   0.69999184  0.29998412  0.50000531
   0.70002220  0.29999007  0.69997640
   0.70005382  0.29997996  0.90000000
   0.70001627  0.50001627  0.10002227
   0.70001967  0.50001967  0.29999377
   0.70001967  0.50001967  0.50000623
   0.70001627  0.50001627  0.69997773
   0.69998934  0.49998934  0.90000000
   0.70002263  0.70000000  0.10000796
   0.70001843  0.70000000  0.29999569
   0.70001843  0.70000000  0.50000431
   0.70002263  0.70000000  0.69999204
   0.70000071  0.70000000  0.90000000
   0.70001627  0.89998373  0.10002227
   0.70001967  0.89998033  0.29999377
   0.70001967  0.89998033  0.50000623
   0.70001627  0.89998373  0.69997773
   0.69998934  0.90001066  0.90000000
   0.90000000  0.10000981  0.10002525
   0.90000000  0.10002690  0.29998872
   0.90000000  0.10002690  0.50001128
   0.90000000  0.10000981  0.69997475
   0.90000000  0.09998181  0.90000000
   0.90000000  0.29999019  0.10002525
   0.90000000  0.29997310  0.29998872
   0.90000000  0.29997310  0.50001128
   0.90000000  0.29999019  0.69997475
   0.90000000  0.30001819  0.90000000
   0.90000000  0.50002263  0.10000796
   0.90000000  0.50001843  0.29999569
   0.90000000  0.50001843  0.50000431
   0.90000000  0.50002263  0.69999204
   0.90000000  0.50000071  0.90000000
   0.90000000  0.70000000  0.10002460
   0.90000000  0.70000000  0.29998619
   0.90000000  0.70000000  0.50001381
   0.90000000  0.70000000  0.69997540
   0.90000000  0.70000000  0.90000000
   0.90000000  0.89997737  0.10000796
   0.90000000  0.89998157  0.29999569
   0.90000000  0.89998157  0.50000431
   0.90000000  0.89997737  0.69999204
   0.90000000  0.89999929  0.90000000
   0.40000000  0.20000000  0.90000000
Direct configuration=     4
   0.00001451 -0.00000657  0.00000217
  -0.00000632  0.00000629  0.19998846
  -0.00000383  0.00000701  0.40000000
  -0.00000632  0.00000629  0.60001154
   0.00001451 -0.00000657  0.79999783
  -0.00006201  0.20000000 -0.00002553
   0.00000649  0.20000000  0.20001561
   0.00000525  0.20000000  0.40000000
   0.00000649  0.20000000  0.59998439
  -0.00006201  0.20000000  0.80002553
   0.00001451  0.40000657  0.00000217
  -0.00000632  0.39999371  0.19998846
  -0.00000383  0.39999299  0.40000000
  -0.00000632  0.39999371  0.60001154
   0.00001451  0.40000657  0.79999783
   0.00000989  0.59999011 -0.00000128
   0.00001482  0.59998518  0.20000581
   0.00000710  0.59999290  0.40000000
   0.00001482  0.59998518  0.59999419
   0.00000989  0.59999011  0.80000128
   0.00000989  0.80000989 -0.00000128
   0.00001482  0.80001482  0.20000581
   0.00000710  0.80000710  0.40000000
   0.00001482  0.80001482  0.59999419
   0.00000989  0.80000989  0.80000128
   0.20005461  0.00005461  0.00004904
   0.19999090 -0.00000910  0.19999761
   0.19999756 -0.00000244  0.40000000