 254 254   0   0
  0.3019211E+02  0.1718057E-08  0.1718057E-08  0.3000000E-08  0.5000000E-15
   1.0000000000000000E-004
  CAR 
 NiAl                                    
      5.47045780    -25.05567234  301      1.72187780      1.00000000
    -25.056  0.0000E+00  0.0000E+00
    -24.954  0.0000E+00  0.0000E+00
    -24.852  0.0000E+00  0.0000E+00
    -24.750  0.0000E+00  0.0000E+00
    -24.649  0.0000E+00  0.0000E+00
    -24.547  0.0000E+00  0.0000E+00
    -24.445  0.0000E+00  0.0000E+00
    -24.343  0.0000E+00  0.0000E+00
    -24.242  0.0000E+00  0.0000E+00
    -24.140  0.0000E+00  0.0000E+00
    -24.038  0.0000E+00  0.0000E+00
    -23.936  0.2965E-12  0.3017E-13
    -23.835  0.2322E-04  0.2363E-05
    -23.733  0.6439E+00  0.6552E-01
    -23.631  0.1606E+02  0.1700E+01
    -23.529  0.2948E+01  0.2000E+01
    -23.428  0.8911E-03  0.2000E+01
    -23.326  0.1085E-09  0.2000E+01
    -23.224  0.0000E+00  0.2000E+01
    -23.122  0.0000E+00  0.2000E+01
    -23.021  0.0000E+00  0.2000E+01
    -22.919  0.0000E+00  0.2000E+01
    -22.817  0.0000E+00  0.2000E+01
    -22.715  0.0000E+00  0.2000E+01
    -22.614  0.0000E+00  0.2000E+01
    -22.512  0.0000E+00  0.2000E+01
    -22.410  0.0000E+00  0.2000E+01
    -22.308  0.0000E+00  0.2000E+01
    -22.207  0.0000E+00  0.2000E+01
    -22.105  0.0000E+00  0.2000E+01
    -22.003  0.0000E+00  0.2000E+01
    -21.901  0.0000E+00  0.2000E+01
    -21.800  0.0000E+00  0.2000E+01
    -21.698  0.0000E+00  0.2000E+01
    -21.596  0.0000E+00  0.2000E+01
    -21.494  0.0000E+00  0.2000E+01
    -21.393  0.0000E+00  0.2000E+01
    -21.291  0.0000E+00  0.2000E+01
    -21.189  0.0000E+00  0.2000E+01
    -21.087  0.0000E+00  0.2000E+01
    -20.986  0.0000E+00  0.2000E+01
    -20.884  0.0000E+00  0.2000E+01
    -20.782  0.0000E+00  0.2000E+01
    -20.680  0.0000E+00  0.2000E+01
    -20.579  0.0000E+00  0.2000E+01
    -20.477  0.0000E+00  0.2000E+01
    -20.375  0.0000E+00  0.2000E+01
    -20.273  0.0000E+00  0.2000E+01
    -20.171  0.0000E+00  0.2000E+01
    -20.070  0.0000E+00  0.2000E+01
    -19.968  0.0000E+00  0.2000E+01
    -19.866  0.0000E+00  0.2000E+01
    -19.764  0.0000E+00  0.2000E+01
    -19.663  0.0000E+00  0.2000E+01
    -19.561  0.0000E+00  0.2000E+01
    -19.459  0.0000E+00  0.2000E+01
    -19.357  0.0000E+00  0.2000E+01
    -19.256  0.0000E+00  0.2000E+01
    -19.154  0.0000E+00  0.2000E+01
    -19.052  0.0000E+00  0.2000E+01
    -18.950  0.0000E+00  0.2000E+01
    -18.849  0.0000E+00  0.2000E+01
    -18.747  0.0000E+00  0.2000E+01
    -18.645  0.0000E+00  0.2000E+01
    -18.543  0.0000E+00  0.2000E+01
    -18.442  0.0000E+00  0.2000E+01
    -18.340  0.0000E+00  0.2000E+01
    -18.238  0.0000E+00  0.2000E+01
    -18.136  0.0000E+00  0.2000E+01
    -18.035  0.0000E+00  0.2000E+01
    -17.933  0.0000E+00  0.2000E+01
    -17.831  0.0000E+00  0.2000E+01
    -17.729  0.0000E+00  0.2000E+01
    -17.628  0.0000E+00  0.2000E+01
    -17.526  0.0000E+00  0.2000E+01
    -17.424  0.0000E+00  0.2000E+01
    -17.322  0.0000E+00  0.2000E+01
    -17.221  0.0000E+00  0.2000E+01
    -17.119  0.0000E+00  0.2000E+01
    -17.017  0.0000E+00  0.2000E+01
    -16.915  0.0000E+00  0.2000E+01
    -16.814  0.0000E+00  0.2000E+01
    -16.712  0.0000E+00  0.2000E+01
    -16.610  0.0000E+00  0.2000E+01
    -16.508  0.0000E+00  0.2000E+01
    -16.407  0.0000E+00  0.2000E+01
    -16.305  0.0000E+00  0.2000E+01
    -16.203  0.0000E+00  0.2000E+01
    -16.101  0.0000E+00  0.2000E+01
    -16.000  0.0000E+00  0.2000E+01
    -15.898  0.0000E+00  0.2000E+01
    -15.796  0.0000E+00  0.2000E+01
    -15.694  0.0000E+00  0.2000E+01
    -15.593  0.0000E+00  0.2000E+01
    -15.491  0.0000E+00  0.2000E+01
    -15.389  0.0000E+00  0.2000E+01
    -15.287  0.0000E+00  0.2000E+01
    -15.186  0.0000E+00  0.2000E+01
    -15.084  0.0000E+00  0.2000E+01
    -14.982  0.0000E+00  0.2000E+01
    -14.880  0.0000E+00  0.2000E+01
    -14.779  0.0000E+00  0.2000E+01
    -14.677  0.0000E+00  0.2000E+01
    -14.575  0.0000E+00  0.2000E+01
    -14.473  0.0000E+00  0.2000E+01
    -14.372  0.0000E+00  0.2000E+01
    -14.270  0.0000E+00  0.2000E+01
    -14.168  0.0000E+00  0.2000E+01
    -14.066  0.0000E+00  0.2000E+01
    -13.965  0.0000E+00  0.2000E+01
    -13.863  0.0000E+00  0.2000E+01
    -13.761  0.0000E+00  0.2000E+01
    -13.659  0.0000E+00  0.2000E+01
    -13.557  0.0000E+00  0.2000E+01
    -13.456  0.0000E+00  0.2000E+01
    -13.354  0.0000E+00  0.2000E+01
    -13.252  0.0000E+00  0.2000E+01
    -13.150  0.0000E+00  0.2000E+01
    -13.049  0.0000E+00  0.2000E+01
    -12.947  0.0000E+00  0.2000E+01
    -12.845  0.0000E+00  0.2000E+01
    -12.743  0.0000E+00  0.2000E+01
    -12.642  0.0000E+00  0.2000E+01
    -12.540  0.3873E-07  0.2000E+01
    -12.438  0.2579E-01  0.2003E+01
    -12.336  0.8781E+01  0.2896E+01
    -12.235  0.1079E+02  0.3994E+01
    -12.133  0.5903E-01  0.4000E+01
    -12.031  0.1818E-06  0.4000E+01
    -11.929  0.0000E+00  0.4000E+01
    -11.828  0.0000E+00  0.4000E+01
    -11.726  0.0000E+00  0.4000E+01
    -11.624  0.0000E+00  0.4000E+01
    -11.522  0.0000E+00  0.4000E+01
    -11.421  0.0000E+00  0.4000E+01
    -11.319  0.0000E+00  0.4000E+01
    -11.217  0.0000E+00  0.4000E+01
    -11.115  0.0000E+00  0.4000E+01
    -11.014  0.0000E+00  0.4000E+01
    -10.912  0.0000E+00  0.4000E+01
    -10.810  0.0000E+00  0.4000E+01
    -10.708  0.0000E+00  0.4000E+01
    -10.607  0.0000E+00  0.4000E+01
    -10.505  0.0000E+00  0.4000E+01
    -10.403  0.0000E+00  0.4000E+01
    -10.301  0.0000E+00  0.4000E+01
    -10.200  0.0000E+00  0.4000E+01
    -10.098  0.0000E+00  0.4000E+01
     -9.996  0.0000E+00  0.4000E+01
     -9.894  0.0000E+00  0.4000E+01
     -9.793  0.0000E+00  0.4000E+01
     -9.691  0.0000E+00  0.4000E+01
     -9.589  0.0000E+00  0.4000E+01
     -9.487  0.2728E-15  0.4000E+01
     -9.386  0.1145E-06  0.4000E+01
     -9.284  0.2387E-01  0.4002E+01
     -9.182  0.2998E+01  0.4307E+01
     -9.080  0.3673E+01  0.4681E+01
     -8.979  0.2499E+02  0.7224E+01
     -8.877  0.3383E+01  0.7568E+01
     -8.775  0.4395E+01  0.8015E+01
     -8.673  0.3474E+02  0.1155E+02
     -8.572  0.2691E+02  0.1429E+02
     -8.470  0.2500E+02  0.1683E+02
     -8.368  0.7706E+01  0.1762E+02
     -8.266  0.2301E+02  0.1996E+02
     -8.165  0.2136E+02  0.2213E+02
     -8.063  0.2584E+02  0.2476E+02
     -7.961  0.7262E+02  0.3215E+02
     -7.859  0.3451E+01  0.3250E+02
     -7.758  0.2522E+01  0.3276E+02
     -7.656  0.8926E+02  0.4184E+02
     -7.554  0.3098E+02  0.4499E+02
     -7.452  0.2387E+02  0.4742E+02
     -7.351  0.1694E+02  0.4914E+02
     -7.249  0.2259E+02  0.5144E+02
     -7.147  0.5007E+02  0.5654E+02
     -7.045  0.4541E+02  0.6116E+02
     -6.944  0.7668E+02  0.6896E+02
     -6.842  0.4002E+02  0.7303E+02
     -6.740  0.3012E+02  0.7610E+02
     -6.638  0.9974E+02  0.8625E+02
     -6.536  0.2489E+02  0.8878E+02
     -6.435  0.1198E+02  0.9000E+02
     -6.333  0.1872E+01  0.9019E+02
     -6.231  0.2879E+02  0.9312E+02
     -6.129  0.1143E+03  0.1048E+03
     -6.028  0.9011E+02  0.1139E+03
     -5.926  0.3790E+02  0.1178E+03
     -5.824  0.4166E+02  0.1220E+03
     -5.722  0.6813E+02  0.1289E+03
     -5.621  0.9108E+02  0.1382E+03
     -5.519  0.2674E+02  0.1409E+03
     -5.417  0.2090E+02  0.1431E+03
     -5.315  0.7109E+02  0.1503E+03
     -5.214  0.5948E+02  0.1563E+03
     -5.112  0.8752E+02  0.1653E+03
     -5.010  0.7894E+02  0.1733E+03
     -4.908  0.1056E+02  0.1744E+03
     -4.807  0.5471E+02  0.1799E+03
     -4.705  0.1241E+03  0.1926E+03
     -4.603  0.4596E+02  0.1972E+03
     -4.501  0.7227E+02  0.2046E+03
     -4.400  0.6123E+02  0.2108E+03
     -4.298  0.7057E+02  0.2180E+03
     -4.196  0.1361E+03  0.2318E+03
     -4.094  0.8286E+02  0.2403E+03
     -3.993  0.3923E+02  0.2443E+03
     -3.891  0.7287E+02  0.2517E+03
     -3.789  0.6693E+02  0.2585E+03
     -3.687  0.8832E+02  0.2675E+03
     -3.586  0.5669E+02  0.2733E+03
     -3.484  0.4000E+02  0.2773E+03
     -3.382  0.6565E+01  0.2780E+03
     -3.280  0.7306E+02  0.2854E+03
     -3.179  0.8277E+02  0.2938E+03
     -3.077  0.1165E+03  0.3057E+03
     -2.975  0.7863E+02  0.3137E+03
     -2.873  0.1543E+03  0.3294E+03
     -2.772  0.1779E+03  0.3475E+03
     -2.670  0.1971E+02  0.3495E+03
     -2.568  0.2624E+01  0.3498E+03
     -2.466  0.4632E+02  0.3545E+03
     -2.365  0.1096E+03  0.3656E+03
     -2.263  0.1022E+03  0.3760E+03
     -2.161  0.8964E+02  0.3852E+03
     -2.059  0.4705E+02  0.3899E+03
     -1.958  0.7958E+02  0.3980E+03
     -1.856  0.1274E+03  0.4110E+03
     -1.754  0.1069E+03  0.4219E+03
     -1.652  0.4132E+02  0.4261E+03
     -1.551  0.8212E+02  0.4344E+03
     -1.449  0.5925E+02  0.4405E+03
     -1.347  0.1915E+03  0.4600E+03
     -1.245  0.9646E+02  0.4698E+03
     -1.144  0.8061E+02  0.4780E+03
     -1.042  0.7467E+02  0.4856E+03
     -0.940  0.1031E+03  0.4961E+03
     -0.838  0.1144E+03  0.5077E+03
     -0.737  0.6933E+02  0.5148E+03
     -0.635  0.3160E+02  0.5180E+03
     -0.533  0.1102E+03  0.5292E+03
     -0.431  0.2052E+03  0.5501E+03
     -0.330  0.8251E+02  0.5585E+03
     -0.228  0.1207E+03  0.5707E+03
     -0.126  0.4165E+02  0.5750E+03
     -0.024  0.5249E+02  0.5803E+03
      0.078  0.1041E+03  0.5909E+03
      0.179  0.9452E+02  0.6005E+03
      0.281  0.7831E+02  0.6085E+03
      0.383  0.8582E+02  0.6172E+03
      0.485  0.1407E+03  0.6315E+03
      0.586  0.6369E+02  0.6380E+03
      0.688  0.3874E+02  0.6420E+03
      0.790  0.5792E+02  0.6479E+03
      0.892  0.1542E+03  0.6635E+03
      0.993  0.2248E+03  0.6864E+03
      1.095  0.1062E+03  0.6972E+03
      1.197  0.7699E+02  0.7051E+03
      1.299  0.6291E+02  0.7115E+03
      1.400  0.8718E+02  0.7203E+03
      1.502  0.1366E+03  0.7342E+03
      1.604  0.1837E+03  0.7529E+03
      1.706  0.1312E+03  0.7663E+03
      1.807  0.5397E+02  0.7718E+03
      1.909  0.1332E+03  0.7853E+03
      2.011  0.1337E+03  0.7989E+03
      2.113  0.7131E+02  0.8062E+03
      2.214  0.7371E+02  0.8137E+03
      2.316  0.6307E+02  0.8201E+03
      2.418  0.1186E+03  0.8322E+03
      2.520  0.9648E+02  0.8420E+03
      2.621  0.1294E+03  0.8552E+03
      2.723  0.6738E+02  0.8620E+03
      2.825  0.1187E+03  0.8741E+03
      2.927  0.3146E+03  0.9061E+03
      3.028  0.1214E+03  0.9185E+03
      3.130  0.4586E+02  0.9231E+03
      3.232  0.1064E+03  0.9339E+03
      3.334  0.1352E+03  0.9477E+03
      3.435  0.1406E+03  0.9620E+03
      3.537  0.7025E+02  0.9692E+03
      3.639  0.1094E+03  0.9803E+03
      3.741  0.7901E+02  0.9883E+03
      3.842  0.9693E+02  0.9982E+03
      3.944  0.1697E+03  0.1015E+04
      4.046  0.7424E+02  0.1023E+04
      4.148  0.9360E+01  0.1024E+04
      4.249  0.2684E+00  0.1024E+04
      4.351  0.8345E-05  0.1024E+04
      4.453  0.9711E-13  0.1024E+04
      4.555  0.0000E+00  0.1024E+04
      4.656  0.0000E+00  0.1024E+04
      4.758  0.0000E+00  0.1024E+04
      4.860  0.0000E+00  0.1024E+04
      4.962  0.0000E+00  0.1024E+04
      5.063  0.0000E+00  0.1024E+04
      5.165  0.0000E+00  0.1024E+04
      5.267  0.0000E+00  0.1024E+04
      5.369  0.0000E+00  0.1024E+04
      5.470  0.0000E+00  0.1024E+04
