 254 254   0   0
  0.3019211E+02  0.1718057E-08  0.1718057E-08  0.3000000E-08  0.5000000E-15
   1.0000000000000000E-004
  CAR 
 NiAl                                    
      5.77917294    -30.25750587  301      1.78103705      1.00000000
    -30.258  0.0000E+00  0.0000E+00
    -30.137  0.0000E+00  0.0000E+00
    -30.017  0.0000E+00  0.0000E+00
    -29.897  0.0000E+00  0.0000E+00
    -29.777  0.0000E+00  0.0000E+00
    -29.657  0.0000E+00  0.0000E+00
    -29.537  0.0000E+00  0.0000E+00
    -29.417  0.0000E+00  0.0000E+00
    -29.297  0.0000E+00  0.0000E+00
    -29.176  0.0000E+00  0.0000E+00
    -29.056  0.0000E+00  0.0000E+00
    -28.936  0.0000E+00  0.0000E+00
    -28.816  0.1975E-06  0.2373E-07
    -28.696  0.2404E+00  0.2888E-01
    -28.576  0.1453E+02  0.1775E+01
    -28.456  0.1877E+01  0.2000E+01
    -28.336  0.3362E-04  0.2000E+01
    -28.215  0.0000E+00  0.2000E+01
    -28.095  0.0000E+00  0.2000E+01
    -27.975  0.0000E+00  0.2000E+01
    -27.855  0.0000E+00  0.2000E+01
    -27.735  0.0000E+00  0.2000E+01
    -27.615  0.0000E+00  0.2000E+01
    -27.495  0.0000E+00  0.2000E+01
    -27.375  0.0000E+00  0.2000E+01
    -27.254  0.0000E+00  0.2000E+01
    -27.134  0.0000E+00  0.2000E+01
    -27.014  0.0000E+00  0.2000E+01
    -26.894  0.0000E+00  0.2000E+01
    -26.774  0.0000E+00  0.2000E+01
    -26.654  0.0000E+00  0.2000E+01
    -26.534  0.0000E+00  0.2000E+01
    -26.414  0.0000E+00  0.2000E+01
    -26.293  0.0000E+00  0.2000E+01
    -26.173  0.0000E+00  0.2000E+01
    -26.053  0.0000E+00  0.2000E+01
    -25.933  0.0000E+00  0.2000E+01
    -25.813  0.0000E+00  0.2000E+01
    -25.693  0.0000E+00  0.2000E+01
    -25.573  0.0000E+00  0.2000E+01
    -25.453  0.0000E+00  0.2000E+01
    -25.332  0.0000E+00  0.2000E+01
    -25.212  0.0000E+00  0.2000E+01
    -25.092  0.0000E+00  0.2000E+01
    -24.972  0.0000E+00  0.2000E+01
    -24.852  0.0000E+00  0.2000E+01
    -24.732  0.0000E+00  0.2000E+01
    -24.612  0.0000E+00  0.2000E+01
    -24.492  0.0000E+00  0.2000E+01
    -24.372  0.0000E+00  0.2000E+01
    -24.251  0.0000E+00  0.2000E+01
    -24.131  0.0000E+00  0.2000E+01
    -24.011  0.0000E+00  0.2000E+01
    -23.891  0.0000E+00  0.2000E+01
    -23.771  0.0000E+00  0.2000E+01
    -23.651  0.0000E+00  0.2000E+01
    -23.531  0.0000E+00  0.2000E+01
    -23.411  0.0000E+00  0.2000E+01
    -23.290  0.0000E+00  0.2000E+01
    -23.170  0.0000E+00  0.2000E+01
    -23.050  0.0000E+00  0.2000E+01
    -22.930  0.0000E+00  0.2000E+01
    -22.810  0.0000E+00  0.2000E+01
    -22.690  0.0000E+00  0.2000E+01
    -22.570  0.0000E+00  0.2000E+01
    -22.450  0.0000E+00  0.2000E+01
    -22.329  0.0000E+00  0.2000E+01
    -22.209  0.0000E+00  0.2000E+01
    -22.089  0.0000E+00  0.2000E+01
    -21.969  0.0000E+00  0.2000E+01
    -21.849  0.0000E+00  0.2000E+01
    -21.729  0.0000E+00  0.2000E+01
    -21.609  0.0000E+00  0.2000E+01
    -21.489  0.0000E+00  0.2000E+01
    -21.368  0.0000E+00  0.2000E+01
    -21.248  0.0000E+00  0.2000E+01
    -21.128  0.0000E+00  0.2000E+01
    -21.008  0.0000E+00  0.2000E+01
    -20.888  0.0000E+00  0.2000E+01
    -20.768  0.0000E+00  0.2000E+01
    -20.648  0.0000E+00  0.2000E+01
    -20.528  0.0000E+00  0.2000E+01
    -20.407  0.0000E+00  0.2000E+01
    -20.287  0.0000E+00  0.2000E+01
    -20.167  0.0000E+00  0.2000E+01
    -20.047  0.0000E+00  0.2000E+01
    -19.927  0.0000E+00  0.2000E+01
    -19.807  0.0000E+00  0.2000E+01
    -19.687  0.0000E+00  0.2000E+01
    -19.567  0.0000E+00  0.2000E+01
    -19.447  0.0000E+00  0.2000E+01
    -19.326  0.0000E+00  0.2000E+01
    -19.206  0.0000E+00  0.2000E+01
    -19.086  0.0000E+00  0.2000E+01
    -18.966  0.0000E+00  0.2000E+01
    -18.846  0.0000E+00  0.2000E+01
    -18.726  0.0000E+00  0.2000E+01
    -18.606  0.0000E+00  0.2000E+01
    -18.486  0.0000E+00  0.2000E+01
    -18.365  0.0000E+00  0.2000E+01
    -18.245  0.0000E+00  0.2000E+01
    -18.125  0.0000E+00  0.2000E+01
    -18.005  0.0000E+00  0.2000E+01
    -17.885  0.0000E+00  0.2000E+01
    -17.765  0.0000E+00  0.2000E+01
    -17.645  0.0000E+00  0.2000E+01
    -17.525  0.0000E+00  0.2000E+01
    -17.404  0.0000E+00  0.2000E+01
    -17.284  0.0000E+00  0.2000E+01
    -17.164  0.0000E+00  0.2000E+01
    -17.044  0.0000E+00  0.2000E+01
    -16.924  0.0000E+00  0.2000E+01
    -16.804  0.0000E+00  0.2000E+01
    -16.684  0.0000E+00  0.2000E+01
    -16.564  0.0000E+00  0.2000E+01
    -16.443  0.0000E+00  0.2000E+01
    -16.323  0.0000E+00  0.2000E+01
    -16.203  0.0000E+00  0.2000E+01
    -16.083  0.0000E+00  0.2000E+01
    -15.963  0.0000E+00  0.2000E+01
    -15.843  0.0000E+00  0.2000E+01
    -15.723  0.0000E+00  0.2000E+01
    -15.603  0.0000E+00  0.2000E+01
    -15.482  0.0000E+00  0.2000E+01
    -15.362  0.0000E+00  0.2000E+01
    -15.242  0.0000E+00  0.2000E+01
    -15.122  0.0000E+00  0.2000E+01
    -15.002  0.0000E+00  0.2000E+01
    -14.882  0.0000E+00  0.2000E+01
    -14.762  0.0000E+00  0.2000E+01
    -14.642  0.0000E+00  0.2000E+01
    -14.521  0.0000E+00  0.2000E+01
    -14.401  0.0000E+00  0.2000E+01
    -14.281  0.0000E+00  0.2000E+01
    -14.161  0.0000E+00  0.2000E+01
    -14.041  0.0000E+00  0.2000E+01
    -13.921  0.0000E+00  0.2000E+01
    -13.801  0.0000E+00  0.2000E+01
    -13.681  0.0000E+00  0.2000E+01
    -13.561  0.0000E+00  0.2000E+01
    -13.440  0.0000E+00  0.2000E+01
    -13.320  0.0000E+00  0.2000E+01
    -13.200  0.0000E+00  0.2000E+01
    -13.080  0.0000E+00  0.2000E+01
    -12.960  0.0000E+00  0.2000E+01
    -12.840  0.0000E+00  0.2000E+01
    -12.720  0.0000E+00  0.2000E+01
    -12.600  0.9989E-07  0.2000E+01
    -12.479  0.1775E+00  0.2021E+01
    -12.359  0.1420E+02  0.3727E+01
    -12.239  0.2276E+01  0.4000E+01
    -12.119  0.5850E-04  0.4000E+01
    -11.999  0.2495E-13  0.4000E+01
    -11.879  0.0000E+00  0.4000E+01
    -11.759  0.0000E+00  0.4000E+01
    -11.639  0.0000E+00  0.4000E+01
    -11.518  0.0000E+00  0.4000E+01
    -11.398  0.0000E+00  0.4000E+01
    -11.278  0.0000E+00  0.4000E+01
    -11.158  0.0000E+00  0.4000E+01
    -11.038  0.0000E+00  0.4000E+01
    -10.918  0.0000E+00  0.4000E+01
    -10.798  0.0000E+00  0.4000E+01
    -10.678  0.0000E+00  0.4000E+01
    -10.557  0.0000E+00  0.4000E+01
    -10.437  0.0000E+00  0.4000E+01
    -10.317  0.0000E+00  0.4000E+01
    -10.197  0.0000E+00  0.4000E+01
    -10.077  0.0000E+00  0.4000E+01
     -9.957  0.0000E+00  0.4000E+01
     -9.837  0.0000E+00  0.4000E+01
     -9.717  0.0000E+00  0.4000E+01
     -9.596  0.0000E+00  0.4000E+01
     -9.476  0.0000E+00  0.4000E+01
     -9.356  0.5787E-09  0.4000E+01
     -9.236  0.7451E-02  0.4001E+01
     -9.116  0.2848E+01  0.4343E+01
     -8.996  0.6324E+01  0.5103E+01
     -8.876  0.1984E+02  0.7486E+01
     -8.756  0.3222E+01  0.7873E+01
     -8.635  0.1923E+02  0.1018E+02
     -8.515  0.3379E+02  0.1424E+02
     -8.395  0.2243E+02  0.1694E+02
     -8.275  0.1433E+02  0.1866E+02
     -8.155  0.1498E+02  0.2046E+02
     -8.035  0.2687E+02  0.2369E+02
     -7.915  0.6735E+02  0.3178E+02
     -7.795  0.6031E+01  0.3250E+02
     -7.675  0.8467E+01  0.3352E+02
     -7.554  0.8887E+02  0.4419E+02
     -7.434  0.2265E+02  0.4691E+02
     -7.314  0.4260E+02  0.5203E+02
     -7.194  0.2758E+02  0.5534E+02
     -7.074  0.4557E+02  0.6082E+02
     -6.954  0.7073E+02  0.6931E+02
     -6.834  0.4128E+02  0.7427E+02
     -6.714  0.5666E+02  0.8108E+02
     -6.593  0.8622E+02  0.9143E+02
     -6.473  0.2889E+02  0.9490E+02
     -6.353  0.9139E+01  0.9600E+02
     -6.233  0.3926E+01  0.9647E+02
     -6.113  0.8959E+02  0.1072E+03
     -5.993  0.7967E+02  0.1168E+03
     -5.873  0.5738E+02  0.1237E+03
     -5.753  0.4051E+02  0.1286E+03
     -5.632  0.8899E+02  0.1393E+03
     -5.512  0.5044E+02  0.1453E+03
     -5.392  0.2031E+02  0.1478E+03
     -5.272  0.6769E+02  0.1559E+03
     -5.152  0.4701E+02  0.1615E+03
     -5.032  0.7674E+02  0.1707E+03
     -4.912  0.5977E+02  0.1779E+03
     -4.792  0.2761E+02  0.1812E+03
     -4.671  0.9854E+02  0.1931E+03
     -4.551  0.6388E+02  0.2008E+03
     -4.431  0.5730E+02  0.2076E+03
     -4.311  0.4779E+02  0.2134E+03
     -4.191  0.8641E+02  0.2238E+03
     -4.071  0.1092E+03  0.2369E+03
     -3.951  0.5973E+02  0.2440E+03
     -3.831  0.6503E+02  0.2519E+03
     -3.710  0.7238E+02  0.2606E+03
     -3.590  0.6841E+02  0.2688E+03
     -3.470  0.6434E+02  0.2765E+03
     -3.350  0.9288E+01  0.2776E+03
     -3.230  0.5793E+02  0.2846E+03
     -3.110  0.8478E+02  0.2948E+03
     -2.990  0.1069E+03  0.3076E+03
     -2.870  0.1095E+03  0.3208E+03
     -2.750  0.1746E+03  0.3417E+03
     -2.629  0.6470E+02  0.3495E+03
     -2.509  0.2210E+01  0.3498E+03
     -2.389  0.5126E+02  0.3559E+03
     -2.269  0.1273E+03  0.3712E+03
     -2.149  0.6676E+02  0.3792E+03
     -2.029  0.8138E+02  0.3890E+03
     -1.909  0.6652E+02  0.3970E+03
     -1.789  0.1304E+03  0.4127E+03
     -1.668  0.7967E+02  0.4222E+03
     -1.548  0.6038E+02  0.4295E+03
     -1.428  0.6557E+02  0.4374E+03
     -1.308  0.1708E+03  0.4579E+03
     -1.188  0.9691E+02  0.4695E+03
     -1.068  0.8033E+02  0.4792E+03
     -0.948  0.7339E+02  0.4880E+03
     -0.828  0.1359E+03  0.5043E+03
     -0.707  0.7210E+02  0.5130E+03
     -0.587  0.3780E+02  0.5175E+03
     -0.467  0.1094E+03  0.5306E+03
     -0.347  0.1734E+03  0.5515E+03
     -0.227  0.1237E+03  0.5663E+03
     -0.107  0.5993E+02  0.5735E+03
      0.013  0.3720E+02  0.5780E+03
      0.133  0.1065E+03  0.5908E+03
      0.254  0.9249E+02  0.6019E+03
      0.374  0.7479E+02  0.6109E+03
      0.494  0.1301E+03  0.6265E+03
      0.614  0.7754E+02  0.6358E+03
      0.734  0.4874E+02  0.6417E+03
      0.854  0.5467E+02  0.6482E+03
      0.974  0.1914E+03  0.6712E+03
      1.094  0.1674E+03  0.6913E+03
      1.215  0.8732E+02  0.7018E+03
      1.335  0.6621E+02  0.7098E+03
      1.455  0.8497E+02  0.7200E+03
      1.575  0.1371E+03  0.7365E+03
      1.695  0.1824E+03  0.7584E+03
      1.815  0.9897E+02  0.7703E+03
      1.935  0.7244E+02  0.7790E+03
      2.055  0.1590E+03  0.7981E+03
      2.176  0.7229E+02  0.8067E+03
      2.296  0.6553E+02  0.8146E+03
      2.416  0.9390E+02  0.8259E+03
      2.536  0.8933E+02  0.8366E+03
      2.656  0.1405E+03  0.8535E+03
      2.776  0.6995E+02  0.8619E+03
      2.896  0.1364E+03  0.8783E+03
      3.016  0.2787E+03  0.9118E+03
      3.136  0.6575E+02  0.9197E+03
      3.257  0.8807E+02  0.9302E+03
      3.377  0.1239E+03  0.9451E+03
      3.497  0.1435E+03  0.9624E+03
      3.617  0.7210E+02  0.9710E+03
      3.737  0.1096E+03  0.9842E+03
      3.857  0.7045E+02  0.9927E+03
      3.977  0.1602E+03  0.1012E+04
      4.097  0.9196E+02  0.1023E+04
      4.218  0.8632E+01  0.1024E+04
      4.338  0.8094E-01  0.1024E+04
      4.458  0.5950E-07  0.1024E+04
      4.578  0.0000E+00  0.1024E+04
      4.698  0.0000E+00  0.1024E+04
      4.818  0.0000E+00  0.1024E+04
      4.938  0.0000E+00  0.1024E+04
      5.058  0.0000E+00  0.1024E+04
      5.179  0.0000E+00  0.1024E+04
      5.299  0.0000E+00  0.1024E+04
      5.419  0.0000E+00  0.1024E+04
      5.539  0.0000E+00  0.1024E+04
      5.659  0.0000E+00  0.1024E+04
      5.779  0.0000E+00  0.1024E+04
