       N       E                     dE             d eps       ncg     rms          rms(c)
DAV:   1     0.195647737635E+05    0.19565E+05   -0.82889E+05  5732   0.106E+03
DAV:   2     0.199374336062E+04   -0.17571E+05   -0.16662E+05  8168   0.331E+02
DAV:   3    -0.104164156834E+04   -0.30354E+04   -0.27984E+04  7392   0.139E+02
DAV:   4    -0.137868294624E+04   -0.33704E+03   -0.28266E+03  8752   0.399E+01
DAV:   5    -0.142279906830E+04   -0.44116E+02   -0.36540E+02  9064   0.108E+01    0.751E+02
DAV:   6    -0.403864718932E+04   -0.26158E+04   -0.16773E+04  9824   0.105E+02    0.102E+03
DAV:   7    -0.406536453401E+05   -0.36615E+05   -0.11843E+05  6710   0.211E+02    0.165E+03
DAV:   8    -0.764138886322E+05   -0.35760E+05   -0.80164E+05 10022   0.275E+02    0.774E+02
DAV:   9    -0.420718113830E+05    0.34342E+05   -0.25177E+05  8716   0.454E+02    0.711E+02
DAV:  10    -0.497085419601E+05   -0.76367E+04   -0.60990E+04  7344   0.205E+02    0.924E+02
DAV:  11    -0.259202958442E+05    0.23788E+05   -0.86995E+03  8614   0.119E+02    0.663E+02
DAV:  12    -0.494742437508E+05   -0.23554E+05   -0.91318E+03  8071   0.920E+01    0.863E+02
DAV:  13    -0.520847020262E+05   -0.26105E+04   -0.53694E+03  8952   0.591E+01    0.906E+02
DAV:  14    -0.148236430345E+05    0.37261E+05   -0.13941E+04  8383   0.597E+01    0.659E+02
DAV:  15     0.148721717119E+04    0.16311E+05   -0.19458E+05 10168   0.141E+02    0.449E+02
DAV:  16    -0.287630876712E+04   -0.43635E+04   -0.57481E+04  8096   0.205E+02    0.293E+02
DAV:  17    -0.427447401005E+04   -0.13982E+04   -0.31248E+04  8632   0.104E+02    0.434E+02
DAV:  18    -0.104170489977E+05   -0.61426E+04   -0.17244E+04  7684   0.856E+01    0.660E+02
DAV:  19    -0.979640147697E+04    0.62065E+03   -0.54793E+03  8296   0.373E+01    0.827E+02
DAV:  20    -0.112846661134E+05   -0.14883E+04   -0.15080E+03  8368   0.174E+01    0.950E+02
DAV:  21    -0.121139938223E+05   -0.82933E+03   -0.36362E+02  8504   0.928E+00    0.108E+03
DAV:  22    -0.120739081799E+05    0.40086E+02   -0.44453E+01  7760   0.333E+00    0.112E+03
DAV:  23    -0.122657918214E+05   -0.19188E+03   -0.39019E+00  8736   0.104E+00    0.113E+03
DAV:  24    -0.132946971934E+05   -0.10289E+04   -0.43165E+00  7480   0.175E+00    0.115E+03
DAV:  25    -0.144940177717E+05   -0.11993E+04   -0.10403E+01  7430   0.192E+00    0.116E+03
DAV:  26    -0.124858286398E+05    0.20082E+04   -0.26505E+01  6837   0.315E+00    0.115E+03
DAV:  27    -0.271707669683E+04    0.97688E+04   -0.26622E+03  8576   0.162E+01    0.760E+02
DAV:  28    -0.342244698756E+04   -0.70537E+03   -0.26250E+03  8304   0.298E+01    0.772E+02
DAV:  29    -0.542630297146E+04   -0.20039E+04   -0.10323E+03  8160   0.190E+01    0.850E+02
DAV:  30    -0.532234641301E+04    0.10396E+03   -0.14262E+02  7080   0.618E+00    0.857E+02
DAV:  31    -0.605155790874E+04   -0.72921E+03   -0.22196E+01  7816   0.446E+00    0.918E+02
DAV:  32    -0.496809393974E+04    0.10835E+04   -0.10289E+02  7636   0.954E+00    0.924E+02
DAV:  33    -0.386854808547E+04    0.10995E+04   -0.64173E+02  7416   0.107E+01    0.929E+02
DAV:  34    -0.393941370515E+04   -0.70866E+02   -0.24561E+02  7320   0.958E+00    0.876E+02
DAV:  35    -0.383837184856E+04    0.10104E+03   -0.19350E+02  7008   0.604E+00    0.919E+02
DAV:  36    -0.350908681463E+04    0.32929E+03   -0.30625E+02  7584   0.108E+01    0.903E+02
DAV:  37    -0.410013435185E+04   -0.59105E+03   -0.36854E+02  7680   0.150E+01    0.914E+02
DAV:  38    -0.435788885275E+04   -0.25775E+03   -0.88782E+01  7488   0.887E+00    0.947E+02
DAV:  39    -0.357241758951E+04    0.78547E+03   -0.79309E+01  8198   0.121E+01    0.937E+02
DAV:  40    -0.361443605359E+04   -0.42018E+02   -0.93286E+01  7048   0.389E+00    0.942E+02
DAV:  41    -0.347126384022E+04    0.14317E+03   -0.21490E+01  8112   0.510E+00    0.922E+02
DAV:  42    -0.359008274246E+04   -0.11882E+03   -0.17521E+01  7848   0.678E+00    0.907E+02
DAV:  43    -0.346328898528E+04    0.12679E+03   -0.45260E+01  8032   0.853E+00    0.865E+02
DAV:  44    -0.351067364509E+04   -0.47385E+02   -0.11875E+02  7576   0.992E+00    0.863E+02
DAV:  45    -0.383802405486E+04   -0.32735E+03   -0.98808E+01  7816   0.816E+00    0.914E+02
DAV:  46    -0.425159879536E+04   -0.41357E+03   -0.59372E+01  7600   0.901E+00    0.990E+02
DAV:  47    -0.496597850107E+04   -0.71438E+03   -0.95742E+01  7328   0.961E+00    0.110E+03
DAV:  48    -0.499728441070E+04   -0.31306E+02   -0.68829E+01  6944   0.625E+00    0.109E+03
DAV:  49    -0.465325569957E+04    0.34403E+03   -0.22817E+01  7431   0.437E+00    0.100E+03
DAV:  50    -0.477751686890E+04   -0.12426E+03   -0.84689E+00  6968   0.162E+00    0.102E+03
DAV:  51    -0.161987965102E+05   -0.11421E+05   -0.96363E+04  9151   0.812E+01    0.472E+02
DAV:  52    -0.162820627002E+05   -0.83266E+02   -0.32462E+04  8223   0.124E+02    0.435E+02
DAV:  53    -0.163493497031E+05   -0.67287E+02   -0.66126E+03  9376   0.475E+01    0.457E+02
DAV:  54    -0.165815972121E+05   -0.23225E+03   -0.20846E+03 10192   0.228E+01    0.473E+02
DAV:  55    -0.166278604246E+05   -0.46263E+02   -0.72652E+02  9832   0.107E+01    0.481E+02
DAV:  56    -0.129924220896E+05    0.36354E+04   -0.10630E+03  7960   0.312E+01    0.433E+02
DAV:  57    -0.109351483661E+05    0.20573E+04   -0.27505E+02  7608   0.129E+01    0.396E+02
DAV:  58    -0.983049884876E+04    0.11046E+04   -0.11488E+02  8632   0.669E+00    0.371E+02
DAV:  59    -0.968267836996E+04    0.14782E+03   -0.22402E+01  8352   0.309E+00    0.368E+02
DAV:  60    -0.953627255190E+04    0.14641E+03   -0.18219E+01  9200   0.391E+00
   1 F= -.96462461E+04 E0= -.96461350E+04  d E =-.964625E+04
       N       E                     dE             d eps       ncg     rms          rms(c)
DAV:   1    -0.192524628743E+05   -0.95698E+04   -0.57791E+04  6022   0.272E+02    0.596E+02
DAV:   2    -0.183268918565E+06   -0.16402E+06   -0.42838E+06  9392   0.108E+03    0.358E+03
DAV:   3    -0.181479363207E+06    0.17896E+04   -0.20855E+05 10064   0.488E+02    0.191E+03
DAV:   4    -0.122736104751E+06    0.58743E+05   -0.48538E+04  9400   0.297E+02    0.184E+03
DAV:   5    -0.106937168906E+06    0.15799E+05   -0.12935E+04  9464   0.119E+02    0.174E+03
DAV:   6    -0.982368609698E+05    0.87003E+04   -0.17851E+03  9328   0.371E+01    0.174E+03
DAV:   7    -0.103472257760E+06   -0.52354E+04   -0.42224E+02  8496   0.245E+01    0.179E+03
DAV:   8    -0.777533799316E+05    0.25719E+05   -0.62172E+02  8216   0.538E+01    0.160E+03
DAV:   9    -0.252081466192E+05    0.52545E+05   -0.29747E+04  8184   0.708E+01    0.530E+02
DAV:  10    -0.523830352925E+04    0.19970E+05   -0.93176E+04  8656   0.109E+02    0.531E+02
DAV:  11    -0.307259129039E+04    0.21657E+04   -0.83075E+04 10616   0.224E+02    0.464E+02
DAV:  12    -0.194425480730E+04    0.11283E+04   -0.19188E+04  8504   0.150E+02    0.444E+02
DAV:  13    -0.286015083458E+04   -0.91590E+03   -0.51345E+03  7968   0.813E+01    0.437E+02
DAV:  14    -0.333186335925E+04   -0.47171E+03   -0.20962E+03  7496   0.378E+01    0.404E+02
DAV:  15    -0.295902626051E+04    0.37284E+03   -0.45111E+02  7696   0.172E+01    0.385E+02
DAV:  16    -0.263266437328E+04    0.32636E+03   -0.61946E+01  8224   0.957E+00    0.373E+02
DAV:  17    -0.322910439417E+04   -0.59644E+03   -0.98566E+01  7992   0.145E+01    0.326E+02
DAV:  18    -0.729766169612E+04   -0.40686E+04   -0.16089E+03  7572   0.636E+01    0.492E+02
DAV:  19    -0.921004399573E+04   -0.19124E+04   -0.37227E+03  7501   0.623E+01    0.762E+02
DAV:  20    -0.106470013154E+05   -0.14370E+04   -0.10376E+03  7141   0.260E+01    0.876E+02
DAV:  21    -0.106300092388E+05    0.16992E+02   -0.13281E+02  7640   0.953E+00    0.918E+02
DAV:  22    -0.106340190249E+05   -0.40098E+01   -0.15567E+01  8576   0.288E+00    0.921E+02
DAV:  23    -0.118866845673E+05   -0.12527E+04   -0.63503E+01  7752   0.604E+00    0.112E+03
DAV:  24    -0.120859311675E+05   -0.19925E+03   -0.13808E+01  7888   0.482E+00    0.121E+03
DAV:  25    -0.112308607039E+05    0.85507E+03   -0.20900E+01  8199   0.403E+00    0.106E+03
DAV:  26    -0.111814633523E+05    0.49397E+02   -0.53018E+00  8704   0.484E+00    0.112E+03
DAV:  27    -0.109176157547E+05    0.26385E+03   -0.20977E+01  7472   0.358E+00    0.989E+02
DAV:  28    -0.106023777195E+05    0.31524E+03   -0.49878E+01  7232   0.738E+00    0.987E+02
DAV:  29    -0.104201245046E+05    0.18225E+03   -0.10388E+01  7816   0.587E+00    0.982E+02
DAV:  30    -0.967136794636E+04    0.74876E+03   -0.28014E+01  8016   0.786E+00    0.923E+02
DAV:  31    -0.971122140698E+04   -0.39853E+02   -0.52923E+00  7160   0.219E+00    0.926E+02
DAV:  32    -0.967126200536E+04    0.39959E+02   -0.28659E+00  8792   0.142E+00    0.918E+02
DAV:  33    -0.976126292986E+04   -0.90001E+02   -0.48425E+01  8800   0.484E+00    0.928E+02
DAV:  34    -0.989473355814E+04   -0.13347E+03   -0.43127E+01  8216   0.110E+01    0.901E+02
DAV:  35    -0.988477345753E+04    0.99601E+01   -0.21434E+01  7384   0.620E+00    0.874E+02
DAV:  36    -0.999181543412E+04   -0.10704E+03   -0.14452E+01  7952   0.647E+00    0.903E+02
DAV:  37    -0.933623018002E+04    0.65559E+03   -0.47226E+01  7784   0.802E+00    0.783E+02
DAV:  38    -0.923159479746E+04    0.10464E+03   -0.76893E+00  7920   0.314E+00    0.778E+02
DAV:  39    -0.903847965879E+04    0.19312E+03   -0.14447E+01  7256   0.290E+00    0.770E+02
DAV:  40    -0.848018951757E+04    0.55829E+03   -0.27090E+01  8136   0.695E+00    0.733E+02
DAV:  41    -0.813110003472E+04    0.34909E+03   -0.20972E+01  7808   0.400E+00    0.705E+02
DAV:  42    -0.674185873916E+04    0.13892E+04   -0.17123E+02  7984   0.149E+01    0.595E+02
DAV:  43    -0.651808066785E+04    0.22378E+03   -0.33827E+01  7608   0.509E+00    0.575E+02
DAV:  44    -0.642063930979E+04    0.97441E+02   -0.29244E+01  8280   0.606E+00    0.550E+02
DAV:  45    -0.653112679908E+04   -0.11049E+03   -0.93157E+00  7384   0.391E+00    0.556E+02
DAV:  46    -0.644591691762E+04    0.85210E+02   -0.10051E+01  8088   0.447E+00    0.533E+02
DAV:  47    -0.832553658701E+04   -0.18796E+04   -0.19351E+04  9208   0.488E+01    0.398E+02
DAV:  48    -0.550457831517E+04    0.28210E+04   -0.67688E+03  7568   0.512E+01    0.383E+02
DAV:  49    -0.560208193794E+04   -0.97504E+02   -0.11603E+03  8472   0.194E+01    0.387E+02
DAV:  50    -0.561198337705E+04   -0.99014E+01   -0.16155E+02  9520   0.635E+00    0.389E+02
DAV:  51    -0.596062679630E+04   -0.34864E+03   -0.44073E+01  8344   0.420E+00    0.396E+02
DAV:  52    -0.151744073939E+04    0.44432E+04   -0.14223E+04  9110   0.250E+01    0.147E+02
DAV:  53    -0.220205590249E+04   -0.68462E+03   -0.36991E+03  8200   0.401E+01    0.178E+02
DAV:  54    -0.247039269650E+04   -0.26834E+03   -0.12111E+03  8640   0.207E+01    0.227E+02
DAV:  55    -0.259809717685E+04   -0.12770E+03   -0.29096E+02  8584   0.104E+01    0.241E+02
DAV:  56    -0.258980722549E+04    0.82900E+01   -0.60429E+01  8296   0.614E+00    0.246E+02
DAV:  57    -0.184241666472E+04    0.74739E+03   -0.80882E+02  8768   0.324E+01    0.199E+02
DAV:  58    -0.167626990846E+04    0.16615E+03   -0.68478E+02  7928   0.262E+01    0.184E+02
DAV:  59    -0.185992569515E+04   -0.18366E+03   -0.20118E+02  7320   0.171E+01    0.188E+02
DAV:  60    -0.208693152692E+04   -0.22701E+03   -0.17412E+02  7592   0.101E+01
   2 F= -.21960466E+04 E0= -.21959375E+04  d E =0.745020E+04
       N       E                     dE             d eps       ncg     rms          rms(c)
DAV:   1    -0.205861812702E+04   -0.19869E+03   -0.10689E+03  5936   0.361E+01    0.211E+02
DAV:   2    -0.715328225841E+04   -0.50947E+04   -0.40073E+04  9982   0.119E+02    0.447E+02
DAV:   3    -0.494460291549E+04    0.22087E+04   -0.82293E+04  9636   0.261E+02    0.454E+02
DAV:   4    -0.293373700983E+04    0.20109E+04   -0.27274E+04  8062   0.127E+02    0.275E+02
DAV:   5    -0.206509593681E+04    0.86864E+03   -0.33191E+03  7568   0.609E+01    0.200E+02
DAV:   6    -0.197054557205E+04    0.94550E+02   -0.35867E+02  7496   0.174E+01    0.186E+02
DAV:   7    -0.201063494628E+04   -0.40089E+02   -0.11411E+02 10176   0.352E+01    0.173E+02
DAV:   8    -0.176607190081E+04    0.24456E+03   -0.99346E+01  8102   0.301E+01    0.129E+02
DAV:   9    -0.171005009184E+04    0.56022E+02   -0.44228E+02  8920   0.308E+01    0.109E+02
DAV:  10    -0.157410067228E+04    0.13595E+03   -0.10617E+02  8920   0.212E+01    0.965E+01
DAV:  11    -0.157428524798E+04   -0.18458E+00   -0.45995E+01  8488   0.129E+01    0.832E+01
DAV:  12    -0.152832773605E+04    0.45958E+02   -0.17421E+01  8152   0.755E+00    0.635E+01
DAV:  13    -0.153372934650E+04   -0.54016E+01   -0.45039E+00  7664   0.325E+00    0.608E+01
DAV:  14    -0.149969675622E+04    0.34033E+02   -0.20292E+01  9496   0.832E+00    0.503E+01
DAV:  15    -0.149251338685E+04    0.71834E+01   -0.82325E+00  8224   0.373E+00    0.347E+01
DAV:  16    -0.149128857622E+04    0.12248E+01   -0.21117E+00  8208   0.252E+00    0.316E+01
DAV:  17    -0.149314213586E+04   -0.18536E+01   -0.28561E+00  8784   0.254E+00    0.381E+01
DAV:  18    -0.149087083690E+04    0.22713E+01   -0.61864E-01  6656   0.933E-01    0.327E+01
DAV:  19    -0.149119007535E+04   -0.31924E+00   -0.58900E-01  8984   0.141E+00    0.350E+01
DAV:  20    -0.149113893202E+04    0.51143E-01   -0.11220E+00  8672   0.196E+00    0.227E+01
DAV:  21    -0.149011136461E+04    0.10276E+01   -0.45796E+00  7808   0.220E+00    0.271E+01
DAV:  22    -0.148894358197E+04    0.11678E+01   -0.45132E-01  6960   0.101E+00    0.244E+01
DAV:  23    -0.148872674363E+04    0.21684E+00   -0.87482E-02  8056   0.338E-01    0.230E+01
DAV:  24    -0.148788612406E+04    0.84062E+00   -0.11003E-01  8208   0.408E-01    0.189E+01
DAV:  25    -0.148702859618E+04    0.85753E+00   -0.19427E-01  7576   0.519E-01    0.157E+01
DAV:  26    -0.148657337277E+04    0.45522E+00   -0.14507E-01  7392   0.462E-01    0.155E+01
DAV:  27    -0.148602243695E+04    0.55094E+00   -0.19858E-01  8072   0.549E-01    0.134E+01
DAV:  28    -0.148570933940E+04    0.31310E+00   -0.21090E-01  7336   0.405E-01    0.108E+01
DAV:  29    -0.148575414430E+04   -0.44805E-01   -0.22904E-02  6736   0.173E-01    0.101E+01
DAV:  30    -0.148569125200E+04    0.62892E-01   -0.52898E-03  8656   0.815E-02    0.990E+00
DAV:  31    -0.148567336512E+04    0.17887E-01   -0.12207E-03  8128   0.436E-02    0.978E+00
DAV:  32    -0.148580487806E+04   -0.13151E+00   -0.23805E-01  8008   0.367E-01    0.152E+01
DAV:  33    -0.148524433685E+04    0.56054E+00   -0.15691E-01  7456   0.554E-01    0.139E+01
DAV:  34    -0.148507988745E+04    0.16445E+00   -0.10294E-01  7888   0.455E-01    0.135E+01
DAV:  35    -0.148515601216E+04   -0.76125E-01   -0.57486E-02  8312   0.287E-01    0.153E+01
DAV:  36    -0.148514934346E+04    0.66687E-02   -0.88237E-03  6464   0.106E-01    0.156E+01
DAV:  37    -0.148512621282E+04    0.23131E-01   -0.24818E-03  8536   0.849E-02    0.156E+01
DAV:  38    -0.148486668805E+04    0.25952E+00   -0.76538E-02  8016   0.237E-01    0.105E+01
DAV:  39    -0.148483686665E+04    0.29821E-01   -0.15202E-01  8376   0.659E-01    0.639E+00
DAV:  40    -0.148488277901E+04   -0.45912E-01   -0.58553E-02  6680   0.233E-01    0.228E+00
DAV:  41    -0.148493792603E+04   -0.55147E-01   -0.11632E-02  7608   0.124E-01    0.375E+00
DAV:  42    -0.148493776530E+04    0.16073E-03   -0.24153E-03  7504   0.771E-02    0.401E+00
DAV:  43    -0.148493940151E+04   -0.16362E-02   -0.29240E-03  8280   0.833E-02    0.378E+00
DAV:  44    -0.148493016105E+04    0.92405E-02   -0.18388E-02  8160   0.109E-01    0.121E+00
DAV:  45    -0.148494585598E+04   -0.15695E-01   -0.43243E-03  6472   0.801E-02    0.143E+00
DAV:  46    -0.148494164227E+04    0.42137E-02   -0.68871E-04  6568   0.326E-02    0.136E+00
DAV:  47    -0.148495747400E+04   -0.15832E-01   -0.27566E-02  8928   0.166E-01    0.470E+00
DAV:  48    -0.148491901850E+04    0.38455E-01   -0.41471E-03  6392   0.693E-02    0.331E+00
DAV:  49    -0.148492785552E+04   -0.88370E-02   -0.97463E-04  8168   0.324E-02    0.293E+00
DAV:  50    -0.148493383930E+04   -0.59838E-02   -0.36348E-04  7584   0.271E-02    0.283E+00
DAV:  51    -0.148493353390E+04    0.30540E-03   -0.12339E-03  7624   0.339E-02    0.155E+00
DAV:  52    -0.148494323673E+04   -0.97028E-02   -0.63937E-03  7416   0.545E-02    0.784E-01
DAV:  53    -0.148494772279E+04   -0.44861E-02   -0.11695E-03  6224   0.356E-02    0.470E-01
DAV:  54    -0.148494757772E+04    0.14506E-03   -0.22552E-04  8000   0.124E-02    0.450E-01
DAV:  55    -0.148494761413E+04   -0.36402E-04   -0.53214E-05  6760   0.838E-03    0.388E-01
DAV:  56    -0.148494855792E+04   -0.94379E-03   -0.89217E-05  6992   0.111E-02    0.254E-01
DAV:  57    -0.148494960165E+04   -0.10437E-02   -0.18694E-04  7072   0.127E-02    0.137E-01
DAV:  58    -0.148495004350E+04   -0.44185E-03   -0.44390E-05  5784   0.757E-03    0.119E-01
DAV:  59    -0.148495055108E+04   -0.50758E-03   -0.10466E-05  4358   0.346E-03    0.135E-01
DAV:  60    -0.148495097934E+04   -0.42826E-03   -0.13462E-05  4656   0.316E-03
   3 F= -.15940162E+04 E0= -.15938485E+04  d E =0.805223E+04
       N       E                     dE             d eps       ncg     rms          rms(c)
DAV:   1    -0.114284704713E+04    0.34210E+03   -0.93932E+04  5756   0.397E+02    0.394E+02
DAV:   2    -0.248640597491E+04   -0.13436E+04   -0.89103E+03  8654   0.122E+02    0.353E+02
DAV:   3    -0.254905806217E+04   -0.62652E+02   -0.28142E+03  8968   0.120E+02    0.290E+02
DAV:   4    -0.407523739600E+04   -0.15262E+04   -0.94893E+03  9181   0.152E+02    0.272E+02
DAV:   5    -0.366534974040E+04    0.40989E+03   -0.11046E+04  9070   0.116E+02    0.308E+02
DAV:   6    -0.642692641860E+04   -0.27616E+04   -0.36099E+04  8078   0.186E+02    0.433E+02
DAV:   7    -0.271341850126E+04    0.37135E+04   -0.89192E+03  8328   0.719E+01    0.206E+02
DAV:   8    -0.178989365626E+04    0.92352E+03   -0.24129E+03  8136   0.585E+01    0.118E+02
DAV:   9    -0.170959685603E+04    0.80297E+02   -0.14265E+03  8832   0.380E+01    0.957E+01
DAV:  10    -0.179302709140E+04   -0.83430E+02   -0.25942E+02  8696   0.217E+01    0.104E+02
DAV:  11    -0.170772944273E+04    0.85298E+02   -0.91546E+01  8136   0.163E+01    0.824E+01
DAV:  12    -0.170643901138E+04    0.12904E+01   -0.23391E+01  7864   0.811E+00    0.758E+01
DAV:  13    -0.170322255907E+04    0.32165E+01   -0.31169E+01  8504   0.602E+00    0.714E+01
DAV:  14    -0.169772600858E+04    0.54966E+01   -0.16125E+01  8600   0.747E+00    0.581E+01
DAV:  15    -0.169783448301E+04   -0.10847E+00   -0.85282E+00  8560   0.532E+00    0.450E+01
DAV:  16    -0.171686679272E+04   -0.19032E+02   -0.13547E+01  9320   0.722E+00    0.466E+01
DAV:  17    -0.170295957791E+04    0.13907E+02   -0.63274E+00  8152   0.393E+00    0.393E+01
DAV:  18    -0.171338046389E+04   -0.10421E+02   -0.32928E+00  8168   0.347E+00    0.423E+01
DAV:  19    -0.170907064295E+04    0.43098E+01   -0.10203E+00  6976   0.127E+00    0.390E+01
DAV:  20    -0.170246980552E+04    0.66008E+01   -0.11461E+00  8896   0.139E+00    0.318E+01
DAV:  21    -0.169814365546E+04    0.43262E+01   -0.10831E+00  8976   0.174E+00    0.287E+01
DAV:  22    -0.169558785350E+04    0.25558E+01   -0.11941E+00  8528   0.125E+00    0.225E+01
DAV:  23    -0.169447525710E+04    0.11126E+01   -0.36858E-01  6992   0.753E-01    0.209E+01
DAV:  24    -0.169257350959E+04    0.19017E+01   -0.45680E-01  8800   0.769E-01    0.170E+01
DAV:  25    -0.169241315078E+04    0.16036E+00   -0.21604E-01  7464   0.619E-01    0.164E+01
DAV:  26    -0.169046967859E+04    0.19435E+01   -0.94335E-01  8712   0.105E+00    0.106E+01
DAV:  27    -0.169028327179E+04    0.18641E+00   -0.11936E-01  6888   0.393E-01    0.948E+00
DAV:  28    -0.168988956653E+04    0.39371E+00   -0.22121E-01  8936   0.377E-01    0.687E+00
DAV:  29    -0.168971519667E+04    0.17437E+00   -0.50977E-02  7704   0.338E-01    0.509E+00
DAV:  30    -0.168952783636E+04    0.18736E+00   -0.13827E-01  8608   0.416E-01    0.286E+00
DAV:  31    -0.168955746763E+04   -0.29631E-01   -0.38068E-02  6488   0.188E-01    0.302E+00
DAV:  32    -0.168950221895E+04    0.55249E-01   -0.35468E-02  9128   0.210E-01    0.214E+00
DAV:  33    -0.168946301467E+04    0.39204E-01   -0.15553E-02  8520   0.235E-01    0.104E+00
DAV:  34    -0.168946165421E+04    0.13605E-02   -0.92579E-03  6856   0.106E-01    0.787E-01
DAV:  35    -0.168946189224E+04   -0.23803E-03   -0.14092E-03  7872   0.324E-02    0.751E-01
DAV:  36    -0.168946202043E+04   -0.12820E-03   -0.68638E-04  7872   0.423E-02    0.643E-01
DAV:  37    -0.168946330382E+04   -0.12834E-02   -0.14393E-03  6704   0.486E-02    0.460E-01
DAV:  38    -0.168946482222E+04   -0.15184E-02   -0.11485E-03  8240   0.496E-02    0.320E-01
DAV:  39    -0.168946535745E+04   -0.53522E-03   -0.45507E-04  7552   0.251E-02    0.298E-01
DAV:  40    -0.168946536684E+04   -0.93949E-05   -0.69528E-05  7168   0.901E-03    0.303E-01
DAV:  41    -0.168946539925E+04   -0.32408E-04   -0.21100E-05  5536   0.103E-02    0.280E-01
DAV:  42    -0.168946611152E+04   -0.71227E-03   -0.15049E-04  8200   0.244E-02    0.226E-01
DAV:  43    -0.168946665626E+04   -0.54474E-03   -0.31669E-04  7758   0.284E-02    0.154E-01
DAV:  44    -0.168946676407E+04   -0.10781E-03   -0.84617E-05  6744   0.909E-03    0.150E-01
DAV:  45    -0.168946675776E+04    0.63023E-05   -0.56008E-06  4028   0.243E-03    0.150E-01
DAV:  46    -0.168946672838E+04    0.29384E-04   -0.20376E-06  3608   0.203E-03    0.153E-01
DAV:  47    -0.168946677633E+04   -0.47951E-04   -0.29435E-05  6496   0.126E-02    0.129E-01
DAV:  48    -0.168946691017E+04   -0.13384E-03   -0.42377E-05  7032   0.118E-02    0.117E-01
DAV:  49    -0.168946716812E+04   -0.25795E-03   -0.10026E-04  8040   0.162E-02    0.146E-01
DAV:  50    -0.168946729366E+04   -0.12555E-03   -0.47139E-05  6576   0.770E-03    0.177E-01
DAV:  51    -0.168946732692E+04   -0.33257E-04   -0.53805E-06  3640   0.397E-03    0.193E-01
DAV:  52    -0.168946700094E+04    0.32598E-03   -0.63539E-05  7088   0.132E-02    0.148E-01
DAV:  53    -0.168946714080E+04   -0.13986E-03   -0.44289E-05  6792   0.845E-03    0.125E-01
DAV:  54    -0.168946738384E+04   -0.24304E-03   -0.35591E-05  6264   0.882E-03    0.101E-01
DAV:  55    -0.168946744765E+04   -0.63808E-04   -0.11384E-05  3656   0.484E-03    0.945E-02
DAV:  56    -0.168946758805E+04   -0.14040E-03   -0.11298E-05  3840   0.373E-03    0.915E-02
DAV:  57    -0.168946787676E+04   -0.28871E-03   -0.11119E-05  4192   0.394E-03    0.912E-02
DAV:  58    -0.168946803597E+04   -0.15921E-03   -0.41725E-06  3384   0.273E-03    0.910E-02
DAV:  59    -0.168946808452E+04   -0.48548E-04   -0.33672E-06  3072   0.316E-03    0.911E-02
DAV:  60    -0.168946811972E+04   -0.35204E-04   -0.36107E-06  3072   0.228E-03
   4 F= -.17978552E+04 E0= -.17977402E+04  d E =-.203839E+03
       N       E                     dE             d eps       ncg     rms          rms(c)
DAV:   1    -0.164764811586E+04    0.41820E+02   -0.14530E+04  5604   0.151E+02    0.147E+02
DAV:   2    -0.175774823441E+04   -0.11010E+03   -0.77883E+02  8000   0.350E+01    0.108E+02
DAV:   3    -0.386429413641E+04   -0.21065E+04   -0.39100E+03  9319   0.763E+01    0.197E+02
DAV:   4    -0.308522028774E+04    0.77907E+03   -0.16843E+04  9047   0.107E+02    0.244E+02
DAV:   5    -0.249981598355E+04    0.58540E+03   -0.39329E+03  7976   0.571E+01    0.183E+02
DAV:   6    -0.192691495086E+04    0.57290E+03   -0.33110E+02  9456   0.372E+01    0.967E+01
DAV:   7    -0.173892163846E+04    0.18799E+03   -0.13670E+02  7792   0.256E+01    0.624E+01
DAV:   8    -0.172153698709E+04    0.17385E+02   -0.24122E+02  9152   0.235E+01    0.618E+01
DAV:   9    -0.169841418475E+04    0.23123E+02   -0.51087E+01  7944   0.105E+01    0.328E+01
DAV:  10    -0.169877497445E+04   -0.36079E+00   -0.18993E+01  8296   0.703E+00    0.241E+01
DAV:  11    -0.169479361316E+04    0.39814E+01   -0.82121E+00  7584   0.400E+00    0.198E+01
DAV:  12    -0.169687076437E+04   -0.20772E+01   -0.45930E+00  8720   0.398E+00    0.178E+01
DAV:  13    -0.169425707424E+04    0.26137E+01   -0.39268E+00  7936   0.324E+00    0.151E+01
DAV:  14    -0.169500892538E+04   -0.75185E+00   -0.16821E+00  8768   0.324E+00    0.163E+01
DAV:  15    -0.169473217886E+04    0.27675E+00   -0.86697E-01  6560   0.142E+00    0.155E+01
DAV:  16    -0.169440339856E+04    0.32878E+00   -0.18779E-01  8664   0.656E-01    0.138E+01
DAV:  17    -0.169410504527E+04    0.29835E+00   -0.11745E-01  9552   0.699E-01    0.115E+01
DAV:  18    -0.169374583569E+04    0.35921E+00   -0.18197E-01  8512   0.846E-01    0.856E+00
DAV:  19    -0.169355222626E+04    0.19361E+00   -0.85480E-02  8232   0.562E-01    0.670E+00
DAV:  20    -0.169355073999E+04    0.14863E-02   -0.29799E-02  6584   0.212E-01    0.643E+00
DAV:  21    -0.169343517623E+04    0.11556E+00   -0.48283E-02  9352   0.252E-01    0.527E+00
DAV:  22    -0.169343457736E+04    0.59887E-03   -0.11777E-02  7424   0.143E-01    0.506E+00
DAV:  23    -0.169337253025E+04    0.62047E-01   -0.16017E-02  8904   0.216E-01    0.422E+00
DAV:  24    -0.169334927488E+04    0.23255E-01   -0.10011E-02  7728   0.144E-01    0.366E+00
DAV:  25    -0.169334234707E+04    0.69278E-02   -0.31383E-03  7424   0.675E-02    0.351E+00
DAV:  26    -0.169332109661E+04    0.21250E-01   -0.39265E-03  9152   0.102E-01    0.308E+00
DAV:  27    -0.169328763824E+04    0.33458E-01   -0.15062E-02  8656   0.241E-01    0.199E+00
DAV:  28    -0.169327895235E+04    0.86859E-02   -0.11992E-02  7576   0.138E-01    0.141E+00
DAV:  29    -0.169327629800E+04    0.26543E-02   -0.20320E-03  8784   0.628E-02    0.115E+00
DAV:  30    -0.169327421601E+04    0.20820E-02   -0.10736E-03  7888   0.456E-02    0.916E-01
DAV:  31    -0.169326896035E+04    0.52557E-02   -0.30944E-03  9552   0.107E-01    0.484E-01
DAV:  32    -0.169326858251E+04    0.37784E-03   -0.22137E-03  6728   0.553E-02    0.241E-01
DAV:  33    -0.169326888458E+04   -0.30207E-03   -0.56374E-04  8888   0.286E-02    0.160E-01
DAV:  34    -0.169326901365E+04   -0.12907E-03   -0.86934E-05  7200   0.137E-02    0.136E-01
DAV:  35    -0.169326913607E+04   -0.12242E-03   -0.33672E-05  6640   0.951E-03    0.115E-01
DAV:  36    -0.169326937767E+04   -0.24160E-03   -0.57108E-05  6856   0.965E-03    0.105E-01
DAV:  37    -0.169326942146E+04   -0.43788E-04   -0.90854E-06  3848   0.839E-03    0.101E-01
DAV:  38    -0.169326946029E+04   -0.38830E-04   -0.48391E-06  3520   0.370E-03    0.996E-02
DAV:  39    -0.169326958300E+04   -0.12270E-03   -0.20871E-05  5192   0.864E-03    0.101E-01
DAV:  40    -0.169326962904E+04   -0.46046E-04   -0.68301E-06  3352   0.493E-03    0.961E-02
DAV:  41    -0.169326973358E+04   -0.10454E-03   -0.40989E-06  3584   0.358E-03    0.972E-02
DAV:  42    -0.169326978870E+04   -0.55126E-04   -0.20188E-06  3256   0.241E-03    0.966E-02
DAV:  43    -0.169326990000E+04   -0.11129E-03   -0.28950E-06  3687   0.185E-03    0.958E-02
DAV:  44    -0.169326995080E+04   -0.50804E-04   -0.13853E-06  3192   0.136E-03    0.959E-02
DAV:  45    -0.169326996647E+04   -0.15668E-04   -0.61720E-07  3126   0.819E-04    0.958E-02
DAV:  46    -0.169326998691E+04   -0.20447E-04   -0.35254E-07  3104   0.645E-04    0.956E-02
DAV:  47    -0.169326998741E+04   -0.49453E-06   -0.22268E-07  3056   0.638E-04
   5 F= -.18016383E+04 E0= -.18014952E+04  d E =-.207622E+03
       N       E                     dE             d eps       ncg     rms          rms(c)
DAV:   1    -0.168854768890E+04    0.47223E+01   -0.33117E+03  5604   0.694E+01    0.658E+01
DAV:   2    -0.170894547728E+04   -0.20398E+02   -0.13005E+02  8135   0.147E+01    0.557E+01
DAV:   3    -0.186153343069E+04   -0.15259E+03   -0.16031E+02  9552   0.315E+01    0.115E+02
DAV:   4    -0.174166215454E+04    0.11987E+03   -0.13798E+02  9744   0.274E+01    0.504E+01
DAV:   5    -0.217816909243E+04   -0.43651E+03   -0.26837E+02  8982   0.329E+01    0.131E+02
DAV:   6    -0.172881625022E+04    0.44935E+03   -0.31820E+02  9032   0.274E+01    0.515E+01
DAV:   7    -0.171689313571E+04    0.11923E+02   -0.84532E+01  8744   0.119E+01    0.379E+01
DAV:   8    -0.170177879086E+04    0.15114E+02   -0.25923E+01  9104   0.803E+00    0.214E+01
DAV:   9    -0.169758539070E+04    0.41934E+01   -0.10069E+01  8504   0.556E+00    0.132E+01
DAV:  10    -0.169726059157E+04    0.32480E+00   -0.32535E+00  8688   0.275E+00    0.120E+01
DAV:  11    -0.169679671147E+04    0.46388E+00   -0.76897E-01  7736   0.146E+00    0.111E+01
DAV:  12    -0.169711424007E+04   -0.31753E+00   -0.69949E-01  9304   0.151E+00    0.100E+01
DAV:  13    -0.169640344341E+04    0.71080E+00   -0.64214E-01  9304   0.161E+00    0.641E+00
DAV:  14    -0.169629229356E+04    0.11115E+00   -0.38885E-01  7648   0.824E-01    0.266E+00
DAV:  15    -0.169624977655E+04    0.42517E-01   -0.11008E-01  8352   0.497E-01    0.236E+00
DAV:  16    -0.169619965661E+04    0.50120E-01   -0.51329E-02  8816   0.388E-01    0.161E+00
DAV:  17    -0.169619036794E+04    0.92887E-02   -0.45000E-02  8776   0.362E-01    0.974E-01
DAV:  18    -0.169619018994E+04    0.17800E-03   -0.19363E-02  8280   0.229E-01    0.812E-01
DAV:  19    -0.169618696231E+04    0.32276E-02   -0.77857E-03  8480   0.187E-01    0.810E-01
DAV:  20    -0.169618551466E+04    0.14476E-02   -0.24194E-03  8368   0.882E-02    0.416E-01
DAV:  21    -0.169618605453E+04   -0.53986E-03   -0.21322E-03  8664   0.663E-02    0.167E-01
DAV:  22    -0.169618618096E+04   -0.12643E-03   -0.50971E-04  7680   0.340E-02    0.130E-01
DAV:  23    -0.169618615388E+04    0.27078E-04   -0.15468E-04  8624   0.178E-02    0.120E-01
DAV:  24    -0.169618617238E+04   -0.18500E-04   -0.50527E-05  7408   0.131E-02    0.121E-01
DAV:  25    -0.169618617247E+04   -0.86613E-07   -0.32793E-05  6760   0.115E-02
   6 F= -.18044678E+04 E0= -.18043535E+04  d E =-.210452E+03
       N       E                     dE             d eps       ncg     rms          rms(c)
DAV:   1    -0.178459019115E+04   -0.88404E+02   -0.10485E+04  5604   0.132E+02    0.144E+02
DAV:   2    -0.197333988809E+04   -0.18875E+03   -0.45255E+02  8248   0.332E+01    0.122E+02
DAV:   3    -0.558860801317E+04   -0.36153E+04   -0.13650E+04  9454   0.980E+01    0.264E+02
DAV:   4    -0.184194281178E+04    0.37467E+04   -0.39452E+03  8023   0.951E+01    0.136E+02
DAV:   5    -0.189939672627E+04   -0.57454E+02   -0.13663E+03  8976   0.455E+01    0.673E+01
DAV:   6    -0.227818610534E+04   -0.37879E+03   -0.95381E+02  8928   0.551E+01    0.903E+01
DAV:   7    -0.181148787732E+04    0.46670E+03   -0.60127E+02  8224   0.375E+01    0.390E+01
DAV:   8    -0.183162804494E+04   -0.20140E+02   -0.20770E+02  7832   0.137E+01    0.304E+01
DAV:   9    -0.182016379564E+04    0.11464E+02   -0.49370E+01  8352   0.887E+00    0.233E+01
DAV:  10    -0.181559923913E+04    0.45646E+01   -0.18027E+01  8120   0.596E+00    0.182E+01
DAV:  11    -0.181424713600E+04    0.13521E+01   -0.80560E+00  8520   0.353E+00    0.144E+01
DAV:  12    -0.181375894861E+04    0.48819E+00   -0.25135E+00  8568   0.273E+00    0.110E+01
DAV:  13    -0.181374658991E+04    0.12359E-01   -0.80211E-01  8440   0.157E+00    0.834E+00
DAV:  14    -0.181354642741E+04    0.20016E+00   -0.59780E-01  8704   0.132E+00    0.613E+00
DAV:  15    -0.181344726765E+04    0.99160E-01   -0.35126E-01  8352   0.938E-01    0.500E+00
DAV:  16    -0.181337351435E+04    0.73753E-01   -0.12272E-01  8360   0.695E-01    0.426E+00
DAV:  17    -0.181332843028E+04    0.45084E-01   -0.74241E-02  8080   0.452E-01    0.269E+00
DAV:  18    -0.181327076328E+04    0.57667E-01   -0.16255E-01  8456   0.455E-01    0.171E+00
DAV:  19    -0.181326386977E+04    0.68935E-02   -0.26638E-02  7368   0.232E-01    0.925E-01
DAV:  20    -0.181326315984E+04    0.70992E-03   -0.11321E-02  7856   0.156E-01    0.689E-01
DAV:  21    -0.181326081068E+04    0.23492E-02   -0.69080E-03  8384   0.164E-01    0.377E-01
DAV:  22    -0.181326041466E+04    0.39602E-03   -0.36639E-03  8775   0.106E-01    0.237E-01
DAV:  23    -0.181325995466E+04    0.46000E-03   -0.13601E-03  7960   0.587E-02    0.148E-01
DAV:  24    -0.181325996536E+04   -0.10699E-04   -0.31966E-04  7431   0.250E-02    0.128E-01
DAV:  25    -0.181325999321E+04   -0.27848E-04   -0.12825E-04  7304   0.176E-02    0.107E-01
DAV:  26    -0.181326002072E+04   -0.27512E-04   -0.14729E-04  8351   0.227E-02    0.128E-01
DAV:  27    -0.181325991914E+04    0.10158E-03   -0.71240E-05  6512   0.122E-02    0.941E-02
DAV:  28    -0.181325990568E+04    0.13463E-04   -0.14937E-05  4735   0.504E-03    0.951E-02
DAV:  29    -0.181325986314E+04    0.42541E-04   -0.80205E-06  4040   0.393E-03    0.919E-02
DAV:  30    -0.181325978282E+04    0.80317E-04   -0.11959E-05  4584   0.344E-03    0.915E-02
DAV:  31    -0.181325973226E+04    0.50558E-04   -0.28367E-06  3792   0.251E-03    0.915E-02
DAV:  32    -0.181325968225E+04    0.50010E-04   -0.22922E-06  3816   0.175E-03    0.914E-02
DAV:  33    -0.181325958819E+04    0.94058E-04   -0.31214E-06  4024   0.164E-03    0.914E-02
DAV:  34    -0.181325950575E+04    0.82449E-04   -0.19788E-06  3760   0.113E-03    0.914E-02
DAV:  35    -0.181325947472E+04    0.31022E-04   -0.74619E-07  3520   0.969E-04    0.913E-02
DAV:  36    -0.181325945630E+04    0.18428E-04   -0.37052E-07  3503   0.499E-04    0.913E-02
DAV:  37    -0.181325943754E+04    0.18758E-04   -0.21883E-07  3472   0.416E-04    0.913E-02
DAV:  38    -0.181325942735E+04    0.10184E-04   -0.13669E-07  3430   0.290E-04    0.913E-02
DAV:  39    -0.181325942492E+04    0.24317E-05   -0.82352E-08  3424   0.247E-04
   7 F= -.19221614E+04 E0= -.19220153E+04  d E =-.117694E+03
       N       E                     dE             d eps       ncg     rms          rms(c)
DAV:   1    -0.182520061697E+04   -0.11941E+02   -0.27845E+03  5604   0.675E+01    0.497E+01
DAV:   2    -0.195849336480E+04   -0.13329E+03   -0.14479E+02  8328   0.207E+01    0.907E+01
DAV:   3    -0.193324328724E+04    0.25250E+02   -0.10033E+02  8168   0.247E+01    0.700E+01
DAV:   4    -0.189801683089E+04    0.35226E+02   -0.10190E+02  8712   0.240E+01    0.583E+01
DAV:   5    -0.189261972453E+04    0.53971E+01   -0.63646E+01  9038   0.242E+01    0.567E+01
DAV:   6    -0.184097562418E+04    0.51644E+02   -0.80964E+01  8464   0.157E+01    0.273E+01
DAV:   7    -0.183676950367E+04    0.42061E+01   -0.30238E+01  8912   0.925E+00    0.167E+01
DAV:   8    -0.183266143373E+04    0.41081E+01   -0.10319E+01  7663   0.498E+00    0.125E+01
DAV:   9    -0.183134619138E+04    0.13152E+01   -0.24015E+00  7640   0.263E+00    0.840E+00
DAV:  10    -0.183144916507E+04   -0.10297E+00   -0.89497E-01  7792   0.179E+00    0.692E+00
DAV:  11    -0.183118871902E+04    0.26045E+00   -0.95352E-01  8352   0.173E+00    0.413E+00
DAV:  12    -0.183120060108E+04   -0.11882E-01   -0.49422E-01  8000   0.128E+00    0.299E+00
DAV:  13    -0.183112177861E+04    0.78822E-01   -0.21023E-01  7848   0.876E-01    0.219E+00
DAV:  14    -0.183109886964E+04    0.22909E-01   -0.10061E-01  7856   0.501E-01    0.160E+00
DAV:  15    -0.183109190658E+04    0.69631E-02   -0.32161E-02  7744   0.322E-01    0.116E+00
DAV:  16    -0.183108908681E+04    0.28198E-02   -0.19119E-02  8456   0.242E-01    0.637E-01
DAV:  17    -0.183108716909E+04    0.19177E-02   -0.65657E-03  8088   0.139E-01    0.419E-01
DAV:  18    -0.183108667986E+04    0.48923E-03   -0.18958E-03  7824   0.653E-02    0.304E-01
DAV:  19    -0.183108656071E+04    0.11915E-03   -0.62539E-04  8256   0.461E-02    0.235E-01
DAV:  20    -0.183108645807E+04    0.10264E-03   -0.31467E-04  8488   0.410E-02    0.161E-01
DAV:  21    -0.183108641093E+04    0.47139E-04   -0.14897E-04  7480   0.240E-02    0.120E-01
DAV:  22    -0.183108634556E+04    0.65368E-04   -0.74663E-05  7680   0.144E-02    0.100E-01
DAV:  23    -0.183108629770E+04    0.47865E-04   -0.21767E-05  5456   0.857E-03    0.968E-02
DAV:  24    -0.183108622943E+04    0.68261E-04   -0.16662E-05  4720   0.536E-03    0.948E-02
DAV:  25    -0.183108617865E+04    0.50781E-04   -0.70021E-06  3880   0.508E-03    0.912E-02
DAV:  26    -0.183108612420E+04    0.54454E-04   -0.71462E-06  4072   0.326E-03    0.909E-02
DAV:  27    -0.183108605650E+04    0.67696E-04   -0.42450E-06  3824   0.246E-03    0.910E-02
DAV:  28    -0.183108599683E+04    0.59673E-04   -0.25750E-06  3624   0.180E-03    0.908E-02
DAV:  29    -0.183108595960E+04    0.37233E-04   -0.12687E-06  3504   0.142E-03    0.908E-02
DAV:  30    -0.183108589586E+04    0.63743E-04   -0.12412E-06  3600   0.108E-03    0.907E-02
DAV:  31    -0.183108581217E+04    0.83686E-04   -0.14167E-06  3672   0.103E-03    0.907E-02
DAV:  32    -0.183108577376E+04    0.38407E-04   -0.72097E-07  3416   0.724E-04    0.907E-02
DAV:  33    -0.183108576161E+04    0.12152E-04   -0.36550E-07  3360   0.468E-04    0.907E-02
DAV:  34    -0.183108574204E+04    0.19573E-04   -0.24931E-07  3336   0.350E-04    0.907E-02
DAV:  35    -0.183108573215E+04    0.98904E-05   -0.14091E-07  3336   0.282E-04    0.907E-02
DAV:  36    -0.183108572955E+04    0.25972E-05   -0.82388E-08  3312   0.204E-04
   8 F= -.19405918E+04 E0= -.19404021E+04  d E =-.136124E+03
       N       E                     dE             d eps       ncg     rms          rms(c)
DAV:   1    -0.189638515782E+04   -0.65299E+02   -0.74665E+03  5604   0.108E+02    0.802E+01
DAV:   2    -0.206224662000E+04   -0.16586E+03   -0.49343E+02  8576   0.312E+01    0.861E+01
DAV:   3    -0.325223137693E+04   -0.11900E+04   -0.17452E+03  8598   0.653E+01    0.179E+02
DAV:   4    -0.195525632530E+04    0.12970E+04   -0.56207E+02  8480   0.331E+01    0.707E+01
DAV:   5    -0.201147321171E+04   -0.56217E+02   -0.21814E+02  8456   0.235E+01    0.688E+01
DAV:   6    -0.195504068257E+04    0.56433E+02   -0.94705E+01  8480   0.254E+01    0.470E+01
DAV:   7    -0.194743758475E+04    0.76031E+01   -0.16515E+02  8832   0.211E+01    0.376E+01
DAV:   8    -0.194598674761E+04    0.14508E+01   -0.57496E+01  8544   0.116E+01    0.271E+01
DAV:   9    -0.192682408136E+04    0.19163E+02   -0.30187E+01  7616   0.789E+00    0.196E+01
DAV:  10    -0.192152547447E+04    0.52986E+01   -0.80008E+00  8008   0.440E+00    0.160E+01
DAV:  11    -0.191853397899E+04    0.29915E+01   -0.47738E+00  8304   0.300E+00    0.983E+00
DAV:  12    -0.191766014687E+04    0.87383E+00   -0.28273E+00  8432   0.220E+00    0.494E+00
DAV:  13    -0.191763409718E+04    0.26050E-01   -0.51348E-01  7176   0.128E+00    0.368E+00
DAV:  14    -0.191759526257E+04    0.38835E-01   -0.19245E-01  7968   0.726E-01    0.277E+00
DAV:  15    -0.191759937299E+04   -0.41104E-02   -0.14144E-01  8232   0.564E-01    0.226E+00
DAV:  16    -0.191757005666E+04    0.29316E-01   -0.14354E-01  9032   0.629E-01    0.144E+00
DAV:  17    -0.191756413434E+04    0.59223E-02   -0.41893E-02  7912   0.385E-01    0.991E-01
DAV:  18    -0.191755643136E+04    0.77030E-02   -0.15811E-02  7600   0.194E-01    0.582E-01
DAV:  19    -0.191755396838E+04    0.24630E-02   -0.57947E-03  7768   0.121E-01    0.432E-01
DAV:  20    -0.191755446242E+04   -0.49404E-03   -0.25666E-03  7448   0.827E-02    0.271E-01
DAV:  21    -0.191755457701E+04   -0.11460E-03   -0.24424E-03  7952   0.745E-02    0.308E-01
DAV:  22    -0.191755384457E+04    0.73245E-03   -0.81468E-04  7792   0.439E-02    0.148E-01
DAV:  23    -0.191755390130E+04   -0.56735E-04   -0.23648E-04  7296   0.188E-02    0.114E-01
DAV:  24    -0.191755398269E+04   -0.81385E-04   -0.90106E-05  7672   0.123E-02    0.981E-02
DAV:  25    -0.191755406792E+04   -0.85233E-04   -0.54039E-05  5328   0.101E-02    0.945E-02
DAV:  26    -0.191755412283E+04   -0.54908E-04   -0.13262E-05  4472   0.615E-03    0.917E-02
DAV:  27    -0.191755418795E+04   -0.65127E-04   -0.82200E-06  4088   0.307E-03    0.910E-02
DAV:  28    -0.191755422452E+04   -0.36568E-04   -0.78260E-06  3856   0.380E-03    0.900E-02
DAV:  29    -0.191755426031E+04   -0.35786E-04   -0.47212E-06  3864   0.218E-03    0.900E-02
DAV:  30    -0.191755428009E+04   -0.19786E-04   -0.27525E-06  3672   0.186E-03    0.898E-02
DAV:  31    -0.191755430948E+04   -0.29390E-04   -0.45577E-06  3992   0.130E-03    0.899E-02
DAV:  32    -0.191755431604E+04   -0.65537E-05   -0.10727E-06  3480   0.106E-03    0.898E-02
DAV:  33    -0.191755432641E+04   -0.10373E-04   -0.93876E-07  3448   0.781E-04    0.898E-02
DAV:  34    -0.191755433291E+04   -0.65058E-05   -0.68589E-07  3400   0.754E-04    0.898E-02
DAV:  35    -0.191755433692E+04   -0.40028E-05   -0.42975E-07  3144   0.441E-04
   9 F= -.20270939E+04 E0= -.20269292E+04  d E =-.865021E+02
       N       E                     dE             d eps       ncg     rms          rms(c)
DAV:   1    -0.192164089781E+04   -0.40866E+01   -0.11130E+04  5604   0.133E+02    0.101E+02
DAV:   2    -0.206184729267E+04   -0.14021E+03   -0.74175E+02  8256   0.357E+01    0.903E+01
DAV:   3    -0.395150566937E+04   -0.18897E+04   -0.83700E+02  9167   0.761E+01    0.182E+02
DAV:   4    -0.197144741613E+04    0.19801E+04   -0.35392E+02  8006   0.365E+01    0.630E+01
DAV:   5    -0.202299192367E+04   -0.51545E+02   -0.35845E+02  7768   0.238E+01    0.500E+01
DAV:   6    -0.197730837249E+04    0.45684E+02   -0.13202E+02  7872   0.188E+01    0.317E+01
DAV:   7    -0.201730417560E+04   -0.39996E+02   -0.16424E+02  9432   0.246E+01    0.552E+01
DAV:   8    -0.198212543164E+04    0.35179E+02   -0.77786E+01  8191   0.147E+01    0.302E+01
DAV:   9    -0.196294749272E+04    0.19178E+02   -0.21178E+01  7380   0.717E+00    0.201E+01
DAV:  10    -0.195895584529E+04    0.39916E+01   -0.45318E+00  7304   0.329E+00    0.157E+01
DAV:  11    -0.195714328154E+04    0.18126E+01   -0.22456E+00  8848   0.219E+00    0.107E+01
DAV:  12    -0.195546867981E+04    0.16746E+01   -0.16758E+00  7584   0.182E+00    0.725E+00
DAV:  13    -0.195509355823E+04    0.37512E+00   -0.10017E+00  7544   0.135E+00    0.496E+00
DAV:  14    -0.195507042732E+04    0.23131E-01   -0.21834E-01  7000   0.815E-01    0.392E+00
DAV:  15    -0.195486585766E+04    0.20457E+00   -0.68168E-01  9272   0.877E-01    0.223E+00
DAV:  16    -0.195484467864E+04    0.21179E-01   -0.83706E-02  7352   0.475E-01    0.171E+00
DAV:  17    -0.195483422980E+04    0.10449E-01   -0.30641E-02  7632   0.317E-01    0.102E+00
DAV:  18    -0.195483426534E+04   -0.35540E-04   -0.16189E-02  7496   0.189E-01    0.559E-01
DAV:  19    -0.195483561613E+04   -0.13508E-02   -0.51840E-03  6920   0.112E-01    0.499E-01
DAV:  20    -0.195483476398E+04    0.85215E-03   -0.76679E-03  7720   0.118E-01    0.442E-01
DAV:  21    -0.195483420225E+04    0.56173E-03   -0.19215E-03  7360   0.587E-02    0.281E-01
DAV:  22    -0.195483444418E+04   -0.24193E-03   -0.10690E-03  7232   0.437E-02    0.149E-01
DAV:  23    -0.195483458660E+04   -0.14242E-03   -0.33210E-04  7288   0.306E-02    0.145E-01
DAV:  24    -0.195483461033E+04   -0.23729E-04   -0.16916E-04  7296   0.160E-02    0.108E-01
DAV:  25    -0.195483475612E+04   -0.14579E-03   -0.72841E-05  6616   0.123E-02    0.928E-02
DAV:  26    -0.195483485211E+04   -0.95991E-04   -0.26334E-05  5304   0.696E-03    0.922E-02
DAV:  27    -0.195483494166E+04   -0.89545E-04   -0.12069E-05  4264   0.498E-03    0.900E-02
DAV:  28    -0.195483499925E+04   -0.57590E-04   -0.70516E-06  4112   0.361E-03    0.900E-02
DAV:  29    -0.195483503915E+04   -0.39903E-04   -0.61705E-06  3864   0.331E-03    0.897E-02
DAV:  30    -0.195483506991E+04   -0.30760E-04   -0.47232E-06  4040   0.186E-03    0.897E-02
DAV:  31    -0.195483509218E+04   -0.22266E-04   -0.36519E-06  3920   0.149E-03    0.896E-02
DAV:  32    -0.195483510142E+04   -0.92403E-05   -0.20397E-06  3712   0.114E-03    0.896E-02
DAV:  33    -0.195483510564E+04   -0.42235E-05   -0.19137E-06  3816   0.854E-04
  10 F= -.20640531E+04 E0= -.20639245E+04  d E =-.123461E+03
       N       E                     dE             d eps       ncg     rms          rms(c)
DAV:   1    -0.195599841022E+04   -0.11633E+01   -0.64998E+03  5604   0.968E+01    0.616E+01
DAV:   2    -0.203671244311E+04   -0.80714E+02   -0.35231E+02  8070   0.245E+01    0.782E+01
DAV:   3    -0.247964892995E+04   -0.44294E+03   -0.19099E+02  7856   0.386E+01    0.145E+02
DAV:   4    -0.197865395101E+04    0.50099E+03   -0.16229E+02  8720   0.255E+01    0.549E+01
DAV:   5    -0.200044005859E+04   -0.21786E+02   -0.39290E+01  8160   0.171E+01    0.542E+01
DAV:   6    -0.200443130371E+04   -0.39912E+01   -0.69225E+01  8975   0.179E+01    0.429E+01
DAV:   7    -0.205417746948E+04   -0.49746E+02   -0.92471E+01  8455   0.178E+01    0.366E+01
DAV:   8    -0.198060888718E+04    0.73569E+02   -0.14826E+02  8672   0.138E+01    0.171E+01
DAV:   9    -0.197584970175E+04    0.47592E+01   -0.26348E+01  7887   0.641E+00    0.966E+00
DAV:  10    -0.197466954652E+04    0.11802E+01   -0.41052E+00  7048   0.354E+00    0.477E+00
DAV:  11    -0.197462353285E+04    0.46014E-01   -0.10337E+00  6904   0.150E+00    0.309E+00
DAV:  12    -0.197458601831E+04    0.37515E-01   -0.64984E-01  8152   0.943E-01    0.258E+00
DAV:  13    -0.197453744050E+04    0.48578E-01   -0.19434E-01  7672   0.789E-01    0.152E+00
DAV:  14    -0.197456842811E+04   -0.30988E-01   -0.16675E-01  8072   0.553E-01    0.150E+00
DAV:  15    -0.197452209464E+04    0.46333E-01   -0.91261E-02  7192   0.363E-01    0.586E-01
DAV:  16    -0.197452205824E+04    0.36394E-04   -0.10362E-02  8000   0.149E-01    0.386E-01
DAV:  17    -0.197452163204E+04    0.42621E-03   -0.22302E-03  7704   0.944E-02    0.247E-01
DAV:  18    -0.197452177868E+04   -0.14664E-03   -0.13731E-03  7512   0.635E-02    0.173E-01
DAV:  19    -0.197452189091E+04   -0.11223E-03   -0.36083E-04  7160   0.374E-02    0.128E-01
DAV:  20    -0.197452189206E+04   -0.11516E-05   -0.32531E-04  7416   0.265E-02    0.994E-02
DAV:  21    -0.197452194330E+04   -0.51243E-04   -0.53392E-05  6624   0.130E-02    0.925E-02
DAV:  22    -0.197452203713E+04   -0.93822E-04   -0.26015E-05  5400   0.735E-03    0.915E-02
DAV:  23    -0.197452213825E+04   -0.10113E-03   -0.12680E-05  4440   0.499E-03    0.907E-02
DAV:  24    -0.197452222378E+04   -0.85525E-04   -0.79849E-06  3952   0.335E-03    0.902E-02
DAV:  25    -0.197452230638E+04   -0.82603E-04   -0.69225E-06  4264   0.252E-03    0.902E-02
DAV:  26    -0.197452239285E+04   -0.86471E-04   -0.74544E-06  4184   0.222E-03    0.901E-02
DAV:  27    -0.197452246910E+04   -0.76251E-04   -0.77837E-06  4216   0.186E-03    0.901E-02
DAV:  28    -0.197452250148E+04   -0.32380E-04   -0.27224E-06  3816   0.148E-03    0.900E-02
DAV:  29    -0.197452252457E+04   -0.23090E-04   -0.15230E-06  3608   0.105E-03    0.900E-02
DAV:  30    -0.197452253843E+04   -0.13853E-04   -0.90620E-07  3320   0.797E-04    0.900E-02
DAV:  31    -0.197452255147E+04   -0.13048E-04   -0.62816E-07  3232   0.559E-04    0.900E-02
DAV:  32    -0.197452256412E+04   -0.12646E-04   -0.48131E-07  3264   0.464E-04    0.900E-02
DAV:  33    -0.197452256793E+04   -0.38098E-05   -0.24508E-07  3024   0.323E-04
  11 F= -.20833783E+04 E0= -.20832370E+04  d E =-.193253E+02
       N       E                     dE             d eps       ncg     rms          rms(c)
DAV:   1    -0.197493840922E+04   -0.41585E+00   -0.26958E+02  5621   0.197E+01    0.171E+01
DAV:   2    -0.197880234792E+04   -0.38639E+01   -0.14909E+01  8400   0.456E+00    0.152E+01
DAV:   3    -0.203836556105E+04   -0.59563E+02   -0.25362E+01  8646   0.116E+01    0.428E+01
DAV:   4    -0.197769347780E+04    0.60672E+02   -0.30570E+01  9096   0.120E+01    0.168E+01
DAV:   5    -0.197866693248E+04   -0.97345E+00   -0.11348E+01  8800   0.660E+00    0.128E+01
DAV:   6    -0.197729979596E+04    0.13671E+01   -0.76168E+00  8816   0.545E+00    0.756E+00
DAV:   7    -0.197570460555E+04    0.15952E+01   -0.26737E+00  8144   0.308E+00    0.277E+00
DAV:   8    -0.197568876018E+04    0.15845E-01   -0.75966E-01  7520   0.143E+00    0.257E+00
DAV:   9    -0.197557781467E+04    0.11095E+00   -0.19564E-01  7272   0.860E-01    0.192E+00
DAV:  10    -0.197554220994E+04    0.35605E-01   -0.18342E-01  7672   0.527E-01    0.159E+00
DAV:  11    -0.197554159091E+04    0.61904E-03   -0.23965E-02  7888   0.349E-01    0.110E+00
DAV:  12    -0.197553070113E+04    0.10890E-01   -0.12925E-02  7536   0.259E-01    0.692E-01
DAV:  13    -0.197552956108E+04    0.11400E-02   -0.53968E-03  8040   0.140E-01    0.404E-01
DAV:  14    -0.197552972244E+04   -0.16136E-03   -0.16709E-03  7904   0.870E-02    0.296E-01
DAV:  15    -0.197552903566E+04    0.68678E-03   -0.11138E-03  7640   0.428E-02    0.177E-01
DAV:  16    -0.197552886673E+04    0.16893E-03   -0.45353E-04  8544   0.345E-02    0.117E-01
DAV:  17    -0.197552893908E+04   -0.72349E-04   -0.12780E-04  7384   0.217E-02    0.104E-01
DAV:  18    -0.197552894074E+04   -0.16626E-05   -0.96701E-05  6536   0.145E-02    0.958E-02
DAV:  19    -0.197552895762E+04   -0.16877E-04   -0.32522E-05  6112   0.901E-03    0.920E-02
DAV:  20    -0.197552894866E+04    0.89549E-05   -0.80091E-06  4160   0.610E-03    0.903E-02
DAV:  21    -0.197552894218E+04    0.64787E-05   -0.50907E-06  3888   0.350E-03    0.900E-02
DAV:  22    -0.197552893360E+04    0.85807E-05   -0.24278E-06  3536   0.209E-03    0.899E-02
DAV:  23    -0.197552892817E+04    0.54357E-05   -0.10226E-06  3432   0.135E-03    0.899E-02
DAV:  24    -0.197552891048E+04    0.17691E-04   -0.80263E-07  3448   0.102E-03    0.898E-02
DAV:  25    -0.197552888578E+04    0.24699E-04   -0.11941E-06  3496   0.117E-03    0.898E-02
DAV:  26    -0.197552888252E+04    0.32550E-05   -0.42762E-07  3352   0.740E-04
  12 F= -.20844438E+04 E0= -.20843055E+04  d E =-.203907E+02
       N       E                     dE             d eps       ncg     rms          rms(c)
DAV:   1    -0.198848252781E+04   -0.12954E+02   -0.20253E+03  5606   0.532E+01    0.444E+01
DAV:   2    -0.201624122685E+04   -0.27759E+02   -0.89090E+01  7966   0.153E+01    0.512E+01
DAV:   3    -0.214127603507E+04   -0.12503E+03   -0.52895E+01  8439   0.254E+01    0.722E+01
DAV:   4    -0.205478665396E+04    0.86489E+02   -0.90425E+01  8504   0.249E+01    0.550E+01
DAV:   5    -0.202651074580E+04    0.28276E+02   -0.76391E+01  9216   0.202E+01    0.473E+01
DAV:   6    -0.199837591300E+04    0.28135E+02   -0.54099E+01  8424   0.121E+01    0.211E+01
DAV:   7    -0.201758573158E+04   -0.19210E+02   -0.29584E+01  8024   0.904E+00    0.162E+01
DAV:   8    -0.199425487202E+04    0.23331E+02   -0.22247E+01  8416   0.835E+00    0.773E+00
DAV:   9    -0.199360293886E+04    0.65193E+00   -0.85549E+00  7896   0.369E+00    0.612E+00
DAV:  10    -0.199331328700E+04    0.28965E+00   -0.22156E+00  7576   0.236E+00    0.469E+00
DAV:  11    -0.199322174351E+04    0.91543E-01   -0.61741E-01  7856   0.142E+00    0.404E+00
DAV:  12    -0.199314288004E+04    0.78863E-01   -0.36553E-01  8168   0.906E-01    0.228E+00
DAV:  13    -0.199314913859E+04   -0.62586E-02   -0.99308E-02  7968   0.608E-01    0.171E+00
DAV:  14    -0.199315002520E+04   -0.88660E-03   -0.47111E-02  7976   0.366E-01    0.958E-01
DAV:  15    -0.199314230545E+04    0.77197E-02   -0.12321E-02  7736   0.261E-01    0.765E-01
DAV:  16    -0.199313837990E+04    0.39255E-02   -0.64625E-03  8096   0.161E-01    0.559E-01
DAV:  17    -0.199313643381E+04    0.19461E-02   -0.33233E-03  8208   0.105E-01    0.381E-01
DAV:  18    -0.199313505660E+04    0.13772E-02   -0.22428E-03  8080   0.800E-02    0.240E-01
DAV:  19    -0.199313507105E+04   -0.14446E-04   -0.74626E-04  6856   0.306E-02    0.219E-01
DAV:  20    -0.199313508363E+04   -0.12580E-04   -0.77587E-05  8144   0.825E-03    0.210E-01
DAV:  21    -0.199313496861E+04    0.11502E-03   -0.19604E-04  8200   0.231E-02    0.145E-01
DAV:  22    -0.199313500709E+04   -0.38479E-04   -0.53069E-04  8568   0.454E-02    0.112E-01
DAV:  23    -0.199313502357E+04   -0.16473E-04   -0.29139E-04  6600   0.159E-02    0.999E-02
DAV:  24    -0.199313500558E+04    0.17983E-04   -0.16144E-05  5040   0.600E-03    0.962E-02
DAV:  25    -0.199313499283E+04    0.12755E-04   -0.22260E-05  5632   0.931E-03    0.913E-02
DAV:  26    -0.199313500089E+04   -0.80590E-05   -0.18847E-05  4912   0.490E-03    0.915E-02
DAV:  27    -0.199313500471E+04   -0.38196E-05   -0.29807E-06  3608   0.261E-03
  13 F= -.21018833E+04 E0= -.21017328E+04  d E =-.174395E+02
       N       E                     dE             d eps       ncg     rms          rms(c)
DAV:   1    -0.199409110926E+04   -0.95611E+00   -0.42332E+02  5606   0.245E+01    0.268E+01
DAV:   2    -0.200104552929E+04   -0.69544E+01   -0.22237E+01  8160   0.694E+00    0.236E+01
DAV:   3    -0.212356403617E+04   -0.12252E+03   -0.82691E+01  9080   0.197E+01    0.634E+01
DAV:   4    -0.201509663826E+04    0.10847E+03   -0.58724E+01  8728   0.186E+01    0.355E+01
DAV:   5    -0.201078429871E+04    0.43123E+01   -0.27986E+01  9168   0.138E+01    0.300E+01
DAV:   6    -0.199548299101E+04    0.15301E+02   -0.11913E+01  7736   0.666E+00    0.115E+01
DAV:   7    -0.199765105179E+04   -0.21681E+01   -0.41762E+00  7824   0.304E+00    0.744E+00
DAV:   8    -0.199558379093E+04    0.20673E+01   -0.18082E+00  7720   0.264E+00    0.550E+00
DAV:   9    -0.199540700536E+04    0.17679E+00   -0.57462E-01  7888   0.142E+00    0.407E+00
DAV:  10    -0.199519305291E+04    0.21395E+00   -0.95504E-01  8600   0.122E+00    0.321E+00
DAV:  11    -0.199507922433E+04    0.11383E+00   -0.13761E-01  8168   0.603E-01    0.207E+00
DAV:  12    -0.199504899023E+04    0.30234E-01   -0.48815E-02  8048   0.273E-01    0.171E+00
DAV:  13    -0.199504059805E+04    0.83922E-02   -0.11226E-02  7872   0.110E-01    0.158E+00
DAV:  14    -0.199503410249E+04    0.64956E-02   -0.27661E-03  9080   0.786E-02    0.151E+00
DAV:  15    -0.199501704461E+04    0.17058E-01   -0.78925E-03  9136   0.209E-01    0.133E+00
DAV:  16    -0.199498139572E+04    0.35649E-01   -0.44743E-02  8680   0.438E-01    0.995E-01
DAV:  17    -0.199497876990E+04    0.26258E-02   -0.46928E-02  7984   0.256E-01    0.698E-01
DAV:  18    -0.199497923256E+04   -0.46266E-03   -0.80944E-03  6792   0.885E-02    0.471E-01
DAV:  19    -0.199497927533E+04   -0.42767E-04   -0.62307E-04  9072   0.227E-02    0.431E-01
DAV:  20    -0.199497917319E+04    0.10214E-03   -0.45611E-04  8240   0.369E-02    0.315E-01
DAV:  21    -0.199497936784E+04   -0.19465E-03   -0.17181E-03  8288   0.735E-02    0.176E-01
DAV:  22    -0.199497916546E+04    0.20237E-03   -0.46810E-04  6944   0.367E-02    0.175E-01
DAV:  23    -0.199497914959E+04    0.15873E-04   -0.14694E-04  8104   0.151E-02    0.164E-01
DAV:  24    -0.199497916569E+04   -0.16094E-04   -0.41278E-05  5880   0.619E-03    0.143E-01
DAV:  25    -0.199497918055E+04   -0.14868E-04   -0.12503E-05  4248   0.678E-03    0.113E-01
DAV:  26    -0.199497918877E+04   -0.82196E-05   -0.47893E-05  7640   0.904E-03    0.943E-02
DAV:  27    -0.199497918965E+04   -0.87847E-06   -0.75120E-06  3936   0.316E-03
  14 F= -.21036141E+04 E0= -.21034571E+04  d E =-.191703E+02
       N       E                     dE             d eps       ncg     rms          rms(c)
DAV:   1    -0.200399441851E+04   -0.90152E+01   -0.18984E+03  5604   0.502E+01    0.613E+01
DAV:   2    -0.203173862222E+04   -0.27744E+02   -0.77460E+01  8128   0.124E+01    0.453E+01
DAV:   3    -0.297098100441E+04   -0.93924E+03   -0.84424E+02  9040   0.438E+01    0.133E+02
DAV:   4    -0.204204606543E+04    0.92893E+03   -0.33344E+02  8184   0.475E+01    0.534E+01
DAV:   5    -0.203792698681E+04    0.41191E+01   -0.30406E+02  8792   0.274E+01    0.305E+01
DAV:   6    -0.203065530590E+04    0.72717E+01   -0.80773E+01  8096   0.165E+01    0.239E+01
DAV:   7    -0.200919662205E+04    0.21459E+02   -0.38144E+01  7848   0.859E+00    0.113E+01
DAV:   8    -0.200888607640E+04    0.31055E+00   -0.91902E+00  8432   0.384E+00    0.601E+00
DAV:   9    -0.200878488762E+04    0.10119E+00   -0.31494E+00  8216   0.253E+00    0.661E+00
DAV:  10    -0.200850462283E+04    0.28026E+00   -0.46630E-01  8000   0.141E+00    0.430E+00
DAV:  11    -0.200844604283E+04    0.58580E-01   -0.12433E-01  8208   0.650E-01    0.350E+00
DAV:  12    -0.200844055214E+04    0.54907E-02   -0.16421E-01  9064   0.814E-01    0.297E+00
DAV:  13    -0.200839339851E+04    0.47154E-01   -0.29952E-01  8664   0.102E+00    0.172E+00
DAV:  14    -0.200836105750E+04    0.32341E-01   -0.10660E-01  7744   0.515E-01    0.887E-01
DAV:  15    -0.200836218413E+04   -0.11266E-02   -0.16799E-02  7336   0.164E-01    0.687E-01
DAV:  16    -0.200836162147E+04    0.56265E-03   -0.19156E-03  8864   0.627E-02    0.574E-01
DAV:  17    -0.200836148263E+04    0.13885E-03   -0.21729E-03  8640   0.981E-02    0.380E-01
DAV:  18    -0.200836083634E+04    0.64629E-03   -0.26021E-03  8360   0.105E-01    0.198E-01
DAV:  19    -0.200836097254E+04   -0.13620E-03   -0.98329E-04  7152   0.463E-02    0.149E-01
DAV:  20    -0.200836105372E+04   -0.81178E-04   -0.19010E-04  7608   0.176E-02    0.125E-01
DAV:  21    -0.200836120397E+04   -0.15024E-03   -0.99541E-05  7392   0.129E-02    0.105E-01
DAV:  22    -0.200836139513E+04   -0.19117E-03   -0.66169E-05  7064   0.136E-02    0.930E-02
DAV:  23    -0.200836145674E+04   -0.61612E-04   -0.18306E-05  5320   0.674E-03    0.914E-02
DAV:  24    -0.200836149744E+04   -0.40694E-04   -0.66088E-06  3864   0.369E-03    0.906E-02
DAV:  25    -0.200836157119E+04   -0.73755E-04   -0.51111E-06  4032   0.295E-03    0.900E-02
DAV:  26    -0.200836163959E+04   -0.68400E-04   -0.38730E-06  4080   0.218E-03    0.899E-02
DAV:  27    -0.200836165887E+04   -0.19279E-04   -0.15367E-06  3696   0.149E-03    0.899E-02
DAV:  28    -0.200836170740E+04   -0.48531E-04   -0.30168E-06  4016   0.177E-03    0.899E-02
DAV:  29    -0.200836173586E+04   -0.28455E-04   -0.15018E-06  3672   0.126E-03    0.898E-02
DAV:  30    -0.200836174666E+04   -0.10803E-04   -0.73504E-07  3560   0.814E-04    0.898E-02
DAV:  31    -0.200836175537E+04   -0.87088E-05   -0.61145E-07  3520   0.718E-04    0.898E-02
DAV:  32    -0.200836176655E+04   -0.11176E-04   -0.57503E-07  3544   0.706E-04    0.898E-02
DAV:  33    -0.200836177124E+04   -0.46957E-05   -0.33611E-07  3408   0.531E-04
  15 F= -.21168568E+04 E0= -.21167043E+04  d E =-.132427E+02
       N       E                     dE             d eps       ncg     rms          rms(c)
DAV:   1    -0.200869622819E+04   -0.33446E+00   -0.96446E+01  5604   0.112E+01    0.152E+01
DAV:   2    -0.201017351947E+04   -0.14773E+01   -0.63999E+00  7928   0.266E+00    0.110E+01
DAV:   3    -0.207737821252E+04   -0.67205E+02   -0.10841E+01  8888   0.113E+01    0.423E+01
DAV:   4    -0.201058648353E+04    0.66792E+02   -0.24018E+01  9112   0.121E+01    0.145E+01
DAV:   5    -0.201078708953E+04   -0.20061E+00   -0.11065E+01  8544   0.546E+00    0.113E+01
DAV:   6    -0.200935667936E+04    0.14304E+01   -0.55039E+00  8488   0.344E+00    0.503E+00
DAV:   7    -0.200894984888E+04    0.40683E+00   -0.46716E-01  7384   0.144E+00    0.236E+00
DAV:   8    -0.200892208338E+04    0.27766E-01   -0.13599E-01  7296   0.590E-01    0.108E+00
DAV:   9    -0.200891389444E+04    0.81889E-02   -0.36707E-02  7632   0.331E-01    0.721E-01
DAV:  10    -0.200891729717E+04   -0.34027E-02   -0.12692E-02  7376   0.245E-01    0.568E-01
DAV:  11    -0.200891347799E+04    0.38192E-02   -0.42504E-03  7936   0.161E-01    0.416E-01
DAV:  12    -0.200891384538E+04   -0.36739E-03   -0.29130E-03  8208   0.128E-01    0.309E-01
DAV:  13    -0.200891292131E+04    0.92407E-03   -0.23068E-03  8104   0.107E-01    0.190E-01
DAV:  14    -0.200891244827E+04    0.47305E-03   -0.80968E-04  7816   0.636E-02    0.118E-01
DAV:  15    -0.200891245330E+04   -0.50375E-05   -0.23856E-04  7328   0.274E-02    0.103E-01
DAV:  16    -0.200891245134E+04    0.19670E-05   -0.52988E-05  7024   0.121E-02    0.950E-02
DAV:  17    -0.200891248932E+04   -0.37983E-04   -0.15263E-05  4584   0.831E-03    0.918E-02
DAV:  18    -0.200891251327E+04   -0.23951E-04   -0.68565E-06  3736   0.586E-03    0.899E-02
DAV:  19    -0.200891253117E+04   -0.17899E-04   -0.30503E-06  3472   0.270E-03    0.898E-02
DAV:  20    -0.200891254432E+04   -0.13150E-04   -0.12975E-06  3368   0.190E-03    0.897E-02
DAV:  21    -0.200891256121E+04   -0.16890E-04   -0.67671E-07  3312   0.112E-03    0.897E-02
DAV:  22    -0.200891258023E+04   -0.19022E-04   -0.48757E-07  3304   0.927E-04    0.897E-02
DAV:  23    -0.200891259122E+04   -0.10987E-04   -0.32806E-07  3240   0.598E-04    0.897E-02
DAV:  24    -0.200891260623E+04   -0.15015E-04   -0.25070E-07  3264   0.461E-04    0.897E-02
DAV:  25    -0.200891263108E+04   -0.24848E-04   -0.28399E-07  3248   0.419E-04    0.897E-02
DAV:  26    -0.200891263540E+04   -0.43258E-05   -0.13530E-07  3160   0.357E-04
  16 F= -.21173838E+04 E0= -.21172338E+04  d E =-.137697E+02
       N       E                     dE             d eps       ncg     rms          rms(c)
DAV:   1    -0.201500001567E+04   -0.60874E+01   -0.11061E+03  5628   0.399E+01    0.438E+01
DAV:   2    -0.203323861110E+04   -0.18239E+02   -0.56957E+01  8184   0.117E+01    0.398E+01
DAV:   3    -0.235451118762E+04   -0.32127E+03   -0.92223E+01  8454   0.286E+01    0.926E+01
DAV:   4    -0.203851838496E+04    0.31599E+03   -0.12127E+02  8632   0.290E+01    0.377E+01
DAV:   5    -0.204731940632E+04   -0.88010E+01   -0.85892E+01  9392   0.205E+01    0.303E+01
DAV:   6    -0.203528199827E+04    0.12037E+02   -0.38111E+01  8896   0.143E+01    0.171E+01
DAV:   7    -0.201796605503E+04    0.17316E+02   -0.16961E+01  7952   0.785E+00    0.801E+00
DAV:   8    -0.201789415361E+04    0.71901E-01   -0.71203E+00  8192   0.330E+00    0.530E+00
DAV:   9    -0.201775192790E+04    0.14223E+00   -0.17601E+00  7984   0.209E+00    0.437E+00
DAV:  10    -0.201756591190E+04    0.18602E+00   -0.37609E-01  8232   0.117E+00    0.335E+00
DAV:  11    -0.201755057852E+04    0.15333E-01   -0.91935E-02  7984   0.516E-01    0.257E+00
DAV:  12    -0.201758860808E+04   -0.38030E-01   -0.81814E-02  8704   0.636E-01    0.291E+00
DAV:  13    -0.201752255506E+04    0.66053E-01   -0.10439E-01  8472   0.669E-01    0.988E-01
DAV:  14    -0.201751652242E+04    0.60326E-02   -0.35009E-02  8184   0.340E-01    0.701E-01
DAV:  15    -0.201751271301E+04    0.38094E-02   -0.14709E-02  7632   0.164E-01    0.427E-01
DAV:  16    -0.201751197032E+04    0.74269E-03   -0.42020E-03  8176   0.692E-02    0.355E-01
DAV:  17    -0.201751101240E+04    0.95792E-03   -0.11410E-03  9256   0.539E-02    0.287E-01
DAV:  18    -0.201751018221E+04    0.83019E-03   -0.30173E-03  9136   0.102E-01    0.159E-01
DAV:  19    -0.201751043455E+04   -0.25234E-03   -0.21097E-03  7456   0.531E-02    0.137E-01
DAV:  20    -0.201751056982E+04   -0.13527E-03   -0.34113E-04  7424   0.236E-02    0.111E-01
DAV:  21    -0.201751058324E+04   -0.13420E-04   -0.10381E-04  7176   0.218E-02    0.970E-02
DAV:  22    -0.201751064829E+04   -0.65049E-04   -0.57233E-05  6232   0.108E-02    0.933E-02
DAV:  23    -0.201751067774E+04   -0.29454E-04   -0.12376E-05  4400   0.589E-03    0.929E-02
DAV:  24    -0.201751067773E+04    0.14668E-07   -0.58048E-06  3984   0.390E-03
  17 F= -.21259056E+04 E0= -.21257710E+04  d E =-.852182E+01
       N       E                     dE             d eps       ncg     rms          rms(c)
DAV:   1    -0.201765835800E+04   -0.14768E+00   -0.37262E+01  5720   0.735E+00    0.781E+00
DAV:   2    -0.201813849377E+04   -0.48014E+00   -0.26443E+00  8160   0.198E+00    0.689E+00
DAV:   3    -0.202701556108E+04   -0.88771E+01   -0.10611E+01  8496   0.488E+00    0.157E+01
DAV:   4    -0.201911611743E+04    0.78994E+01   -0.20687E+00  8680   0.514E+00    0.917E+00
DAV:   5    -0.201829526710E+04    0.82085E+00   -0.38288E+00  9032   0.335E+00    0.426E+00
DAV:   6    -0.201815569689E+04    0.13957E+00   -0.80773E-01  8928   0.227E+00    0.372E+00
DAV:   7    -0.201779442980E+04    0.36127E+00   -0.19037E-01  7272   0.998E-01    0.154E+00
DAV:   8    -0.201774655616E+04    0.47874E-01   -0.58503E-02  7800   0.555E-01    0.798E-01
DAV:   9    -0.201774604172E+04    0.51444E-03   -0.27680E-02  6832   0.260E-01    0.486E-01
DAV:  10    -0.201774659671E+04   -0.55499E-03   -0.64399E-03  7008   0.136E-01    0.367E-01
DAV:  11    -0.201774586028E+04    0.73643E-03   -0.11498E-03  7648   0.723E-02    0.297E-01
DAV:  12    -0.201774588874E+04   -0.28456E-04   -0.59941E-04  8352   0.555E-02    0.234E-01
DAV:  13    -0.201774574313E+04    0.14561E-03   -0.76195E-04  7656   0.637E-02    0.137E-01
DAV:  14    -0.201774566261E+04    0.80517E-04   -0.30773E-04  7400   0.341E-02    0.111E-01
DAV:  15    -0.201774564149E+04    0.21119E-04   -0.56110E-05  7144   0.151E-02    0.104E-01
DAV:  16    -0.201774561612E+04    0.25376E-04   -0.27934E-05  6280   0.115E-02    0.940E-02
DAV:  17    -0.201774561117E+04    0.49504E-05   -0.20944E-05  4392   0.798E-03
  18 F= -.21261271E+04 E0= -.21259949E+04  d E =-.874332E+01
       N       E                     dE             d eps       ncg     rms          rms(c)
DAV:   1    -0.202155359057E+04   -0.38080E+01   -0.60305E+02  5612   0.292E+01    0.260E+01
DAV:   2    -0.202577003011E+04   -0.42164E+01   -0.29050E+01  8000   0.692E+00    0.217E+01
DAV:   3    -0.206197094585E+04   -0.36201E+02   -0.35760E+01  8840   0.149E+01    0.353E+01
DAV:   4    -0.208593838361E+04   -0.23967E+02   -0.39581E+01  8832   0.174E+01    0.512E+01
DAV:   5    -0.203297704201E+04    0.52961E+02   -0.26335E+01  9072   0.136E+01    0.159E+01
DAV:   6    -0.202894543760E+04    0.40316E+01   -0.28876E+01  8264   0.835E+00    0.840E+00
DAV:   7    -0.202405688082E+04    0.48886E+01   -0.99200E+00  7408   0.448E+00    0.578E+00
DAV:   8    -0.202312624454E+04    0.93064E+00   -0.18064E+00  7184   0.208E+00    0.376E+00
DAV:   9    -0.202301978573E+04    0.10646E+00   -0.37908E-01  7615   0.924E-01    0.241E+00
DAV:  10    -0.202299544882E+04    0.24337E-01   -0.12750E-01  7896   0.669E-01    0.165E+00
DAV:  11    -0.202298088900E+04    0.14560E-01   -0.49792E-02  7336   0.402E-01    0.957E-01
DAV:  12    -0.202297737238E+04    0.35166E-02   -0.14819E-02  8271   0.303E-01    0.851E-01
DAV:  13    -0.202297141673E+04    0.59557E-02   -0.67019E-03  7880   0.201E-01    0.408E-01
DAV:  14    -0.202297168045E+04   -0.26372E-03   -0.33380E-03  7064   0.865E-02    0.247E-01
DAV:  15    -0.202297157404E+04    0.10641E-03   -0.12314E-03  7416   0.635E-02    0.130E-01
DAV:  16    -0.202297153625E+04    0.37798E-04   -0.37772E-04  7688   0.403E-02    0.106E-01
DAV:  17    -0.202297152010E+04    0.16145E-04   -0.13399E-04  7344   0.200E-02    0.986E-02
DAV:  18    -0.202297149857E+04    0.21529E-04   -0.36302E-05  6568   0.103E-02    0.934E-02
DAV:  19    -0.202297147166E+04    0.26916E-04   -0.11976E-05  4136   0.598E-03    0.915E-02
DAV:  20    -0.202297144360E+04    0.28052E-04   -0.65579E-06  3880   0.527E-03    0.911E-02
DAV:  21    -0.202297141850E+04    0.25101E-04   -0.29863E-06  3472   0.299E-03    0.909E-02
DAV:  22    -0.202297139917E+04    0.19335E-04   -0.18047E-06  3472   0.170E-03    0.908E-02
DAV:  23    -0.202297136455E+04    0.34617E-04   -0.16701E-06  3512   0.152E-03    0.908E-02
DAV:  24    -0.202297132544E+04    0.39116E-04   -0.17211E-06  3576   0.113E-03    0.908E-02
DAV:  25    -0.202297129303E+04    0.32409E-04   -0.92406E-07  3344   0.936E-04    0.908E-02
DAV:  26    -0.202297126062E+04    0.32408E-04   -0.83357E-07  3384   0.731E-04    0.908E-02
DAV:  27    -0.202297124005E+04    0.20569E-04   -0.52229E-07  3144   0.586E-04    0.908E-02
DAV:  28    -0.202297122944E+04    0.10609E-04   -0.32218E-07  3104   0.436E-04    0.908E-02
DAV:  29    -0.202297121869E+04    0.10755E-04   -0.22268E-07  3072   0.355E-04    0.908E-02
DAV:  30    -0.202297121296E+04    0.57281E-05   -0.13877E-07  3048   0.272E-04    0.908E-02
DAV:  31    -0.202297120940E+04    0.35565E-05   -0.86525E-08  3048   0.208E-04
  19 F= -.21313012E+04 E0= -.21311710E+04  d E =-.517415E+01
       N       E                     dE             d eps       ncg     rms          rms(c)
DAV:   1    -0.202321870742E+04   -0.24749E+00   -0.45922E+02  5606   0.257E+01    0.236E+01
DAV:   2    -0.202610747160E+04   -0.28888E+01   -0.21004E+01  7856   0.587E+00    0.166E+01
DAV:   3    -0.205523113443E+04   -0.29124E+02   -0.36735E+01  8832   0.138E+01    0.304E+01
DAV:   4    -0.208474698911E+04   -0.29516E+02   -0.77011E+01  9224   0.165E+01    0.490E+01
DAV:   5    -0.203167803758E+04    0.53069E+02   -0.18660E+01  9023   0.121E+01    0.137E+01
DAV:   6    -0.202594776014E+04    0.57303E+01   -0.17586E+01  8088   0.623E+00    0.581E+00
DAV:   7    -0.202477724800E+04    0.11705E+01   -0.64050E+00  7296   0.295E+00    0.452E+00
DAV:   8    -0.202433657349E+04    0.44067E+00   -0.68670E-01  7120   0.151E+00    0.273E+00
DAV:   9    -0.202430889637E+04    0.27677E-01   -0.15821E-01  8056   0.760E-01    0.198E+00
DAV:  10    -0.202429297055E+04    0.15926E-01   -0.82779E-02  8144   0.609E-01    0.133E+00
DAV:  11    -0.202428537044E+04    0.76001E-02   -0.29741E-02  7592   0.348E-01    0.795E-01
DAV:  12    -0.202428274610E+04    0.26243E-02   -0.72249E-03  7784   0.229E-01    0.519E-01
DAV:  13    -0.202428145103E+04    0.12951E-02   -0.35868E-03  8048   0.120E-01    0.324E-01
DAV:  14    -0.202428132582E+04    0.12521E-03   -0.12363E-03  7256   0.558E-02    0.186E-01
DAV:  15    -0.202428133790E+04   -0.12081E-04   -0.51926E-04  8336   0.421E-02    0.109E-01
DAV:  16    -0.202428133521E+04    0.26922E-05   -0.18229E-04  7776   0.278E-02    0.995E-02
DAV:  17    -0.202428130673E+04    0.28479E-04   -0.49573E-05  6584   0.134E-02    0.933E-02
DAV:  18    -0.202428128272E+04    0.24012E-04   -0.13803E-05  4696   0.574E-03    0.922E-02
DAV:  19    -0.202428123007E+04    0.52653E-04   -0.73035E-06  3768   0.413E-03    0.911E-02
DAV:  20    -0.202428119279E+04    0.37276E-04   -0.27023E-06  3584   0.282E-03    0.911E-02
DAV:  21    -0.202428117282E+04    0.19968E-04   -0.15329E-06  3400   0.209E-03    0.910E-02
DAV:  22    -0.202428112991E+04    0.42908E-04   -0.17811E-06  3536   0.126E-03    0.910E-02
DAV:  23    -0.202428108964E+04    0.40277E-04   -0.10847E-06  3344   0.113E-03    0.910E-02
DAV:  24    -0.202428106329E+04    0.26349E-04   -0.69880E-07  3168   0.837E-04    0.910E-02
DAV:  25    -0.202428102838E+04    0.34908E-04   -0.65147E-07  3192   0.726E-04    0.910E-02
DAV:  26    -0.202428099439E+04    0.33994E-04   -0.53247E-07  3168   0.630E-04    0.910E-02
DAV:  27    -0.202428097718E+04    0.17209E-04   -0.33749E-07  3024   0.455E-04    0.910E-02
DAV:  28    -0.202428096766E+04    0.95151E-05   -0.20845E-07  3024   0.325E-04    0.910E-02
DAV:  29    -0.202428095919E+04    0.84701E-05   -0.13511E-07  3000   0.259E-04    0.910E-02
DAV:  30    -0.202428095524E+04    0.39549E-05   -0.88417E-08  3000   0.197E-04
  20 F= -.21325802E+04 E0= -.21324512E+04  d E =-.645308E+01
       N       E                     dE             d eps       ncg     rms          rms(c)
DAV:   1    -0.202724524270E+04   -0.29643E+01   -0.41934E+02  5605   0.249E+01    0.148E+01
DAV:   2    -0.202895545267E+04   -0.17102E+01   -0.17697E+01  7896   0.475E+00    0.113E+01
DAV:   3    -0.204230320744E+04   -0.13348E+02   -0.12588E+01  7799   0.671E+00    0.189E+01
DAV:   4    -0.203262207021E+04    0.96811E+01   -0.99130E+00  8376   0.735E+00    0.148E+01
DAV:   5    -0.203116678333E+04    0.14553E+01   -0.94536E+00  9328   0.546E+00    0.112E+01
DAV:   6    -0.202981095717E+04    0.13558E+01   -0.61084E+00  8943   0.491E+00    0.866E+00
DAV:   7    -0.202864138360E+04    0.11696E+01   -0.13076E+00  8040   0.240E+00    0.329E+00
DAV:   8    -0.202823910172E+04    0.40228E+00   -0.34410E-01  7567   0.138E+00    0.198E+00
DAV:   9    -0.202820737557E+04    0.31726E-01   -0.11798E-01  6912   0.591E-01    0.868E-01
DAV:  10    -0.202820899041E+04   -0.16148E-02   -0.30491E-02  6912   0.293E-01    0.661E-01
DAV:  11    -0.202821013619E+04   -0.11458E-02   -0.83591E-03  7416   0.155E-01    0.595E-01
DAV:  12    -0.202820847414E+04    0.16620E-02   -0.28580E-03  7456   0.108E-01    0.485E-01
DAV:  13    -0.202820858384E+04   -0.10970E-03   -0.27971E-03  8008   0.114E-01    0.281E-01
DAV:  14    -0.202820758447E+04    0.99937E-03   -0.22885E-03  8224   0.102E-01    0.201E-01
DAV:  15    -0.202820714242E+04    0.44204E-03   -0.52340E-04  7216   0.534E-02    0.130E-01
DAV:  16    -0.202820718345E+04   -0.41025E-04   -0.18956E-04  6792   0.199E-02    0.116E-01
DAV:  17    -0.202820720713E+04   -0.23687E-04   -0.53918E-05  7136   0.105E-02    0.105E-01
DAV:  18    -0.202820723504E+04   -0.27907E-04   -0.87258E-05  7088   0.136E-02    0.961E-02
DAV:  19    -0.202820721444E+04    0.20601E-04   -0.18910E-05  4296   0.731E-03    0.925E-02
DAV:  20    -0.202820721784E+04   -0.34047E-05   -0.37963E-06  3384   0.344E-03
  21 F= -.21364616E+04 E0= -.21363334E+04  d E =-.388139E+01
       N       E                     dE             d eps       ncg     rms          rms(c)
DAV:   1    -0.202740805903E+04    0.79916E+00   -0.14554E+03  5605   0.465E+01    0.295E+01
DAV:   2    -0.203395770435E+04   -0.65496E+01   -0.63683E+01  7992   0.918E+00    0.203E+01
DAV:   3    -0.211728177149E+04   -0.83324E+02   -0.48069E+01  8286   0.151E+01    0.461E+01
DAV:   4    -0.204009161957E+04    0.77190E+02   -0.50337E+01  8662   0.156E+01    0.229E+01
DAV:   5    -0.203998431615E+04    0.10730E+00   -0.22084E+01  9064   0.881E+00    0.179E+01
DAV:   6    -0.203385462573E+04    0.61297E+01   -0.89088E+00  8960   0.805E+00    0.102E+01
DAV:   7    -0.203125986797E+04    0.25948E+01   -0.36265E+00  7928   0.454E+00    0.694E+00
DAV:   8    -0.203098754221E+04    0.27233E+00   -0.93417E-01  7440   0.224E+00    0.353E+00
DAV:   9    -0.203091167610E+04    0.75866E-01   -0.27499E-01  7328   0.106E+00    0.165E+00
DAV:  10    -0.203088452366E+04    0.27152E-01   -0.73000E-02  7088   0.489E-01    0.128E+00
DAV:  11    -0.203088746786E+04   -0.29442E-02   -0.27717E-02  8976   0.329E-01    0.113E+00
DAV:  12    -0.203087340881E+04    0.14059E-01   -0.21725E-02  8304   0.287E-01    0.539E-01
DAV:  13    -0.203087598639E+04   -0.25776E-02   -0.10708E-02  7776   0.206E-01    0.355E-01
DAV:  14    -0.203087231374E+04    0.36726E-02   -0.54773E-03  7336   0.138E-01    0.275E-01
DAV:  15    -0.203087215485E+04    0.15889E-03   -0.11784E-03  7072   0.653E-02    0.177E-01
DAV:  16    -0.203087209777E+04    0.57074E-04   -0.32299E-04  7792   0.345E-02    0.140E-01
DAV:  17    -0.203087209170E+04    0.60757E-05   -0.16935E-04  8224   0.290E-02    0.104E-01
DAV:  18    -0.203087203503E+04    0.56661E-04   -0.60174E-05  7344   0.171E-02    0.943E-02
DAV:  19    -0.203087202444E+04    0.10595E-04   -0.18752E-05  5192   0.565E-03    0.933E-02
DAV:  20    -0.203087202618E+04   -0.17451E-05   -0.37823E-06  3688   0.335E-03
  22 F= -.21390508E+04 E0= -.21389222E+04  d E =-.647064E+01
       N       E                     dE             d eps       ncg     rms          rms(c)
DAV:   1    -0.203379147802E+04   -0.29195E+01   -0.71890E+02  5604   0.324E+01    0.204E+01
DAV:   2    -0.203712435960E+04   -0.33329E+01   -0.27139E+01  7888   0.607E+00    0.155E+01
DAV:   3    -0.208231123979E+04   -0.45187E+02   -0.35350E+01  8246   0.114E+01    0.347E+01
DAV:   4    -0.204371033291E+04    0.38601E+02   -0.35231E+01  8592   0.121E+01    0.214E+01
DAV:   5    -0.204035915827E+04    0.33512E+01   -0.12688E+01  9168   0.769E+00    0.156E+01
DAV:   6    -0.203707758922E+04    0.32816E+01   -0.40644E+00  8880   0.632E+00    0.919E+00
DAV:   7    -0.203558694142E+04    0.14906E+01   -0.16610E+00  7720   0.313E+00    0.553E+00
DAV:   8    -0.203543971679E+04    0.14722E+00   -0.72599E-01  7496   0.166E+00    0.242E+00
DAV:   9    -0.203533847307E+04    0.10124E+00   -0.39119E-01  7336   0.919E-01    0.151E+00
DAV:  10    -0.203533967333E+04   -0.12003E-02   -0.61539E-02  6976   0.446E-01    0.905E-01
DAV:  11    -0.203532911099E+04    0.10562E-01   -0.22793E-02  7832   0.304E-01    0.803E-01
DAV:  12    -0.203532779880E+04    0.13122E-02   -0.68381E-03  7496   0.184E-01    0.648E-01
DAV:  13    -0.203532458375E+04    0.32150E-02   -0.53511E-03  7888   0.149E-01    0.322E-01
DAV:  14    -0.203532472731E+04   -0.14356E-03   -0.22573E-03  7528   0.109E-01    0.218E-01
DAV:  15    -0.203532453158E+04    0.19573E-03   -0.10047E-03  7192   0.608E-02    0.148E-01
DAV:  16    -0.203532462537E+04   -0.93787E-04   -0.24230E-04  7848   0.234E-02    0.140E-01
DAV:  17    -0.203532466829E+04   -0.42926E-04   -0.69039E-05  6936   0.142E-02    0.115E-01
DAV:  18    -0.203532474467E+04   -0.76379E-04   -0.68578E-05  7792   0.154E-02    0.976E-02
DAV:  19    -0.203532473840E+04    0.62750E-05   -0.20389E-05  5616   0.905E-03    0.944E-02
DAV:  20    -0.203532474546E+04   -0.70634E-05   -0.59349E-06  3600   0.414E-03    0.936E-02
DAV:  21    -0.203532476794E+04   -0.22480E-04   -0.28371E-06  3256   0.251E-03    0.934E-02
DAV:  22    -0.203532479255E+04   -0.24604E-04   -0.13989E-06  3200   0.207E-03    0.933E-02
DAV:  23    -0.203532482056E+04   -0.28014E-04   -0.68685E-07  3128   0.135E-03    0.933E-02
DAV:  24    -0.203532485437E+04   -0.33813E-04   -0.55709E-07  3192   0.831E-04    0.933E-02
DAV:  25    -0.203532488764E+04   -0.33265E-04   -0.43861E-07  3112   0.614E-04    0.933E-02
DAV:  26    -0.203532491755E+04   -0.29908E-04   -0.34946E-07  3103   0.531E-04    0.933E-02
DAV:  27    -0.203532494422E+04   -0.26669E-04   -0.29031E-07  3064   0.457E-04    0.933E-02
DAV:  28    -0.203532496078E+04   -0.16567E-04   -0.19417E-07  2983   0.376E-04    0.933E-02
DAV:  29    -0.203532497232E+04   -0.11540E-04   -0.13188E-07  3016   0.268E-04    0.933E-02
DAV:  30    -0.203532497883E+04   -0.65048E-05   -0.77000E-08  3016   0.206E-04    0.933E-02
DAV:  31    -0.203532498131E+04   -0.24799E-05   -0.44340E-08  3024   0.141E-04
  23 F= -.21434263E+04 E0= -.21432956E+04  d E =-.437548E+01
       N       E                     dE             d eps       ncg     rms          rms(c)
DAV:   1    -0.203440232198E+04    0.92266E+00   -0.16869E+03  5612   0.498E+01    0.355E+01
DAV:   2    -0.204296291122E+04   -0.85606E+01   -0.66880E+01  7776   0.979E+00    0.248E+01
DAV:   3    -0.213951686280E+04   -0.96554E+02   -0.34560E+01  8142   0.181E+01    0.476E+01
DAV:   4    -0.207931032420E+04    0.60207E+02   -0.31058E+01  8680   0.197E+01    0.403E+01
DAV:   5    -0.205365062711E+04    0.25660E+02   -0.50462E+01  9152   0.151E+01    0.224E+01
DAV:   6    -0.204258322109E+04    0.11067E+02   -0.19860E+01  9031   0.103E+01    0.117E+01
DAV:   7    -0.203858548289E+04    0.39977E+01   -0.77941E+00  7544   0.500E+00    0.693E+00
DAV:   8    -0.203838725460E+04    0.19823E+00   -0.18305E+00  6968   0.248E+00    0.383E+00
DAV:   9    -0.203823630135E+04    0.15095E+00   -0.70716E-01  7360   0.144E+00    0.273E+00
DAV:  10    -0.203821715092E+04    0.19150E-01   -0.11997E-01  7296   0.572E-01    0.183E+00
DAV:  11    -0.203821167824E+04    0.54727E-02   -0.40229E-02  8352   0.438E-01    0.156E+00
DAV:  12    -0.203819279895E+04    0.18879E-01   -0.28144E-02  7944   0.354E-01    0.995E-01
DAV:  13    -0.203818713794E+04    0.56610E-02   -0.18162E-02  8240   0.284E-01    0.616E-01
DAV:  14    -0.203818281644E+04    0.43215E-02   -0.60568E-03  7136   0.172E-01    0.352E-01
DAV:  15    -0.203818311967E+04   -0.30323E-03   -0.16861E-03  6448   0.578E-02    0.277E-01
DAV:  16    -0.203818326155E+04   -0.14188E-03   -0.84548E-04  7616   0.428E-02    0.190E-01
DAV:  17    -0.203818304589E+04    0.21565E-03   -0.82455E-04  8056   0.480E-02    0.121E-01
DAV:  18    -0.203818300081E+04    0.45086E-04   -0.17670E-04  7416   0.231E-02    0.102E-01
DAV:  19    -0.203818303247E+04   -0.31659E-04   -0.94175E-05  6856   0.131E-02    0.960E-02
DAV:  20    -0.203818307439E+04   -0.41925E-04   -0.18430E-05  5200   0.687E-03    0.942E-02
DAV:  21    -0.203818311636E+04   -0.41967E-04   -0.47363E-06  3464   0.490E-03    0.940E-02
DAV:  22    -0.203818314981E+04   -0.33450E-04   -0.23321E-06  3256   0.379E-03    0.934E-02
DAV:  23    -0.203818318276E+04   -0.32950E-04   -0.21252E-06  3400   0.195E-03    0.932E-02
DAV:  24    -0.203818321178E+04   -0.29020E-04   -0.11184E-06  3256   0.121E-03    0.932E-02
DAV:  25    -0.203818324045E+04   -0.28670E-04   -0.75194E-07  3264   0.967E-04    0.932E-02
[...]
DAV:   8    -0.204777130427E+04    0.76726E+00   -0.55197E+00  7496   0.482E+00    0.132E+01
DAV:   9    -0.204612829742E+04    0.16430E+01   -0.36538E+00  7952   0.312E+00    0.853E+00
DAV:  10    -0.204586940891E+04    0.25889E+00   -0.69294E-01  8168   0.191E+00    0.485E+00
DAV:  11    -0.204574823477E+04    0.12117E+00   -0.48890E-01  7632   0.109E+00    0.314E+00
DAV:  12    -0.204570102732E+04    0.47207E-01   -0.14517E-01  7728   0.615E-01    0.175E+00
DAV:  13    -0.204568626674E+04    0.14761E-01   -0.49449E-02  8168   0.512E-01    0.130E+00
DAV:  14    -0.204570307744E+04   -0.16811E-01   -0.57301E-02  8104   0.448E-01    0.779E-01
DAV:  15    -0.204567551510E+04    0.27562E-01   -0.23617E-02  7872   0.320E-01    0.721E-01
DAV:  16    -0.204567094826E+04    0.45668E-02   -0.70317E-03  7184   0.145E-01    0.481E-01
DAV:  17    -0.204567016231E+04    0.78595E-03   -0.21710E-03  7480   0.761E-02    0.302E-01
DAV:  18    -0.204567013953E+04    0.22776E-04   -0.13553E-03  8336   0.580E-02    0.153E-01
DAV:  19    -0.204567024009E+04   -0.10056E-03   -0.38557E-04  7992   0.364E-02    0.100E-01
DAV:  20    -0.204567030055E+04   -0.60461E-04   -0.21640E-04  7984   0.217E-02    0.910E-02
DAV:  21    -0.204567031613E+04   -0.15577E-04   -0.80128E-05  6816   0.122E-02    0.769E-02
DAV:  22    -0.204567032855E+04   -0.12416E-04   -0.17271E-05  4600   0.606E-03    0.735E-02
DAV:  23    -0.204567033165E+04   -0.31055E-05   -0.64229E-06  3864   0.378E-03
  31 F= -.21531337E+04 E0= -.21529920E+04  d E =-.114918E+01
       N       E                     dE             d eps       ncg     rms          rms(c)
DAV:   1    -0.203814553264E+04    0.75248E+01   -0.43593E+03  5605   0.816E+01    0.332E+01
DAV:   2    -0.205852521723E+04   -0.20380E+02   -0.20165E+02  7776   0.163E+01    0.334E+01
DAV:   3    -0.208168222720E+04   -0.23157E+02   -0.36535E+01  8528   0.150E+01    0.335E+01
DAV:   4    -0.208660974090E+04   -0.49275E+01   -0.36417E+01  8390   0.157E+01    0.383E+01
DAV:   5    -0.206251884318E+04    0.24091E+02   -0.23084E+01  8783   0.112E+01    0.224E+01
DAV:   6    -0.205138091318E+04    0.11138E+02   -0.16010E+01  7856   0.830E+00    0.155E+01
DAV:   7    -0.205265559550E+04   -0.12747E+01   -0.85180E+00  8272   0.659E+00    0.153E+01
DAV:   8    -0.205122856919E+04    0.14270E+01   -0.28862E+00  7360   0.457E+00    0.118E+01
DAV:   9    -0.204937543670E+04    0.18531E+01   -0.32488E+00  8328   0.316E+00    0.615E+00
DAV:  10    -0.204926111375E+04    0.11432E+00   -0.86413E-01  7456   0.179E+00    0.381E+00
DAV:  11    -0.204912904845E+04    0.13207E+00   -0.24256E-01  7384   0.103E+00    0.270E+00
DAV:  12    -0.204911393394E+04    0.15115E-01   -0.10489E-01  7296   0.567E-01    0.177E+00
DAV:  13    -0.204907616149E+04    0.37772E-01   -0.79151E-02  8040   0.350E-01    0.790E-01
DAV:  14    -0.204907809282E+04   -0.19313E-02   -0.18588E-02  7008   0.186E-01    0.417E-01
DAV:  15    -0.204907657378E+04    0.15190E-02   -0.11806E-02  7824   0.125E-01    0.273E-01
DAV:  16    -0.204907662881E+04   -0.55029E-04   -0.21192E-03  6896   0.634E-02    0.195E-01
DAV:  17    -0.204907648772E+04    0.14110E-03   -0.41955E-04  7448   0.411E-02    0.137E-01
DAV:  18    -0.204907644797E+04    0.39744E-04   -0.48266E-04  8520   0.322E-02    0.952E-02
DAV:  19    -0.204907643792E+04    0.10054E-04   -0.11279E-04  6568   0.146E-02    0.847E-02
DAV:  20    -0.204907643620E+04    0.17204E-05   -0.26466E-05  4984   0.897E-03
  32 F= -.21567267E+04 E0= -.21565831E+04  d E =-.474215E+01
       N       E                     dE             d eps       ncg     rms          rms(c)
DAV:   1    -0.205006451652E+04   -0.98808E+00   -0.29690E+02  5606   0.208E+01    0.946E+00
DAV:   2    -0.205199628391E+04   -0.19318E+01   -0.12184E+01  8168   0.402E+00    0.112E+01
DAV:   3    -0.206105579404E+04   -0.90595E+01   -0.10365E+01  8200   0.634E+00    0.202E+01
DAV:   4    -0.205552494116E+04    0.55309E+01   -0.69289E+00  8271   0.590E+00    0.151E+01
DAV:   5    -0.205142255183E+04    0.41024E+01   -0.26260E+00  8192   0.421E+00    0.668E+00
DAV:   6    -0.205131659500E+04    0.10596E+00   -0.84651E-01  7559   0.239E+00    0.397E+00
DAV:   7    -0.205089683734E+04    0.41976E+00   -0.53968E-01  7776   0.164E+00    0.334E+00
DAV:   8    -0.205061940733E+04    0.27743E+00   -0.22183E-01  7720   0.104E+00    0.176E+00
DAV:   9    -0.205062685849E+04   -0.74512E-02   -0.74949E-02  7448   0.509E-01    0.134E+00
DAV:  10    -0.205062455276E+04    0.23057E-02   -0.30082E-02  7872   0.331E-01    0.741E-01
DAV:  11    -0.205062494868E+04   -0.39592E-03   -0.83894E-03  7408   0.182E-01    0.633E-01
DAV:  12    -0.205062067585E+04    0.42728E-02   -0.55435E-03  7944   0.147E-01    0.321E-01
DAV:  13    -0.205062131157E+04   -0.63571E-03   -0.20584E-03  7232   0.786E-02    0.264E-01
DAV:  14    -0.205062046955E+04    0.84202E-03   -0.12865E-03  7600   0.589E-02    0.135E-01
DAV:  15    -0.205062041813E+04    0.51421E-04   -0.44378E-04  8576   0.358E-02    0.101E-01
DAV:  16    -0.205062042231E+04   -0.41872E-05   -0.99867E-05  6752   0.160E-02    0.868E-02
DAV:  17    -0.205062042011E+04    0.22009E-05   -0.36062E-05  6448   0.834E-03
  33 F= -.21582238E+04 E0= -.21580803E+04  d E =-.149709E+01
       N       E                     dE             d eps       ncg     rms          rms(c)
DAV:   1    -0.204762785795E+04    0.29926E+01   -0.26827E+03  5604   0.633E+01    0.304E+01
DAV:   2    -0.206446623715E+04   -0.16838E+02   -0.11848E+02  8016   0.136E+01    0.314E+01
DAV:   3    -0.210455425768E+04   -0.40088E+02   -0.25761E+01  7880   0.176E+01    0.447E+01
DAV:   4    -0.210041139680E+04    0.41429E+01   -0.33317E+01  8079   0.154E+01    0.374E+01
DAV:   5    -0.206296545010E+04    0.37446E+02   -0.22057E+01  8784   0.137E+01    0.225E+01
DAV:   6    -0.205548328612E+04    0.74822E+01   -0.95156E+00  8128   0.743E+00    0.114E+01
DAV:   7    -0.205458846476E+04    0.89482E+00   -0.50656E+00  7992   0.407E+00    0.808E+00
DAV:   8    -0.205392993119E+04    0.65853E+00   -0.16466E+00  8072   0.273E+00    0.540E+00
DAV:   9    -0.205407677689E+04   -0.14685E+00   -0.91611E-01  8544   0.192E+00    0.413E+00
DAV:  10    -0.205383918840E+04    0.23759E+00   -0.37787E-01  7720   0.125E+00    0.224E+00
DAV:  11    -0.205374808291E+04    0.91105E-01   -0.78508E-02  7552   0.672E-01    0.146E+00
DAV:  12    -0.205374035785E+04    0.77251E-02   -0.33217E-02  7768   0.340E-01    0.104E+00
DAV:  13    -0.205374144159E+04   -0.10837E-02   -0.15050E-02  8112   0.254E-01    0.808E-01
DAV:  14    -0.205373453746E+04    0.69041E-02   -0.77874E-03  8016   0.169E-01    0.416E-01
DAV:  15    -0.205373436353E+04    0.17393E-03   -0.33029E-03  8536   0.970E-02    0.241E-01
DAV:  16    -0.205373430753E+04    0.55992E-04   -0.78562E-04  7696   0.576E-02    0.150E-01
DAV:  17    -0.205373434035E+04   -0.32817E-04   -0.39201E-04  7360   0.281E-02    0.960E-02
DAV:  18    -0.205373435343E+04   -0.13079E-04   -0.13250E-04  7680   0.177E-02    0.868E-02
DAV:  19    -0.205373436634E+04   -0.12907E-04   -0.62004E-05  6168   0.157E-02    0.788E-02
DAV:  20    -0.205373435118E+04    0.15159E-04   -0.11764E-05  4095   0.692E-03    0.753E-02
DAV:  21    -0.205373434975E+04    0.14275E-05   -0.10864E-05  4208   0.488E-03
  34 F= -.21611827E+04 E0= -.21610370E+04  d E =-.445596E+01
       N       E                     dE             d eps       ncg     rms          rms(c)
DAV:   1    -0.201963663798E+04    0.34098E+02   -0.10826E+04  5604   0.131E+02    0.689E+01
DAV:   2    -0.209364336548E+04   -0.74007E+02   -0.57820E+02  7871   0.296E+01    0.629E+01
DAV:   3    -0.214840883583E+04   -0.54765E+02   -0.11719E+02  8199   0.339E+01    0.646E+01
DAV:   4    -0.226320080430E+04   -0.11479E+03   -0.97336E+01  7888   0.296E+01    0.688E+01
DAV:   5    -0.212429817211E+04    0.13890E+03   -0.12533E+02  8944   0.260E+01    0.639E+01
DAV:   6    -0.205721965710E+04    0.67079E+02   -0.48908E+01  8352   0.163E+01    0.226E+01
DAV:   7    -0.206439740080E+04   -0.71777E+01   -0.36852E+01  8032   0.108E+01    0.268E+01
DAV:   8    -0.205385000430E+04    0.10547E+02   -0.18754E+01  7712   0.779E+00    0.150E+01
DAV:   9    -0.205363538290E+04    0.21462E+00   -0.48497E+00  8368   0.533E+00    0.119E+01
DAV:  10    -0.205258259421E+04    0.10528E+01   -0.26051E+00  8008   0.339E+00    0.770E+00
DAV:  11    -0.205223718529E+04    0.34541E+00   -0.92276E-01  7616   0.187E+00    0.422E+00
DAV:  12    -0.205222443540E+04    0.12750E-01   -0.26347E-01  8056   0.955E-01    0.302E+00
DAV:  13    -0.205215627275E+04    0.68163E-01   -0.16110E-01  7792   0.728E-01    0.197E+00
DAV:  14    -0.205213268933E+04    0.23583E-01   -0.52479E-02  7800   0.463E-01    0.130E+00
DAV:  15    -0.205214044618E+04   -0.77569E-02   -0.14438E-01  8448   0.415E-01    0.171E+00
DAV:  16    -0.205211958998E+04    0.20856E-01   -0.10858E-02  7240   0.252E-01    0.606E-01
DAV:  17    -0.205211897917E+04    0.61081E-03   -0.43307E-03  7504   0.112E-01    0.253E-01
DAV:  18    -0.205211992404E+04   -0.94487E-03   -0.15718E-03  7456   0.697E-02    0.190E-01
DAV:  19    -0.205211966087E+04    0.26317E-03   -0.40124E-04  7288   0.508E-02    0.131E-01
DAV:  20    -0.205211964256E+04    0.18306E-04   -0.17917E-04  8776   0.298E-02    0.845E-02
DAV:  21    -0.205211965363E+04   -0.11070E-04   -0.10461E-04  6856   0.142E-02    0.745E-02
DAV:  22    -0.205211966822E+04   -0.14581E-04   -0.18580E-05  5376   0.785E-03    0.732E-02
DAV:  23    -0.205211968642E+04   -0.18206E-04   -0.17483E-05  4960   0.591E-03    0.742E-02
DAV:  24    -0.205211968965E+04   -0.32266E-05   -0.69817E-06  3528   0.441E-03
  35 F= -.21593214E+04 E0= -.21591564E+04  d E =-.259468E+01
       N       E                     dE             d eps       ncg     rms          rms(c)
DAV:   1    -0.203979190310E+04    0.12328E+02   -0.52707E+03  5604   0.895E+01    0.381E+01
DAV:   2    -0.208077907455E+04   -0.40987E+02   -0.26988E+02  8176   0.198E+01    0.502E+01
DAV:   3    -0.216301257746E+04   -0.82234E+02   -0.49052E+01  7782   0.239E+01    0.554E+01
DAV:   4    -0.209610784424E+04    0.66905E+02   -0.32371E+01  8128   0.192E+01    0.464E+01
DAV:   5    -0.206232026690E+04    0.33788E+02   -0.39783E+01  8544   0.140E+01    0.270E+01
DAV:   6    -0.205821765522E+04    0.41026E+01   -0.11514E+01  8024   0.786E+00    0.207E+01
DAV:   7    -0.205715842766E+04    0.10592E+01   -0.89168E+00  7952   0.623E+00    0.208E+01
DAV:   8    -0.206172508997E+04   -0.45667E+01   -0.79500E+00  8655   0.568E+00    0.157E+01
DAV:   9    -0.205575926361E+04    0.59658E+01   -0.79283E+00  8832   0.530E+00    0.719E+00
DAV:  10    -0.205473361693E+04    0.10256E+01   -0.18018E+00  8000   0.289E+00    0.593E+00
DAV:  11    -0.205460474095E+04    0.12888E+00   -0.59681E-01  7248   0.143E+00    0.425E+00
DAV:  12    -0.205447842475E+04    0.12632E+00   -0.37355E-01  7600   0.780E-01    0.199E+00
DAV:  13    -0.205449549677E+04   -0.17072E-01   -0.47985E-02  7936   0.362E-01    0.141E+00
DAV:  14    -0.205448416804E+04    0.11329E-01   -0.21642E-02  7896   0.300E-01    0.652E-01
DAV:  15    -0.205448773199E+04   -0.35640E-02   -0.12276E-02  8160   0.251E-01    0.566E-01
DAV:  16    -0.205448448728E+04    0.32447E-02   -0.47180E-03  7424   0.153E-01    0.237E-01
DAV:  17    -0.205448490945E+04   -0.42217E-03   -0.21587E-03  8112   0.601E-02    0.185E-01
DAV:  18    -0.205448487230E+04    0.37151E-04   -0.37770E-04  6960   0.349E-02    0.132E-01
DAV:  19    -0.205448488858E+04   -0.16281E-04   -0.38752E-04  8376   0.353E-02    0.977E-02
DAV:  20    -0.205448490829E+04   -0.19711E-04   -0.11586E-04  6856   0.198E-02    0.803E-02
DAV:  21    -0.205448490151E+04    0.67810E-05   -0.48035E-05  6680   0.103E-02    0.757E-02
DAV:  22    -0.205448490854E+04   -0.70343E-05   -0.16829E-05  4600   0.598E-03    0.736E-02
DAV:  23    -0.205448491310E+04   -0.45607E-05   -0.54365E-06  3480   0.396E-03
  36 F= -.21618573E+04 E0= -.21617061E+04  d E =-.513057E+01
       N       E                     dE             d eps       ncg     rms          rms(c)
DAV:   1    -0.205524159373E+04   -0.75669E+00   -0.64249E+02  5604   0.308E+01    0.150E+01
DAV:   2    -0.206445020277E+04   -0.92086E+01   -0.33357E+01  8512   0.713E+00    0.222E+01
DAV:   3    -0.209850731706E+04   -0.34057E+02   -0.33118E+01  7751   0.119E+01    0.368E+01
DAV:   4    -0.205801498628E+04    0.40492E+02   -0.34227E+01  8280   0.990E+00    0.172E+01
DAV:   5    -0.205797012577E+04    0.44861E-01   -0.10571E+01  7736   0.417E+00    0.111E+01
DAV:   6    -0.205895041742E+04   -0.98029E+00   -0.38923E+00  8568   0.461E+00    0.968E+00
DAV:   7    -0.205719644587E+04    0.17540E+01   -0.31585E+00  8624   0.378E+00    0.530E+00
DAV:   8    -0.205657973352E+04    0.61671E+00   -0.84943E-01  7776   0.198E+00    0.220E+00
DAV:   9    -0.205668252856E+04   -0.10280E+00   -0.23028E-01  7360   0.988E-01    0.265E+00
DAV:  10    -0.205656441781E+04    0.11811E+00   -0.10221E-01  7632   0.697E-01    0.137E+00
DAV:  11    -0.205655317079E+04    0.11247E-01   -0.23403E-02  8016   0.350E-01    0.609E-01
DAV:  12    -0.205655250247E+04    0.66833E-03   -0.91286E-03  7576   0.166E-01    0.330E-01
DAV:  13    -0.205655298042E+04   -0.47795E-03   -0.24888E-03  7384   0.856E-02    0.253E-01
DAV:  14    -0.205655261269E+04    0.36773E-03   -0.15308E-03  8240   0.659E-02    0.177E-01
DAV:  15    -0.205655263376E+04   -0.21071E-04   -0.35072E-04  8152   0.394E-02    0.131E-01
DAV:  16    -0.205655260321E+04    0.30556E-04   -0.19040E-04  7520   0.281E-02    0.114E-01
DAV:  17    -0.205655259349E+04    0.97195E-05   -0.10908E-04  7600   0.193E-02    0.845E-02
DAV:  18    -0.205655262958E+04   -0.36091E-04   -0.33766E-05  6384   0.140E-02    0.768E-02
DAV:  19    -0.205655263285E+04   -0.32745E-05   -0.13205E-05  4272   0.824E-03
  37 F= -.21638678E+04 E0= -.21637127E+04  d E =-.201050E+01
       N       E                     dE             d eps       ncg     rms          rms(c)
DAV:   1    -0.205467626020E+04    0.18764E+01   -0.14712E+03  5604   0.466E+01    0.235E+01
DAV:   2    -0.207635759149E+04   -0.21681E+02   -0.63968E+01  8440   0.112E+01    0.335E+01
DAV:   3    -0.216564563863E+04   -0.89288E+02   -0.67689E+01  7847   0.189E+01    0.597E+01
DAV:   4    -0.206249056401E+04    0.10316E+03   -0.29523E+01  8536   0.154E+01    0.230E+01
DAV:   5    -0.206030987697E+04    0.21807E+01   -0.85622E+00  7896   0.668E+00    0.134E+01
DAV:   6    -0.206260028640E+04   -0.22904E+01   -0.76648E+00  8336   0.670E+00    0.148E+01
DAV:   7    -0.205897191964E+04    0.36284E+01   -0.46573E+00  8120   0.530E+00    0.735E+00
DAV:   8    -0.205810622983E+04    0.86569E+00   -0.20531E+00  7560   0.259E+00    0.475E+00
DAV:   9    -0.205802216439E+04    0.84065E-01   -0.55609E-01  7576   0.145E+00    0.404E+00
DAV:  10    -0.205792571927E+04    0.96445E-01   -0.25760E-01  7664   0.107E+00    0.217E+00
DAV:  11    -0.205787480057E+04    0.50919E-01   -0.64657E-02  7744   0.605E-01    0.115E+00
DAV:  12    -0.205787118925E+04    0.36113E-02   -0.26379E-02  7640   0.303E-01    0.745E-01
DAV:  13    -0.205786760443E+04    0.35848E-02   -0.13908E-02  7416   0.177E-01    0.519E-01
DAV:  14    -0.205786617715E+04    0.14273E-02   -0.38207E-03  7896   0.146E-01    0.401E-01
DAV:  15    -0.205786566774E+04    0.50941E-03   -0.23133E-03  7264   0.939E-02    0.276E-01
DAV:  16    -0.205786519055E+04    0.47720E-03   -0.98606E-04  7904   0.751E-02    0.195E-01
DAV:  17    -0.205786504480E+04    0.14575E-03   -0.46124E-04  7792   0.433E-02    0.114E-01
DAV:  18    -0.205786514122E+04   -0.96424E-04   -0.33030E-04  8688   0.353E-02    0.123E-01
DAV:  19    -0.205786506296E+04    0.78262E-04   -0.11502E-04  7384   0.228E-02    0.818E-02
DAV:  20    -0.205786506791E+04   -0.49490E-05   -0.53302E-05  6808   0.891E-03    0.765E-02
DAV:  21    -0.205786506766E+04    0.24377E-06   -0.16434E-05  4304   0.731E-03
  38 F= -.21650972E+04 E0= -.21649373E+04  d E =-.323993E+01
       N       E                     dE             d eps       ncg     rms          rms(c)
DAV:   1    -0.205826563768E+04   -0.40057E+00   -0.83579E+02  5604   0.349E+01    0.161E+01
DAV:   2    -0.206263169566E+04   -0.43661E+01   -0.34922E+01  7952   0.694E+00    0.177E+01
DAV:   3    -0.206417093708E+04   -0.15392E+01   -0.76895E+00  7888   0.721E+00    0.187E+01
DAV:   4    -0.206481497186E+04   -0.64403E+00   -0.89159E+00  8375   0.584E+00    0.152E+01
DAV:   5    -0.206992284377E+04   -0.51079E+01   -0.44414E+00  8480   0.670E+00    0.188E+01
DAV:   6    -0.206301396660E+04    0.69089E+01   -0.79926E+00  8686   0.617E+00    0.105E+01
DAV:   7    -0.206054168370E+04    0.24723E+01   -0.32812E+00  8232   0.341E+00    0.519E+00
DAV:   8    -0.205998421336E+04    0.55747E+00   -0.98387E-01  7640   0.200E+00    0.303E+00
DAV:   9    -0.205991958626E+04    0.64627E-01   -0.27921E-01  7264   0.106E+00    0.182E+00
DAV:  10    -0.205990567931E+04    0.13907E-01   -0.62281E-02  6896   0.570E-01    0.803E-01
DAV:  11    -0.205990568554E+04   -0.62305E-05   -0.21212E-02  7456   0.295E-01    0.829E-01
DAV:  12    -0.205990277909E+04    0.29064E-02   -0.97791E-03  7888   0.190E-01    0.456E-01
DAV:  13    -0.205990232567E+04    0.45342E-03   -0.78789E-03  7872   0.134E-01    0.309E-01
DAV:  14    -0.205990097082E+04    0.13549E-02   -0.24452E-03  7544   0.112E-01    0.181E-01
DAV:  15    -0.205990068482E+04    0.28600E-03   -0.84744E-04  6896   0.536E-02    0.111E-01
DAV:  16    -0.205990071402E+04   -0.29200E-04   -0.37070E-04  7528   0.307E-02    0.122E-01
DAV:  17    -0.205990065139E+04    0.62631E-04   -0.16352E-04  7536   0.211E-02    0.990E-02
DAV:  18    -0.205990064369E+04    0.76976E-05   -0.45217E-05  6544   0.149E-02    0.775E-02
DAV:  19    -0.205990064368E+04    0.81491E-08   -0.21261E-05  5432   0.615E-03
  39 F= -.21670712E+04 E0= -.21669110E+04  d E =-.197395E+01
       N       E                     dE             d eps       ncg     rms          rms(c)
DAV:   1    -0.205558789457E+04    0.43127E+01   -0.25433E+03  5604   0.612E+01    0.276E+01
DAV:   2    -0.206955248949E+04   -0.13965E+02   -0.10994E+02  7904   0.130E+01    0.305E+01
DAV:   3    -0.207159816618E+04   -0.20457E+01   -0.22218E+01  8072   0.126E+01    0.268E+01
DAV:   4    -0.207093674056E+04    0.66143E+00   -0.14813E+01  7647   0.988E+00    0.208E+01
DAV:   5    -0.208439801873E+04   -0.13461E+02   -0.13083E+01  8224   0.959E+00    0.289E+01
DAV:   6    -0.206763863897E+04    0.16759E+02   -0.21338E+01  8872   0.879E+00    0.188E+01
DAV:   7    -0.206301185548E+04    0.46268E+01   -0.10888E+01  8527   0.582E+00    0.819E+00
DAV:   8    -0.206164228469E+04    0.13696E+01   -0.33446E+00  7600   0.327E+00    0.403E+00
DAV:   9    -0.206162754060E+04    0.14744E-01   -0.83752E-01  7360   0.195E+00    0.384E+00
DAV:  10    -0.206131229148E+04    0.31525E+00   -0.30732E-01  7368   0.127E+00    0.241E+00
DAV:  11    -0.206127458985E+04    0.37702E-01   -0.10368E-01  7000   0.652E-01    0.168E+00
DAV:  12    -0.206126615620E+04    0.84337E-02   -0.53604E-02  7032   0.371E-01    0.116E+00
DAV:  13    -0.206125655720E+04    0.95990E-02   -0.20490E-02  7560   0.241E-01    0.633E-01
DAV:  14    -0.206125720263E+04   -0.64543E-03   -0.79390E-03  7256   0.147E-01    0.438E-01
DAV:  15    -0.206125684474E+04    0.35789E-03   -0.23206E-03  8272   0.103E-01    0.422E-01
DAV:  16    -0.206125630023E+04    0.54451E-03   -0.89357E-04  7992   0.590E-02    0.235E-01
DAV:  17    -0.206125618723E+04    0.11299E-03   -0.45744E-04  7824   0.379E-02    0.116E-01
DAV:  18    -0.206125621364E+04   -0.26409E-04   -0.17011E-04  7200   0.247E-02    0.902E-02
DAV:  19    -0.206125620304E+04    0.10604E-04   -0.54059E-05  7400   0.147E-02    0.809E-02
DAV:  20    -0.206125619944E+04    0.36021E-05   -0.19331E-05  4800   0.775E-03
  40 F= -.21683266E+04 E0= -.21681657E+04  d E =-.322941E+01
