 508 508   0   0
  0.1564356E+02  0.1514622E-08  0.1514622E-08  0.4000000E-08  0.2000000E-15
   1.0000000000000000E-004
  CAR 
 NiAl                                    
      8.82134541    -33.30401186  301      1.39044543      1.00000000
    -33.304  0.0000E+00  0.0000E+00
    -33.164  0.0000E+00  0.0000E+00
    -33.023  0.0000E+00  0.0000E+00
    -32.883  0.0000E+00  0.0000E+00
    -32.742  0.0000E+00  0.0000E+00
    -32.602  0.0000E+00  0.0000E+00
    -32.462  0.0000E+00  0.0000E+00
    -32.321  0.0000E+00  0.0000E+00
    -32.181  0.0000E+00  0.0000E+00
    -32.040  0.0000E+00  0.0000E+00
    -31.900  0.0000E+00  0.0000E+00
    -31.759  0.0000E+00  0.0000E+00
    -31.619  0.7197E-11  0.1011E-11
    -31.479  0.1023E-02  0.1436E-03
    -31.338  0.1676E+00  0.2368E-01
    -31.198  0.9727E+00  0.1603E+00
    -31.057  0.2859E+00  0.2004E+00
    -30.917  0.1948E+01  0.4739E+00
    -30.776  0.9169E+00  0.6027E+00
    -30.636  0.1412E+01  0.8009E+00
    -30.496  0.8025E+00  0.9136E+00
    -30.355  0.1554E+01  0.1132E+01
    -30.215  0.9829E+00  0.1270E+01
    -30.074  0.2293E+01  0.1592E+01
    -29.934  0.8189E+00  0.1707E+01
    -29.794  0.1012E+01  0.1849E+01
    -29.653  0.9864E+00  0.1987E+01
    -29.513  0.2572E+01  0.2349E+01
    -29.372  0.1329E+01  0.2535E+01
    -29.232  0.1091E+01  0.2688E+01
    -29.091  0.1333E+01  0.2876E+01
    -28.951  0.4509E+00  0.2939E+01
    -28.811  0.1254E+01  0.3115E+01
    -28.670  0.1828E+01  0.3372E+01
    -28.530  0.2319E+01  0.3697E+01
    -28.389  0.1202E+01  0.3866E+01
    -28.249  0.1659E+01  0.4099E+01
    -28.109  0.8935E+00  0.4225E+01
    -27.968  0.1243E+01  0.4399E+01
    -27.828  0.6893E+00  0.4496E+01
    -27.687  0.3040E+01  0.4923E+01
    -27.547  0.2590E+01  0.5286E+01
    -27.406  0.1758E+01  0.5533E+01
    -27.266  0.1212E+01  0.5703E+01
    -27.126  0.8649E+00  0.5825E+01
    -26.985  0.5995E+00  0.5909E+01
    -26.845  0.1908E+01  0.6177E+01
    -26.704  0.3021E+01  0.6601E+01
    -26.564  0.2302E+01  0.6924E+01
    -26.424  0.1345E+01  0.7113E+01
    -26.283  0.2020E+01  0.7397E+01
    -26.143  0.3581E+01  0.7900E+01
    -26.002  0.1622E+01  0.8128E+01
    -25.862  0.2674E+01  0.8503E+01
    -25.721  0.4384E+01  0.9119E+01
    -25.581  0.4045E+01  0.9687E+01
    -25.441  0.3335E+01  0.1015E+02
    -25.300  0.1920E+01  0.1042E+02
    -25.160  0.2421E+01  0.1076E+02
    -25.019  0.3142E+01  0.1121E+02
    -24.879  0.1523E+01  0.1142E+02
    -24.739  0.2931E+01  0.1183E+02
    -24.598  0.2389E+01  0.1217E+02
    -24.458  0.1577E+01  0.1239E+02
    -24.317  0.1327E+01  0.1257E+02
    -24.177  0.2026E+00  0.1260E+02
    -24.036  0.1392E+01  0.1280E+02
    -23.896  0.1227E-01  0.1280E+02
    -23.756  0.2172E-09  0.1280E+02
    -23.615  0.0000E+00  0.1280E+02
    -23.475  0.0000E+00  0.1280E+02
    -23.334  0.0000E+00  0.1280E+02
    -23.194  0.0000E+00  0.1280E+02
    -23.054  0.0000E+00  0.1280E+02
    -22.913  0.0000E+00  0.1280E+02
    -22.773  0.0000E+00  0.1280E+02
    -22.632  0.0000E+00  0.1280E+02
    -22.492  0.0000E+00  0.1280E+02
    -22.351  0.0000E+00  0.1280E+02
    -22.211  0.0000E+00  0.1280E+02
    -22.071  0.0000E+00  0.1280E+02
    -21.930  0.0000E+00  0.1280E+02
    -21.790  0.0000E+00  0.1280E+02
    -21.649  0.0000E+00  0.1280E+02
    -21.509  0.0000E+00  0.1280E+02
    -21.368  0.0000E+00  0.1280E+02
    -21.228  0.0000E+00  0.1280E+02
    -21.088  0.0000E+00  0.1280E+02
    -20.947  0.0000E+00  0.1280E+02
    -20.807  0.0000E+00  0.1280E+02
    -20.666  0.0000E+00  0.1280E+02
    -20.526  0.9883E-17  0.1280E+02
    -20.386  0.1252E-05  0.1280E+02
    -20.245  0.6325E-01  0.1281E+02
    -20.105  0.3337E+00  0.1286E+02
    -19.964  0.8485E+00  0.1297E+02
    -19.824  0.5827E-01  0.1298E+02
    -19.683  0.1070E+01  0.1313E+02
    -19.543  0.9252E+00  0.1326E+02
    -19.403  0.8433E-01  0.1328E+02
    -19.262  0.1224E+00  0.1329E+02
    -19.122  0.2125E+01  0.1359E+02
    -18.981  0.1136E+01  0.1375E+02
    -18.841  0.8467E+00  0.1387E+02
    -18.701  0.1493E+01  0.1408E+02
    -18.560  0.8640E+00  0.1420E+02
    -18.420  0.3087E+00  0.1424E+02
    -18.279  0.1385E+01  0.1444E+02
    -18.139  0.3613E+01  0.1494E+02
    -17.998  0.5200E-01  0.1495E+02
    -17.858  0.1328E+01  0.1514E+02
    -17.718  0.7014E+00  0.1524E+02
    -17.577  0.9755E-01  0.1525E+02
    -17.437  0.1221E+01  0.1542E+02
    -17.296  0.3817E+01  0.1596E+02
    -17.156  0.3695E+00  0.1601E+02
    -17.016  0.1993E+01  0.1629E+02
    -16.875  0.9792E+00  0.1643E+02
    -16.735  0.1592E+00  0.1645E+02
    -16.594  0.6331E-01  0.1646E+02
    -16.454  0.2893E+01  0.1687E+02
    -16.313  0.3031E+00  0.1691E+02
    -16.173  0.3451E+01  0.1739E+02
    -16.033  0.1766E+01  0.1764E+02
    -15.892  0.6987E-01  0.1765E+02
    -15.752  0.9814E+00  0.1779E+02
    -15.611  0.2203E+01  0.1810E+02
    -15.471  0.9851E-01  0.1811E+02
    -15.331  0.1350E+01  0.1830E+02
    -15.190  0.1835E+01  0.1856E+02
    -15.050  0.1080E+01  0.1871E+02
    -14.909  0.3370E+01  0.1918E+02
    -14.769  0.1766E+01  0.1943E+02
    -14.628  0.1202E+01  0.1960E+02
    -14.488  0.5097E-02  0.1960E+02
    -14.348  0.1634E+01  0.1983E+02
    -14.207  0.2178E+01  0.2014E+02
    -14.067  0.1533E+01  0.2035E+02
    -13.926  0.1961E+01  0.2063E+02
    -13.786  0.1922E+01  0.2090E+02
    -13.646  0.3083E+01  0.2133E+02
    -13.505  0.4759E+01  0.2200E+02
    -13.365  0.3071E+01  0.2243E+02
    -13.224  0.4258E+01  0.2303E+02
    -13.084  0.3533E+01  0.2352E+02
    -12.943  0.3628E+01  0.2403E+02
    -12.803  0.4348E+01  0.2464E+02
    -12.663  0.6089E+01  0.2550E+02
    -12.522  0.5989E+01  0.2634E+02
    -12.382  0.4209E+01  0.2693E+02
    -12.241  0.3394E+01  0.2741E+02
    -12.101  0.2940E+01  0.2782E+02
    -11.960  0.4565E+01  0.2846E+02
    -11.820  0.3464E+01  0.2895E+02
    -11.680  0.4594E+01  0.2959E+02
    -11.539  0.7248E+01  0.3061E+02
    -11.399  0.4396E+01  0.3123E+02
    -11.258  0.4051E+01  0.3180E+02
    -11.118  0.2769E+01  0.3218E+02
    -10.978  0.4567E+01  0.3283E+02
    -10.837  0.3012E+01  0.3325E+02
    -10.697  0.4124E+01  0.3383E+02
    -10.556  0.5767E+01  0.3464E+02
    -10.416  0.3848E+01  0.3518E+02
    -10.275  0.2821E+01  0.3557E+02
    -10.135  0.8309E+00  0.3569E+02
     -9.995  0.2500E+01  0.3604E+02
     -9.854  0.1718E+01  0.3628E+02
     -9.714  0.1379E+01  0.3648E+02
     -9.573  0.2534E+01  0.3683E+02
     -9.433  0.4099E+01  0.3741E+02
     -9.293  0.3668E+01  0.3792E+02
     -9.152  0.4985E+01  0.3862E+02
     -9.012  0.5487E+00  0.3870E+02
     -8.871  0.2561E-05  0.3870E+02
     -8.731  0.4872E-14  0.3870E+02
     -8.590  0.6031E-04  0.3870E+02
     -8.450  0.4492E+00  0.3876E+02
     -8.310  0.7928E+00  0.3887E+02
     -8.169  0.6469E+00  0.3897E+02
     -8.029  0.4331E+00  0.3903E+02
     -7.888  0.2009E+01  0.3931E+02
     -7.748  0.1365E+01  0.3950E+02
     -7.608  0.7136E+00  0.3960E+02
     -7.467  0.6057E-03  0.3960E+02
     -7.327  0.1381E+01  0.3979E+02
     -7.186  0.3410E+01  0.4027E+02
     -7.046  0.6481E+01  0.4118E+02
     -6.905  0.7663E+01  0.4226E+02
     -6.765  0.6607E+01  0.4319E+02
     -6.625  0.1814E+01  0.4344E+02
     -6.484  0.6584E+01  0.4437E+02
     -6.344  0.1589E+01  0.4459E+02
     -6.203  0.4245E+01  0.4519E+02
     -6.063  0.7305E+01  0.4621E+02
     -5.923  0.6105E+01  0.4707E+02
     -5.782  0.1111E+02  0.4863E+02
     -5.642  0.1326E+02  0.5049E+02
     -5.501  0.5614E+01  0.5128E+02
     -5.361  0.4101E+01  0.5185E+02
     -5.220  0.6564E+01  0.5278E+02
     -5.080  0.6579E+01  0.5370E+02
     -4.940  0.8031E+01  0.5483E+02
     -4.799  0.5358E+01  0.5558E+02
     -4.659  0.9379E+01  0.5690E+02
     -4.518  0.5830E+01  0.5772E+02
     -4.378  0.4649E+01  0.5837E+02
     -4.238  0.6245E+01  0.5924E+02
     -4.097  0.9972E+01  0.6065E+02
     -3.957  0.5143E+01  0.6137E+02
     -3.816  0.7069E+01  0.6236E+02
     -3.676  0.8148E+01  0.6350E+02
     -3.535  0.9558E+01  0.6485E+02
     -3.395  0.5137E+01  0.6557E+02
     -3.255  0.9595E+01  0.6691E+02
     -3.114  0.7217E+01  0.6793E+02
     -2.974  0.1072E+02  0.6943E+02
     -2.833  0.1473E+02  0.7150E+02
     -2.693  0.1242E+02  0.7325E+02
     -2.553  0.1667E+02  0.7559E+02
     -2.412  0.1245E+02  0.7733E+02
     -2.272  0.2004E+02  0.8015E+02
     -2.131  0.2217E+02  0.8326E+02
     -1.991  0.2032E+02  0.8612E+02
     -1.850  0.1756E+02  0.8858E+02
     -1.710  0.1854E+02  0.9119E+02
     -1.570  0.2157E+02  0.9421E+02
     -1.429  0.2499E+02  0.9772E+02
     -1.289  0.2832E+02  0.1017E+03
     -1.148  0.2826E+02  0.1057E+03
     -1.008  0.2826E+02  0.1096E+03
     -0.867  0.2587E+02  0.1133E+03
     -0.727  0.3192E+02  0.1177E+03
     -0.587  0.3791E+02  0.1231E+03
     -0.446  0.3209E+02  0.1276E+03
     -0.306  0.3545E+02  0.1326E+03
     -0.165  0.4304E+02  0.1386E+03
     -0.025  0.4356E+02  0.1447E+03
      0.115  0.3787E+02  0.1500E+03
      0.256  0.3726E+02  0.1553E+03
      0.396  0.3554E+02  0.1603E+03
      0.537  0.3498E+02  0.1652E+03
      0.677  0.4060E+02  0.1709E+03
      0.818  0.3653E+02  0.1760E+03
      0.958  0.4017E+02  0.1816E+03
      1.098  0.4360E+02  0.1878E+03
      1.239  0.4340E+02  0.1939E+03
      1.379  0.5876E+02  0.2021E+03
      1.520  0.4334E+02  0.2082E+03
      1.660  0.1224E+02  0.2099E+03
      1.800  0.1319E+02  0.2118E+03
      1.941  0.9651E+01  0.2131E+03
      2.081  0.6278E+01  0.2140E+03
      2.222  0.6952E+01  0.2150E+03
      2.362  0.3444E+01  0.2155E+03
      2.503  0.8931E+01  0.2167E+03
      2.643  0.6715E+01  0.2177E+03
      2.783  0.7287E+01  0.2187E+03
      2.924  0.8517E+01  0.2199E+03
      3.064  0.8045E+01  0.2210E+03
      3.205  0.6067E+01  0.2219E+03
      3.345  0.1024E+02  0.2233E+03
      3.485  0.9131E+01  0.2246E+03
      3.626  0.8689E+01  0.2258E+03
      3.766  0.6899E+01  0.2268E+03
      3.907  0.7704E+01  0.2278E+03
      4.047  0.4899E+01  0.2285E+03
      4.188  0.6628E+01  0.2295E+03
      4.328  0.6971E+01  0.2304E+03
      4.468  0.4866E+01  0.2311E+03
      4.609  0.8542E+01  0.2323E+03
      4.749  0.3677E+01  0.2328E+03
      4.890  0.8619E+01  0.2341E+03
      5.030  0.7732E+01  0.2351E+03
      5.170  0.8122E+01  0.2363E+03
      5.311  0.5410E+01  0.2370E+03
      5.451  0.6333E+01  0.2379E+03
      5.592  0.4606E+01  0.2386E+03
      5.732  0.5512E+01  0.2393E+03
      5.873  0.2369E+01  0.2397E+03
      6.013  0.3020E+01  0.2401E+03
      6.153  0.4290E+01  0.2407E+03
      6.294  0.5460E+01  0.2415E+03
      6.434  0.7315E+01  0.2425E+03
      6.575  0.2820E+01  0.2429E+03
      6.715  0.1666E+01  0.2431E+03
      6.855  0.8647E+00  0.2433E+03
      6.996  0.3485E+00  0.2433E+03
      7.136  0.1025E-02  0.2433E+03
      7.277  0.7197E-11  0.2433E+03
      7.417  0.0000E+00  0.2433E+03
      7.558  0.0000E+00  0.2433E+03
      7.698  0.0000E+00  0.2433E+03
      7.838  0.0000E+00  0.2433E+03
      7.979  0.0000E+00  0.2433E+03
      8.119  0.0000E+00  0.2433E+03
      8.260  0.0000E+00  0.2433E+03
      8.400  0.0000E+00  0.2433E+03
      8.541  0.0000E+00  0.2433E+03
      8.681  0.0000E+00  0.2433E+03
      8.821  0.0000E+00  0.2433E+03
