         516
 Energy:  -1812.8332298999999     
 X   0.00000000       0.00000000       0.00000000    
 X   15.1462221       0.00000000       0.00000000    
 X   7.57311106       13.1170130       0.00000000    
 X   0.00000000       0.00000000       40.0000000    
 X   22.7193336       13.1170130       0.00000000    
 X   15.1462221       0.00000000       40.0000000    
 X   7.57311106       13.1170130       40.0000000    
 X   22.7193336       13.1170130       40.0000000    
 Ni   10.1042299       5.83368015       2.34530997    
 Ni   12.6078100       10.2102299       2.39702010    
 Ni   7.57311010       1.44965994       2.34530997    
 Ni   15.1462202       5.81357002       2.39702010    
 Ni   17.6846294       10.2102299       2.39702010    
 Ni   12.6367903       1.44881999       2.37965989    
 Ni   5.04199982       5.83368015       2.34530997    
 Ni   7.57311010       10.2193699       2.37965989    
 Ni   2.50943995       1.44881999       2.37965989    
 Ni   12.6579704       7.30808020       4.68764019    
 Ni   15.1462202       11.6178598       4.68764019    
 Ni   10.0759296       2.92734003       4.41633987    
 Ni   17.6344700       7.30808020       4.68764019    
 Ni   20.2202206       11.6741505       4.54005003    
 Ni   15.1462202       2.88573003       4.54005003    
 Ni   7.57311010       7.26234007       4.41633987    
 Ni   10.0722198       11.6741505       4.54005003    
 Ni   5.07029009       2.92734003       4.41633987    
 Ni   15.1462202       8.74468040       6.81567001    
 Ni   10.0895100       2.76299994E-02   6.77545023    
 Ni   12.5939398       4.36542988       6.77545023    
 Ni   5.06867981       8.72395992       6.77545023    
 Ni   0.00000000       0.00000000       7.00127983    
 Ni   2.55227995       4.36542988       6.77545023    
 Ni   10.0775404       8.72395992       6.77545023    
 Ni   5.05670977       2.76299994E-02   6.77545023    
 Ni   7.57311010       4.37234020       6.97059011    
 Ni   17.6603794       10.1962204       9.06091976    
 Ni   12.6251802       1.45553005       9.03390026    
 Ni   15.1462202       5.84157991       9.06091976    
 Ni   7.57311010       10.2059603       9.03390026    
 Ni   2.52103996       1.45553005       9.03390026    
 Ni   5.06944990       5.81783009       9.06536007    
 Ni   12.6320696       10.1962204       9.06091976    
 Ni   7.57311010       1.48135996       9.06536007    
 Ni   10.0767698       5.81783009       9.06536007    
 Ni   20.1945210       11.6593103       11.1762104    
 Ni   15.1462202       2.91541004       11.1762104    
 Ni   17.6641006       7.29097986       11.1795702    
 Ni   10.0979300       11.6593103       11.1762104    
 Ni   5.05468988       2.91832995       11.1800404    
 Ni   7.57311010       7.28035021       11.1800404    
 Ni   15.1462202       11.6520796       11.1795702    
 Ni   10.0915298       2.91832995       11.1800404    
 Ni   12.6283398       7.29097986       11.1795702    
 Ni   0.00000000       0.00000000       12.9644299    
 Ni   2.51740003       4.37137985       12.9874897    
 Ni   5.04609013       8.75119019       12.9874897    
 Ni   5.04442978      -5.54999989E-03   12.9874897    
 Ni   7.57311010       4.37234020       12.9889803    
 Ni   10.1001301       8.75119019       12.9874897    
 Ni   10.1017904      -5.54999989E-03   12.9874897    
 Ni   12.6288204       4.37137985       12.9874897    
 Ni   15.1462202       8.74468040       12.9602098    
 Ni   2.55358005       1.47431004       14.8322401    
 Ni   5.05797005       5.82446003       14.7901602    
 Ni   7.57311010       10.1683903       14.8322401    
 Ni   7.57311010       1.46809995       14.7901602    
 Ni   10.0882502       5.82446003       14.7901602    
 Ni   12.6547604       10.1831198       14.8278399    
 Ni   12.5926399       1.47431004       14.8322401    
 Ni   15.1462202       5.86778021       14.8278399    
 Ni   17.6376896       10.1831198       14.8278399    
 Ni   6.32496977       3.65172005       2.39702010    
 Ni   8.85023022       8.00732994       2.37965989    
 Ni   11.3596697       12.3720798       2.39702010    
 Ni   11.3596697       3.66086006       2.37965989    
 Ni   13.8690996       8.00732994       2.37965989    
 Ni   16.4016609       12.3921804       2.34530997    
 Ni   16.3943691       3.65172005       2.39702010    
 Ni   18.9327793       8.00815964       2.34530997    
 Ni   21.4638901       12.3921804       2.34530997    
 Ni   8.86054993       5.11564016       4.54005003    
 Ni   11.3596697       9.44423008       4.54005003    
 Ni   6.27480984      0.749580026       4.68764019    
 Ni   13.8587799       5.11564016       4.54005003    
 Ni   16.4299603       9.48583984       4.41633987    
 Ni   11.3596697      0.703830004       4.41633987    
 Ni   3.78656006       5.05935001       4.68764019    
 Ni   6.28937006       9.48583984       4.41633987    
 Ni   1.29830003      0.749580026       4.68764019    
 Ni   11.3596697       6.55850983       7.00127983    
 Ni   13.9119501       10.9239302       6.77545023    
 Ni   8.85523987       2.16545010       6.77545023    
 Ni   16.4163799       6.58613014       6.77545023    
 Ni   18.9327793       10.9308395       6.97059011    
 Ni   13.8641005       2.16545010       6.77545023    
 Ni   6.30294991       6.58613014       6.77545023    
 Ni   8.80737972       10.9239302       6.77545023    
 Ni   3.78656006       2.18617010       6.81567001    
 Ni   13.8807096       8.01403046       9.03390026    
 Ni   16.4291096       12.3763304       9.06536007    
 Ni   11.3596697       3.64744997       9.03390026    
 Ni   18.9327793       8.03985977       9.06536007    
 Ni   21.4364395       12.3763304       9.06536007    
 Ni   16.4186192       3.63772011       9.06091976    
 Ni   8.83862019       8.01403046       9.03390026    
 Ni   11.3596697       12.4000902       9.06091976    
 Ni   6.30071020       3.63772011       9.06091976    
 Ni   16.4143600       9.47684002       11.1800404    
 Ni   11.3596697      0.721849978       11.1800404    
 Ni   13.8844805       5.10080004       11.1762104    
 Ni   6.30496979       9.47684002       11.1800404    
 Ni   1.26866996      0.732469976       11.1795702    
 Ni   3.78656006       5.09357023       11.1795702    
 Ni   11.3596697       9.47391033       11.1762104    
 Ni   6.30444002      0.732469976       11.1795702    
 Ni   8.83485031       5.10080004       11.1762104    
 Ni   18.9327793       10.9308395       12.9889803    
 Ni   13.8866901       2.19267988       12.9874897    
 Ni   16.4040909       6.55294991       12.9874897    
 Ni   8.84226036       10.9298897       12.9874897    
 Ni   3.78656006       2.18617010       12.9602098    
 Ni   6.31523991       6.55294991       12.9874897    
 Ni   13.8770704       10.9298897       12.9874897    
 Ni   8.83263969       2.19267988       12.9874897    
 Ni   11.3596697       6.55850983       12.9644299    
 Ni   21.4479198       12.3829603       14.7901602    
 Ni   16.4413109       3.62461996       14.8278399    
 Ni   18.9327793       8.02661037       14.7901602    
 Ni   11.3596697       12.4262800       14.8278399    
 Ni   6.27801991       3.62461996       14.8278399    
 Ni   8.80607986       8.03281975       14.8322401    
 Ni   16.4176292       12.3829603       14.7901602    
 Ni   11.3596697       3.60987997       14.8322401    
 Ni   13.9132500       8.03281975       14.8322401    
 Ni   7.57311010       5.81357002       2.39702010    
 Ni   10.1115198       10.2102299       2.39702010    
 Ni   5.06367016       1.44881999       2.37965989    
 Ni   12.6151104       5.83368015       2.34530997    
 Ni   15.1462202       10.2193699       2.37965989    
 Ni   10.0825500       1.44881999       2.37965989    
 Ni   17.6773396       5.83368015       2.34530997    
 Ni   20.1809196       10.2102299       2.39702010    
 Ni   15.1462202       1.44965994       2.34530997    
 Ni   10.0613604       7.30808020       4.68764019    
 Ni   12.6471100       11.6741505       4.54005003    
 Ni   7.57311010       2.88573003       4.54005003    
 Ni   15.1462202       7.26234007       4.41633987    
 Ni   17.6453304       11.6741505       4.54005003    
 Ni   12.6434097       2.92734003       4.41633987    
 Ni   5.08485985       7.30808020       4.68764019    
 Ni   7.57311010       11.6178598       4.68764019    
 Ni   2.50282001       2.92734003       4.41633987    
 Ni   12.6417904       8.72395992       6.77545023    
 Ni   7.57311010       0.00000000       7.00127983    
 Ni   10.1253901       4.36542988       6.77545023    
 Ni   17.6506500       8.72395992       6.77545023    
 Ni   12.6298199       2.76299994E-02   6.77545023    
 Ni   15.1462202       4.37234020       6.97059011    
 Ni   7.57311010       8.74468040       6.81567001    
 Ni   2.51640010       2.76299994E-02   6.77545023    
 Ni   5.02083015       4.36542988       6.77545023    
 Ni   15.1462202       10.2059603       9.03390026    
 Ni   10.0941601       1.45553005       9.03390026    
 Ni   12.6425600       5.81783009       9.06536007    
 Ni   20.2051792       10.1962204       9.06091976    
 Ni   15.1462202       1.48135996       9.06536007    
 Ni   17.6498909       5.81783009       9.06536007    
 Ni   10.0872602       10.1962204       9.06091976    
 Ni   5.05207014       1.45553005       9.03390026    
 Ni   7.57311010       5.84157991       9.06091976    
 Ni   17.6710396       11.6593103       11.1762104    
 Ni   12.6278095       2.91832995       11.1800404    
 Ni   15.1462202       7.28035021       11.1800404    
 Ni   7.57311010       11.6520796       11.1795702    
 Ni   2.51841998       2.91832995       11.1800404    
 Ni   5.05523014       7.29097986       11.1795702    
 Ni   12.6213999       11.6593103       11.1762104    
 Ni   7.57311010       2.91541004       11.1762104    
 Ni   10.0909901       7.29097986       11.1795702    
 Ni   12.6175404      -5.54999989E-03   12.9874897    
 Ni   15.1462202       4.37234020       12.9889803    
 Ni   17.6732407       8.75119019       12.9874897    
 Ni   2.52868009      -5.54999989E-03   12.9874897    
 Ni   5.05570984       4.37137985       12.9874897    
 Ni   7.57311010       8.74468040       12.9602098    
 Ni   7.57311010       0.00000000       12.9644299    
 Ni   10.0905199       4.37137985       12.9874897    
 Ni   12.6191998       8.75119019       12.9874897    
 Ni   15.1462202       1.46809995       14.7901602    
 Ni   17.6613598       5.82446003       14.7901602    
 Ni   20.2278709       10.1831198       14.8278399    
 Ni   5.01952982       1.47431004       14.8322401    
 Ni   7.57311010       5.86778021       14.8278399    
 Ni   10.0645800       10.1831198       14.8278399    
 Ni   10.1266899       1.47431004       14.8322401    
 Ni   12.6310797       5.82446003       14.7901602    
 Ni   15.1462202       10.1683903       14.8322401    
 Ni   8.82126045       3.65172005       2.39702010    
 Ni   11.3596697       8.00815964       2.34530997    
 Ni   13.8907804       12.3921804       2.34530997    
 Ni   13.8980799       3.65172005       2.39702010    
 Ni   16.4233398       8.00732994       2.37965989    
 Ni   18.9327793       12.3720798       2.39702010    
 Ni   3.78656006       3.66086006       2.37965989    
 Ni   6.29598999       8.00732994       2.37965989    
 Ni   8.82855034       12.3921804       2.34530997    
 Ni   11.3596697       5.05935001       4.68764019    
 Ni   13.8624802       9.48583984       4.41633987    
 Ni   8.87141037      0.749580026       4.68764019    
 Ni   16.4336700       5.11564016       4.54005003    
 Ni   18.9327793       9.44423008       4.54005003    
 Ni   13.8479204      0.749580026       4.68764019    
 Ni   6.28566980       5.11564016       4.54005003    
 Ni   8.85684967       9.48583984       4.41633987    
 Ni   3.78656006      0.703830004       4.41633987    
 Ni   13.8760595       6.58613014       6.77545023    
 Ni   16.3804893       10.9239302       6.77545023    
 Ni   11.3596697       2.18617010       6.81567001    
 Ni   3.78656006       6.55850983       7.00127983    
 Ni   6.33884001       10.9239302       6.77545023    
 Ni   1.28213000       2.16545010       6.77545023    
 Ni   8.84327030       6.58613014       6.77545023    
 Ni   11.3596697       10.9308395       6.97059011    
 Ni   6.29098988       2.16545010       6.77545023    
 Ni   16.4117298       8.01403046       9.03390026    
 Ni   18.9327793       12.4000902       9.06091976    
 Ni   13.8738203       3.63772011       9.06091976    
 Ni   6.30760002       8.01403046       9.03390026    
 Ni   8.85599995       12.3763304       9.06536007    
 Ni   3.78656006       3.64744997       9.03390026    
 Ni   11.3596697       8.03985977       9.06536007    
 Ni   13.8633299       12.3763304       9.06536007    
 Ni   8.84550953       3.63772011       9.06091976    
 Ni   18.9327793       9.47391033       11.1762104    
 Ni   13.8775501      0.732469976       11.1795702    
 Ni   16.4079609       5.10080004       11.1762104    
 Ni   8.84125042       9.47684002       11.1800404    
 Ni   3.78656006      0.721849978       11.1800404    
 Ni   6.31136990       5.10080004       11.1762104    
 Ni   13.8780804       9.47684002       11.1800404    
 Ni   8.84177971      0.732469976       11.1795702    
 Ni   11.3596697       5.09357023       11.1795702    
 Ni   6.30395985       10.9298897       12.9874897    
 Ni   1.25952995       2.19267988       12.9874897    
 Ni   3.78656006       6.55850983       12.9644299    
 Ni   11.3596697       10.9308395       12.9889803    
 Ni   6.31358004       2.19267988       12.9874897    
 Ni   8.83098030       6.55294991       12.9874897    
 Ni   16.4153709       10.9298897       12.9874897    
 Ni   11.3596697       2.18617010       12.9602098    
 Ni   13.8883495       6.55294991       12.9874897    
 Ni   8.84451962       12.3829603       14.7901602    
 Ni   3.78656006       3.60987997       14.8322401    
 Ni   6.34013987       8.03281975       14.8322401    
 Ni   13.8748102       12.3829603       14.7901602    
 Ni   8.86820030       3.62461996       14.8278399    
 Ni   11.3596697       8.02661037       14.7901602    
 Ni   18.9327793       12.4262800       14.8278399    
 Ni   13.8511295       3.62461996       14.8278399    
 Ni   16.3792000       8.03281975       14.8322401    
 O    0.00000000       0.00000000       16.7796803    
 O    0.00000000       0.00000000       18.0045605    
 O    0.00000000       0.00000000       20.3386593    
 O    0.00000000       0.00000000       21.5564098    
 O   0.982630014       1.64700997       16.8684998    
 O   0.932720006       1.63237000       18.1095200    
 O   0.953130007       1.64420998       20.3546391    
 O   0.936779976       1.63616002       21.5688095    
 O    1.92970002       3.25821996       16.8785992    
 O    1.87663996       3.28886008       18.1590099    
 O    1.90123999       3.27466011       20.3788605    
 O    1.88040996       3.28667998       21.6064892    
 O    2.85152006       4.88401985       16.8684998    
 O    2.83924007       4.93455982       18.1095200    
 O    2.83919001       4.91097021       20.3546391    
 O    2.83799005       4.92915010       21.5688095    
 O    3.78656006       6.55850983       16.7796803    
 O    3.78656006       6.55850983       18.0045605    
 O    3.78656006       6.55850983       20.3386593    
 O    3.78656006       6.55850983       21.5564098    
 O    4.76917982       8.20551968       16.8684998    
 O    4.71927977       8.19087982       18.1095200    
 O    4.73968983       8.20271969       20.3546391    
 O    4.72334003       8.19466019       21.5688095    
 O    5.71625996       9.81672955       16.8785992    
 O    5.66319990       9.84735966       18.1590099    
 O    5.68778992       9.83316040       20.3788605    
 O    5.66696978       9.84519005       21.6064892    
 O    6.63807011       11.4425297       16.8684998    
 O    6.62580013       11.4930696       18.1095200    
 O    6.62575006       11.4694700       20.3546391    
 O    6.62454987       11.4876604       21.5688095    
 O    1.91767001       2.74700001E-02   16.8684998    
 O    1.88004005      -8.43000039E-03   18.1095200    
 O    1.90049005       3.32999998E-03   20.3546391    
 O    1.88533998      -6.80000009E-03   21.5688095    
 O    2.84945989       1.64514005       16.9428806    
 O    2.82967997       1.63372004       18.1570702    
 O    2.84693003       1.64367998       20.4126492    
 O    2.83076000       1.63434005       21.6249409    
 O    3.78656006       3.26822996       16.9428806    
 O    3.78656006       3.29106998       18.1570702    
 O    3.78656006       3.27115011       20.4126492    
 O    3.78656006       3.28982997       21.6249409    
 O    4.72160006       4.88401985       16.8684998    
 O    4.73387003       4.93455982       18.1095200    
 O    4.73392010       4.91097021       20.3546391    
 O    4.73511982       4.92915010       21.5688095    
 O    5.70421982       6.58597994       16.8684998    
 O    5.66659021       6.55007982       18.1095200    
 O    5.68704987       6.56184006       20.3546391    
 O    5.67189980       6.55171013       21.5688095    
 O    6.63602018       8.20363998       16.9428806    
 O    6.61624002       8.19223022       18.1570702    
 O    6.63349009       8.20217991       20.4126492    
 O    6.61731005       8.19283962       21.6249409    
 O    7.57311010       9.82674026       16.9428806    
 O    7.57311010       9.84957027       18.1570702    
 O    7.57311010       9.82966042       20.4126492    
 O    7.57311010       9.84834003       21.6249409    
 O    8.50815010       11.4425297       16.8684998    
 O    8.52042961       11.4930696       18.1095200    
 O    8.52046967       11.4694700       20.3546391    
 O    8.52167034       11.4876604       21.5688095    
 O    3.78656006       4.20599990E-02   16.8785992    
 O    3.78656006      -1.92099996E-02   18.1590099    
 O    3.78656006       9.18999966E-03   20.3788605    
 O    3.78656006      -1.48600005E-02   21.6064892    
 O    4.72364998       1.64514005       16.9428806    
 O    4.74343014       1.63372004       18.1570702    
 O    4.72618008       1.64367998       20.4126492    
 O    4.74236012       1.63434005       21.6249409    
 O    5.64341021       3.25821996       16.8785992    
 O    5.69646978       3.28886008       18.1590099    
 O    5.67187023       3.27466011       20.3788605    
 O    5.69269991       3.28667998       21.6064892    
 O    6.62389994       4.92036009       16.8564701    
 O    6.63430023       4.91436005       18.0704002    
 O    6.62573004       4.91931009       20.3354893    
 O    6.62890005       4.91747999       21.5647297    
 O    7.57311010       6.60056019       16.8785992    
 O    7.57311010       6.53929996       18.1590099    
 O    7.57311010       6.56769991       20.3788605    
 O    7.57311010       6.54365015       21.6064892    
 O    8.51021004       8.20363998       16.9428806    
 O    8.52997971       8.19223022       18.1570702    
 O    8.51272964       8.20217991       20.4126492    
 O    8.52890968       8.19283962       21.6249409    
 O    9.42996979       9.81672955       16.8785992    
 O    9.48301983       9.84735966       18.1590099    
 O    9.45843029       9.83316040       20.3788605    
 O    9.47926044       9.84519005       21.6064892    
 O    10.4104605       11.4788704       16.8564701    
 O    10.4208603       11.4728699       18.0704002    
 O    10.4122801       11.4778204       20.3354893    
 O    10.4154596       11.4759798       21.5647297    
 O    5.65543985       2.74700001E-02   16.8684998    
 O    5.69306993      -8.43000039E-03   18.1095200    
 O    5.67261982       3.32999998E-03   20.3546391    
 O    5.68776989      -6.80000009E-03   21.5688095    
 O    6.59047985       1.64700997       16.8684998    
 O    6.64038992       1.63237000       18.1095200    
 O    6.61997986       1.64420998       20.3546391    
 O    6.63633013       1.63616002       21.5688095    
 O    7.57311010       3.27628994       16.8564701    
 O    7.57311010       3.28829002       18.0704002    
 O    7.57311010       3.27838993       20.3354893    
 O    7.57311010       3.28205991       21.5647297    
 O    8.52231979       4.92036009       16.8564701    
 O    8.51191998       4.91436005       18.0704002    
 O    8.52050018       4.91931009       20.3354893    
 O    8.51731968       4.91747999       21.5647297    
 O    9.44200039       6.58597994       16.8684998    
 O    9.47963047       6.55007982       18.1095200    
 O    9.45917034       6.56184006       20.3546391    
 O    9.47432041       6.55171013       21.5688095    
 O    10.3770399       8.20551968       16.8684998    
 O    10.4269505       8.19087982       18.1095200    
 O    10.4065399       8.20271969       20.3546391    
 O    10.4228802       8.19466019       21.5688095    
 O    11.3596697       9.83479023       16.8564701    
 O    11.3596697       9.84679985       18.0704002    
 O    11.3596697       9.83689976       20.3354893    
 O    11.3596697       9.84057045       21.5647297    
 O    12.3088799       11.4788704       16.8564701    
 O    12.2984800       11.4728699       18.0704002    
 O    12.3070498       11.4778204       20.3354893    
 O    12.3038702       11.4759798       21.5647297    
 O    7.57311010       0.00000000       16.7796803    
 O    7.57311010       0.00000000       18.0045605    
 O    7.57311010       0.00000000       20.3386593    
 O    7.57311010       0.00000000       21.5564098    
 O    8.55574036       1.64700997       16.8684998    
 O    8.50582981       1.63237000       18.1095200    
 O    8.52624035       1.64420998       20.3546391    
 O    8.50988960       1.63616002       21.5688095    
 O    9.50280952       3.25821996       16.8785992    
 O    9.44974995       3.28886008       18.1590099    
 O    9.47434998       3.27466011       20.3788605    
 O    9.45351982       3.28667998       21.6064892    
 O    10.4246302       4.88401985       16.8684998    
 O    10.4123497       4.93455982       18.1095200    
 O    10.4123001       4.91097021       20.3546391    
 O    10.4111004       4.92915010       21.5688095    
 O    11.3596697       6.55850983       16.7796803    
 O    11.3596697       6.55850983       18.0045605    
 O    11.3596697       6.55850983       20.3386593    
 O    11.3596697       6.55850983       21.5564098    
 O    12.3422899       8.20551968       16.8684998    
 O    12.2923899       8.19087982       18.1095200    
 O    12.3128004       8.20271969       20.3546391    
 O    12.2964497       8.19466019       21.5688095    
 O    13.2893696       9.81672955       16.8785992    
 O    13.2363100       9.84735966       18.1590099    
 O    13.2609100       9.83316040       20.3788605    
 O    13.2400799       9.84519005       21.6064892    
 O    14.2111797       11.4425297       16.8684998    
 O    14.1989098       11.4930696       18.1095200    
 O    14.1988602       11.4694700       20.3546391    
 O    14.1976604       11.4876604       21.5688095    
 O    9.49077988       2.74700001E-02   16.8684998    
 O    9.45314980      -8.43000039E-03   18.1095200    
 O    9.47360039       3.32999998E-03   20.3546391    
 O    9.45845032      -6.80000009E-03   21.5688095    
 O    10.4225702       1.64514005       16.9428806    
 O    10.4027996       1.63372004       18.1570702    
 O    10.4200401       1.64367998       20.4126492    
 O    10.4038696       1.63434005       21.6249409    
 O    11.3596697       3.26822996       16.9428806    
 O    11.3596697       3.29106998       18.1570702    
 O    11.3596697       3.27115011       20.4126492    
 O    11.3596697       3.28982997       21.6249409    
 O    12.2947102       4.88401985       16.8684998    
 O    12.3069801       4.93455982       18.1095200    
 O    12.3070297       4.91097021       20.3546391    
 O    12.3082304       4.92915010       21.5688095    
 O    13.2773304       6.58597994       16.8684998    
 O    13.2397003       6.55007982       18.1095200    
 O    13.2601604       6.56184006       20.3546391    
 O    13.2450104       6.55171013       21.5688095    
 O    14.2091303       8.20363998       16.9428806    
 O    14.1893501       8.19223022       18.1570702    
 O    14.2066002       8.20217991       20.4126492    
 O    14.1904202       8.19283962       21.6249409    
 O    15.1462202       9.82674026       16.9428806    
 O    15.1462202       9.84957027       18.1570702    
 O    15.1462202       9.82966042       20.4126492    
 O    15.1462202       9.84834003       21.6249409    
 O    16.0812607       11.4425297       16.8684998    
 O    16.0935402       11.4930696       18.1095200    
 O    16.0935802       11.4694700       20.3546391    
 O    16.0947800       11.4876604       21.5688095    
 O    11.3596697       4.20599990E-02   16.8785992    
 O    11.3596697      -1.92099996E-02   18.1590099    
 O    11.3596697       9.18999966E-03   20.3788605    
 O    11.3596697      -1.48600005E-02   21.6064892    
 O    12.2967596       1.64514005       16.9428806    
 O    12.3165398       1.63372004       18.1570702    
 O    12.2992897       1.64367998       20.4126492    
 O    12.3154697       1.63434005       21.6249409    
 O    13.2165203       3.25821996       16.8785992    
 O    13.2695799       3.28886008       18.1590099    
 O    13.2449799       3.27466011       20.3788605    
 O    13.2658100       3.28667998       21.6064892    
 O    14.1970100       4.92036009       16.8564701    
 O    14.2074099       4.91436005       18.0704002    
 O    14.1988401       4.91931009       20.3354893    
 O    14.2020102       4.91747999       21.5647297    
 O    15.1462202       6.60056019       16.8785992    
 O    15.1462202       6.53929996       18.1590099    
 O    15.1462202       6.56769991       20.3788605    
 O    15.1462202       6.54365015       21.6064892    
 O    16.0833206       8.20363998       16.9428806    
 O    16.1030903       8.19223022       18.1570702    
 O    16.0858402       8.20217991       20.4126492    
 O    16.1020203       8.19283962       21.6249409    
 O    17.0030804       9.81672955       16.8785992    
 O    17.0561295       9.84735966       18.1590099    
 O    17.0315399       9.83316040       20.3788605    
 O    17.0523701       9.84519005       21.6064892    
 O    17.9835701       11.4788704       16.8564701    
 O    17.9939709       11.4728699       18.0704002    
 O    17.9853897       11.4778204       20.3354893    
 O    17.9885693       11.4759798       21.5647297    
 O    13.2285500       2.74700001E-02   16.8684998    
 O    13.2661896      -8.43000039E-03   18.1095200    
 O    13.2457304       3.32999998E-03   20.3546391    
 O    13.2608805      -6.80000009E-03   21.5688095    
 O    14.1635904       1.64700997       16.8684998    
 O    14.2135000       1.63237000       18.1095200    
 O    14.1930904       1.64420998       20.3546391    
 O    14.2094402       1.63616002       21.5688095    
 O    15.1462202       3.27628994       16.8564701    
 O    15.1462202       3.28829002       18.0704002    
 O    15.1462202       3.27838993       20.3354893    
 O    15.1462202       3.28205991       21.5647297    
 O    16.0954304       4.92036009       16.8564701    
 O    16.0850296       4.91436005       18.0704002    
 O    16.0936108       4.91931009       20.3354893    
 O    16.0904293       4.91747999       21.5647297    
 O    17.0151100       6.58597994       16.8684998    
 O    17.0527401       6.55007982       18.1095200    
 O    17.0322800       6.56184006       20.3546391    
 O    17.0474300       6.55171013       21.5688095    
 O    17.9501495       8.20551968       16.8684998    
 O    18.0000591       8.19087982       18.1095200    
 O    17.9796505       8.20271969       20.3546391    
 O    17.9960003       8.19466019       21.5688095    
 O    18.9327793       9.83479023       16.8564701    
 O    18.9327793       9.84679985       18.0704002    
 O    18.9327793       9.83689976       20.3354893    
 O    18.9327793       9.84057045       21.5647297    
 O    19.8819904       11.4788704       16.8564701    
 O    19.8715897       11.4728699       18.0704002    
 O    19.8801594       11.4778204       20.3354893    
 O    19.8769798       11.4759798       21.5647297    
