       N       E                     dE             d eps       ncg     rms          rms(c)
DAV:   1     0.474306413405E+05    0.47431E+05   -0.16520E+06  9764   0.135E+03
DAV:   2     0.598810891369E+04   -0.41443E+05   -0.38254E+05 10416   0.490E+02
DAV:   3    -0.363121383302E+03   -0.63512E+04   -0.55244E+04 13112   0.205E+02
DAV:   4    -0.131274154652E+04   -0.94962E+03   -0.79119E+03 16216   0.709E+01
DAV:   5    -0.144809943325E+04   -0.13536E+03   -0.10666E+03 17192   0.211E+01    0.103E+03
DAV:   6    -0.310189727836E+04   -0.16538E+04   -0.26283E+03 15752   0.189E+02    0.109E+03
DAV:   7    -0.655695032879E+04   -0.34551E+04   -0.10614E+04 12678   0.176E+02    0.786E+02
DAV:   8    -0.473574109847E+05   -0.40800E+05   -0.41509E+05 18446   0.515E+02    0.322E+03
DAV:   9    -0.119902866841E+06   -0.72545E+05   -0.24933E+05 16464   0.581E+02    0.390E+03
DAV:  10    -0.172969473399E+06   -0.53067E+05   -0.81221E+04 15160   0.408E+02    0.463E+03
DAV:  11    -0.177284253889E+06   -0.43148E+04   -0.25786E+04 15744   0.191E+02    0.497E+03
DAV:  12    -0.167639217224E+06    0.96450E+04   -0.50584E+03 18104   0.733E+01    0.521E+03
DAV:  13    -0.146940454838E+06    0.20699E+05   -0.25601E+03 14656   0.141E+02    0.585E+03
DAV:  14    -0.141608681802E+06    0.53318E+04   -0.34505E+03 13861   0.876E+01    0.568E+03
DAV:  15    -0.710720823790E+05    0.70537E+05   -0.95246E+03 15968   0.165E+02    0.577E+03
DAV:  16    -0.526199910333E+05    0.18452E+05   -0.14088E+04 14344   0.138E+02    0.571E+03
DAV:  17    -0.437963612813E+05    0.88236E+04   -0.96008E+03 12488   0.120E+02    0.570E+03
DAV:  18    -0.433655200805E+05    0.43084E+03   -0.56699E+03 14480   0.595E+01    0.558E+03
DAV:  19    -0.475797192326E+05   -0.42142E+04   -0.60102E+02 13872   0.624E+01    0.561E+03
DAV:  20    -0.471091951954E+05    0.47052E+03   -0.33072E+02 13080   0.187E+01    0.563E+03
DAV:  21    -0.466165696010E+05    0.49263E+03   -0.71618E+01 12456   0.203E+01    0.563E+03
DAV:  22    -0.354943054796E+05    0.11122E+05   -0.76602E+02 15088   0.742E+01    0.554E+03
DAV:  23    -0.316112219161E+05    0.38831E+04   -0.26717E+03 13480   0.433E+01    0.560E+03
DAV:  24    -0.294600549372E+05    0.21512E+04   -0.14673E+03 14616   0.255E+01    0.571E+03
DAV:  25    -0.292816625074E+05    0.17839E+03   -0.15414E+03 14264   0.729E+01    0.499E+03
DAV:  26    -0.315680172084E+05   -0.22864E+04   -0.49522E+03 15112   0.383E+01    0.481E+03
DAV:  27    -0.306143303143E+05    0.95369E+03   -0.12792E+03 12096   0.281E+01    0.481E+03
DAV:  28    -0.272392081270E+05    0.33751E+04   -0.27828E+02 12768   0.213E+01    0.491E+03
DAV:  29    -0.263570526344E+05    0.88216E+03   -0.23938E+02 13208   0.111E+01    0.482E+03
DAV:  30    -0.253534240340E+05    0.10036E+04   -0.61164E+02 14968   0.361E+01    0.471E+03
DAV:  31    -0.215327244996E+05    0.38207E+04   -0.79482E+02 15644   0.261E+01    0.415E+03
DAV:  32    -0.219884620232E+05   -0.45574E+03   -0.23940E+02 13120   0.123E+01    0.415E+03
DAV:  33    -0.199612017647E+05    0.20273E+04   -0.21198E+02 16784   0.466E+01    0.423E+03
DAV:  34    -0.190637059470E+05    0.89750E+03   -0.11769E+02 13408   0.113E+01    0.403E+03
DAV:  35    -0.159475718152E+05    0.31161E+04   -0.15799E+03 16160   0.264E+01    0.380E+03
DAV:  36    -0.111492000218E+05    0.47984E+04   -0.83111E+04 17398   0.113E+02    0.330E+03
DAV:  37    -0.129725333857E+05   -0.18233E+04   -0.24131E+04 14796   0.122E+02    0.270E+03
DAV:  38    -0.129616249280E+05    0.10908E+02   -0.17057E+03 13944   0.325E+01    0.265E+03
DAV:  39    -0.128140906780E+05    0.14753E+03   -0.19697E+02 14784   0.888E+00    0.261E+03
DAV:  40    -0.128777797343E+05   -0.63689E+02   -0.26252E+01 14736   0.343E+00    0.263E+03
DAV:  41    -0.103370184007E+05    0.25408E+04   -0.82838E+02 13664   0.310E+01    0.240E+03
DAV:  42    -0.935675532689E+04    0.98026E+03   -0.59330E+02 14208   0.212E+01    0.212E+03
DAV:  43    -0.303925563819E+04    0.63175E+04   -0.86461E+03 15760   0.846E+01    0.139E+03
DAV:  44    -0.282036936472E+04    0.21889E+03   -0.56176E+03 16056   0.121E+02    0.120E+03
DAV:  45    -0.297115052552E+04   -0.15078E+03   -0.28931E+03 14048   0.568E+01    0.106E+03
DAV:  46    -0.380263152171E+04   -0.83148E+03   -0.79157E+02 13760   0.103E+02    0.106E+03
DAV:  47    -0.431581101492E+04   -0.51318E+03   -0.73244E+02 15616   0.672E+01    0.107E+03
DAV:  48    -0.463841504248E+04   -0.32260E+03   -0.54543E+02 14464   0.741E+01    0.101E+03
DAV:  49    -0.460569161938E+04    0.32723E+02   -0.21091E+02 13056   0.156E+01    0.990E+02
DAV:  50    -0.476780886660E+04   -0.16212E+03   -0.57347E+01 13600   0.205E+01    0.987E+02
DAV:  51    -0.581301726353E+04   -0.10452E+04   -0.81807E+02 13776   0.981E+01    0.834E+02
DAV:  52    -0.577137149131E+04    0.41646E+02   -0.62026E+02 12872   0.591E+01    0.849E+02
DAV:  53    -0.599363131854E+04   -0.22226E+03   -0.20707E+02 12904   0.164E+01    0.861E+02
DAV:  54    -0.593567375285E+04    0.57958E+02   -0.40598E+01 14432   0.699E+00    0.865E+02
DAV:  55    -0.595364243161E+04   -0.17969E+02   -0.24850E+01 13624   0.107E+01    0.860E+02
DAV:  56    -0.544921139547E+04    0.50443E+03   -0.24749E+03 15132   0.141E+02    0.103E+03
DAV:  57    -0.459544108129E+04    0.85377E+03   -0.30040E+03 16704   0.111E+02    0.834E+02
DAV:  58    -0.489245887079E+04   -0.29702E+03   -0.92406E+02 14952   0.499E+01    0.863E+02
DAV:  59    -0.506766501767E+04   -0.17521E+03   -0.26064E+02 12288   0.293E+01    0.874E+02
DAV:  60    -0.546777698100E+04   -0.40011E+03   -0.16870E+02 14304   0.185E+01
   1 F= -.56047856E+04 E0= -.56045767E+04  d E =-.560479E+04
       N       E                     dE             d eps       ncg     rms          rms(c)
DAV:   1    -0.507796193611E+04   -0.10297E+02   -0.16442E+05  9820   0.467E+02    0.149E+03
DAV:   2    -0.161740071671E+06   -0.15666E+06   -0.15229E+06 17102   0.175E+03    0.104E+04
DAV:   3    -0.160175590073E+06    0.15645E+04   -0.21489E+05 17192   0.736E+02    0.696E+03
DAV:   4    -0.235449268994E+05    0.13663E+06   -0.84406E+05 18300   0.491E+02    0.695E+03
DAV:   5    -0.436512585084E+05   -0.20106E+05   -0.12865E+05 11614   0.657E+02    0.528E+03
DAV:   6    -0.588812619391E+05   -0.15230E+05   -0.13651E+06 18120   0.691E+02    0.386E+03
DAV:   7    -0.437302212008E+05    0.15151E+05   -0.19089E+05 15864   0.446E+02    0.330E+03
DAV:   8    -0.426177537139E+05    0.11125E+04   -0.33335E+04 16064   0.193E+02    0.273E+03
DAV:   9    -0.496643417905E+05   -0.70466E+04   -0.21286E+03 15336   0.797E+01    0.297E+03
DAV:  10    -0.584364358036E+05   -0.87721E+04   -0.90700E+03 14728   0.623E+01    0.357E+03
DAV:  11    -0.852891932653E+05   -0.26853E+05   -0.34375E+03 13376   0.554E+01    0.372E+03
DAV:  12    -0.547714222839E+05    0.30518E+05   -0.18886E+03 15720   0.138E+02    0.410E+03
DAV:  13    -0.776063816428E+05   -0.22835E+05   -0.35825E+03 13168   0.880E+01    0.420E+03
DAV:  14    -0.534955095785E+05    0.24111E+05   -0.18669E+03 13992   0.670E+01    0.425E+03
DAV:  15    -0.332584403421E+05    0.20237E+05   -0.17525E+03 12976   0.823E+01    0.388E+03
DAV:  16    -0.503861326785E+04    0.28220E+05   -0.11317E+05 17552   0.206E+02    0.365E+03
DAV:  17    -0.877299310130E+04   -0.37344E+04   -0.10577E+05 14048   0.270E+02    0.280E+03
DAV:  18    -0.167985421441E+05   -0.80255E+04   -0.10482E+05 13648   0.470E+02    0.320E+03
DAV:  19    -0.107880313384E+05    0.60105E+04   -0.37141E+04 14976   0.270E+02    0.166E+03
DAV:  20    -0.127210495263E+05   -0.19330E+04   -0.95240E+04 16988   0.440E+02    0.322E+03
DAV:  21    -0.173559963760E+05   -0.46349E+04   -0.40633E+04 14464   0.188E+02    0.208E+03
DAV:  22    -0.678786760168E+04    0.10568E+05   -0.31979E+04 14900   0.228E+02    0.154E+03
DAV:  23    -0.121188048576E+05   -0.53309E+04   -0.26753E+04 14960   0.242E+02    0.207E+03
DAV:  24    -0.152846256586E+05   -0.31658E+04   -0.21534E+04 15768   0.160E+02    0.222E+03
DAV:  25    -0.170638462341E+05   -0.17792E+04   -0.55156E+03 16576   0.924E+01    0.253E+03
DAV:  26    -0.173910650665E+05   -0.32722E+03   -0.11423E+03 16120   0.339E+01    0.258E+03
DAV:  27    -0.223012774065E+05   -0.49102E+04   -0.81273E+02 14736   0.729E+01    0.318E+03
DAV:  28    -0.224270666695E+05   -0.12579E+03   -0.11766E+03 15864   0.187E+01    0.332E+03
DAV:  29    -0.231453459622E+05   -0.71828E+03   -0.67555E+02 13664   0.506E+01    0.371E+03
DAV:  30    -0.241364103624E+05   -0.99106E+03   -0.49050E+02 16256   0.212E+01    0.398E+03
DAV:  31    -0.242497897099E+05   -0.11338E+03   -0.24059E+02 15736   0.924E+00    0.410E+03
DAV:  32    -0.245285240710E+05   -0.27873E+03   -0.74766E+01 14440   0.579E+00    0.420E+03
DAV:  33    -0.245032195762E+05    0.25304E+02   -0.21510E+01 16280   0.297E+00    0.423E+03
DAV:  34    -0.244591049822E+05    0.44115E+02   -0.50923E+00 14024   0.146E+00    0.423E+03
DAV:  35    -0.244184978125E+05    0.40607E+02   -0.20149E+01 13416   0.123E+01    0.423E+03
DAV:  36    -0.224646589169E+05    0.19538E+04   -0.12761E+02 15296   0.255E+01    0.394E+03
DAV:  37    -0.190001094488E+05    0.34645E+04   -0.31725E+03 15024   0.109E+02    0.350E+03
DAV:  38    -0.166196001847E+05    0.23805E+04   -0.16858E+03 15720   0.702E+01    0.301E+03
DAV:  39    -0.166377559642E+05   -0.18156E+02   -0.20146E+03 14248   0.735E+01    0.262E+03
DAV:  40    -0.169734624184E+05   -0.33571E+03   -0.15506E+03 16688   0.592E+01    0.283E+03
DAV:  41    -0.170021665579E+05   -0.28704E+02   -0.87826E+02 15256   0.431E+01    0.280E+03
DAV:  42    -0.163918222611E+05    0.61034E+03   -0.60057E+02 13304   0.463E+01    0.260E+03
DAV:  43    -0.173625901412E+05   -0.97077E+03   -0.70962E+02 15632   0.307E+01    0.276E+03
DAV:  44    -0.164696539986E+05    0.89294E+03   -0.18332E+04 10940   0.285E+02    0.279E+03
DAV:  45    -0.172595281072E+05   -0.78987E+03   -0.38444E+03 11277   0.645E+01    0.274E+03
DAV:  46    -0.148452421490E+05    0.24143E+04   -0.64844E+05 10692   0.693E+03    0.229E+03
DAV:  47    -0.153295048918E+05   -0.48426E+03   -0.28563E+04 14908   0.258E+02    0.249E+03
DAV:  48    -0.189995318942E+05   -0.36700E+04   -0.11743E+04 15872   0.145E+02    0.333E+03
DAV:  49    -0.288691281064E+05   -0.98696E+04   -0.69601E+03 15487   0.155E+02    0.462E+03
DAV:  50    -0.313619366191E+05   -0.24928E+04   -0.66752E+03 17320   0.766E+01    0.487E+03
DAV:  51    -0.354875613798E+05   -0.41256E+04   -0.34203E+03 14608   0.121E+02    0.487E+03
DAV:  52    -0.128010046237E+05    0.22687E+05   -0.32063E+04 17384   0.240E+02    0.139E+03
DAV:  53    -0.119760074188E+05    0.82500E+03   -0.84160E+03 11368   0.174E+02    0.159E+03
DAV:  54    -0.120455827034E+05   -0.69575E+02   -0.51370E+03 14608   0.842E+01    0.115E+03
DAV:  55    -0.153846361047E+05   -0.33391E+04   -0.16939E+03 14912   0.112E+02    0.167E+03
DAV:  56    -0.941957915831E+05   -0.78811E+05   -0.70247E+05 17920   0.322E+02    0.173E+04
DAV:  57    -0.456231961769E+04    0.89633E+05   -0.20935E+05 16292   0.540E+02    0.121E+03
DAV:  58    -0.102989578698E+05   -0.57366E+04   -0.63040E+04 15796   0.257E+02    0.999E+02
DAV:  59    -0.848714361523E+04    0.18118E+04   -0.10366E+04 12544   0.179E+02    0.122E+03
DAV:  60    -0.672601516573E+06   -0.66411E+06   -0.62876E+06 16982   0.942E+02
   2 F= -.67273541E+06 E0= -.67273533E+06  d E =-.667131E+06
       N       E                     dE             d eps       ncg     rms          rms(c)
DAV:   1    -0.201598579805E+04    0.64712E+04   -0.29165E+05 13108   0.446E+02    0.130E+03
DAV:   2    -0.115769791674E+06   -0.11375E+06   -0.99421E+05 16967   0.126E+03    0.122E+04
DAV:   3    -0.172164656487E+06   -0.56395E+05   -0.22324E+05 14974   0.606E+02    0.832E+03
DAV:   4    -0.109506717323E+05    0.16121E+06   -0.87899E+05 18094   0.762E+02    0.563E+03
DAV:   5    -0.360696874119E+05   -0.25119E+05   -0.32202E+05 15672   0.591E+02    0.279E+03
DAV:   6    -0.869650318093E+04    0.27373E+05   -0.27240E+05 15892   0.460E+02    0.454E+03
DAV:   7    -0.646852582488E+04    0.22280E+04   -0.92599E+04 13768   0.365E+02    0.154E+03
DAV:   8    -0.475267785689E+05   -0.41058E+05   -0.55922E+05 16732   0.966E+02    0.690E+03
DAV:   9    -0.609755715293E+05   -0.13449E+05   -0.12238E+05 15968   0.406E+02    0.428E+03
DAV:  10    -0.329890868570E+05    0.27986E+05   -0.15018E+04 13494   0.231E+02    0.214E+03
DAV:  11    -0.112452866171E+05    0.21744E+05   -0.84588E+04 16808   0.259E+02    0.218E+03
DAV:  12    -0.453883532698E+04    0.67065E+04   -0.74630E+04 14368   0.240E+02    0.170E+03
DAV:  13    -0.396923388656E+04    0.56960E+03   -0.30073E+04 14384   0.196E+02    0.775E+02
DAV:  14    -0.627143197833E+04   -0.23022E+04   -0.70582E+03 10896   0.236E+02    0.116E+03
DAV:  15    -0.362081355442E+04    0.26506E+04   -0.42296E+03 12032   0.137E+02    0.675E+02
DAV:  16    -0.376759796258E+04   -0.14678E+03   -0.14016E+03 11992   0.138E+02    0.710E+02
DAV:  17    -0.349878045671E+04    0.26882E+03   -0.13498E+03 15000   0.449E+01    0.639E+02
DAV:  18    -0.436134297829E+04   -0.86256E+03   -0.95442E+02 15216   0.140E+02    0.573E+02
DAV:  19    -0.368950974151E+04    0.67183E+03   -0.11085E+03 16207   0.928E+01    0.581E+02
DAV:  20    -0.390571258829E+04   -0.21620E+03   -0.16132E+03 15864   0.135E+02    0.585E+02
DAV:  21    -0.292067630152E+04    0.98504E+03   -0.11984E+03 15536   0.820E+01    0.488E+02
DAV:  22    -0.302157645200E+04   -0.10090E+03   -0.12917E+03 15184   0.139E+02    0.469E+02
DAV:  23    -0.282936915345E+04    0.19221E+03   -0.10840E+03 16824   0.973E+01    0.416E+02
DAV:  24    -0.264515941055E+04    0.18421E+03   -0.56686E+02 17624   0.700E+01    0.399E+02
DAV:  25    -0.246606805754E+04    0.17909E+03   -0.54247E+02 15192   0.890E+01    0.388E+02
DAV:  26    -0.238972109044E+04    0.76347E+02   -0.42055E+02 17464   0.675E+01    0.383E+02
DAV:  27    -0.226085461872E+04    0.12887E+03   -0.14908E+02 11784   0.211E+01    0.350E+02
DAV:  28    -0.234627517824E+04   -0.85421E+02   -0.17053E+02 14056   0.449E+01    0.373E+02
DAV:  29    -0.242573362219E+04   -0.79458E+02   -0.99602E+01 13968   0.267E+01    0.404E+02
DAV:  30    -0.225375497585E+04    0.17198E+03   -0.53587E+01 13536   0.262E+01    0.371E+02
DAV:  31    -0.224700526159E+04    0.67497E+01   -0.55071E+01 13848   0.208E+01    0.372E+02
DAV:  32    -0.213568316905E+04    0.11132E+03   -0.49150E+01 12384   0.243E+01    0.340E+02
DAV:  33    -0.219176709395E+04   -0.56084E+02   -0.60991E+01 12552   0.282E+01    0.367E+02
DAV:  34    -0.208000462564E+04    0.11176E+03   -0.62791E+01 12056   0.316E+01    0.334E+02
DAV:  35    -0.199825874857E+04    0.81746E+02   -0.76469E+01 13096   0.312E+01    0.320E+02
DAV:  36    -0.195502514365E+04    0.43234E+02   -0.66727E+01 11504   0.325E+01    0.304E+02
DAV:  37    -0.191481667343E+04    0.40208E+02   -0.31224E+01 11992   0.210E+01    0.273E+02
DAV:  38    -0.192242542094E+04   -0.76087E+01   -0.30701E+01 11784   0.190E+01    0.279E+02
DAV:  39    -0.200170690071E+04   -0.79281E+02   -0.40556E+01 12952   0.279E+01    0.315E+02
DAV:  40    -0.188870139836E+04    0.11301E+03   -0.31336E+01 12120   0.205E+01    0.275E+02
DAV:  41    -0.186621006956E+04    0.22491E+02   -0.20893E+01 14776   0.842E+00    0.268E+02
DAV:  42    -0.187758572600E+04   -0.11376E+02   -0.63852E+00 13832   0.431E+00    0.270E+02
DAV:  43    -0.187732595969E+04    0.25977E+00   -0.25866E+00 14976   0.511E+00    0.272E+02
DAV:  44    -0.189932121411E+04   -0.21995E+02   -0.17158E+01 16192   0.166E+01    0.277E+02
DAV:  45    -0.194870185393E+04   -0.49381E+02   -0.92648E+00 17264   0.714E+00    0.295E+02
DAV:  46    -0.195423040708E+04   -0.55286E+01   -0.19226E+00 14720   0.273E+00    0.295E+02
DAV:  47    -0.207710338505E+04   -0.12287E+03   -0.18967E+02 16424   0.678E+01    0.270E+02
DAV:  48    -0.241407350079E+04   -0.33697E+03   -0.33334E+02 15144   0.638E+01    0.370E+02
DAV:  49    -0.236605513377E+04    0.48018E+02   -0.21164E+02 15272   0.484E+01    0.332E+02
DAV:  50    -0.233271336425E+04    0.33342E+02   -0.11495E+02 14272   0.406E+01    0.303E+02
DAV:  51    -0.234119767187E+04   -0.84843E+01   -0.81784E+01 13168   0.230E+01    0.290E+02
DAV:  52    -0.272811711194E+04   -0.38692E+03   -0.42654E+02 16840   0.760E+01    0.358E+02
DAV:  53    -0.245361443962E+04    0.27450E+03   -0.16121E+02 13120   0.467E+01    0.288E+02
DAV:  54    -0.241944652838E+04    0.34168E+02   -0.16200E+02 13224   0.477E+01    0.303E+02
DAV:  55    -0.230146260589E+04    0.11798E+03   -0.10863E+02 12016   0.313E+01    0.269E+02
DAV:  56    -0.233872704975E+04   -0.37264E+02   -0.76883E+01 12712   0.237E+01    0.287E+02
DAV:  57    -0.388131790002E+04   -0.15426E+04   -0.50800E+02 16256   0.144E+02    0.536E+02
DAV:  58    -0.439263403028E+04   -0.51132E+03   -0.10288E+03 16944   0.599E+01    0.630E+02
DAV:  59    -0.465755173017E+04   -0.26492E+03   -0.46534E+02 16240   0.486E+01    0.729E+02
DAV:  60    -0.410971956529E+04    0.54783E+03   -0.60313E+02 15120   0.747E+01
   3 F= -.42435347E+04 E0= -.42432591E+04  d E =0.136125E+04
       N       E                     dE             d eps       ncg     rms          rms(c)
DAV:   1    -0.331500271728E+04    0.13425E+04   -0.14408E+03 15320   0.509E+01    0.443E+02
DAV:   2    -0.295023952803E+06   -0.29171E+06   -0.27774E+06 17854   0.174E+03    0.216E+04
DAV:   3    -0.333584045977E+06   -0.38560E+05   -0.36281E+05 16476   0.956E+02    0.145E+04
DAV:   4    -0.266882325449E+06    0.66702E+05   -0.72025E+04 16592   0.380E+02    0.120E+04
DAV:   5    -0.264731407844E+06    0.21509E+04   -0.18035E+04 16992   0.160E+02    0.112E+04
DAV:   6    -0.234743165416E+06    0.29988E+05   -0.29509E+03 15616   0.879E+01    0.103E+04
DAV:   7    -0.481111207609E+05    0.18663E+06   -0.27164E+05 16108   0.490E+02    0.772E+03
DAV:   8    -0.410408796220E+05    0.70702E+04   -0.77011E+04 13120   0.241E+02    0.541E+03
DAV:   9    -0.135295716371E+05    0.27511E+05   -0.11255E+05 15855   0.277E+02    0.418E+03
DAV:  10    -0.407204312822E+04    0.94575E+04   -0.69289E+04 15560   0.255E+02    0.252E+03
DAV:  11    -0.114111452230E+05   -0.73391E+04   -0.53900E+04 17148   0.315E+02    0.205E+03
DAV:  12    -0.326789574230E+04    0.81432E+04   -0.24177E+04 14032   0.186E+02    0.790E+02
DAV:  13     0.100354368141E+05    0.13303E+05   -0.80301E+06 11380   0.134E+05    0.672E+02
DAV:  14    -0.282610229996E+04   -0.12862E+05   -0.27811E+04 15792   0.178E+02    0.599E+02
DAV:  15    -0.239561826583E+04    0.43048E+03   -0.10785E+04 15192   0.104E+02    0.337E+02
DAV:  16    -0.218029193101E+04    0.21533E+03   -0.15264E+03 14232   0.825E+01    0.319E+02
DAV:  17    -0.214471533022E+04    0.35577E+02   -0.58394E+02 10832   0.876E+01    0.300E+02
DAV:  18    -0.236835894537E+04   -0.22364E+03   -0.35253E+02 10992   0.942E+01    0.330E+02
DAV:  19    -0.197674535261E+04    0.39161E+03   -0.25181E+02 12856   0.444E+01    0.239E+02
DAV:  20    -0.198418637310E+04   -0.74410E+01   -0.13448E+02 12064   0.377E+01    0.232E+02
DAV:  21    -0.194978348531E+04    0.34403E+02   -0.74224E+01 11384   0.214E+01    0.228E+02
DAV:  22    -0.206785511950E+04   -0.11807E+03   -0.76831E+01 11944   0.358E+01    0.252E+02
DAV:  23    -0.206669077174E+04    0.11643E+01   -0.91775E+01 11880   0.391E+01    0.269E+02
DAV:  24    -0.195738241523E+04    0.10931E+03   -0.62401E+01 11760   0.315E+01    0.227E+02
DAV:  25    -0.199069949553E+04   -0.33317E+02   -0.91270E+01 12240   0.408E+01    0.208E+02
DAV:  26    -0.202057219168E+04   -0.29873E+02   -0.13116E+02 12496   0.406E+01    0.267E+02
DAV:  27    -0.207655259733E+04   -0.55980E+02   -0.83321E+01 11688   0.425E+01    0.267E+02
DAV:  28    -0.195551193104E+04    0.12104E+03   -0.58759E+01 12104   0.232E+01    0.231E+02
DAV:  29    -0.199634633504E+04   -0.40834E+02   -0.72041E+01 11696   0.281E+01    0.252E+02
DAV:  30    -0.192498426047E+04    0.71362E+02   -0.49576E+01 10936   0.254E+01    0.213E+02
DAV:  31    -0.187685842278E+04    0.48126E+02   -0.34775E+01 12160   0.223E+01    0.203E+02
DAV:  32    -0.186775258975E+04    0.91058E+01   -0.37739E+01 11824   0.229E+01    0.201E+02
DAV:  33    -0.190011575460E+04   -0.32363E+02   -0.21487E+01 11880   0.167E+01    0.214E+02
DAV:  34    -0.194905469742E+04   -0.48939E+02   -0.17698E+01 12552   0.173E+01    0.230E+02
DAV:  35    -0.191976981409E+04    0.29285E+02   -0.12272E+01 10984   0.777E+00    0.210E+02
DAV:  36    -0.190179173930E+04    0.17978E+02   -0.51021E+00 11944   0.746E+00    0.205E+02
DAV:  37    -0.187275021566E+04    0.29042E+02   -0.98882E+00 13344   0.111E+01    0.190E+02
DAV:  38    -0.185227957722E+04    0.20471E+02   -0.73419E+00 12224   0.990E+00    0.180E+02
DAV:  39    -0.186031538635E+04   -0.80358E+01   -0.89713E+00 14448   0.103E+01    0.183E+02
DAV:  40    -0.188940042894E+04   -0.29085E+02   -0.14717E+01 12968   0.169E+01    0.194E+02
DAV:  41    -0.186373572357E+04    0.25665E+02   -0.86163E+00 12152   0.802E+00    0.188E+02
DAV:  42    -0.186100260162E+04    0.27331E+01   -0.87556E+00 12248   0.116E+01    0.178E+02
DAV:  43    -0.185723893155E+04    0.37637E+01   -0.16888E+01 14168   0.150E+01    0.200E+02
DAV:  44    -0.183309825583E+04    0.24141E+02   -0.49182E+00 11640   0.720E+00    0.168E+02
DAV:  45    -0.187222637784E+04   -0.39128E+02   -0.76914E+00 12832   0.135E+01    0.201E+02
DAV:  46    -0.186690726838E+04    0.53191E+01   -0.52481E+00 13624   0.355E+00    0.194E+02
DAV:  47    -0.244314487655E+04   -0.57624E+03   -0.20210E+02 17872   0.924E+01    0.310E+02
DAV:  48    -0.240098653147E+04    0.42158E+02   -0.19758E+02 17880   0.578E+01    0.341E+02
DAV:  49    -0.219330710633E+04    0.20768E+03   -0.85175E+01 17310   0.229E+01    0.293E+02
DAV:  50    -0.236991089620E+04   -0.17660E+03   -0.45797E+01 14192   0.252E+01    0.324E+02
DAV:  51    -0.228891572114E+04    0.80995E+02   -0.32183E+01 15352   0.141E+01    0.308E+02
DAV:  52    -0.226227248109E+04    0.26643E+02   -0.21748E+02 17008   0.569E+01    0.255E+02
DAV:  53    -0.232055768449E+04   -0.58285E+02   -0.21130E+02 15296   0.558E+01    0.291E+02
DAV:  54    -0.222258510324E+04    0.97973E+02   -0.91815E+01 14320   0.324E+01    0.269E+02
DAV:  55    -0.223034400067E+04   -0.77589E+01   -0.84780E+01 16136   0.199E+01    0.266E+02
DAV:  56    -0.226686897634E+04   -0.36525E+02   -0.39938E+01 16592   0.194E+01    0.258E+02
DAV:  57    -0.262080637110E+04   -0.35394E+03   -0.49025E+02 15800   0.880E+01    0.326E+02
DAV:  58    -0.275371979952E+04   -0.13291E+03   -0.34119E+02 16256   0.487E+01    0.342E+02
DAV:  59    -0.273675865156E+04    0.16961E+02   -0.87845E+01 11472   0.126E+01    0.331E+02
DAV:  60    -0.278328171953E+04   -0.46523E+02   -0.38670E+01 14528   0.156E+01
   4 F= -.29169405E+04 E0= -.29167604E+04  d E =0.268785E+04
       N       E                     dE             d eps       ncg     rms          rms(c)
DAV:   1    -0.274601516031E+04   -0.92565E+01   -0.36761E+03  9732   0.572E+01    0.343E+02
DAV:   2    -0.135714162228E+05   -0.10825E+05   -0.58044E+04 16096   0.399E+02    0.571E+03
DAV:   3    -0.155923591121E+05   -0.20209E+04   -0.22696E+04 15900   0.151E+02    0.281E+03
DAV:   4    -0.164033545574E+05   -0.81100E+03   -0.17914E+05 17308   0.349E+02    0.287E+03
DAV:   5    -0.196373966091E+05   -0.32340E+04   -0.35230E+04 13576   0.200E+02    0.159E+03
DAV:   6    -0.623419935852E+04    0.13403E+05   -0.67534E+03 14072   0.158E+02    0.134E+03
DAV:   7    -0.648088082452E+04   -0.24668E+03   -0.12494E+04 13760   0.313E+02    0.102E+03
DAV:   8    -0.779280179781E+04   -0.13119E+04   -0.57705E+04 17264   0.205E+02    0.153E+03
DAV:   9    -0.678092119219E+04    0.10119E+04   -0.15329E+04 15568   0.125E+02    0.872E+02
DAV:  10    -0.285094854716E+04    0.39300E+04   -0.15295E+04 17400   0.167E+02    0.628E+02
DAV:  11    -0.322092684802E+04   -0.36998E+03   -0.92796E+03 16888   0.122E+02    0.520E+02
DAV:  12    -0.305138004381E+04    0.16955E+03   -0.24686E+03 14912   0.768E+01    0.430E+02
DAV:  13    -0.260864485616E+04    0.44274E+03   -0.10116E+03 11208   0.777E+01    0.334E+02
DAV:  14    -0.281160891964E+04   -0.20296E+03   -0.51935E+02 11168   0.798E+01    0.325E+02
DAV:  15    -0.219215114061E+04    0.61946E+03   -0.50191E+02 12272   0.585E+01    0.220E+02
DAV:  16    -0.224869530976E+04   -0.56544E+02   -0.35980E+02 14496   0.589E+01    0.227E+02
DAV:  17    -0.210033409564E+04    0.14836E+03   -0.15606E+02 11424   0.439E+01    0.197E+02
DAV:  18    -0.204531623090E+04    0.55018E+02   -0.89638E+01 11760   0.255E+01    0.194E+02
DAV:  19    -0.195101959847E+04    0.94297E+02   -0.51712E+01 11552   0.267E+01    0.167E+02
DAV:  20    -0.188166169942E+04    0.69358E+02   -0.44779E+01 12568   0.217E+01    0.140E+02
DAV:  21    -0.185236015906E+04    0.29302E+02   -0.49553E+01 13784   0.229E+01    0.143E+02
DAV:  22    -0.183605223491E+04    0.16308E+02   -0.38726E+01 12464   0.237E+01    0.161E+02
DAV:  23    -0.180189710890E+04    0.34155E+02   -0.35088E+01 12216   0.233E+01    0.136E+02
DAV:  24    -0.179029565377E+04    0.11601E+02   -0.38904E+01 11808   0.226E+01    0.105E+02
DAV:  25    -0.178605140160E+04    0.42443E+01   -0.33002E+01 11280   0.184E+01    0.104E+02
DAV:  26    -0.178967443526E+04   -0.36230E+01   -0.21817E+01 11888   0.186E+01    0.108E+02
DAV:  27    -0.178598030140E+04    0.36941E+01   -0.12744E+01 11512   0.150E+01    0.104E+02
DAV:  28    -0.178322047863E+04    0.27598E+01   -0.13772E+01 12016   0.158E+01    0.102E+02
DAV:  29    -0.180476457914E+04   -0.21544E+02   -0.17012E+01 12488   0.232E+01    0.137E+02
DAV:  30    -0.178889792187E+04    0.15867E+02   -0.90650E+00 11680   0.114E+01    0.127E+02
DAV:  31    -0.178096424665E+04    0.79337E+01   -0.57839E+00 13504   0.491E+00    0.116E+02
DAV:  32    -0.178201929244E+04   -0.10550E+01   -0.36864E+00 12264   0.713E+00    0.119E+02
DAV:  33    -0.178092252996E+04    0.10968E+01   -0.26352E+00 11480   0.506E+00    0.114E+02
DAV:  34    -0.178029505210E+04    0.62748E+00   -0.15187E+00 11800   0.413E+00    0.113E+02
DAV:  35    -0.177240746757E+04    0.78876E+01   -0.11574E+00 11576   0.344E+00    0.993E+01
DAV:  36    -0.176958491566E+04    0.28226E+01   -0.95194E-01 13344   0.231E+00    0.973E+01
DAV:  37    -0.176783600464E+04    0.17489E+01   -0.10431E+00 12648   0.369E+00    0.926E+01
DAV:  38    -0.176752204758E+04    0.31396E+00   -0.30034E+00 12976   0.693E+00    0.880E+01
DAV:  39    -0.176674063139E+04    0.78142E+00   -0.42355E+00 12160   0.732E+00    0.891E+01
DAV:  40    -0.176373732822E+04    0.30033E+01   -0.20987E+00 12120   0.527E+00    0.877E+01
DAV:  41    -0.176193654601E+04    0.18008E+01   -0.21224E+00 11952   0.498E+00    0.745E+01
DAV:  42    -0.176274634864E+04   -0.80980E+00   -0.20391E+00 12448   0.630E+00    0.712E+01
DAV:  43    -0.176292802109E+04   -0.18167E+00   -0.79489E-01 12016   0.302E+00    0.762E+01
DAV:  44    -0.176205647831E+04    0.87154E+00   -0.43919E-01 12160   0.164E+00    0.734E+01
DAV:  45    -0.176123765326E+04    0.81883E+00   -0.30925E-01 12496   0.174E+00    0.705E+01
DAV:  46    -0.176052807115E+04    0.70958E+00   -0.10536E+00 14584   0.329E+00    0.680E+01
DAV:  47    -0.185295922218E+04   -0.92431E+02   -0.33637E+01 14936   0.224E+01    0.172E+02
DAV:  48    -0.185693991369E+04   -0.39807E+01   -0.10054E+01 11656   0.389E+00    0.175E+02
DAV:  49    -0.186165602187E+04   -0.47161E+01   -0.11616E+00 13304   0.229E+00    0.178E+02
DAV:  50    -0.185707462531E+04    0.45814E+01   -0.92904E-01 11456   0.265E+00    0.174E+02
DAV:  51    -0.185991946584E+04   -0.28448E+01   -0.89534E-01 13256   0.259E+00    0.176E+02
DAV:  52    -0.214265225803E+04   -0.28273E+03   -0.36089E+01 17456   0.343E+01    0.272E+02
DAV:  53    -0.209755897996E+04    0.45093E+02   -0.40887E+01 17216   0.144E+01    0.251E+02
DAV:  54    -0.217969044585E+04   -0.82131E+02   -0.24051E+01 16128   0.175E+01    0.278E+02
DAV:  55    -0.216848822153E+04    0.11202E+02   -0.15376E+01 14224   0.111E+01    0.264E+02
DAV:  56    -0.217939730543E+04   -0.10909E+02   -0.83570E+00 14584   0.814E+00    0.266E+02
DAV:  57    -0.211397163208E+04    0.65426E+02   -0.66771E+01 16392   0.344E+01    0.218E+02
DAV:  58    -0.200283001258E+04    0.11114E+03   -0.32268E+01 14656   0.233E+01    0.210E+02
DAV:  59    -0.194332122402E+04    0.59509E+02   -0.25314E+01 13808   0.155E+01    0.164E+02
DAV:  60    -0.190254227773E+04    0.40779E+02   -0.18545E+01 15328   0.173E+01
   5 F= -.20359117E+04 E0= -.20356544E+04  d E =0.356887E+04
       N       E                     dE             d eps       ncg     rms          rms(c)
DAV:   1    -0.184089399808E+04    0.10243E+03   -0.14998E+04  9740   0.118E+02    0.162E+02
DAV:   2    -0.758613754565E+04   -0.57452E+04   -0.14129E+04 14312   0.394E+02    0.239E+03
DAV:   3    -0.809841169933E+04   -0.51227E+03   -0.10934E+04 15872   0.955E+01    0.117E+03
DAV:   4    -0.631686951470E+04    0.17815E+04   -0.22089E+04 17679   0.170E+02    0.819E+02
DAV:   5    -0.397899524910E+04    0.23379E+04   -0.55775E+03 13992   0.129E+02    0.630E+02
DAV:   6    -0.281835031560E+04    0.11606E+04   -0.36031E+03 13230   0.141E+02    0.504E+02
DAV:   7    -0.291472563612E+04   -0.96375E+02   -0.15645E+03 11848   0.112E+02    0.423E+02
DAV:   8    -0.260694980809E+04    0.30778E+03   -0.11969E+03 12032   0.979E+01    0.346E+02
DAV:   9    -0.231223371243E+04    0.29472E+03   -0.61579E+02 11864   0.598E+01    0.246E+02
DAV:  10    -0.224917983264E+04    0.63054E+02   -0.41600E+02 13232   0.664E+01    0.235E+02
DAV:  11    -0.215735008792E+04    0.91830E+02   -0.28585E+02 11088   0.547E+01    0.220E+02
DAV:  12    -0.201924591798E+04    0.13810E+03   -0.19040E+02 11224   0.424E+01    0.158E+02
DAV:  13    -0.192620169066E+04    0.93044E+02   -0.11741E+02 12168   0.340E+01    0.131E+02
DAV:  14    -0.183803882215E+04    0.88163E+02   -0.83565E+01 11264   0.306E+01    0.101E+02
DAV:  15    -0.185404411959E+04   -0.16005E+02   -0.58295E+01 13272   0.223E+01    0.111E+02
DAV:  16    -0.181538868549E+04    0.38655E+02   -0.63077E+01 12608   0.286E+01    0.906E+01
DAV:  17    -0.180547276110E+04    0.99159E+01   -0.42733E+01 11600   0.212E+01    0.887E+01
DAV:  18    -0.181882966533E+04   -0.13357E+02   -0.32159E+01 11544   0.223E+01    0.106E+02
DAV:  19    -0.180006193343E+04    0.18768E+02   -0.24710E+01 11880   0.191E+01    0.107E+02
DAV:  20    -0.179380059456E+04    0.62613E+01   -0.14953E+01 11464   0.131E+01    0.891E+01
DAV:  21    -0.179117244046E+04    0.26282E+01   -0.10278E+01 11544   0.117E+01    0.804E+01
DAV:  22    -0.179212036509E+04   -0.94792E+00   -0.92950E+00 11608   0.108E+01    0.743E+01
DAV:  23    -0.178951534968E+04    0.26050E+01   -0.95402E+00 12472   0.128E+01    0.658E+01
DAV:  24    -0.179059617815E+04   -0.10808E+01   -0.10481E+01 11880   0.140E+01    0.757E+01
DAV:  25    -0.178443377850E+04    0.61624E+01   -0.85052E+00 11544   0.111E+01    0.628E+01
DAV:  26    -0.178398291892E+04    0.45086E+00   -0.76734E+00 12736   0.114E+01    0.575E+01
DAV:  27    -0.178385942958E+04    0.12349E+00   -0.49529E+00 11600   0.969E+00    0.591E+01
DAV:  28    -0.178129151773E+04    0.25679E+01   -0.33576E+00 11920   0.689E+00    0.566E+01
DAV:  29    -0.177763115087E+04    0.36604E+01   -0.28420E+00 12272   0.591E+00    0.423E+01
DAV:  30    -0.177611027623E+04    0.15209E+01   -0.18176E+00 11528   0.467E+00    0.376E+01
DAV:  31    -0.177562667615E+04    0.48360E+00   -0.11659E+00 12824   0.218E+00    0.355E+01
DAV:  32    -0.177563014725E+04   -0.34711E-02   -0.60273E-01 12520   0.208E+00    0.367E+01
DAV:  33    -0.177544313914E+04    0.18701E+00   -0.38339E-01 12608   0.172E+00    0.342E+01
DAV:  34    -0.177561716183E+04   -0.17402E+00   -0.49655E-01 13080   0.274E+00    0.351E+01
DAV:  35    -0.177590454923E+04   -0.28739E+00   -0.92774E-01 13168   0.350E+00    0.375E+01
DAV:  36    -0.177537429162E+04    0.53026E+00   -0.74180E-01 12656   0.320E+00    0.331E+01
DAV:  37    -0.177495337592E+04    0.42092E+00   -0.46053E-01 12336   0.263E+00    0.322E+01
DAV:  38    -0.177537297076E+04   -0.41959E+00   -0.49737E-01 12360   0.228E+00    0.364E+01
DAV:  39    -0.177515054143E+04    0.22243E+00   -0.28147E-01 14647   0.154E+00    0.339E+01
DAV:  40    -0.177511870731E+04    0.31834E-01   -0.19942E-01 12760   0.150E+00    0.334E+01
DAV:  41    -0.177476265620E+04    0.35605E+00   -0.21764E-01 12359   0.146E+00    0.314E+01
DAV:  42    -0.177471259613E+04    0.50060E-01   -0.60725E-02 13712   0.676E-01    0.308E+01
DAV:  43    -0.177473447039E+04   -0.21874E-01   -0.33702E-02 13080   0.528E-01    0.309E+01
DAV:  44    -0.177469356989E+04    0.40900E-01   -0.27187E-02 16352   0.257E-01    0.306E+01
DAV:  45    -0.177469317104E+04    0.39884E-03   -0.61758E-03 14088   0.842E-02    0.306E+01
DAV:  46    -0.177466740647E+04    0.25765E-01   -0.21810E-03 17760   0.139E-01    0.303E+01
DAV:  47    -0.182844657476E+04   -0.53779E+02   -0.18604E+01 15776   0.176E+01    0.126E+02
DAV:  48    -0.182846640249E+04   -0.19828E-01   -0.71276E+00 11176   0.295E+00    0.127E+02
DAV:  49    -0.182592130693E+04    0.25451E+01   -0.65225E-01 15528   0.111E+00    0.124E+02
DAV:  50    -0.183136214210E+04   -0.54408E+01   -0.15494E+00 17144   0.531E+00    0.132E+02
DAV:  51    -0.182675509962E+04    0.46070E+01   -0.67054E-01 15376   0.216E+00    0.128E+02
DAV:  52    -0.181796567603E+04    0.87894E+01   -0.11764E+01 16824   0.148E+01    0.116E+02
DAV:  53    -0.182049021188E+04   -0.25245E+01   -0.63856E+00 16224   0.614E+00    0.116E+02
DAV:  54    -0.182758789988E+04   -0.70977E+01   -0.36867E+00 13904   0.668E+00    0.123E+02
DAV:  55    -0.183403242561E+04   -0.64445E+01   -0.52239E+00 15536   0.638E+00    0.125E+02
DAV:  56    -0.184465391758E+04   -0.10621E+02   -0.50086E+00 12688   0.542E+00    0.133E+02
DAV:  57    -0.183243347978E+04    0.12220E+02   -0.26016E+01 18088   0.195E+01    0.119E+02
DAV:  58    -0.182484658416E+04    0.75869E+01   -0.13966E+01 16376   0.125E+01    0.132E+02
DAV:  59    -0.181163965831E+04    0.13207E+02   -0.46685E+00 14032   0.562E+00    0.112E+02
DAV:  60    -0.181334509977E+04   -0.17054E+01   -0.17007E+00 11616   0.221E+00
   6 F= -.19462226E+04 E0= -.19456944E+04  d E =0.365856E+04
       N       E                     dE             d eps       ncg     rms          rms(c)
DAV:   1    -0.162177314901E+04    0.18987E+03   -0.45213E+04  9932   0.208E+02    0.217E+02
DAV:   2    -0.967445501733E+04   -0.80527E+04   -0.24131E+04 13488   0.449E+02    0.138E+03
DAV:   3    -0.447349685053E+04    0.52010E+04   -0.11097E+04 15008   0.140E+02    0.546E+02
DAV:   4    -0.478140117321E+04   -0.30790E+03   -0.25569E+04 17776   0.195E+02    0.615E+02
DAV:   5    -0.381909901748E+04    0.96230E+03   -0.58286E+03 13920   0.895E+01    0.477E+02
DAV:   6    -0.348537414672E+04    0.33372E+03   -0.89484E+02 11304   0.901E+01    0.456E+02
DAV:   7    -0.298091779112E+04    0.50446E+03   -0.60589E+02 13024   0.901E+01    0.368E+02
DAV:   8    -0.382798572934E+04   -0.84707E+03   -0.85694E+02 12088   0.139E+02    0.480E+02
DAV:   9    -0.267007653085E+04    0.11579E+04   -0.55212E+02 12968   0.726E+01    0.261E+02
DAV:  10    -0.231002864638E+04    0.36005E+03   -0.67054E+02 12304   0.114E+02    0.300E+02
DAV:  11    -0.216744301567E+04    0.14259E+03   -0.40891E+02 12104   0.653E+01    0.222E+02
DAV:  12    -0.208710170717E+04    0.80341E+02   -0.28127E+02 11352   0.780E+01    0.192E+02
DAV:  13    -0.236824562588E+04   -0.28114E+03   -0.24626E+02 11144   0.106E+02    0.263E+02
DAV:  14    -0.205093729802E+04    0.31731E+03   -0.16711E+02 11096   0.449E+01    0.187E+02
DAV:  15    -0.203270149119E+04    0.18236E+02   -0.12775E+02 11760   0.369E+01    0.165E+02
DAV:  16    -0.207634174332E+04   -0.43640E+02   -0.11059E+02 11488   0.392E+01    0.173E+02
DAV:  17    -0.201433084425E+04    0.62011E+02   -0.68755E+01 10688   0.323E+01    0.144E+02
DAV:  18    -0.197651397773E+04    0.37817E+02   -0.55428E+01 12024   0.281E+01    0.143E+02
DAV:  19    -0.199609133851E+04   -0.19577E+02   -0.46276E+01 11832   0.276E+01    0.168E+02
DAV:  20    -0.199976358285E+04   -0.36722E+01   -0.56588E+01 11808   0.289E+01    0.151E+02
DAV:  21    -0.196848568369E+04    0.31278E+02   -0.51728E+01 11616   0.273E+01    0.145E+02
DAV:  22    -0.194818503259E+04    0.20301E+02   -0.38269E+01 11344   0.247E+01    0.128E+02
DAV:  23    -0.193722098904E+04    0.10964E+02   -0.43580E+01 11960   0.272E+01    0.135E+02
DAV:  24    -0.191908995032E+04    0.18131E+02   -0.33261E+01 11888   0.233E+01    0.107E+02
DAV:  25    -0.189816074726E+04    0.20929E+02   -0.23315E+01 11696   0.213E+01    0.108E+02
DAV:  26    -0.188694733832E+04    0.11213E+02   -0.20045E+01 12056   0.166E+01    0.935E+01
DAV:  27    -0.187191417429E+04    0.15033E+02   -0.17693E+01 11792   0.156E+01    0.879E+01
DAV:  28    -0.185920790244E+04    0.12706E+02   -0.11814E+01 12176   0.117E+01    0.677E+01
DAV:  29    -0.185493843216E+04    0.42695E+01   -0.73775E+00 12264   0.913E+00    0.680E+01
DAV:  30    -0.185353018884E+04    0.14082E+01   -0.54906E+00 11864   0.777E+00    0.658E+01
DAV:  31    -0.185280713712E+04    0.72305E+00   -0.47061E+00 11992   0.683E+00    0.697E+01
DAV:  32    -0.185673253770E+04   -0.39254E+01   -0.86324E+00 13168   0.109E+01    0.736E+01
DAV:  33    -0.185172600286E+04    0.50065E+01   -0.42557E+00 11632   0.727E+00    0.650E+01
DAV:  34    -0.185730404728E+04   -0.55780E+01   -0.57180E+00 13056   0.103E+01    0.723E+01
DAV:  35    -0.185557499465E+04    0.17291E+01   -0.45776E+00 11624   0.651E+00    0.655E+01
DAV:  36    -0.185464298644E+04    0.93201E+00   -0.30170E+00 11608   0.573E+00    0.638E+01
DAV:  37    -0.185657661210E+04   -0.19336E+01   -0.39328E+00 14144   0.759E+00    0.707E+01
DAV:  38    -0.184938030401E+04    0.71963E+01   -0.43499E+00 12920   0.965E+00    0.649E+01
DAV:  39    -0.185262898704E+04   -0.32487E+01   -0.36863E+00 12008   0.752E+00    0.739E+01
DAV:  40    -0.184707831921E+04    0.55507E+01   -0.41693E+00 12024   0.812E+00    0.696E+01
DAV:  41    -0.184304034408E+04    0.40380E+01   -0.21329E+00 11720   0.512E+00    0.422E+01
DAV:  42    -0.184192792307E+04    0.11124E+01   -0.12951E+00 12200   0.372E+00    0.403E+01
DAV:  43    -0.184116821694E+04    0.75971E+00   -0.96065E-01 12608   0.270E+00    0.370E+01
DAV:  44    -0.184106612116E+04    0.10210E+00   -0.47410E-01 12128   0.157E+00    0.389E+01
DAV:  45    -0.184059308001E+04    0.47304E+00   -0.29251E-01 13112   0.140E+00    0.352E+01
DAV:  46    -0.184038718631E+04    0.20589E+00   -0.44641E-01 12520   0.192E+00    0.317E+01
DAV:  47    -0.187166242578E+04   -0.31275E+02   -0.94737E+00 17664   0.139E+01    0.763E+01
DAV:  48    -0.187089013144E+04    0.77229E+00   -0.83361E+00 14712   0.774E+00    0.756E+01
DAV:  49    -0.186089749573E+04    0.99926E+01   -0.49145E+00 13968   0.774E+00    0.557E+01
DAV:  50    -0.185702617694E+04    0.38713E+01   -0.20374E+00 14880   0.498E+00    0.520E+01
DAV:  51    -0.185022905419E+04    0.67971E+01   -0.20141E+00 13392   0.509E+00    0.402E+01
DAV:  52    -0.184973436179E+04    0.49469E+00   -0.40878E+00 16472   0.712E+00    0.488E+01
DAV:  53    -0.184565909410E+04    0.40753E+01   -0.26027E+00 12704   0.594E+00    0.335E+01
DAV:  54    -0.184441118071E+04    0.12479E+01   -0.93510E-01 12728   0.284E+00    0.304E+01
DAV:  55    -0.184293473768E+04    0.14764E+01   -0.99828E-01 16128   0.247E+00    0.242E+01
DAV:  56    -0.184241141022E+04    0.52333E+00   -0.37504E-01 12808   0.101E+00    0.225E+01
DAV:  57    -0.184167763794E+04    0.73377E+00   -0.56138E-01 16672   0.227E+00    0.214E+01
DAV:  58    -0.184101240595E+04    0.66523E+00   -0.41522E-01 15328   0.191E+00    0.199E+01
DAV:  59    -0.184035065634E+04    0.66175E+00   -0.20050E-01 16079   0.128E+00    0.162E+01
DAV:  60    -0.183996011521E+04    0.39054E+00   -0.14864E-01 15696   0.112E+00
   7 F= -.19724101E+04 E0= -.19717009E+04  d E =-.261875E+02
       N       E                     dE             d eps       ncg     rms          rms(c)
DAV:   1    -0.181546766458E+04    0.24883E+02   -0.81340E+03  9766   0.815E+01    0.688E+01
DAV:   2    -0.221242538936E+04   -0.39696E+03   -0.31829E+02 12752   0.587E+01    0.223E+02
DAV:   3    -0.239036945761E+04   -0.17794E+03   -0.13010E+02 13231   0.932E+01    0.299E+02
DAV:   4    -0.204495190010E+04    0.34542E+03   -0.12037E+02 12464   0.461E+01    0.193E+02
DAV:   5    -0.196324419444E+04    0.81708E+02   -0.64165E+01 12280   0.417E+01    0.133E+02
DAV:   6    -0.194446218676E+04    0.18782E+02   -0.56305E+01 12328   0.420E+01    0.155E+02
DAV:   7    -0.190209797904E+04    0.42364E+02   -0.63184E+01 11944   0.375E+01    0.113E+02
DAV:   8    -0.191678826209E+04   -0.14690E+02   -0.61577E+01 12120   0.332E+01    0.118E+02
DAV:   9    -0.199408324042E+04   -0.77295E+02   -0.71498E+01 12352   0.363E+01    0.126E+02
DAV:  10    -0.196401490538E+04    0.30068E+02   -0.59658E+01 12304   0.391E+01    0.156E+02
DAV:  11    -0.196410264754E+04   -0.87742E-01   -0.46826E+01 12240   0.277E+01    0.158E+02
DAV:  12    -0.196795553923E+04   -0.38529E+01   -0.32269E+01 12088   0.281E+01    0.122E+02
DAV:  13    -0.191480175279E+04    0.53154E+02   -0.47628E+01 12152   0.344E+01    0.112E+02
DAV:  14    -0.194330135305E+04   -0.28500E+02   -0.35873E+01 12016   0.285E+01    0.130E+02
DAV:  15    -0.191591510559E+04    0.27386E+02   -0.28401E+01 11264   0.223E+01    0.117E+02
DAV:  16    -0.190395649511E+04    0.11959E+02   -0.17424E+01 11664   0.163E+01    0.112E+02
DAV:  17    -0.188389511137E+04    0.20061E+02   -0.10263E+01 12112   0.132E+01    0.812E+01
DAV:  18    -0.187224627983E+04    0.11649E+02   -0.89735E+00 11376   0.113E+01    0.694E+01
DAV:  19    -0.186345254295E+04    0.87937E+01   -0.73068E+00 11368   0.111E+01    0.635E+01
DAV:  20    -0.185715851335E+04    0.62940E+01   -0.38159E+00 12488   0.564E+00    0.491E+01
DAV:  21    -0.185377755688E+04    0.33810E+01   -0.20385E+00 12504   0.479E+00    0.447E+01
DAV:  22    -0.185168581395E+04    0.20917E+01   -0.19867E+00 13632   0.336E+00    0.339E+01
DAV:  23    -0.185108348209E+04    0.60233E+00   -0.13765E+00 12696   0.427E+00    0.371E+01
DAV:  24    -0.185016588978E+04    0.91759E+00   -0.10173E+00 12000   0.316E+00    0.325E+01
DAV:  25    -0.185003107700E+04    0.13481E+00   -0.63854E-01 15528   0.119E+00    0.329E+01
DAV:  26    -0.184963319589E+04    0.39788E+00   -0.16246E-01 12864   0.150E+00    0.320E+01
DAV:  27    -0.184951560562E+04    0.11759E+00   -0.86655E-01 14416   0.335E+00    0.330E+01
DAV:  28    -0.184872577935E+04    0.78983E+00   -0.12760E+00 14176   0.425E+00    0.315E+01
DAV:  29    -0.184717182744E+04    0.15540E+01   -0.22113E+00 16888   0.565E+00    0.266E+01
DAV:  30    -0.184668622764E+04    0.48560E+00   -0.17882E+00 15088   0.372E+00    0.275E+01
DAV:  31    -0.184774327645E+04   -0.10570E+01   -0.12082E+00 13832   0.391E+00    0.349E+01
DAV:  32    -0.184679453819E+04    0.94874E+00   -0.11102E+00 12976   0.356E+00    0.281E+01
DAV:  33    -0.184567537086E+04    0.11192E+01   -0.11909E+00 12560   0.410E+00    0.174E+01
DAV:  34    -0.184654490467E+04   -0.86953E+00   -0.10959E+00 14624   0.358E+00    0.262E+01
DAV:  35    -0.184534300839E+04    0.12019E+01   -0.64565E-01 12632   0.280E+00    0.178E+01
DAV:  36    -0.184516343247E+04    0.17958E+00   -0.26963E-01 12336   0.122E+00    0.153E+01
DAV:  37    -0.184538983895E+04   -0.22641E+00   -0.26868E-01 11864   0.167E+00    0.193E+01
DAV:  38    -0.184514816891E+04    0.24167E+00   -0.95478E-02 11200   0.841E-01    0.157E+01
DAV:  39    -0.184487767408E+04    0.27049E+00   -0.89803E-02 13120   0.808E-01    0.102E+01
DAV:  40    -0.184469023229E+04    0.18744E+00   -0.10521E-01 17952   0.857E-01    0.591E+00
DAV:  41    -0.184471234957E+04   -0.22117E-01   -0.80230E-02 13064   0.793E-01    0.811E+00
DAV:  42    -0.184461327268E+04    0.99077E-01   -0.56954E-02 14456   0.591E-01    0.335E+00
DAV:  43    -0.184460500222E+04    0.82705E-02   -0.18506E-02 14424   0.250E-01    0.195E+00
DAV:  44    -0.184460567074E+04   -0.66852E-03   -0.53729E-03 13296   0.171E-01    0.205E+00
DAV:  45    -0.184460129283E+04    0.43779E-02   -0.74982E-03 14224   0.347E-01    0.155E+00
DAV:  46    -0.184459715499E+04    0.41378E-02   -0.58129E-03 14560   0.243E-01    0.133E+00
DAV:  47    -0.184459958146E+04   -0.24265E-02   -0.46326E-03 14992   0.159E-01    0.174E+00
DAV:  48    -0.184459890158E+04    0.67988E-03   -0.14076E-03 12064   0.110E-01    0.168E+00
DAV:  49    -0.184459523086E+04    0.36707E-02   -0.79149E-04 13520   0.716E-02    0.915E-01
DAV:  50    -0.184459472812E+04    0.50274E-03   -0.14757E-03 16520   0.995E-02    0.626E-01
DAV:  51    -0.184459436566E+04    0.36246E-03   -0.80933E-04 12432   0.771E-02    0.442E-01
DAV:  52    -0.184459405213E+04    0.31353E-03   -0.28380E-04 13072   0.578E-02    0.234E-01
DAV:  53    -0.184459403296E+04    0.19164E-04   -0.18677E-04 12704   0.329E-02    0.161E-01
DAV:  54    -0.184459405994E+04   -0.26981E-04   -0.81986E-05 11696   0.209E-02    0.112E-01
DAV:  55    -0.184459418340E+04   -0.12346E-03   -0.48842E-05  8776   0.188E-02    0.207E-01
DAV:  56    -0.184459421455E+04   -0.31144E-04   -0.32578E-05  9784   0.128E-02    0.177E-01
DAV:  57    -0.184459421301E+04    0.15376E-05   -0.59782E-05  6392   0.241E-02    0.100E-01
DAV:  58    -0.184459423660E+04   -0.23589E-04   -0.37294E-05  7544   0.172E-02    0.909E-02
DAV:  59    -0.184459426182E+04   -0.25224E-04   -0.18725E-05  6336   0.102E-02    0.375E-02
DAV:  60    -0.184459428438E+04   -0.22560E-04   -0.64610E-06  6352   0.520E-03
   8 F= -.19772254E+04 E0= -.19764732E+04  d E =-.310028E+02
       N       E                     dE             d eps       ncg     rms          rms(c)
DAV:   1    -0.184724422794E+04   -0.26500E+01   -0.12201E+03  9732   0.309E+01    0.301E+01
DAV:   2    -0.186762656446E+04   -0.20382E+02   -0.35857E+01 12000   0.129E+01    0.658E+01
DAV:   3    -0.190146430888E+04   -0.33838E+02   -0.20927E+01 12128   0.262E+01    0.993E+01
DAV:   4    -0.190263722200E+04   -0.11729E+01   -0.27334E+01 13320   0.262E+01    0.987E+01
DAV:   5    -0.200040333701E+04   -0.97766E+02   -0.31669E+01 12392   0.373E+01    0.126E+02
DAV:   6    -0.195694102123E+04    0.43462E+02   -0.17601E+01 12568   0.470E+01    0.149E+02
DAV:   7    -0.187716440134E+04    0.79777E+02   -0.17596E+01 12840   0.252E+01    0.743E+01
DAV:   8    -0.187271770452E+04    0.44467E+01   -0.13610E+01 12616   0.209E+01    0.673E+01
DAV:   9    -0.187103875017E+04    0.16790E+01   -0.15693E+01 11832   0.172E+01    0.850E+01
DAV:  10    -0.185937804543E+04    0.11661E+02   -0.10347E+01 12006   0.128E+01    0.457E+01
DAV:  11    -0.185809954704E+04    0.12785E+01   -0.54899E+00 12160   0.104E+01    0.433E+01
DAV:  12    -0.185418058135E+04    0.39190E+01   -0.42550E+00 12280   0.808E+00    0.274E+01
DAV:  13    -0.185239898402E+04    0.17816E+01   -0.27101E+00 12120   0.606E+00    0.220E+01
DAV:  14    -0.185188557425E+04    0.51341E+00   -0.15856E+00 12360   0.448E+00    0.194E+01
DAV:  15    -0.185159072880E+04    0.29485E+00   -0.12257E+00 12016   0.415E+00    0.222E+01
DAV:  16    -0.185186785262E+04   -0.27712E+00   -0.98199E-01 12368   0.372E+00    0.246E+01
DAV:  17    -0.185171276163E+04    0.15509E+00   -0.14149E+00 11624   0.394E+00    0.179E+01
DAV:  18    -0.185095949198E+04    0.75327E+00   -0.55649E-01 12264   0.311E+00    0.139E+01
DAV:  19    -0.185104852184E+04   -0.89030E-01   -0.46164E-01 12672   0.245E+00    0.163E+01
DAV:  20    -0.185155786640E+04   -0.50934E+00   -0.34985E-01 12696   0.206E+00    0.241E+01
DAV:  21    -0.185154157202E+04    0.16294E-01   -0.24192E-01 12392   0.162E+00    0.239E+01
DAV:  22    -0.185106999919E+04    0.47157E+00   -0.34160E-01 12368   0.196E+00    0.176E+01
DAV:  23    -0.185069592393E+04    0.37408E+00   -0.19752E-01 11840   0.152E+00    0.123E+01
DAV:  24    -0.185048168132E+04    0.21424E+00   -0.22056E-01 12176   0.158E+00    0.823E+00
DAV:  25    -0.185037824187E+04    0.10344E+00   -0.13500E-01 12560   0.138E+00    0.627E+00
DAV:  26    -0.185038899896E+04   -0.10757E-01   -0.13589E-01 12520   0.109E+00    0.624E+00
DAV:  27    -0.185051524039E+04   -0.12624E+00   -0.14199E-01 12280   0.101E+00    0.110E+01
DAV:  28    -0.185053618313E+04   -0.20943E-01   -0.96461E-02 13400   0.106E+00    0.108E+01
DAV:  29    -0.185035912806E+04    0.17706E+00   -0.89263E-02 13184   0.107E+00    0.609E+00
DAV:  30    -0.185032663262E+04    0.32495E-01   -0.65586E-02 14584   0.714E-01    0.356E+00
DAV:  31    -0.185030148212E+04    0.25150E-01   -0.33553E-02 14144   0.640E-01    0.204E+00
DAV:  32    -0.185030824492E+04   -0.67628E-02   -0.22123E-02 14392   0.438E-01    0.264E+00
DAV:  33    -0.185031432710E+04   -0.60822E-02   -0.94539E-03 13360   0.274E-01    0.319E+00
DAV:  34    -0.185031021702E+04    0.41101E-02   -0.61207E-03 12720   0.241E-01    0.292E+00
DAV:  35    -0.185030647812E+04    0.37389E-02   -0.46911E-03 12832   0.244E-01    0.275E+00
DAV:  36    -0.185030611325E+04    0.36487E-03   -0.44411E-03 12992   0.255E-01    0.282E+00
DAV:  37    -0.185029777898E+04    0.83343E-02   -0.27449E-03 13280   0.168E-01    0.220E+00
DAV:  38    -0.185029253060E+04    0.52484E-02   -0.19355E-03 13384   0.137E-01    0.154E+00
DAV:  39    -0.185028877595E+04    0.37546E-02   -0.18948E-03 13080   0.141E-01    0.931E-01
DAV:  40    -0.185028877572E+04    0.23749E-06   -0.11337E-03 12848   0.108E-01    0.958E-01
DAV:  41    -0.185028800756E+04    0.76815E-03   -0.82173E-04 11952   0.981E-02    0.920E-01
DAV:  42    -0.185028691404E+04    0.10935E-02   -0.56282E-04 14688   0.520E-02    0.550E-01
DAV:  43    -0.185028660638E+04    0.30766E-03   -0.26650E-04 15232   0.262E-02    0.368E-01
DAV:  44    -0.185028657642E+04    0.29954E-04   -0.45159E-05  9840   0.127E-02    0.356E-01
DAV:  45    -0.185028656619E+04    0.10235E-04   -0.17195E-05  7032   0.108E-02    0.339E-01
DAV:  46    -0.185028638183E+04    0.18436E-03   -0.25577E-04 12248   0.443E-02    0.179E-01
DAV:  47    -0.185028634093E+04    0.40897E-04   -0.10576E-04 10368   0.212E-02    0.102E-01
DAV:  48    -0.185028632084E+04    0.20086E-04   -0.17080E-05  7904   0.100E-02    0.532E-02
DAV:  49    -0.185028631225E+04    0.85961E-05   -0.11053E-05  6384   0.659E-03    0.260E-02
DAV:  50    -0.185028631801E+04   -0.57640E-05   -0.97834E-06  5888   0.633E-03    0.567E-02
DAV:  51    -0.185028631458E+04    0.34282E-05   -0.20976E-06  5664   0.469E-03
   9 F= -.19828451E+04 E0= -.19820928E+04  d E =-.366224E+02
       N       E                     dE             d eps       ncg     rms          rms(c)
DAV:   1    -0.179745854741E+04    0.52828E+02   -0.17702E+04  9732   0.123E+02    0.986E+01
DAV:   2    -0.458807739572E+04   -0.27906E+04   -0.62835E+02 12904   0.170E+02    0.522E+02
DAV:   3    -0.218659852536E+04    0.24015E+04   -0.69143E+02 11487   0.566E+01    0.210E+02
DAV:   4    -0.246375108466E+04   -0.27715E+03   -0.18374E+02 13128   0.854E+01    0.236E+02
DAV:   5    -0.225129630027E+04    0.21245E+03   -0.26478E+02 13344   0.734E+01    0.244E+02
DAV:   6    -0.200597928177E+04    0.24532E+03   -0.31212E+02 15248   0.533E+01    0.174E+02
DAV:   7    -0.201441882008E+04   -0.84395E+01   -0.15420E+02 12328   0.460E+01    0.189E+02
DAV:   8    -0.208202690264E+04   -0.67608E+02   -0.13076E+02 11848   0.422E+01    0.172E+02
DAV:   9    -0.205105895043E+04    0.30968E+02   -0.12787E+02 11080   0.338E+01    0.141E+02
DAV:  10    -0.200481354867E+04    0.46245E+02   -0.97074E+01 11408   0.485E+01    0.145E+02
DAV:  11    -0.199044158610E+04    0.14372E+02   -0.55949E+01 12336   0.339E+01    0.155E+02
DAV:  12    -0.204247234214E+04   -0.52031E+02   -0.89601E+01 11304   0.409E+01    0.196E+02
DAV:  13    -0.193586318907E+04    0.10661E+03   -0.50937E+01 11224   0.227E+01    0.109E+02
DAV:  14    -0.191528281000E+04    0.20580E+02   -0.45657E+01 11880   0.331E+01    0.113E+02
DAV:  15    -0.190712377515E+04    0.81590E+01   -0.33519E+01 11710   0.226E+01    0.116E+02
DAV:  16    -0.189697661548E+04    0.10147E+02   -0.25083E+01 12166   0.157E+01    0.101E+02
DAV:  17    -0.188853627243E+04    0.84403E+01   -0.18916E+01 11440   0.167E+01    0.748E+01
DAV:  18    -0.188007558885E+04    0.84607E+01   -0.10053E+01 12392   0.913E+00    0.651E+01
DAV:  19    -0.187826099010E+04    0.18146E+01   -0.63004E+00 12592   0.841E+00    0.772E+01
DAV:  20    -0.187051742147E+04    0.77436E+01   -0.62448E+00 11320   0.826E+00    0.401E+01
DAV:  21    -0.186874318860E+04    0.17742E+01   -0.27003E+00 11824   0.442E+00    0.305E+01
DAV:  22    -0.186892130308E+04   -0.17811E+00   -0.29216E+00 12600   0.634E+00    0.335E+01
DAV:  23    -0.186719477857E+04    0.17265E+01   -0.15823E+00 11288   0.398E+00    0.259E+01
DAV:  24    -0.186978846179E+04   -0.25937E+01   -0.22533E+00 12752   0.583E+00    0.361E+01
DAV:  25    -0.187018632799E+04   -0.39787E+00   -0.29830E+00 12576   0.719E+00    0.412E+01
DAV:  26    -0.187158132789E+04   -0.13950E+01   -0.28826E+00 12424   0.696E+00    0.469E+01
DAV:  27    -0.186951050492E+04    0.20708E+01   -0.30235E+00 12240   0.689E+00    0.388E+01
DAV:  28    -0.186698854930E+04    0.25220E+01   -0.15337E+00 11808   0.494E+00    0.280E+01
DAV:  29    -0.186686453831E+04    0.12401E+00   -0.15840E+00 13816   0.448E+00    0.255E+01
DAV:  30    -0.186552312423E+04    0.13414E+01   -0.98347E-01 12200   0.359E+00    0.164E+01
DAV:  31    -0.186563648531E+04   -0.11336E+00   -0.68525E-01 12736   0.286E+00    0.178E+01
DAV:  32    -0.186508960651E+04    0.54688E+00   -0.46910E-01 12504   0.243E+00    0.132E+01
DAV:  33    -0.186495844336E+04    0.13116E+00   -0.20825E-01 12616   0.147E+00    0.118E+01
DAV:  34    -0.186492106604E+04    0.37377E-01   -0.17506E-01 13160   0.126E+00    0.124E+01
DAV:  35    -0.186491793605E+04    0.31300E-02   -0.12872E-01 12680   0.132E+00    0.129E+01
DAV:  36    -0.186491336304E+04    0.45730E-02   -0.11645E-01 12528   0.105E+00    0.123E+01
DAV:  37    -0.186487082179E+04    0.42541E-01   -0.14081E-01 12432   0.139E+00    0.119E+01
DAV:  38    -0.186483860679E+04    0.32215E-01   -0.14020E-01 12936   0.124E+00    0.120E+01
DAV:  39    -0.186484571147E+04   -0.71047E-02   -0.82637E-02 13512   0.106E+00    0.128E+01
DAV:  40    -0.186465514782E+04    0.19056E+00   -0.57378E-02 11512   0.581E-01    0.887E+00
DAV:  41    -0.186459940683E+04    0.55741E-01   -0.29935E-02 14088   0.303E-01    0.785E+00
DAV:  42    -0.186462452110E+04   -0.25114E-01   -0.23523E-02 11999   0.454E-01    0.848E+00
DAV:  43    -0.186456605085E+04    0.58470E-01   -0.21040E-02 14112   0.386E-01    0.707E+00
DAV:  44    -0.186453134104E+04    0.34710E-01   -0.14448E-02 12934   0.273E-01    0.627E+00
DAV:  45    -0.186448868562E+04    0.42655E-01   -0.10731E-02 13200   0.176E-01    0.409E+00
DAV:  46    -0.186449134770E+04   -0.26621E-02   -0.56736E-03 11408   0.164E-01    0.445E+00
DAV:  47    -0.186448424236E+04    0.71053E-02   -0.80808E-02 17080   0.561E-01    0.448E+00
DAV:  48    -0.186445310895E+04    0.31133E-01   -0.11132E-02 13352   0.310E-01    0.217E+00
DAV:  49    -0.186445291621E+04    0.19274E-03   -0.59051E-03 12520   0.221E-01    0.302E+00
DAV:  50    -0.186444585839E+04    0.70578E-02   -0.25039E-03 12760   0.129E-01    0.265E+00
DAV:  51    -0.186443768042E+04    0.81780E-02   -0.10174E-03 13928   0.888E-02    0.175E+00
DAV:  52    -0.186443289731E+04    0.47831E-02   -0.26681E-03 17992   0.201E-01    0.214E+00
DAV:  53    -0.186442355180E+04    0.93455E-02   -0.35254E-03 17168   0.170E-01    0.931E-01
DAV:  54    -0.186442354075E+04    0.11045E-04   -0.20664E-03 13664   0.709E-02    0.104E+00
DAV:  55    -0.186442313205E+04    0.40870E-03   -0.29180E-04 13904   0.394E-02    0.102E+00
DAV:  56    -0.186442134758E+04    0.17845E-02   -0.72100E-04 16072   0.102E-01    0.320E-01
DAV:  57    -0.186442211501E+04   -0.76743E-03   -0.74123E-04 16368   0.635E-02    0.427E-01
DAV:  58    -0.186442198521E+04    0.12980E-03   -0.44759E-04 14064   0.399E-02    0.174E-01
DAV:  59    -0.186442226661E+04   -0.28140E-03   -0.10707E-04 12544   0.242E-02    0.231E-01
DAV:  60    -0.186442242210E+04   -0.15549E-03   -0.13069E-04 10088   0.357E-02
  10 F= -.19967020E+04 E0= -.19959441E+04  d E =-.138570E+02
       N       E                     dE             d eps       ncg     rms          rms(c)
DAV:   1    -0.186693743529E+04   -0.25152E+01   -0.22958E+03  9740   0.425E+01    0.321E+01
DAV:   2    -0.193137771016E+04   -0.64440E+02   -0.60526E+01 12112   0.212E+01    0.119E+02
DAV:   3    -0.203554227045E+04   -0.10416E+03   -0.48818E+01 12776   0.402E+01    0.163E+02
DAV:   4    -0.193616550881E+04    0.99377E+02   -0.32761E+01 12048   0.259E+01    0.123E+02
DAV:   5    -0.190017938956E+04    0.35986E+02   -0.22334E+01 12640   0.217E+01    0.761E+01
DAV:   6    -0.191322239781E+04   -0.13043E+02   -0.15523E+01 12008   0.192E+01    0.125E+02
DAV:   7    -0.188765521725E+04    0.25567E+02   -0.12030E+01 12480   0.170E+01    0.714E+01
DAV:   8    -0.190623054469E+04   -0.18575E+02   -0.16558E+01 14008   0.175E+01    0.811E+01
DAV:   9    -0.189861128969E+04    0.76193E+01   -0.15740E+01 13024   0.192E+01    0.547E+01
DAV:  10    -0.189753201436E+04    0.10793E+01   -0.17727E+01 12504   0.207E+01    0.810E+01
DAV:  11    -0.189280162554E+04    0.47304E+01   -0.10991E+01 12120   0.145E+01    0.748E+01
DAV:  12    -0.189092377866E+04    0.18778E+01   -0.90229E+00 12544   0.125E+01    0.720E+01
DAV:  13    -0.188692876308E+04    0.39950E+01   -0.73325E+00 12568   0.116E+01    0.617E+01
DAV:  14    -0.188124347609E+04    0.56853E+01   -0.50713E+00 11504   0.979E+00    0.571E+01
DAV:  15    -0.187811273602E+04    0.31307E+01   -0.29405E+00 11672   0.638E+00    0.452E+01
DAV:  16    -0.187471909044E+04    0.33936E+01   -0.20991E+00 12096   0.541E+00    0.278E+01
DAV:  17    -0.187313542023E+04    0.15837E+01   -0.16323E+00 11776   0.447E+00    0.180E+01
DAV:  18    -0.187266935582E+04    0.46606E+00   -0.87244E-01 11488   0.308E+00    0.120E+01
DAV:  19    -0.187274762814E+04   -0.78272E-01   -0.70980E-01 11560   0.255E+00    0.144E+01
DAV:  20    -0.187283931029E+04   -0.91682E-01   -0.56033E-01 11680   0.256E+00    0.160E+01
DAV:  21    -0.187352122206E+04   -0.68191E+00   -0.70493E-01 12416   0.304E+00    0.207E+01
DAV:  22    -0.187299592857E+04    0.52529E+00   -0.49846E-01 12176   0.296E+00    0.162E+01
DAV:  23    -0.187277393138E+04    0.22200E+00   -0.33523E-01 13208   0.206E+00    0.140E+01
DAV:  24    -0.187253475291E+04    0.23918E+00   -0.23372E-01 13016   0.170E+00    0.107E+01
DAV:  25    -0.187248190346E+04    0.52849E-01   -0.12640E-01 12120   0.119E+00    0.982E+00
DAV:  26    -0.187235431013E+04    0.12759E+00   -0.75050E-02 12128   0.922E-01    0.699E+00
DAV:  27    -0.187231319494E+04    0.41115E-01   -0.36987E-02 11599   0.528E-01    0.561E+00
DAV:  28    -0.187228321671E+04    0.29978E-01   -0.29284E-02 12624   0.600E-01    0.415E+00
DAV:  29    -0.187225897487E+04    0.24242E-01   -0.38417E-02 12704   0.722E-01    0.325E+00
DAV:  30    -0.187225792775E+04    0.10471E-02   -0.33616E-02 12776   0.644E-01    0.256E+00
DAV:  31    -0.187227238923E+04   -0.14461E-01   -0.36713E-02 11958   0.670E-01    0.405E+00
DAV:  32    -0.187226976565E+04    0.26236E-02   -0.15908E-02 12294   0.456E-01    0.463E+00
DAV:  33    -0.187226225992E+04    0.75057E-02   -0.70277E-03 12720   0.238E-01    0.420E+00
DAV:  34    -0.187224944923E+04    0.12811E-01   -0.75100E-03 12640   0.309E-01    0.326E+00
DAV:  35    -0.187224251063E+04    0.69386E-02   -0.54902E-03 12728   0.260E-01    0.247E+00
DAV:  36    -0.187222902087E+04    0.13490E-01   -0.77206E-03 12816   0.278E-01    0.118E+00
DAV:  37    -0.187222773781E+04    0.12831E-02   -0.41032E-03 12920   0.193E-01    0.950E-01
DAV:  38    -0.187222597095E+04    0.17669E-02   -0.25191E-03 12824   0.160E-01    0.949E-01
DAV:  39    -0.187222460348E+04    0.13675E-02   -0.14243E-03 14152   0.956E-02    0.742E-01
DAV:  40    -0.187222407065E+04    0.53282E-03   -0.58904E-04 12752   0.615E-02    0.552E-01
DAV:  41    -0.187222338431E+04    0.68634E-03   -0.33433E-04 12880   0.484E-02    0.438E-01
DAV:  42    -0.187222326951E+04    0.11480E-03   -0.10063E-03 12936   0.863E-02    0.744E-01
DAV:  43    -0.187222194956E+04    0.13200E-02   -0.53552E-04 15400   0.700E-02    0.246E-01
DAV:  44    -0.187222182013E+04    0.12944E-03   -0.43676E-04 16016   0.301E-02    0.158E-01
DAV:  45    -0.187222182209E+04   -0.19670E-05   -0.92967E-05 11112   0.125E-02    0.178E-01
DAV:  46    -0.187222180028E+04    0.21818E-04   -0.61471E-06  6088   0.698E-03    0.160E-01
DAV:  47    -0.187222181462E+04   -0.14346E-04   -0.10373E-04  8560   0.381E-02    0.154E-01
DAV:  48    -0.187222180517E+04    0.94483E-05   -0.78924E-05 13128   0.171E-02    0.860E-02
DAV:  49    -0.187222180623E+04   -0.10533E-05   -0.18629E-05  7664   0.927E-03
  11 F= -.20045943E+04 E0= -.20038418E+04  d E =-.217492E+02
       N       E                     dE             d eps       ncg     rms          rms(c)
DAV:   1    -0.185983844877E+04    0.12383E+02   -0.11534E+04  9732   0.972E+01    0.681E+01
DAV:   2    -0.377761325130E+04   -0.19178E+04   -0.35924E+02 12688   0.139E+02    0.458E+02
DAV:   3    -0.217141798898E+04    0.16062E+04   -0.42830E+02 12320   0.579E+01    0.185E+02
DAV:   4    -0.216196452923E+04    0.94535E+01   -0.16520E+02 12560   0.663E+01    0.140E+02
DAV:   5    -0.209469852844E+04    0.67266E+02   -0.13325E+02 13544   0.682E+01    0.183E+02
DAV:   6    -0.197069827367E+04    0.12400E+03   -0.15018E+02 15152   0.479E+01    0.134E+02
DAV:   7    -0.201526003989E+04   -0.44562E+02   -0.85433E+01 12184   0.341E+01    0.180E+02
DAV:   8    -0.199803722254E+04    0.17223E+02   -0.69380E+01 12416   0.299E+01    0.114E+02
DAV:   9    -0.196141403656E+04    0.36623E+02   -0.44937E+01 11440   0.255E+01    0.964E+01
DAV:  10    -0.204866506487E+04   -0.87251E+02   -0.54241E+01 12288   0.356E+01    0.181E+02
DAV:  11    -0.197465407339E+04    0.74011E+02   -0.30770E+01 12432   0.258E+01    0.102E+02
DAV:  12    -0.199356142047E+04   -0.18907E+02   -0.28647E+01 11656   0.241E+01    0.123E+02
DAV:  13    -0.194856666444E+04    0.44995E+02   -0.21498E+01 11392   0.202E+01    0.860E+01
DAV:  14    -0.192365786349E+04    0.24909E+02   -0.13866E+01 12200   0.186E+01    0.624E+01
DAV:  15    -0.191927499017E+04    0.43829E+01   -0.11161E+01 11632   0.144E+01    0.656E+01
DAV:  16    -0.191867505821E+04    0.59993E+00   -0.10514E+01 11224   0.116E+01    0.751E+01
DAV:  17    -0.191225954719E+04    0.64155E+01   -0.67818E+00 11632   0.834E+00    0.499E+01
DAV:  18    -0.191108281550E+04    0.11767E+01   -0.36812E+00 11696   0.732E+00    0.434E+01
DAV:  19    -0.190977995436E+04    0.13029E+01   -0.20304E+00 11560   0.550E+00    0.417E+01
DAV:  20    -0.190736368554E+04    0.24163E+01   -0.17159E+00 11432   0.476E+00    0.366E+01
DAV:  21    -0.190625062099E+04    0.11131E+01   -0.14746E+00 11880   0.460E+00    0.359E+01
DAV:  22    -0.190421318610E+04    0.20374E+01   -0.18036E+00 11960   0.492E+00    0.322E+01
DAV:  23    -0.190341530679E+04    0.79788E+00   -0.11531E+00 11392   0.380E+00    0.306E+01
DAV:  24    -0.190272509657E+04    0.69021E+00   -0.91176E-01 12088   0.318E+00    0.287E+01
DAV:  25    -0.190105833409E+04    0.16668E+01   -0.71959E-01 12104   0.310E+00    0.212E+01
DAV:  26    -0.190076005988E+04    0.29827E+00   -0.55135E-01 12400   0.226E+00    0.222E+01
DAV:  27    -0.190033489412E+04    0.42517E+00   -0.41945E-01 11824   0.191E+00    0.227E+01
DAV:  28    -0.190096991772E+04   -0.63502E+00   -0.10588E+00 12128   0.338E+00    0.243E+01
DAV:  29    -0.190184917950E+04   -0.87926E+00   -0.79521E-01 11960   0.299E+00    0.309E+01
DAV:  30    -0.190160120489E+04    0.24797E+00   -0.46856E-01 14376   0.239E+00    0.309E+01
DAV:  31    -0.190022625569E+04    0.13749E+01   -0.45376E-01 12344   0.223E+00    0.223E+01
DAV:  32    -0.189974305696E+04    0.48320E+00   -0.15944E-01 11768   0.137E+00    0.181E+01
DAV:  33    -0.189959842811E+04    0.14463E+00   -0.10460E-01 14120   0.577E-01    0.168E+01
DAV:  34    -0.189940313421E+04    0.19529E+00   -0.82447E-02 13288   0.101E+00    0.162E+01
DAV:  35    -0.189922566378E+04    0.17747E+00   -0.63195E-02 12880   0.870E-01    0.156E+01
DAV:  36    -0.189880383997E+04    0.42182E+00   -0.17993E-01 17096   0.124E+00    0.117E+01
DAV:  37    -0.189881463125E+04   -0.10791E-01   -0.12502E-01 15504   0.116E+00    0.129E+01
DAV:  38    -0.189862657911E+04    0.18805E+00   -0.93364E-02 12696   0.902E-01    0.102E+01
DAV:  39    -0.189858032325E+04    0.46256E-01   -0.60483E-02 12648   0.839E-01    0.988E+00
DAV:  40    -0.189846390498E+04    0.11642E+00   -0.71584E-02 12976   0.878E-01    0.701E+00
DAV:  41    -0.189848638708E+04   -0.22482E-01   -0.53517E-02 12304   0.822E-01    0.836E+00
DAV:  42    -0.189839704084E+04    0.89346E-01   -0.24479E-02 12456   0.471E-01    0.634E+00
DAV:  43    -0.189834877376E+04    0.48267E-01   -0.20753E-02 13592   0.477E-01    0.551E+00
DAV:  44    -0.189830480975E+04    0.43964E-01   -0.18887E-02 13696   0.334E-01    0.326E+00
DAV:  45    -0.189827204124E+04    0.32769E-01   -0.14409E-02 16344   0.276E-01    0.204E+00
DAV:  46    -0.189826772881E+04    0.43124E-02   -0.56959E-03 12424   0.946E-02    0.184E+00
DAV:  47    -0.189825574652E+04    0.11982E-01   -0.20357E-02 17712   0.403E-01    0.312E+00
DAV:  48    -0.189824180436E+04    0.13942E-01   -0.43072E-03 13416   0.158E-01    0.241E+00
DAV:  49    -0.189822589946E+04    0.15905E-01   -0.21511E-03 14376   0.163E-01    0.216E+00
DAV:  50    -0.189820791748E+04    0.17982E-01   -0.45777E-03 17448   0.200E-01    0.113E+00
DAV:  51    -0.189822156776E+04   -0.13650E-01   -0.29987E-03 12224   0.162E-01    0.134E+00
DAV:  52    -0.189817701120E+04    0.44557E-01   -0.28953E-02 15856   0.888E-01    0.162E+00
DAV:  53    -0.189817540739E+04    0.16038E-02   -0.30601E-02 14672   0.315E-01    0.101E+00
DAV:  54    -0.189817507631E+04    0.33107E-03   -0.37324E-03 13328   0.904E-02    0.103E+00
DAV:  55    -0.189817519248E+04   -0.11617E-03   -0.70558E-04 14264   0.284E-02    0.105E+00
DAV:  56    -0.189817492994E+04    0.26254E-03   -0.64707E-05 11160   0.329E-02    0.979E-01
DAV:  57    -0.189817506619E+04   -0.13624E-03   -0.54642E-04 15792   0.740E-02    0.103E+00
DAV:  58    -0.189817556818E+04   -0.50199E-03   -0.49121E-04 14312   0.942E-02    0.114E+00
DAV:  59    -0.189817498205E+04    0.58613E-03   -0.89249E-04 13984   0.102E-01    0.750E-01
DAV:  60    -0.189817582889E+04   -0.84684E-03   -0.44737E-04 13568   0.739E-02
  12 F= -.20303465E+04 E0= -.20295937E+04  d E =-.257522E+02
       N       E                     dE             d eps       ncg     rms          rms(c)
DAV:   1    -0.189753606728E+04    0.63891E+00   -0.12917E+03  9749   0.314E+01    0.213E+01
DAV:   2    -0.195606204472E+04   -0.58526E+02   -0.31883E+01 12104   0.231E+01    0.980E+01
DAV:   3    -0.198124761550E+04   -0.25186E+02   -0.23068E+01 12440   0.328E+01    0.109E+02
DAV:   4    -0.194623402167E+04    0.35014E+02   -0.17507E+01 12408   0.249E+01    0.807E+01
DAV:   5    -0.194770670146E+04   -0.14727E+01   -0.19600E+01 12304   0.230E+01    0.116E+02
DAV:   6    -0.190936779081E+04    0.38339E+02   -0.12161E+01 11560   0.151E+01    0.517E+01
DAV:   7    -0.192839551896E+04   -0.19028E+02   -0.10150E+01 12632   0.189E+01    0.898E+01
DAV:   8    -0.191672732238E+04    0.11668E+02   -0.99124E+00 12352   0.129E+01    0.612E+01
DAV:   9    -0.191058705221E+04    0.61403E+01   -0.67950E+00 11952   0.112E+01    0.500E+01
DAV:  10    -0.190766701828E+04    0.29200E+01   -0.59824E+00 12296   0.106E+01    0.497E+01
DAV:  11    -0.190899830744E+04   -0.13313E+01   -0.40415E+00 11840   0.815E+00    0.529E+01
DAV:  12    -0.190876104941E+04    0.23726E+00   -0.33064E+00 12088   0.714E+00    0.519E+01
DAV:  13    -0.190616486130E+04    0.25962E+01   -0.20530E+00 11304   0.524E+00    0.459E+01
DAV:  14    -0.190398016043E+04    0.21847E+01   -0.10547E+00 11792   0.357E+00    0.350E+01
DAV:  15    -0.190122151006E+04    0.27587E+01   -0.80874E-01 12080   0.297E+00    0.163E+01
DAV:  16    -0.190058581552E+04    0.63569E+00   -0.36891E-01 12096   0.177E+00    0.101E+01
DAV:  17    -0.190046296088E+04    0.12285E+00   -0.30276E-01 12192   0.161E+00    0.964E+00
DAV:  18    -0.190038939214E+04    0.73569E-01   -0.28676E-01 11624   0.160E+00    0.981E+00
DAV:  19    -0.190101681696E+04   -0.62742E+00   -0.46597E-01 13648   0.222E+00    0.196E+01
DAV:  20    -0.190065353663E+04    0.36328E+00   -0.31369E-01 12728   0.221E+00    0.153E+01
DAV:  21    -0.190046664444E+04    0.18689E+00   -0.19620E-01 12976   0.157E+00    0.115E+01
DAV:  22    -0.190056205441E+04   -0.95410E-01   -0.18229E-01 13008   0.160E+00    0.136E+01
DAV:  23    -0.190036932747E+04    0.19273E+00   -0.11048E-01 12232   0.120E+00    0.110E+01
DAV:  24    -0.190034169336E+04    0.27634E-01   -0.21447E-01 14520   0.149E+00    0.876E+00
DAV:  25    -0.190018823529E+04    0.15346E+00   -0.17601E-01 13760   0.140E+00    0.643E+00
DAV:  26    -0.190015781830E+04    0.30417E-01   -0.51585E-02 13184   0.701E-01    0.647E+00
DAV:  27    -0.190011953848E+04    0.38280E-01   -0.26953E-02 11376   0.421E-01    0.471E+00
DAV:  28    -0.190013780482E+04   -0.18266E-01   -0.17104E-02 11944   0.456E-01    0.598E+00
DAV:  29    -0.190016900317E+04   -0.31198E-01   -0.18487E-02 13536   0.444E-01    0.775E+00
DAV:  30    -0.190015117533E+04    0.17828E-01   -0.11870E-02 13184   0.402E-01    0.744E+00
DAV:  31    -0.190017818310E+04   -0.27008E-01   -0.19362E-02 14032   0.558E-01    0.921E+00
DAV:  32    -0.190011976770E+04    0.58415E-01   -0.15238E-02 14312   0.415E-01    0.756E+00
DAV:  33    -0.190008819520E+04    0.31572E-01   -0.19668E-02 15392   0.460E-01    0.651E+00
DAV:  34    -0.190003577160E+04    0.52424E-01   -0.11835E-02 14648   0.318E-01    0.361E+00
DAV:  35    -0.190003345746E+04    0.23141E-02   -0.85291E-03 13832   0.289E-01    0.326E+00
DAV:  36    -0.190003623368E+04   -0.27762E-02   -0.85096E-03 13128   0.333E-01    0.352E+00
DAV:  37    -0.190002767233E+04    0.85614E-02   -0.33608E-03 13672   0.176E-01    0.275E+00
DAV:  38    -0.190001403204E+04    0.13640E-01   -0.32392E-03 14776   0.235E-01    0.144E+00
DAV:  39    -0.190001086609E+04    0.31659E-02   -0.61484E-03 17032   0.277E-01    0.865E-01
DAV:  40    -0.190001056875E+04    0.29734E-03   -0.47263E-03 15720   0.178E-01    0.938E-01
DAV:  41    -0.190001350809E+04   -0.29393E-02   -0.18347E-03 16288   0.128E-01    0.167E+00
DAV:  42    -0.190001034933E+04    0.31588E-02   -0.15756E-03 12352   0.998E-02    0.951E-01
DAV:  43    -0.190000988110E+04    0.46823E-03   -0.30575E-04 11648   0.511E-02    0.866E-01
DAV:  44    -0.190000902300E+04    0.85810E-03   -0.17803E-04 13160   0.380E-02    0.540E-01
DAV:  45    -0.190000906375E+04   -0.40751E-04   -0.12516E-04 11256   0.254E-02    0.585E-01
DAV:  46    -0.190000894479E+04    0.11896E-03   -0.50059E-05 10024   0.149E-02    0.507E-01
DAV:  47    -0.190000854923E+04    0.39556E-03   -0.14074E-04  8304   0.314E-02    0.106E-01
DAV:  48    -0.190000860274E+04   -0.53503E-04   -0.41597E-05  9880   0.112E-02    0.196E-01
DAV:  49    -0.190000854986E+04    0.52879E-04   -0.20219E-05  6008   0.126E-02    0.590E-02
DAV:  50    -0.190000854349E+04    0.63628E-05   -0.48996E-06  5912   0.634E-03    0.378E-02
DAV:  51    -0.190000854110E+04    0.23935E-05   -0.49262E-06  5504   0.943E-03
  13 F= -.20321279E+04 E0= -.20313721E+04  d E =-.275335E+02
       N       E                     dE             d eps       ncg     rms          rms(c)
DAV:   1    -0.188602743644E+04    0.13981E+02   -0.10277E+04  9732   0.914E+01    0.583E+01
DAV:   2    -0.378641964702E+04   -0.19004E+04   -0.32131E+02 12632   0.139E+02    0.460E+02
DAV:   3    -0.216282431993E+04    0.16236E+04   -0.40720E+02 13472   0.471E+01    0.181E+02
DAV:   4    -0.224834415726E+04   -0.85520E+02   -0.12367E+02 12880   0.624E+01    0.197E+02
DAV:   5    -0.210046990426E+04    0.14787E+03   -0.11713E+02 12968   0.545E+01    0.181E+02
DAV:   6    -0.198230114080E+04    0.11817E+03   -0.12624E+02 14856   0.348E+01    0.130E+02
DAV:   7    -0.196578924826E+04    0.16512E+02   -0.54046E+01 12016   0.298E+01    0.123E+02
DAV:   8    -0.196183184476E+04    0.39574E+01   -0.49363E+01 11056   0.272E+01    0.107E+02
DAV:   9    -0.195653046510E+04    0.53014E+01   -0.35944E+01 11936   0.244E+01    0.983E+01
DAV:  10    -0.194817194922E+04    0.83585E+01   -0.37304E+01 11424   0.276E+01    0.921E+01
DAV:  11    -0.196861760935E+04   -0.20446E+02   -0.35689E+01 11616   0.235E+01    0.125E+02
DAV:  12    -0.196018529580E+04    0.84323E+01   -0.24093E+01 12344   0.201E+01    0.971E+01
DAV:  13    -0.193345057056E+04    0.26735E+02   -0.17569E+01 11112   0.160E+01    0.682E+01
DAV:  14    -0.192841458931E+04    0.50360E+01   -0.13596E+01 11448   0.147E+01    0.551E+01
DAV:  15    -0.194117278012E+04   -0.12758E+02   -0.15165E+01 11552   0.171E+01    0.762E+01
DAV:  16    -0.193774570021E+04    0.34271E+01   -0.10416E+01 11248   0.138E+01    0.810E+01
DAV:  17    -0.193491384379E+04    0.28319E+01   -0.62778E+00 10936   0.903E+00    0.891E+01
DAV:  18    -0.192617913465E+04    0.87347E+01   -0.51410E+00 11808   0.821E+00    0.562E+01
DAV:  19    -0.192211691613E+04    0.40622E+01   -0.40299E+00 12360   0.707E+00    0.371E+01
DAV:  20    -0.192340168528E+04   -0.12848E+01   -0.39824E+00 11896   0.773E+00    0.492E+01
DAV:  21    -0.192210419888E+04    0.12975E+01   -0.19163E+00 11208   0.410E+00    0.424E+01
DAV:  22    -0.192082433343E+04    0.12799E+01   -0.12505E+00 11824   0.305E+00    0.354E+01
DAV:  23    -0.191949136910E+04    0.13330E+01   -0.11749E+00 11744   0.355E+00    0.271E+01
DAV:  24    -0.191854426657E+04    0.94710E+00   -0.76698E-01 11760   0.346E+00    0.225E+01
DAV:  25    -0.191786279283E+04    0.68147E+00   -0.50063E-01 12000   0.299E+00    0.206E+01
DAV:  26    -0.191743836899E+04    0.42442E+00   -0.34332E-01 11568   0.162E+00    0.152E+01
DAV:  27    -0.191717912664E+04    0.25924E+00   -0.37620E-01 13296   0.186E+00    0.111E+01
DAV:  28    -0.191769848742E+04   -0.51936E+00   -0.69273E-01 13144   0.265E+00    0.209E+01
DAV:  29    -0.191749366719E+04    0.20482E+00   -0.40827E-01 12608   0.223E+00    0.182E+01
DAV:  30    -0.191717829172E+04    0.31538E+00   -0.33369E-01 12640   0.215E+00    0.126E+01
DAV:  31    -0.191741315523E+04   -0.23486E+00   -0.59603E-01 13168   0.283E+00    0.159E+01
DAV:  32    -0.191711825791E+04    0.29490E+00   -0.29563E-01 11872   0.197E+00    0.122E+01
DAV:  33    -0.191685538239E+04    0.26288E+00   -0.20343E-01 12416   0.171E+00    0.827E+00
DAV:  34    -0.191679374891E+04    0.61633E-01   -0.81585E-02 11968   0.806E-01    0.588E+00
DAV:  35    -0.191674306486E+04    0.50684E-01   -0.41197E-02 11992   0.635E-01    0.429E+00
DAV:  36    -0.191676725052E+04   -0.24186E-01   -0.35578E-02 12192   0.532E-01    0.626E+00
DAV:  37    -0.191672539320E+04    0.41857E-01   -0.18762E-02 12456   0.471E-01    0.426E+00
DAV:  38    -0.191671618709E+04    0.92061E-02   -0.43646E-02 14120   0.507E-01    0.265E+00
DAV:  39    -0.191670941112E+04    0.67760E-02   -0.19632E-02 13352   0.507E-01    0.260E+00
DAV:  40    -0.191671057766E+04   -0.11665E-02   -0.16450E-02 14912   0.386E-01    0.245E+00
DAV:  41    -0.191671617002E+04   -0.55924E-02   -0.14131E-02 13592   0.383E-01    0.335E+00
DAV:  42    -0.191670635087E+04    0.98192E-02   -0.53605E-03 15168   0.148E-01    0.230E+00
DAV:  43    -0.191670662080E+04   -0.26993E-03   -0.14242E-03 14616   0.876E-02    0.247E+00
DAV:  44    -0.191669838934E+04    0.82315E-02   -0.24579E-03 16600   0.128E-01    0.111E+00
DAV:  45    -0.191669694784E+04    0.14415E-02   -0.63230E-04 11536   0.762E-02    0.855E-01
DAV:  46    -0.191669666886E+04    0.27898E-03   -0.27032E-04 11384   0.307E-02    0.806E-01
DAV:  47    -0.191669568558E+04    0.98327E-03   -0.42436E-04 16176   0.572E-02    0.319E-01
DAV:  48    -0.191669577231E+04   -0.86725E-04   -0.24738E-04 13400   0.442E-02    0.325E-01
DAV:  49    -0.191669560414E+04    0.16817E-03   -0.92454E-05 11768   0.249E-02    0.197E-01
DAV:  50    -0.191669550454E+04    0.99601E-04   -0.43862E-05 11128   0.196E-02    0.107E-01
DAV:  51    -0.191669547176E+04    0.32777E-04   -0.27906E-05  8952   0.113E-02    0.739E-02
DAV:  52    -0.191669543752E+04    0.34241E-04   -0.13003E-05  7584   0.183E-02    0.672E-02
DAV:  53    -0.191669544697E+04   -0.94511E-05   -0.45678E-05 10784   0.121E-02    0.905E-02
DAV:  54    -0.191669543062E+04    0.16348E-04   -0.10326E-05  6040   0.842E-03    0.569E-02
DAV:  55    -0.191669542302E+04    0.76070E-05   -0.44636E-06  5664   0.750E-03    0.340E-02
DAV:  56    -0.191669542140E+04    0.16177E-05   -0.66103E-06  6280   0.553E-03
  14 F= -.20487149E+04 E0= -.20479553E+04  d E =-.165871E+02
       N       E                     dE             d eps       ncg     rms          rms(c)
DAV:   1    -0.191669750962E+04   -0.20866E-02   -0.25759E+00  9751   0.139E+00    0.822E-01
DAV:   2    -0.191692308736E+04   -0.22558E+00   -0.12540E-01 12216   0.107E+00    0.984E+00
DAV:   3    -0.191694314942E+04   -0.20062E-01   -0.24479E-01 12248   0.137E+00    0.116E+01
DAV:   4    -0.191676339192E+04    0.17976E+00   -0.32163E-01 11688   0.101E+00    0.500E+00
DAV:   5    -0.191674146165E+04    0.21930E-01   -0.47043E-02 12584   0.756E-01    0.398E+00
DAV:   6    -0.191673948825E+04    0.19734E-02   -0.47011E-02 12254   0.737E-01    0.376E+00
DAV:   7    -0.191672932454E+04    0.10164E-01   -0.28248E-02 12006   0.661E-01    0.326E+00
DAV:   8    -0.191671321812E+04    0.16106E-01   -0.19863E-02 12542   0.550E-01    0.205E+00
DAV:   9    -0.191672954552E+04   -0.16327E-01   -0.31184E-02 12328   0.558E-01    0.309E+00
DAV:  10    -0.191672142895E+04    0.81166E-02   -0.97862E-03 12216   0.408E-01    0.289E+00
DAV:  11    -0.191670642074E+04    0.15008E-01   -0.69141E-03 12584   0.339E-01    0.159E+00
DAV:  12    -0.191670841066E+04   -0.19899E-02   -0.56807E-03 12872   0.304E-01    0.161E+00
DAV:  13    -0.191670535380E+04    0.30569E-02   -0.34815E-03 12688   0.247E-01    0.151E+00
DAV:  14    -0.191670411364E+04    0.12402E-02   -0.12262E-03 13720   0.121E-01    0.121E+00
DAV:  15    -0.191670176333E+04    0.23503E-02   -0.16782E-03 12624   0.134E-01    0.585E-01
DAV:  16    -0.191670127891E+04    0.48441E-03   -0.54582E-04 12120   0.869E-02    0.521E-01
DAV:  17    -0.191670115111E+04    0.12781E-03   -0.31576E-04 10864   0.561E-02    0.424E-01
DAV:  18    -0.191670087936E+04    0.27175E-03   -0.22832E-04 10136   0.500E-02    0.174E-01
DAV:  19    -0.191670084830E+04    0.31060E-04   -0.78331E-05  9936   0.318E-02    0.155E-01
DAV:  20    -0.191670091005E+04   -0.61754E-04   -0.59869E-05 10064   0.264E-02    0.236E-01
DAV:  21    -0.191670089925E+04    0.10805E-04   -0.50485E-05  9560   0.245E-02    0.255E-01
DAV:  22    -0.191670085989E+04    0.39359E-04   -0.33197E-05  8464   0.190E-02    0.205E-01
DAV:  23    -0.191670081396E+04    0.45932E-04   -0.35119E-05  8824   0.222E-02    0.106E-01
DAV:  24    -0.191670078861E+04    0.25348E-04   -0.24844E-05  8280   0.190E-02    0.534E-02
DAV:  25    -0.191670079454E+04   -0.59279E-05   -0.96166E-06  5952   0.104E-02    0.685E-02
DAV:  26    -0.191670078698E+04    0.75540E-05   -0.90340E-06  5712   0.101E-02    0.436E-02
DAV:  27    -0.191670078653E+04    0.44890E-06   -0.34298E-06  5072   0.634E-03
  15 F= -.20487192E+04 E0= -.20479595E+04  d E =-.165913E+02
       N       E                     dE             d eps       ncg     rms          rms(c)
DAV:   1    -0.189863672435E+04    0.18064E+02   -0.98923E+03  9732   0.888E+01    0.623E+01
DAV:   2    -0.460896347280E+04   -0.27103E+04   -0.34127E+02 12448   0.161E+02    0.487E+02
DAV:   3    -0.223626704859E+04    0.23727E+04   -0.45498E+02 13720   0.522E+01    0.209E+02
[...]
DAV:  36    -0.192914459065E+04    0.98195E-01   -0.38701E-02 14376   0.588E-01    0.565E+00
DAV:  37    -0.192916621129E+04   -0.21621E-01   -0.20864E-02 11520   0.335E-01    0.708E+00
DAV:  38    -0.192915081615E+04    0.15395E-01   -0.61431E-03 12328   0.226E-01    0.651E+00
DAV:  39    -0.192912710540E+04    0.23711E-01   -0.58852E-03 13128   0.251E-01    0.589E+00
DAV:  40    -0.192908782538E+04    0.39280E-01   -0.18008E-02 12728   0.315E-01    0.385E+00
DAV:  41    -0.192907090631E+04    0.16919E-01   -0.88268E-03 14184   0.333E-01    0.306E+00
DAV:  42    -0.192906457841E+04    0.63279E-02   -0.17138E-02 15120   0.311E-01    0.351E+00
DAV:  43    -0.192905073073E+04    0.13848E-01   -0.71363E-03 13080   0.216E-01    0.209E+00
DAV:  44    -0.192904996025E+04    0.77048E-03   -0.53326E-03 13120   0.214E-01    0.173E+00
DAV:  45    -0.192904423815E+04    0.57221E-02   -0.39925E-03 15832   0.166E-01    0.163E+00
DAV:  46    -0.192903947021E+04    0.47679E-02   -0.18523E-03 12744   0.105E-01    0.933E-01
DAV:  47    -0.192903506611E+04    0.44041E-02   -0.29718E-03 17256   0.212E-01    0.100E+00
DAV:  48    -0.192903373529E+04    0.13308E-02   -0.28270E-03 13800   0.114E-01    0.525E-01
DAV:  49    -0.192903343986E+04    0.29543E-03   -0.63981E-04 14048   0.615E-02    0.294E-01
DAV:  50    -0.192903317161E+04    0.26826E-03   -0.24950E-04 15760   0.336E-02    0.201E-01
DAV:  51    -0.192903284589E+04    0.32572E-03   -0.14820E-04 12640   0.402E-02    0.187E-01
DAV:  52    -0.192903270845E+04    0.13744E-03   -0.13677E-04 14136   0.387E-02    0.299E-01
DAV:  53    -0.192903256123E+04    0.14722E-03   -0.21023E-04 13752   0.357E-02    0.123E-01
DAV:  54    -0.192903253087E+04    0.30356E-04   -0.42672E-05 10280   0.250E-02    0.131E-01
DAV:  55    -0.192903260682E+04   -0.75946E-04   -0.11736E-04 12000   0.427E-02    0.217E-01
DAV:  56    -0.192903266359E+04   -0.56773E-04   -0.24508E-04 14136   0.334E-02    0.409E-02
DAV:  57    -0.192903271512E+04   -0.51528E-04   -0.15414E-04 11880   0.213E-02    0.104E-01
DAV:  58    -0.192903276260E+04   -0.47482E-04   -0.19648E-05  8136   0.197E-02    0.474E-02
DAV:  59    -0.192903277715E+04   -0.14549E-04   -0.19280E-05  8128   0.606E-03    0.513E-02
DAV:  60    -0.192903278374E+04   -0.65938E-05   -0.41338E-06  5744   0.496E-03
  16 F= -.20609884E+04 E0= -.20602252E+04  d E =-.122692E+02
       N       E                     dE             d eps       ncg     rms          rms(c)
DAV:   1    -0.192903411143E+04   -0.13343E-02   -0.19469E+01  9759   0.380E+00    0.228E+00
DAV:   2    -0.193297571113E+04   -0.39416E+01   -0.10949E+00 12256   0.385E+00    0.448E+01
DAV:   3    -0.193111334694E+04    0.18624E+01   -0.23855E+00 12392   0.435E+00    0.321E+01
DAV:   4    -0.192943679893E+04    0.16765E+01   -0.71420E-01 11904   0.295E+00    0.120E+01
DAV:   5    -0.192935775342E+04    0.79046E-01   -0.33087E-01 12224   0.213E+00    0.105E+01
DAV:   6    -0.192938821530E+04   -0.30462E-01   -0.35849E-01 12384   0.217E+00    0.102E+01
DAV:   7    -0.192918031465E+04    0.20790E+00   -0.22709E-01 11824   0.192E+00    0.677E+00
DAV:   8    -0.192918792722E+04   -0.76126E-02   -0.19283E-01 12384   0.142E+00    0.625E+00
DAV:   9    -0.192912956463E+04    0.58363E-01   -0.91337E-02 12368   0.113E+00    0.460E+00
DAV:  10    -0.192907919125E+04    0.50373E-01   -0.66937E-02 11936   0.925E-01    0.249E+00
DAV:  11    -0.192912309003E+04   -0.43899E-01   -0.47983E-02 14008   0.859E-01    0.449E+00
DAV:  12    -0.192907912647E+04    0.43964E-01   -0.37805E-02 13192   0.738E-01    0.296E+00
DAV:  13    -0.192907087327E+04    0.82532E-02   -0.12599E-02 13344   0.390E-01    0.220E+00
DAV:  14    -0.192907160980E+04   -0.73653E-03   -0.94420E-03 12320   0.326E-01    0.204E+00
DAV:  15    -0.192906468358E+04    0.69262E-02   -0.58995E-03 12472   0.277E-01    0.141E+00
DAV:  16    -0.192906615768E+04   -0.14741E-02   -0.33844E-03 12912   0.204E-01    0.145E+00
DAV:  17    -0.192906134178E+04    0.48159E-02   -0.27701E-03 11928   0.201E-01    0.692E-01
DAV:  18    -0.192906041177E+04    0.93001E-03   -0.12532E-03 12152   0.133E-01    0.505E-01
DAV:  19    -0.192906051906E+04   -0.10729E-03   -0.92055E-04 11608   0.108E-01    0.491E-01
DAV:  20    -0.192905979039E+04    0.72867E-03   -0.70969E-04 11816   0.939E-02    0.202E-01
DAV:  21    -0.192906000161E+04   -0.21123E-03   -0.32369E-04 11992   0.505E-02    0.361E-01
DAV:  22    -0.192906009715E+04   -0.95536E-04   -0.18079E-04 11152   0.420E-02    0.458E-01
DAV:  23    -0.192905994462E+04    0.15253E-03   -0.99668E-05  9776   0.299E-02    0.359E-01
DAV:  24    -0.192905978477E+04    0.15985E-03   -0.10102E-04  9288   0.300E-02    0.136E-01
DAV:  25    -0.192905973989E+04    0.44879E-04   -0.50293E-05  9184   0.264E-02    0.745E-02
DAV:  26    -0.192905974874E+04   -0.88494E-05   -0.27792E-05  8824   0.186E-02    0.842E-02
DAV:  27    -0.192905974648E+04    0.22603E-05   -0.18977E-05  7472   0.131E-02
  17 F= -.20610170E+04 E0= -.20602539E+04  d E =-.122978E+02
       N       E                     dE             d eps       ncg     rms          rms(c)
DAV:   1    -0.192651766688E+04    0.25421E+01   -0.44336E+03  9732   0.583E+01    0.369E+01
DAV:   2    -0.262127634180E+04   -0.69476E+03   -0.13910E+02 12184   0.818E+01    0.296E+02
DAV:   3    -0.208178025585E+04    0.53950E+03   -0.96236E+01 13784   0.440E+01    0.146E+02
DAV:   4    -0.202965999414E+04    0.52120E+02   -0.71692E+01 12296   0.419E+01    0.119E+02
DAV:   5    -0.200217655150E+04    0.27483E+02   -0.48902E+01 12144   0.335E+01    0.110E+02
DAV:   6    -0.197181886907E+04    0.30358E+02   -0.55568E+01 13368   0.296E+01    0.881E+01
DAV:   7    -0.195893283600E+04    0.12886E+02   -0.24682E+01 11464   0.189E+01    0.788E+01
DAV:   8    -0.196507820375E+04   -0.61454E+01   -0.20094E+01 12576   0.218E+01    0.866E+01
DAV:   9    -0.195164460507E+04    0.13434E+02   -0.15606E+01 11336   0.137E+01    0.658E+01
DAV:  10    -0.197535829937E+04   -0.23714E+02   -0.12678E+01 12016   0.178E+01    0.773E+01
DAV:  11    -0.196249537288E+04    0.12863E+02   -0.94847E+00 12064   0.130E+01    0.693E+01
DAV:  12    -0.196446107542E+04   -0.19657E+01   -0.77779E+00 11280   0.109E+01    0.731E+01
DAV:  13    -0.196505130692E+04   -0.59023E+00   -0.81938E+00 11760   0.115E+01    0.758E+01
DAV:  14    -0.194598786675E+04    0.19063E+02   -0.48148E+00 11960   0.101E+01    0.336E+01
DAV:  15    -0.194303003699E+04    0.29578E+01   -0.38140E+00 11984   0.792E+00    0.341E+01
DAV:  16    -0.194464638611E+04   -0.16163E+01   -0.25395E+00 11960   0.556E+00    0.593E+01
DAV:  17    -0.194562085454E+04   -0.97447E+00   -0.24267E+00 11776   0.543E+00    0.526E+01
DAV:  18    -0.194178694307E+04    0.38339E+01   -0.17280E+00 11424   0.427E+00    0.370E+01
DAV:  19    -0.193980515690E+04    0.19818E+01   -0.10683E+00 11832   0.343E+00    0.252E+01
DAV:  20    -0.193921429179E+04    0.59087E+00   -0.84134E-01 11696   0.311E+00    0.199E+01
DAV:  21    -0.193874842694E+04    0.46586E+00   -0.32291E-01 11896   0.152E+00    0.176E+01
DAV:  22    -0.193844292420E+04    0.30550E+00   -0.19500E-01 11736   0.113E+00    0.151E+01
DAV:  23    -0.193832305049E+04    0.11987E+00   -0.11712E-01 11824   0.935E-01    0.135E+01
DAV:  24    -0.193824234659E+04    0.80704E-01   -0.12659E-01 12288   0.113E+00    0.124E+01
DAV:  25    -0.193815738894E+04    0.84958E-01   -0.20715E-01 11880   0.159E+00    0.128E+01
DAV:  26    -0.193781572312E+04    0.34167E+00   -0.35563E-01 12064   0.163E+00    0.124E+01
DAV:  27    -0.193775550833E+04    0.60215E-01   -0.20664E-01 14520   0.126E+00    0.111E+01
DAV:  28    -0.193757816690E+04    0.17734E+00   -0.10687E-01 13552   0.105E+00    0.807E+00
DAV:  29    -0.193752698287E+04    0.51184E-01   -0.66465E-02 13848   0.708E-01    0.625E+00
DAV:  30    -0.193745406421E+04    0.72919E-01   -0.10688E-01 14576   0.106E+00    0.456E+00
DAV:  31    -0.193747785224E+04   -0.23788E-01   -0.99260E-02 13296   0.107E+00    0.526E+00
DAV:  32    -0.193743516896E+04    0.42683E-01   -0.10027E-01 13352   0.115E+00    0.410E+00
DAV:  33    -0.193750222450E+04   -0.67056E-01   -0.69419E-02 12928   0.994E-01    0.705E+00
DAV:  34    -0.193739600885E+04    0.10622E+00   -0.42711E-02 12888   0.733E-01    0.337E+00
DAV:  35    -0.193738224686E+04    0.13762E-01   -0.14219E-02 13080   0.330E-01    0.261E+00
DAV:  36    -0.193736331550E+04    0.18931E-01   -0.82277E-03 13088   0.309E-01    0.195E+00
DAV:  37    -0.193735563634E+04    0.76792E-02   -0.47558E-03 13472   0.161E-01    0.146E+00
DAV:  38    -0.193734540771E+04    0.10229E-01   -0.23386E-03 13064   0.160E-01    0.148E+00
DAV:  39    -0.193734047769E+04    0.49300E-02   -0.19801E-03 13176   0.134E-01    0.128E+00
DAV:  40    -0.193733074534E+04    0.97323E-02   -0.17863E-03 13096   0.144E-01    0.867E-01
DAV:  41    -0.193731983447E+04    0.10911E-01   -0.23130E-03 14784   0.177E-01    0.107E+00
DAV:  42    -0.193731396832E+04    0.58662E-02   -0.27300E-03 14624   0.126E-01    0.940E-01
DAV:  43    -0.193730874073E+04    0.52276E-02   -0.87344E-04 16488   0.640E-02    0.912E-01
DAV:  44    -0.193731124632E+04   -0.25056E-02   -0.58736E-04 11528   0.372E-02    0.956E-01
DAV:  45    -0.193729491775E+04    0.16329E-01   -0.13895E-03 15680   0.192E-01    0.528E-01
DAV:  46    -0.193727842101E+04    0.16497E-01   -0.56189E-03 17040   0.234E-01    0.569E-01
DAV:  47    -0.193727037983E+04    0.80412E-02   -0.81128E-03 15792   0.241E-01    0.524E-01
DAV:  48    -0.193726951005E+04    0.86978E-03   -0.86739E-03 14672   0.119E-01    0.507E-01
DAV:  49    -0.193726951627E+04   -0.62278E-05   -0.18870E-03 13384   0.429E-02    0.511E-01
DAV:  50    -0.193726933377E+04    0.18250E-03   -0.16322E-04 13784   0.316E-02    0.469E-01
DAV:  51    -0.193726954271E+04   -0.20894E-03   -0.27620E-04 14184   0.505E-02    0.505E-01
DAV:  52    -0.193726962151E+04   -0.78803E-04   -0.14088E-04 12120   0.348E-02    0.578E-01
DAV:  53    -0.193726954381E+04    0.77698E-04   -0.10867E-04 12384   0.406E-02    0.475E-01
DAV:  54    -0.193726946547E+04    0.78343E-04   -0.11090E-04 10336   0.172E-02    0.431E-01
DAV:  55    -0.193726952761E+04   -0.62142E-04   -0.96896E-05 13304   0.395E-02    0.380E-01
DAV:  56    -0.193726921972E+04    0.30789E-03   -0.20102E-04 12040   0.367E-02    0.178E-01
DAV:  57    -0.193726932727E+04   -0.10755E-03   -0.10595E-04  9712   0.290E-02    0.210E-01
DAV:  58    -0.193726909018E+04    0.23709E-03   -0.11012E-04 12552   0.426E-02    0.766E-02
DAV:  59    -0.193726910208E+04   -0.11897E-04   -0.97437E-05 11536   0.150E-02    0.109E-01
DAV:  60    -0.193726910916E+04   -0.70790E-05   -0.19592E-05  7528   0.102E-02
  18 F= -.20691755E+04 E0= -.20684132E+04  d E =-.815854E+01
       N       E                     dE             d eps       ncg     rms          rms(c)
DAV:   1    -0.193691688950E+04    0.35221E+00   -0.67956E+02  9732   0.224E+01    0.144E+01
DAV:   2    -0.201880208802E+04   -0.81885E+02   -0.20456E+01 12240   0.252E+01    0.111E+02
DAV:   3    -0.197953581625E+04    0.39266E+02   -0.13904E+01 13264   0.252E+01    0.922E+01
DAV:   4    -0.195700961067E+04    0.22526E+02   -0.11533E+01 13008   0.186E+01    0.704E+01
DAV:   5    -0.195821159175E+04   -0.12020E+01   -0.94079E+00 12608   0.132E+01    0.686E+01
DAV:   6    -0.194483217639E+04    0.13379E+02   -0.53408E+00 12408   0.140E+01    0.427E+01
DAV:   7    -0.194267201225E+04    0.21602E+01   -0.33810E+00 11872   0.581E+00    0.387E+01
DAV:   8    -0.194455365992E+04   -0.18816E+01   -0.43507E+00 12248   0.849E+00    0.453E+01
DAV:   9    -0.194178215395E+04    0.27715E+01   -0.46417E+00 12024   0.845E+00    0.312E+01
DAV:  10    -0.194295250348E+04   -0.11703E+01   -0.22826E+00 11824   0.631E+00    0.389E+01
DAV:  11    -0.194285274676E+04    0.99757E-01   -0.15909E+00 12240   0.501E+00    0.425E+01
DAV:  12    -0.194122620102E+04    0.16265E+01   -0.10267E+00 11624   0.377E+00    0.352E+01
DAV:  13    -0.193911888027E+04    0.21073E+01   -0.98126E-01 11936   0.346E+00    0.158E+01
DAV:  14    -0.193868582665E+04    0.43305E+00   -0.39907E-01 11976   0.243E+00    0.153E+01
DAV:  15    -0.193868976971E+04   -0.39431E-02   -0.27036E-01 12304   0.182E+00    0.155E+01
DAV:  16    -0.193829579504E+04    0.39397E+00   -0.19814E-01 11776   0.146E+00    0.961E+00
DAV:  17    -0.193825647854E+04    0.39316E-01   -0.14557E-01 13216   0.115E+00    0.853E+00
DAV:  18    -0.193821659623E+04    0.39882E-01   -0.15080E-01 12720   0.139E+00    0.719E+00
DAV:  19    -0.193821954926E+04   -0.29530E-02   -0.13400E-01 12488   0.124E+00    0.612E+00
DAV:  20    -0.193817524634E+04    0.44303E-01   -0.66297E-02 11968   0.865E-01    0.622E+00
DAV:  21    -0.193812830796E+04    0.46938E-01   -0.44730E-02 11840   0.797E-01    0.565E+00
DAV:  22    -0.193819799954E+04   -0.69692E-01   -0.63086E-02 13560   0.835E-01    0.853E+00
DAV:  23    -0.193820817804E+04   -0.10178E-01   -0.52266E-02 13184   0.899E-01    0.961E+00
DAV:  24    -0.193816485512E+04    0.43323E-01   -0.21245E-02 13432   0.560E-01    0.916E+00
DAV:  25    -0.193810674877E+04    0.58106E-01   -0.26730E-02 13680   0.553E-01    0.752E+00
DAV:  26    -0.193804120258E+04    0.65546E-01   -0.18235E-02 13584   0.492E-01    0.561E+00
DAV:  27    -0.193802881730E+04    0.12385E-01   -0.15560E-02 15344   0.418E-01    0.564E+00
DAV:  28    -0.193801556045E+04    0.13257E-01   -0.12350E-02 14224   0.318E-01    0.549E+00
DAV:  29    -0.193798884787E+04    0.26713E-01   -0.97360E-03 14872   0.281E-01    0.378E+00
DAV:  30    -0.193796475804E+04    0.24090E-01   -0.82347E-03 14528   0.280E-01    0.157E+00
DAV:  31    -0.193796678884E+04   -0.20308E-02   -0.56750E-03 14584   0.252E-01    0.175E+00
DAV:  32    -0.193796403663E+04    0.27522E-02   -0.57888E-03 14224   0.293E-01    0.190E+00
DAV:  33    -0.193795792815E+04    0.61085E-02   -0.30898E-03 13192   0.205E-01    0.162E+00
DAV:  34    -0.193794795907E+04    0.99691E-02   -0.53648E-03 15200   0.331E-01    0.116E+00
DAV:  35    -0.193794417604E+04    0.37830E-02   -0.70813E-03 14792   0.271E-01    0.901E-01
DAV:  36    -0.193794431200E+04   -0.13596E-03   -0.51917E-03 16824   0.182E-01    0.816E-01
DAV:  37    -0.193794327909E+04    0.10329E-02   -0.25929E-03 13600   0.140E-01    0.674E-01
DAV:  38    -0.193794341786E+04   -0.13876E-03   -0.10115E-03 15384   0.136E-01    0.682E-01
DAV:  39    -0.193794398421E+04   -0.56635E-03   -0.12551E-03 13712   0.105E-01    0.799E-01
DAV:  40    -0.193794327298E+04    0.71123E-03   -0.10483E-03 13792   0.167E-01    0.658E-01
DAV:  41    -0.193794291352E+04    0.35947E-03   -0.99768E-04 15224   0.636E-02    0.358E-01
DAV:  42    -0.193794264610E+04    0.26742E-03   -0.19898E-04 14008   0.484E-02    0.222E-01
DAV:  43    -0.193794242995E+04    0.21615E-03   -0.73810E-05 10864   0.298E-02    0.116E-01
DAV:  44    -0.193794235950E+04    0.70446E-04   -0.93159E-05 12864   0.278E-02    0.911E-02
DAV:  45    -0.193794235420E+04    0.53048E-05   -0.93657E-05 12104   0.147E-02    0.386E-02
DAV:  46    -0.193794236113E+04   -0.69262E-05   -0.21802E-05  7968   0.905E-03    0.656E-02
DAV:  47    -0.193794235721E+04    0.39162E-05   -0.45248E-06  5488   0.103E-02
  19 F= -.20698338E+04 E0= -.20690728E+04  d E =-.881679E+01
       N       E                     dE             d eps       ncg     rms          rms(c)
DAV:   1    -0.193553893655E+04    0.24034E+01   -0.42803E+03  9732   0.572E+01    0.317E+01
DAV:   2    -0.256004829922E+04   -0.62451E+03   -0.12567E+02 12312   0.758E+01    0.287E+02
DAV:   3    -0.205057970216E+04    0.50947E+03   -0.14862E+02 15032   0.388E+01    0.131E+02
DAV:   4    -0.205421624189E+04   -0.36365E+01   -0.40442E+01 12824   0.401E+01    0.142E+02
DAV:   5    -0.198577677057E+04    0.68439E+02   -0.38281E+01 12008   0.295E+01    0.837E+01
DAV:   6    -0.196274755903E+04    0.23029E+02   -0.31224E+01 13184   0.243E+01    0.722E+01
DAV:   7    -0.196636973838E+04   -0.36222E+01   -0.20958E+01 11768   0.152E+01    0.685E+01
DAV:   8    -0.195124037571E+04    0.15129E+02   -0.14122E+01 12336   0.144E+01    0.477E+01
DAV:   9    -0.196182121991E+04   -0.10581E+02   -0.11848E+01 11720   0.154E+01    0.701E+01
DAV:  10    -0.196235327151E+04   -0.53205E+00   -0.11747E+01 12560   0.144E+01    0.617E+01
DAV:  11    -0.195680347196E+04    0.55498E+01   -0.98644E+00 11792   0.133E+01    0.529E+01
DAV:  12    -0.195416708342E+04    0.26364E+01   -0.51644E+00 11544   0.885E+00    0.463E+01
DAV:  13    -0.195220962477E+04    0.19575E+01   -0.52121E+00 11616   0.939E+00    0.481E+01
DAV:  14    -0.194927030406E+04    0.29393E+01   -0.33193E+00 11608   0.687E+00    0.379E+01
DAV:  15    -0.194664842143E+04    0.26219E+01   -0.21695E+00 11600   0.580E+00    0.225E+01
DAV:  16    -0.194565972493E+04    0.98870E+00   -0.11086E+00 11864   0.407E+00    0.198E+01
DAV:  17    -0.194558123793E+04    0.78487E-01   -0.84963E-01 12264   0.259E+00    0.172E+01
DAV:  18    -0.194558921148E+04   -0.79736E-02   -0.95825E-01 11600   0.315E+00    0.172E+01
DAV:  19    -0.194558289122E+04    0.63203E-02   -0.65695E-01 11928   0.296E+00    0.176E+01
DAV:  20    -0.194565836730E+04   -0.75476E-01   -0.56141E-01 11680   0.256E+00    0.184E+01
DAV:  21    -0.194538493497E+04    0.27343E+00   -0.35970E-01 11656   0.229E+00    0.173E+01
DAV:  22    -0.194502177343E+04    0.36316E+00   -0.27167E-01 11920   0.179E+00    0.112E+01
DAV:  23    -0.194474272946E+04    0.27904E+00   -0.23786E-01 12024   0.161E+00    0.583E+00
DAV:  24    -0.194473013689E+04    0.12593E-01   -0.10947E-01 12288   0.104E+00    0.583E+00
DAV:  25    -0.194472028637E+04    0.98505E-02   -0.64853E-02 11760   0.765E-01    0.598E+00
DAV:  26    -0.194471417991E+04    0.61065E-02   -0.40632E-02 11080   0.602E-01    0.524E+00
DAV:  27    -0.194469610005E+04    0.18080E-01   -0.33420E-02 11776   0.548E-01    0.386E+00
DAV:  28    -0.194469144450E+04    0.46556E-02   -0.29679E-02 11952   0.549E-01    0.363E+00
DAV:  29    -0.194471291523E+04   -0.21471E-01   -0.32571E-02 12408   0.539E-01    0.446E+00
DAV:  30    -0.194469782235E+04    0.15093E-01   -0.31755E-02 12304   0.643E-01    0.401E+00
DAV:  31    -0.194467439623E+04    0.23426E-01   -0.17585E-02 14904   0.408E-01    0.268E+00
DAV:  32    -0.194466311271E+04    0.11284E-01   -0.86317E-03 13584   0.294E-01    0.120E+00
DAV:  33    -0.194466493131E+04   -0.18186E-02   -0.28765E-03 12792   0.160E-01    0.152E+00
DAV:  34    -0.194466392140E+04    0.10099E-02   -0.17945E-03 11968   0.119E-01    0.140E+00
DAV:  35    -0.194466783343E+04   -0.39120E-02   -0.24768E-03 14352   0.155E-01    0.217E+00
DAV:  36    -0.194466649486E+04    0.13386E-02   -0.12244E-03 13728   0.125E-01    0.208E+00
DAV:  37    -0.194466145854E+04    0.50363E-02   -0.14364E-03 14312   0.124E-01    0.136E+00
DAV:  38    -0.194465972744E+04    0.17311E-02   -0.63414E-04 14080   0.775E-02    0.920E-01
DAV:  39    -0.194465916170E+04    0.56575E-03   -0.39850E-04 12480   0.594E-02    0.889E-01
DAV:  40    -0.194465943142E+04   -0.26973E-03   -0.25489E-04 13416   0.402E-02    0.101E+00
DAV:  41    -0.194465856993E+04    0.86149E-03   -0.11040E-04 11056   0.351E-02    0.768E-01
DAV:  42    -0.194465763397E+04    0.93596E-03   -0.17162E-04  9624   0.408E-02    0.307E-01
DAV:  43    -0.194465775490E+04   -0.12093E-03   -0.16284E-04 14936   0.277E-02    0.399E-01
DAV:  44    -0.194465748127E+04    0.27363E-03   -0.58762E-05  9848   0.283E-02    0.205E-01
DAV:  45    -0.194465738585E+04    0.95413E-04   -0.42746E-05  8264   0.227E-02    0.160E-01
DAV:  46    -0.194465730960E+04    0.76259E-04   -0.43307E-05 11728   0.161E-02    0.815E-02
DAV:  47    -0.194465723632E+04    0.73275E-04   -0.24019E-05  8504   0.236E-02    0.472E-02
DAV:  48    -0.194465722825E+04    0.80690E-05   -0.65462E-05 10320   0.128E-02    0.458E-02
DAV:  49    -0.194465722990E+04   -0.16494E-05   -0.22371E-05  8136   0.507E-03
  20 F= -.20764812E+04 E0= -.20757247E+04  d E =-.664744E+01
