         262
 Energy:  -999.62649210000006     
 X   0.00000000       0.00000000       0.00000000    
 X   0.00000000      -17.1805725       0.00000000    
 X   0.00000000      -8.59028625      -14.8788128    
 X   30.0000000       0.00000000       0.00000000    
 X   0.00000000      -25.7708588      -14.8788128    
 X   30.0000000      -17.1805725       0.00000000    
 X   30.0000000      -8.59028625      -14.8788128    
 X   30.0000000      -25.7708588      -14.8788128    
 Al   2.36204004      -11.4537201      -6.61281013    
 Al   2.36204004      -14.3171396      -11.5724096    
 Al   2.36204004      -8.59029007      -1.65320003    
 Al   2.36204004      -17.1805706      -6.61281013    
 Al   2.36204004      -20.0440006      -11.5724096    
 Al   2.36204004      -14.3171396      -1.65320003    
 Al   2.36204004      -5.72686005      -6.61281013    
 Al   2.36204004      -8.59029007      -11.5724096    
 Al   2.36204004      -2.86343002      -1.65320003    
 Al   4.71078014      -14.3171396      -8.26601028    
 Al   4.71078014      -17.1805706      -13.2256098    
 Al   4.71078014      -11.4537201      -3.30640006    
 Al   4.71078014      -20.0440006      -8.26601028    
 Al   4.71078014      -22.9074306      -13.2256098    
 Al   4.71078014      -17.1805706      -3.30640006    
 Al   4.71078014      -8.59029007      -8.26601028    
 Al   4.71078014      -11.4537201      -13.2256098    
 Al   4.71078014      -5.72686005      -3.30640006    
 Al   7.01272011      -17.1805706      -9.91921043    
 Al   7.01272011      -11.4537201       0.00000000    
 Al   7.01272011      -14.3171396      -4.95959997    
 Al   7.01272011      -5.72686005      -9.91921043    
 Al   7.01272011       0.00000000       0.00000000    
 Al   7.01272011      -2.86343002      -4.95959997    
 Al   7.01272011      -11.4537201      -9.91921043    
 Al   7.01272011      -5.72686005       0.00000000    
 Al   7.01272011      -8.59029007      -4.95959997    
 Al   9.35192013      -20.0440006      -11.5724096    
 Al   9.35192013      -14.3171396      -1.65320003    
 Al   9.35192013      -17.1805706      -6.61281013    
 Al   9.35192013      -8.59029007      -11.5724096    
 Al   9.35192013      -2.86343002      -1.65320003    
 Al   9.35192013      -5.72686005      -6.61281013    
 Al   9.35192013      -14.3171396      -11.5724096    
 Al   9.35192013      -8.59029007      -1.65320003    
 Al   9.35192013      -11.4537201      -6.61281013    
 Al   11.6911201      -22.9074306      -13.2256098    
 Al   11.6911201      -17.1805706      -3.30640006    
 Al   11.6911201      -20.0440006      -8.26601028    
 Al   11.6911201      -11.4537201      -13.2256098    
 Al   11.6911201      -5.72686005      -3.30640006    
 Al   11.6911201      -8.59029007      -8.26601028    
 Al   11.6911201      -17.1805706      -13.2256098    
 Al   11.6911201      -11.4537201      -3.30640006    
 Al   11.6911201      -14.3171396      -8.26601028    
 Al   13.9930601       0.00000000       0.00000000    
 Al   13.9930601      -2.86343002      -4.95959997    
 Al   13.9930601      -5.72686005      -9.91921043    
 Al   13.9930601      -5.72686005       0.00000000    
 Al   13.9930601      -8.59029007      -4.95959997    
 Al   13.9930601      -11.4537201      -9.91921043    
 Al   13.9930601      -11.4537201       0.00000000    
 Al   13.9930601      -14.3171396      -4.95959997    
 Al   13.9930601      -17.1805706      -9.91921043    
 Al   16.3418007      -2.86343002      -1.65320003    
 Al   16.3418007      -5.72686005      -6.61281013    
 Al   16.3418007      -8.59029007      -11.5724096    
 Al   16.3418007      -8.59029007      -1.65320003    
 Al   16.3418007      -11.4537201      -6.61281013    
 Al   16.3418007      -14.3171396      -11.5724096    
 Al   16.3418007      -14.3171396      -1.65320003    
 Al   16.3418007      -17.1805706      -6.61281013    
 Al   16.3418007      -20.0440006      -11.5724096    
 Al   2.36204004      -7.15856981      -4.13299990    
 Al   2.36204004      -10.0220003      -9.09261036    
 Al   2.36204004      -12.8854303      -14.0522099    
 Al   2.36204004      -12.8854303      -4.13299990    
 Al   2.36204004      -15.7488604      -9.09261036    
 Al   2.36204004      -18.6122894      -14.0522099    
 Al   2.36204004      -18.6122894      -4.13299990    
 Al   2.36204004      -21.4757195      -9.09261036    
 Al   2.36204004      -24.3391495      -14.0522099    
 Al   4.71078014      -10.0220003      -5.78621006    
 Al   4.71078014      -12.8854303      -10.7458096    
 Al   4.71078014      -7.15856981     -0.826600015    
 Al   4.71078014      -15.7488604      -5.78621006    
 Al   4.71078014      -18.6122894      -10.7458096    
 Al   4.71078014      -12.8854303     -0.826600015    
 Al   4.71078014      -4.29513979      -5.78621006    
 Al   4.71078014      -7.15856981      -10.7458096    
 Al   4.71078014      -1.43171000     -0.826600015    
 Al   7.01272011      -12.8854303      -7.43941021    
 Al   7.01272011      -15.7488604      -12.3990097    
 Al   7.01272011      -10.0220003      -2.47979999    
 Al   7.01272011      -18.6122894      -7.43941021    
 Al   7.01272011      -21.4757195      -12.3990097    
 Al   7.01272011      -15.7488604      -2.47979999    
 Al   7.01272011      -7.15856981      -7.43941021    
 Al   7.01272011      -10.0220003      -12.3990097    
 Al   7.01272011      -4.29513979      -2.47979999    
 Al   9.35192013      -15.7488604      -9.09261036    
 Al   9.35192013      -18.6122894      -14.0522099    
 Al   9.35192013      -12.8854303      -4.13299990    
 Al   9.35192013      -21.4757195      -9.09261036    
 Al   9.35192013      -24.3391495      -14.0522099    
 Al   9.35192013      -18.6122894      -4.13299990    
 Al   9.35192013      -10.0220003      -9.09261036    
 Al   9.35192013      -12.8854303      -14.0522099    
 Al   9.35192013      -7.15856981      -4.13299990    
 Al   11.6911201      -18.6122894      -10.7458096    
 Al   11.6911201      -12.8854303     -0.826600015    
 Al   11.6911201      -15.7488604      -5.78621006    
 Al   11.6911201      -7.15856981      -10.7458096    
 Al   11.6911201      -1.43171000     -0.826600015    
 Al   11.6911201      -4.29513979      -5.78621006    
 Al   11.6911201      -12.8854303      -10.7458096    
 Al   11.6911201      -7.15856981     -0.826600015    
 Al   11.6911201      -10.0220003      -5.78621006    
 Al   13.9930601      -21.4757195      -12.3990097    
 Al   13.9930601      -15.7488604      -2.47979999    
 Al   13.9930601      -18.6122894      -7.43941021    
 Al   13.9930601      -10.0220003      -12.3990097    
 Al   13.9930601      -4.29513979      -2.47979999    
 Al   13.9930601      -7.15856981      -7.43941021    
 Al   13.9930601      -15.7488604      -12.3990097    
 Al   13.9930601      -10.0220003      -2.47979999    
 Al   13.9930601      -12.8854303      -7.43941021    
 Al   16.3418007      -24.3391495      -14.0522099    
 Al   16.3418007      -18.6122894      -4.13299990    
 Al   16.3418007      -21.4757195      -9.09261036    
 Al   16.3418007      -12.8854303      -14.0522099    
 Al   16.3418007      -7.15856981      -4.13299990    
 Al   16.3418007      -10.0220003      -9.09261036    
 Al   16.3418007      -18.6122894      -14.0522099    
 Al   16.3418007      -12.8854303      -4.13299990    
 Al   16.3418007      -15.7488604      -9.09261036    
 Al   2.36204004      -8.59029007      -6.61281013    
 Al   2.36204004      -11.4537201      -11.5724096    
 Al   2.36204004      -5.72686005      -1.65320003    
 Al   2.36204004      -14.3171396      -6.61281013    
 Al   2.36204004      -17.1805706      -11.5724096    
 Al   2.36204004      -11.4537201      -1.65320003    
 Al   2.36204004      -20.0440006      -6.61281013    
 Al   2.36204004      -22.9074306      -11.5724096    
 Al   2.36204004      -17.1805706      -1.65320003    
 Al   4.71078014      -11.4537201      -8.26601028    
 Al   4.71078014      -14.3171396      -13.2256098    
 Al   4.71078014      -8.59029007      -3.30640006    
 Al   4.71078014      -17.1805706      -8.26601028    
 Al   4.71078014      -20.0440006      -13.2256098    
 Al   4.71078014      -14.3171396      -3.30640006    
 Al   4.71078014      -5.72686005      -8.26601028    
 Al   4.71078014      -8.59029007      -13.2256098    
 Al   4.71078014      -2.86343002      -3.30640006    
 Al   7.01272011      -14.3171396      -9.91921043    
 Al   7.01272011      -8.59029007       0.00000000    
 Al   7.01272011      -11.4537201      -4.95959997    
 Al   7.01272011      -20.0440006      -9.91921043    
 Al   7.01272011      -14.3171396       0.00000000    
 Al   7.01272011      -17.1805706      -4.95959997    
 Al   7.01272011      -8.59029007      -9.91921043    
 Al   7.01272011      -2.86343002       0.00000000    
 Al   7.01272011      -5.72686005      -4.95959997    
 Al   9.35192013      -17.1805706      -11.5724096    
 Al   9.35192013      -11.4537201      -1.65320003    
 Al   9.35192013      -14.3171396      -6.61281013    
 Al   9.35192013      -22.9074306      -11.5724096    
 Al   9.35192013      -17.1805706      -1.65320003    
 Al   9.35192013      -20.0440006      -6.61281013    
 Al   9.35192013      -11.4537201      -11.5724096    
 Al   9.35192013      -5.72686005      -1.65320003    
 Al   9.35192013      -8.59029007      -6.61281013    
 Al   11.6911201      -20.0440006      -13.2256098    
 Al   11.6911201      -14.3171396      -3.30640006    
 Al   11.6911201      -17.1805706      -8.26601028    
 Al   11.6911201      -8.59029007      -13.2256098    
 Al   11.6911201      -2.86343002      -3.30640006    
 Al   11.6911201      -5.72686005      -8.26601028    
 Al   11.6911201      -14.3171396      -13.2256098    
 Al   11.6911201      -8.59029007      -3.30640006    
 Al   11.6911201      -11.4537201      -8.26601028    
 Al   13.9930601      -14.3171396       0.00000000    
 Al   13.9930601      -17.1805706      -4.95959997    
 Al   13.9930601      -20.0440006      -9.91921043    
 Al   13.9930601      -2.86343002       0.00000000    
 Al   13.9930601      -5.72686005      -4.95959997    
 Al   13.9930601      -8.59029007      -9.91921043    
 Al   13.9930601      -8.59029007       0.00000000    
 Al   13.9930601      -11.4537201      -4.95959997    
 Al   13.9930601      -14.3171396      -9.91921043    
 Al   16.3418007      -17.1805706      -1.65320003    
 Al   16.3418007      -20.0440006      -6.61281013    
 Al   16.3418007      -22.9074306      -11.5724096    
 Al   16.3418007      -5.72686005      -1.65320003    
 Al   16.3418007      -8.59029007      -6.61281013    
 Al   16.3418007      -11.4537201      -11.5724096    
 Al   16.3418007      -11.4537201      -1.65320003    
 Al   16.3418007      -14.3171396      -6.61281013    
 Al   16.3418007      -17.1805706      -11.5724096    
 Al   2.36204004      -10.0220003      -4.13299990    
 Al   2.36204004      -12.8854303      -9.09261036    
 Al   2.36204004      -15.7488604      -14.0522099    
 Al   2.36204004      -15.7488604      -4.13299990    
 Al   2.36204004      -18.6122894      -9.09261036    
 Al   2.36204004      -21.4757195      -14.0522099    
 Al   2.36204004      -4.29513979      -4.13299990    
 Al   2.36204004      -7.15856981      -9.09261036    
 Al   2.36204004      -10.0220003      -14.0522099    
 Al   4.71078014      -12.8854303      -5.78621006    
 Al   4.71078014      -15.7488604      -10.7458096    
 Al   4.71078014      -10.0220003     -0.826600015    
 Al   4.71078014      -18.6122894      -5.78621006    
 Al   4.71078014      -21.4757195      -10.7458096    
 Al   4.71078014      -15.7488604     -0.826600015    
 Al   4.71078014      -7.15856981      -5.78621006    
 Al   4.71078014      -10.0220003      -10.7458096    
 Al   4.71078014      -4.29513979     -0.826600015    
 Al   7.01272011      -15.7488604      -7.43941021    
 Al   7.01272011      -18.6122894      -12.3990097    
 Al   7.01272011      -12.8854303      -2.47979999    
 Al   7.01272011      -21.4757099      -7.43941021    
 Al   7.01272011      -24.3391399      -12.3990097    
 Al   7.01272011      -18.6122799      -2.47979999    
 Al   7.01272011      -10.0220003      -7.43941021    
 Al   7.01272011      -12.8854303      -12.3990097    
 Al   7.01272011      -7.15856981      -2.47979999    
 Al   9.35192013      -18.6122894      -9.09261036    
 Al   9.35192013      -21.4757195      -14.0522099    
 Al   9.35192013      -15.7488604      -4.13299990    
 Al   9.35192013      -7.15856981      -9.09261036    
 Al   9.35192013      -10.0220003      -14.0522099    
 Al   9.35192013      -4.29513979      -4.13299990    
 Al   9.35192013      -12.8854303      -9.09261036    
 Al   9.35192013      -15.7488604      -14.0522099    
 Al   9.35192013      -10.0220003      -4.13299990    
 Al   11.6911201      -21.4757195      -10.7458096    
 Al   11.6911201      -15.7488604     -0.826600015    
 Al   11.6911201      -18.6122894      -5.78621006    
 Al   11.6911201      -10.0220003      -10.7458096    
 Al   11.6911201      -4.29513979     -0.826600015    
 Al   11.6911201      -7.15856981      -5.78621006    
 Al   11.6911201      -15.7488604      -10.7458096    
 Al   11.6911201      -10.0220003     -0.826600015    
 Al   11.6911201      -12.8854303      -5.78621006    
 Al   13.9930601      -24.3391399      -12.3990097    
 Al   13.9930601      -18.6122799      -2.47979999    
 Al   13.9930601      -21.4757099      -7.43941021    
 Al   13.9930601      -12.8854303      -12.3990097    
 Al   13.9930601      -7.15856981      -2.47979999    
 Al   13.9930601      -10.0220003      -7.43941021    
 Al   13.9930601      -18.6122894      -12.3990097    
 Al   13.9930601      -12.8854303      -2.47979999    
 Al   13.9930601      -15.7488604      -7.43941021    
 Al   16.3418007      -10.0220003      -14.0522099    
 Al   16.3418007      -4.29513979      -4.13299990    
 Al   16.3418007      -7.15856981      -9.09261036    
 Al   16.3418007      -15.7488604      -14.0522099    
 Al   16.3418007      -10.0220003      -4.13299990    
 Al   16.3418007      -12.8854303      -9.09261036    
 Al   16.3418007      -21.4757195      -14.0522099    
 Al   16.3418007      -15.7488604      -4.13299990    
 Al   16.3418007      -18.6122894      -9.09261036    
 O    22.0400009      -10.0220003      -7.15999985    
 O    22.0400009      -10.0220003      -6.06300020    
