 398 398   0   0
  0.1524478E+02  0.1441508E-08  0.1441508E-08  0.3371625E-08  0.2000000E-15
   1.0000000000000000E-004
  CAR 
 NiAl                                    
     11.11869598    -32.59638444  301      2.23566457      1.00000000
    -32.596  0.0000E+00  0.0000E+00
    -32.451  0.0000E+00  0.0000E+00
    -32.305  0.0000E+00  0.0000E+00
    -32.159  0.0000E+00  0.0000E+00
    -32.014  0.0000E+00  0.0000E+00
    -31.868  0.0000E+00  0.0000E+00
    -31.722  0.0000E+00  0.0000E+00
    -31.576  0.0000E+00  0.0000E+00
    -31.431  0.0000E+00  0.0000E+00
    -31.285  0.0000E+00  0.0000E+00
    -31.139  0.0000E+00  0.0000E+00
    -30.993  0.0000E+00  0.0000E+00
    -30.848  0.9334E-12  0.1360E-12
    -30.702  0.8476E-03  0.1235E-03
    -30.556  0.3078E+00  0.4497E-01
    -30.411  0.3451E-01  0.5000E-01
    -30.265  0.1287E-07  0.5000E-01
    -30.119  0.5208E-06  0.5000E-01
    -29.973  0.8055E-01  0.6174E-01
    -29.828  0.3223E+00  0.1087E+00
    -29.682  0.3259E+00  0.1562E+00
    -29.536  0.7123E-01  0.1666E+00
    -29.391  0.2518E+00  0.2033E+00
    -29.245  0.1662E+00  0.2275E+00
    -29.099  0.4839E+00  0.2980E+00
    -28.953  0.1544E+00  0.3205E+00
    -28.808  0.3729E+00  0.3748E+00
    -28.662  0.2154E-01  0.3780E+00
    -28.516  0.1790E+00  0.4041E+00
    -28.371  0.4568E+00  0.4706E+00
    -28.225  0.5554E+00  0.5516E+00
    -28.079  0.2004E+00  0.5808E+00
    -27.933  0.2176E+00  0.6125E+00
    -27.788  0.1659E+00  0.6366E+00
    -27.642  0.9253E-01  0.6501E+00
    -27.496  0.3669E+00  0.7036E+00
    -27.351  0.3711E+00  0.7577E+00
    -27.205  0.5178E+00  0.8331E+00
    -27.059  0.2876E+00  0.8750E+00
    -26.913  0.3261E+00  0.9226E+00
    -26.768  0.4013E+00  0.9810E+00
    -26.622  0.3577E+00  0.1033E+01
    -26.476  0.4690E+00  0.1101E+01
    -26.331  0.5179E+00  0.1177E+01
    -26.185  0.2788E+00  0.1218E+01
    -26.039  0.9111E+00  0.1350E+01
    -25.893  0.3241E+00  0.1398E+01
    -25.748  0.6180E+00  0.1488E+01
    -25.602  0.2062E+00  0.1518E+01
    -25.456  0.5956E+00  0.1604E+01
    -25.311  0.3743E+00  0.1659E+01
    -25.165  0.1577E+00  0.1682E+01
    -25.019  0.6584E+00  0.1778E+01
    -24.873  0.6642E+00  0.1875E+01
    -24.728  0.8389E+00  0.1997E+01
    -24.582  0.5003E+00  0.2070E+01
    -24.436  0.8281E-01  0.2082E+01
    -24.291  0.3469E+00  0.2132E+01
    -24.145  0.4991E+00  0.2205E+01
    -23.999  0.3058E+00  0.2250E+01
    -23.853  0.6440E-01  0.2259E+01
    -23.708  0.9872E-01  0.2274E+01
    -23.562  0.4615E+00  0.2341E+01
    -23.416  0.8931E+00  0.2471E+01
    -23.271  0.2913E+00  0.2513E+01
    -23.125  0.8189E+00  0.2633E+01
    -22.979  0.3552E+00  0.2684E+01
    -22.833  0.4498E+00  0.2750E+01
    -22.688  0.1666E-03  0.2750E+01
    -22.542  0.7249E-03  0.2750E+01
    -22.396  0.5499E+00  0.2830E+01
    -22.250  0.4118E+00  0.2890E+01
    -22.105  0.6692E-01  0.2900E+01
    -21.959  0.2328E-06  0.2900E+01
    -21.813  0.2723E-08  0.2900E+01
    -21.668  0.3369E-01  0.2905E+01
    -21.522  0.6616E+00  0.3001E+01
    -21.376  0.3311E+00  0.3050E+01
    -21.230  0.3068E-02  0.3050E+01
    -21.085  0.1500E-10  0.3050E+01
    -20.939  0.0000E+00  0.3050E+01
    -20.793  0.1491E-12  0.3050E+01
    -20.648  0.1963E-03  0.3050E+01
    -20.502  0.1175E+00  0.3067E+01
    -20.356  0.4038E+00  0.3126E+01
    -20.210  0.1424E+00  0.3147E+01
    -20.065  0.6861E+00  0.3247E+01
    -19.919  0.6269E+00  0.3338E+01
    -19.773  0.5081E+00  0.3412E+01
    -19.628  0.1361E+01  0.3610E+01
    -19.482  0.1139E+01  0.3776E+01
    -19.336  0.1119E+01  0.3939E+01
    -19.190  0.1970E+01  0.4226E+01
    -19.045  0.2195E+01  0.4546E+01
    -18.899  0.7253E+00  0.4652E+01
    -18.753  0.1282E+01  0.4839E+01
    -18.608  0.1877E+01  0.5113E+01
    -18.462  0.2323E+01  0.5451E+01
    -18.316  0.2974E+01  0.5884E+01
    -18.170  0.4090E+01  0.6481E+01
    -18.025  0.4066E+01  0.7073E+01
    -17.879  0.4156E+01  0.7679E+01
    -17.733  0.5454E+01  0.8473E+01
    -17.588  0.5040E+01  0.9208E+01
    -17.442  0.2657E+01  0.9595E+01
    -17.296  0.2250E+01  0.9923E+01
    -17.150  0.3564E+01  0.1044E+02
    -17.005  0.5155E+01  0.1119E+02
    -16.859  0.2647E+01  0.1158E+02
    -16.713  0.1091E+01  0.1174E+02
    -16.568  0.8269E+00  0.1186E+02
    -16.422  0.1008E+01  0.1201E+02
    -16.276  0.1847E+00  0.1203E+02
    -16.130  0.3053E+00  0.1208E+02
    -15.985  0.3509E+00  0.1213E+02
    -15.839  0.7056E+00  0.1223E+02
    -15.693  0.3897E+00  0.1229E+02
    -15.548  0.2964E-01  0.1229E+02
    -15.402  0.3803E+00  0.1235E+02
    -15.256  0.5981E+00  0.1243E+02
    -15.110  0.5132E+00  0.1251E+02
    -14.965  0.4726E+00  0.1258E+02
    -14.819  0.1065E+00  0.1259E+02
    -14.673  0.5226E+00  0.1267E+02
    -14.527  0.5491E+00  0.1275E+02
    -14.382  0.1980E+00  0.1278E+02
    -14.236  0.1484E+00  0.1280E+02
    -14.090  0.8637E-01  0.1281E+02
    -13.945  0.3520E+00  0.1286E+02
    -13.799  0.5498E+00  0.1294E+02
    -13.653  0.4948E+00  0.1302E+02
    -13.507  0.6386E+00  0.1311E+02
    -13.362  0.4088E+00  0.1317E+02
    -13.216  0.3124E+00  0.1321E+02
    -13.070  0.4753E+00  0.1328E+02
    -12.925  0.6473E+00  0.1338E+02
    -12.779  0.1519E+01  0.1360E+02
    -12.633  0.7956E+00  0.1372E+02
    -12.487  0.7898E+00  0.1383E+02
    -12.342  0.8597E+00  0.1396E+02
    -12.196  0.6026E+00  0.1404E+02
    -12.050  0.8132E+00  0.1416E+02
    -11.905  0.8421E+00  0.1428E+02
    -11.759  0.2332E+00  0.1432E+02
    -11.613  0.7273E+00  0.1442E+02
    -11.467  0.8702E+00  0.1455E+02
    -11.322  0.7630E+00  0.1466E+02
    -11.176  0.4069E+00  0.1472E+02
    -11.030  0.1431E+01  0.1493E+02
    -10.885  0.1151E+01  0.1510E+02
    -10.739  0.6721E+00  0.1520E+02
    -10.593  0.2914E+00  0.1524E+02
    -10.447  0.3714E+00  0.1529E+02
    -10.302  0.8834E+00  0.1542E+02
    -10.156  0.8137E+00  0.1554E+02
    -10.010  0.6985E+00  0.1564E+02
     -9.865  0.5681E+00  0.1572E+02
     -9.719  0.9483E+00  0.1586E+02
     -9.573  0.1195E+01  0.1604E+02
     -9.427  0.7620E+00  0.1615E+02
     -9.282  0.9875E+00  0.1629E+02
     -9.136  0.8934E+00  0.1642E+02
     -8.990  0.8260E+00  0.1654E+02
     -8.845  0.4990E+00  0.1661E+02
     -8.699  0.1383E+01  0.1682E+02
     -8.553  0.1096E+01  0.1698E+02
     -8.407  0.7672E+00  0.1709E+02
     -8.262  0.4605E+00  0.1715E+02
     -8.116  0.6455E+00  0.1725E+02
     -7.970  0.3551E+00  0.1730E+02
     -7.825  0.3720E+00  0.1735E+02
     -7.679  0.1188E+01  0.1753E+02
     -7.533  0.2197E+01  0.1785E+02
     -7.387  0.3161E+01  0.1831E+02
     -7.242  0.1476E+01  0.1852E+02
     -7.096  0.2606E+01  0.1890E+02
     -6.950  0.2990E+01  0.1934E+02
     -6.804  0.2299E+01  0.1967E+02
     -6.659  0.3251E+01  0.2015E+02
     -6.513  0.3022E+01  0.2059E+02
     -6.367  0.3026E+01  0.2103E+02
     -6.222  0.2320E+01  0.2137E+02
     -6.076  0.2881E+01  0.2179E+02
     -5.930  0.3182E+01  0.2225E+02
     -5.784  0.3636E+01  0.2278E+02
     -5.639  0.3887E+01  0.2335E+02
     -5.493  0.4196E+01  0.2396E+02
     -5.347  0.4141E+01  0.2456E+02
     -5.202  0.4408E+01  0.2520E+02
     -5.056  0.4688E+01  0.2589E+02
     -4.910  0.4598E+01  0.2656E+02
     -4.764  0.5016E+01  0.2729E+02
     -4.619  0.2892E+01  0.2771E+02
     -4.473  0.3304E+01  0.2819E+02
     -4.327  0.4578E+01  0.2886E+02
     -4.182  0.4111E+01  0.2946E+02
     -4.036  0.2785E+01  0.2986E+02
     -3.890  0.4304E+01  0.3049E+02
     -3.744  0.5576E+01  0.3130E+02
     -3.599  0.5293E+01  0.3207E+02
     -3.453  0.4699E+01  0.3276E+02
     -3.307  0.5301E+01  0.3353E+02
     -3.162  0.4612E+01  0.3420E+02
     -3.016  0.4705E+01  0.3489E+02
     -2.870  0.5126E+01  0.3564E+02
     -2.724  0.5819E+01  0.3648E+02
     -2.579  0.6277E+01  0.3740E+02
     -2.433  0.6325E+01  0.3832E+02
     -2.287  0.6659E+01  0.3929E+02
     -2.142  0.6776E+01  0.4028E+02
     -1.996  0.6985E+01  0.4129E+02
     -1.850  0.5436E+01  0.4209E+02
     -1.704  0.5304E+01  0.4286E+02
     -1.559  0.7334E+01  0.4393E+02
     -1.413  0.5780E+01  0.4477E+02
     -1.267  0.4007E+01  0.4535E+02
     -1.122  0.4722E+01  0.4604E+02
     -0.976  0.4901E+01  0.4676E+02
     -0.830  0.5426E+01  0.4755E+02
     -0.684  0.2889E+01  0.4797E+02
     -0.539  0.1850E+01  0.4824E+02
     -0.393  0.1615E+01  0.4847E+02
     -0.247  0.1700E+01  0.4872E+02
     -0.102  0.1277E+01  0.4891E+02
      0.044  0.1050E+01  0.4906E+02
      0.190  0.1472E+01  0.4927E+02
      0.336  0.8948E+00  0.4941E+02
      0.481  0.1202E+01  0.4958E+02
      0.627  0.1278E+01  0.4977E+02
      0.773  0.1060E+01  0.4992E+02
      0.919  0.8455E+00  0.5004E+02
      1.064  0.9210E+00  0.5018E+02
      1.210  0.9268E+00  0.5031E+02
      1.356  0.5521E+00  0.5039E+02
      1.501  0.1017E+01  0.5054E+02
      1.647  0.9996E+00  0.5069E+02
      1.793  0.7802E+00  0.5080E+02
      1.939  0.1597E+01  0.5103E+02
      2.084  0.1420E+01  0.5124E+02
      2.230  0.2341E+01  0.5158E+02
      2.376  0.2169E+01  0.5190E+02
      2.521  0.1348E+01  0.5209E+02
      2.667  0.9460E+00  0.5223E+02
      2.813  0.5858E+00  0.5232E+02
      2.959  0.5327E+00  0.5240E+02
      3.104  0.6101E+00  0.5248E+02
      3.250  0.4306E+00  0.5255E+02
      3.396  0.8606E+00  0.5267E+02
      3.541  0.6386E+00  0.5277E+02
      3.687  0.7358E+00  0.5287E+02
      3.833  0.6109E+00  0.5296E+02
      3.979  0.6182E+00  0.5305E+02
      4.124  0.7764E+00  0.5317E+02
      4.270  0.7632E+00  0.5328E+02
      4.416  0.1627E+01  0.5351E+02
      4.561  0.9061E+00  0.5365E+02
      4.707  0.8010E+00  0.5376E+02
      4.853  0.1392E+01  0.5397E+02
      4.999  0.1294E+01  0.5415E+02
      5.144  0.1726E+01  0.5441E+02
      5.290  0.7999E+00  0.5452E+02
      5.436  0.9953E+00  0.5467E+02
      5.581  0.1342E+01  0.5486E+02
      5.727  0.8150E+00  0.5498E+02
      5.873  0.1055E+01  0.5513E+02
      6.019  0.1197E+01  0.5531E+02
      6.164  0.1437E+01  0.5552E+02
      6.310  0.1022E+01  0.5567E+02
      6.456  0.7324E+00  0.5577E+02
      6.601  0.1518E+01  0.5600E+02
      6.747  0.2388E+01  0.5634E+02
      6.893  0.2458E+01  0.5670E+02
      7.039  0.1683E+01  0.5695E+02
      7.184  0.1166E+01  0.5712E+02
      7.330  0.1282E+01  0.5730E+02
      7.476  0.1252E+01  0.5749E+02
      7.621  0.2122E+01  0.5780E+02
      7.767  0.1611E+01  0.5803E+02
      7.913  0.2155E+01  0.5834E+02
      8.059  0.2244E+01  0.5867E+02
      8.204  0.1947E+01  0.5896E+02
      8.350  0.2954E+01  0.5939E+02
      8.496  0.3139E+01  0.5984E+02
      8.642  0.3306E+01  0.6032E+02
      8.787  0.2789E+01  0.6073E+02
      8.933  0.4058E+01  0.6132E+02
      9.079  0.3245E+01  0.6180E+02
      9.224  0.7182E+00  0.6190E+02
      9.370  0.7439E-03  0.6190E+02
      9.516  0.1165E-11  0.6190E+02
      9.662  0.0000E+00  0.6190E+02
      9.807  0.0000E+00  0.6190E+02
      9.953  0.0000E+00  0.6190E+02
     10.099  0.0000E+00  0.6190E+02
     10.244  0.0000E+00  0.6190E+02
     10.390  0.0000E+00  0.6190E+02
     10.536  0.0000E+00  0.6190E+02
     10.682  0.0000E+00  0.6190E+02
     10.827  0.0000E+00  0.6190E+02
     10.973  0.0000E+00  0.6190E+02
     11.119  0.0000E+00  0.6190E+02
