  526  526   40    1
  0.1235611E+02  0.1441508E-08  0.1441508E-08  0.3611625E-08  0.2000000E-15
   1.0000000000000000E-004
  CAR 
 NiAl                                    
   2832      2   1699
 
  0.1262379E-14  0.1262379E-14  0.1262379E-14  0.2500000E+00
    1      -31.503127   1.000000
    2      -30.906460   1.000000
    3      -30.906457   1.000000
    4      -30.893435   1.000000
    5      -30.762027   1.000000
    6      -30.762026   1.000000
    7      -30.691709   1.000000
    8      -29.666172   1.000000
    9      -29.666168   1.000000
   10      -29.658081   1.000000
   11      -29.535702   1.000000
   12      -29.339997   1.000000
   13      -29.339994   1.000000
   14      -28.999080   1.000000
   15      -28.999078   1.000000
   16      -28.973795   1.000000
   17      -28.955789   1.000000
   18      -28.686555   1.000000
   19      -28.686552   1.000000
   20      -27.497501   1.000000
   21      -27.497498   1.000000
   22      -27.479538   1.000000
   23      -27.245190   1.000000
   24      -27.245186   1.000000
   25      -27.177676   1.000000
   26      -27.087521   1.000000
   27      -27.087517   1.000000
   28      -27.047619   1.000000
   29      -26.963358   1.000000
   30      -26.947056   1.000000
   31      -26.947051   1.000000
   32      -26.376762   1.000000
   33      -26.354062   1.000000
   34      -26.354055   1.000000
   35      -26.282926   1.000000
   36      -26.282923   1.000000
   37      -26.265735   1.000000
   38      -26.165858   1.000000
   39      -26.083897   1.000000
   40      -26.083876   1.000000
   41      -25.926493   1.000000
   42      -25.918894   1.000000
   43      -25.918888   1.000000
   44      -25.772973   1.000000
   45      -25.626561   1.000000
   46      -25.626555   1.000000
   47      -25.375423   1.000000
   48      -25.375419   1.000000
   49      -25.253312   1.000000
   50      -25.253299   1.000000
   51      -25.233510   1.000000
   52      -25.207452   1.000000
   53      -25.192818   1.000000
   54      -25.034991   1.000000
   55      -25.011723   1.000000
   56      -25.011721   1.000000
   57      -24.986033   1.000000
   58      -24.986020   1.000000
   59      -24.914146   1.000000
   60      -24.893999   1.000000
   61      -24.893991   1.000000
   62      -24.857860   1.000000
   63      -24.787521   1.000000
   64      -24.787510   1.000000
   65      -24.752360   1.000000
   66      -24.708519   1.000000
   67      -24.708515   1.000000
   68      -24.694702   1.000000
   69      -24.694690   1.000000
   70      -24.664893   1.000000
   71      -24.651229   1.000000
   72      -24.640555   1.000000
   73      -24.640541   1.000000
   74      -24.623224   1.000000
   75      -24.620573   1.000000
   76      -24.583472   1.000000
   77      -24.583470   1.000000
   78      -24.519929   1.000000
   79      -24.477653   1.000000
   80      -24.477638   1.000000
   81      -24.475793   1.000000
   82      -24.387901   1.000000
   83      -24.374081   1.000000
   84      -24.374078   1.000000
   85      -24.341958   1.000000
   86      -24.341907   1.000000
   87      -24.217452   1.000000
   88      -24.166338   1.000000
   89      -24.166313   1.000000
   90      -24.133773   1.000000
   91      -24.086842   1.000000
   92      -23.977197   1.000000
   93      -23.977185   1.000000
   94      -23.703193   1.000000
   95      -23.703183   1.000000
   96      -23.587857   1.000000
   97      -23.526190   1.000000
   98      -23.526164   1.000000
   99      -23.515624   1.000000
  100      -23.492474   1.000000
  101      -23.414933   1.000000
  102      -23.414929   1.000000
  103      -23.181725   1.000000
  104      -23.181706   1.000000
  105      -22.624019   1.000000
  106      -22.623998   1.000000
  107      -22.619322   1.000000
  108      -21.541406   1.000000
  109      -21.164198   1.000000
  110      -21.164178   1.000000
  111      -21.092385   1.000000
  112      -20.196561   1.000000
  113      -20.117123   1.000000
  114      -20.117116   1.000000
  115      -20.057394   1.000000
  116      -19.974267   1.000000
  117      -19.974258   1.000000
  118      -19.741352   1.000000
  119      -19.676918   1.000000
  120      -19.620784   1.000000
  121      -19.620776   1.000000
  122      -19.428949   1.000000
  123      -19.428942   1.000000
  124      -19.402873   1.000000
  125      -19.342464   1.000000
  126      -19.342462   1.000000
  127      -19.245450   1.000000
  128      -19.141503   1.000000
  129      -19.141498   1.000000
  130      -19.084058   1.000000
  131      -19.041364   1.000000
  132      -19.041360   1.000000
  133      -18.912073   1.000000
  134      -18.629258   1.000000
  135      -18.607729   1.000000
  136      -18.607721   1.000000
  137      -18.480839   1.000000
  138      -18.480830   1.000000
  139      -18.106388   1.000000
  140      -18.061470   1.000000
  141      -17.922637   1.000000
  142      -17.922634   1.000000
  143      -17.882373   1.000000
  144      -17.852591   1.000000
  145      -17.762746   1.000000
  146      -17.697957   1.000000
  147      -17.697948   1.000000
  148      -17.586654   1.000000
  149      -17.586631   1.000000
  150      -17.498335   1.000000
  151      -17.498325   1.000000
  152      -17.474914   1.000000
  153      -17.421450   1.000000
  154      -17.390717   1.000000
  155      -17.390713   1.000000
  156      -17.336571   1.000000
  157      -17.336566   1.000000
  158      -17.283112   1.000000
  159      -17.240191   1.000000
  160      -17.163139   1.000000
  161      -17.109772   1.000000
  162      -17.109768   1.000000
  163      -17.072067   1.000000
  164      -17.072062   1.000000
  165      -17.050679   1.000000
  166      -17.019761   1.000000
  167      -16.986242   1.000000
  168      -16.986232   1.000000
  169      -16.924086   1.000000
  170      -16.763828   1.000000
  171      -16.763810   1.000000
  172      -16.751648   1.000000
  173      -16.727155   1.000000
  174      -16.727143   1.000000
  175      -16.705699   1.000000
  176      -16.705696   1.000000
  177      -16.663149   1.000000
  178      -16.657236   1.000000
  179      -16.657229   1.000000
  180      -16.630474   1.000000
  181      -16.630461   1.000000
  182      -16.609641   1.000000
  183      -16.601349   1.000000
  184      -16.599381   1.000000
  185      -16.599376   1.000000
  186      -16.575130   1.000000
  187      -16.575121   1.000000
  188      -16.573404   1.000000
  189      -16.491320   1.000000
  190      -16.463670   1.000000
  191      -16.463644   1.000000
  192      -16.427998   1.000000
  193      -16.371725   1.000000
  194      -16.371697   1.000000
  195      -16.324549   1.000000
  196      -16.290839   1.000000
  197      -16.290830   1.000000
  198      -16.251002   1.000000
  199      -16.241718   1.000000
  200      -16.241708   1.000000
  201      -16.211389   1.000000
  202      -16.188962   1.000000
  203      -16.153766   1.000000
  204      -16.153756   1.000000
  205      -16.105721   1.000000
  206      -16.092895   1.000000
  207      -16.066064   1.000000
  208      -16.066048   1.000000
  209      -15.988844   1.000000
  210      -15.976215   1.000000
  211      -15.976206   1.000000
  212      -15.954691   1.000000
  213      -15.954686   1.000000
  214      -15.946801   1.000000
  215      -15.894510   1.000000
  216      -15.871475   1.000000
  217      -15.871462   1.000000
  218      -15.855807   1.000000
  219      -15.825864   1.000000
  220      -15.825856   1.000000
  221      -15.812323   1.000000
  222      -15.793593   1.000000
  223      -15.793583   1.000000
  224      -15.763242   1.000000
  225      -15.728778   1.000000
  226      -15.725683   1.000000
  227      -15.725679   1.000000
  228      -15.711919   1.000000
  229      -15.711916   1.000000
  230      -15.701163   1.000000
  231      -15.691232   1.000000
  232      -15.691229   1.000000
  233      -15.681785   1.000000
  234      -15.652317   1.000000
  235      -15.652295   1.000000
  236      -15.640487   1.000000
  237      -15.623134   1.000000
  238      -15.614165   1.000000
  239      -15.596826   1.000000
  240      -15.596819   1.000000
  241      -15.588703   1.000000
  242      -15.561295   1.000000
  243      -15.561282   1.000000
  244      -15.546916   1.000000
  245      -15.540835   1.000000
  246      -15.540827   1.000000
  247      -15.520980   1.000000
  248      -15.520971   1.000000
  249      -15.513571   1.000000
  250      -15.505074   1.000000
  251      -15.505061   1.000000
  252      -15.498236   1.000000
  253      -15.478144   1.000000
  254      -15.478135   1.000000
  255      -15.474487   1.000000
  256      -15.462374   1.000000
  257      -15.462354   1.000000
  258      -15.448770   1.000000
  259      -15.443537   1.000000
  260      -15.443534   1.000000
  261      -15.407383   1.000000
  262      -15.394895   1.000000
  263      -15.394890   1.000000
  264      -15.384126   1.000000
  265      -15.384122   1.000000
  266      -15.376115   1.000000
  267      -15.367622   1.000000
  268      -15.367616   1.000000
  269      -15.366663   1.000000
  270      -15.356226   1.000000
  271      -15.338853   1.000000
  272      -15.338843   1.000000
  273      -15.326219   1.000000
  274      -15.311905   1.000000
  275      -15.301054   1.000000
  276      -15.301044   1.000000
  277      -15.289296   1.000000
  278      -15.289281   1.000000
  279      -15.268404   1.000000
  280      -15.268401   1.000000
  281      -15.249543   1.000000
  282      -15.237606   1.000000
  283      -15.237597   1.000000
  284      -15.237398   1.000000
  285      -15.212264   1.000000
  286      -15.212257   1.000000
  287      -15.212243   1.000000
  288      -15.206508   1.000000
  289      -15.205397   1.000000
  290      -15.205388   1.000000
  291      -15.185370   1.000000
  292      -15.185364   1.000000
  293      -15.162672   1.000000
  294      -15.154342   1.000000
  295      -15.154331   1.000000
  296      -15.144853   1.000000
  297      -15.141232   1.000000
  298      -15.141221   1.000000
  299      -15.111607   1.000000
  300      -15.103249   1.000000
  301      -15.103229   1.000000
  302      -15.093205   1.000000
  303      -15.078522   1.000000
  304      -15.078505   1.000000
  305      -15.071698   1.000000
  306      -15.071685   1.000000
  307      -15.068252   1.000000
  308      -15.037936   1.000000
  309      -15.037923   1.000000
  310      -15.016697   1.000000
  311      -15.016691   1.000000
  312      -15.005845   1.000000
  313      -15.005836   1.000000
  314      -15.005507   1.000000
  315      -14.993344   1.000000
  316      -14.993340   1.000000
  317      -14.973106   1.000000
  318      -14.968982   1.000000
  319      -14.965954   1.000000
  320      -14.965947   1.000000
  321      -14.939350   1.000000
  322      -14.933904   1.000000
  323      -14.933892   1.000000
  324      -14.931144   1.000000
  325      -14.921390   1.000000
  326      -14.921377   1.000000
  327      -14.908801   1.000000
  328      -14.908784   1.000000
  329      -14.889557   1.000000
  330      -14.878599   1.000000
  331      -14.878586   1.000000
  332      -14.875534   1.000000
  333      -14.869494   1.000000
  334      -14.869484   1.000000
  335      -14.854598   1.000000
  336      -14.841813   1.000000
  337      -14.838517   1.000000
  338      -14.838507   1.000000
  339      -14.824398   1.000000
  340      -14.824377   1.000000
  341      -14.820827   1.000000
  342      -14.792142   1.000000
  343      -14.792118   1.000000
  344      -14.767771   1.000000
  345      -14.767762   1.000000
  346      -14.740356   1.000000
  347      -14.740332   1.000000
  348      -14.645016   1.000000
  349      -14.543225   1.000000
  350      -14.543216   1.000000
  351      -14.434101   1.000000
  352      -14.434090   1.000000
  353      -14.351769   1.000000
  354      -14.316407   1.000000
  355      -14.236545   1.000000
  356      -14.229704   1.000000
  357      -14.229689   1.000000
  358      -14.113994   1.000000
  359      -14.059497   1.000000
  360      -14.008318   1.000000
  361      -14.008311   1.000000
  362      -13.966999   1.000000
  363      -13.920056   1.000000
  364      -13.920030   1.000000
  365      -13.825372   1.000000
  366      -13.823174   1.000000
  367      -13.823129   1.000000
  368      -13.765779   1.000000
  369      -13.765764   1.000000
  370      -13.666736   1.000000
  371      -13.561845   1.000000
  372      -13.437630   1.000000
  373      -13.437624   1.000000
  374      -13.348395   1.000000
  375      -13.348392   1.000000
  376      -13.304321   1.000000
  377      -13.153577   1.000000
  378      -13.153568   1.000000
  379      -13.139712   1.000000
  380      -13.073970   1.000000
  381      -13.073966   1.000000
  382      -12.940695   1.000000
  383      -12.891499   1.000000
  384      -12.891488   1.000000
  385      -12.855071   1.000000
  386      -12.806864   1.000000
  387      -12.806853   1.000000
  388      -12.739764   1.000000
  389      -12.708400   1.000000
  390      -12.703920   1.000000
  391      -12.703900   1.000000
  392      -12.652296   1.000000
  393      -12.648895   1.000000
  394      -12.648877   1.000000
  395      -12.616379   1.000000
  396      -12.616341   1.000000
  397      -12.552987   1.000000
  398      -12.531451   1.000000
  399      -12.531415   1.000000
  400      -12.504356   1.000000
  401      -12.454776   1.000000
  402      -12.454755   1.000000
  403      -12.441346   1.000000
  404      -12.372360   1.000000
  405      -12.372351   1.000000
  406      -12.275058   1.000000
  407      -12.267883   1.000000
  408      -12.267874   1.000000
  409      -12.238740   1.000000
  410      -12.196703   1.000000
  411      -12.196672   1.000000
  412      -12.148862   1.000000
  413      -12.148843   1.000000
  414      -12.136198   1.000000
  415      -12.100200   1.000000
  416      -12.066416   1.000000
  417      -12.026958   1.000000
  418      -12.026950   1.000000
  419      -11.999890   1.000000
  420      -11.964358   1.000000
  421      -11.930357   1.000000
  422      -11.930355   1.000000
  423      -11.859068   1.000000
  424      -11.859058   1.000000
  425      -11.820381   1.000000
  426      -11.733681   1.000000
  427      -11.733669   1.000000
  428      -11.645602   1.000000
  429      -11.645565   1.000000
  430      -11.591669   1.000000
  431      -11.473579   1.000000
  432      -11.473527   1.000000
  433      -11.469969   1.000000
  434      -11.397344   1.000000
  435      -11.386357   1.000000
  436      -11.386280   1.000000
  437      -11.088272   1.000000
  438      -11.085424   1.000000
  439      -11.085409   1.000000
  440      -11.037122   1.000000
  441      -10.934213   1.000000
  442      -10.914277   1.000000
  443      -10.914270   1.000000
  444      -10.675645   1.000000
  445      -10.675559   1.000000
  446      -10.647967   1.000000
  447      -10.473661   1.000000
  448      -10.454350   1.000000
  449      -10.454304   1.000000
  450      -10.403001   1.000000
  451      -10.390543   1.000000
  452      -10.390515   1.000000
  453      -10.223270   1.000000
  454      -10.223263   1.000000
  455      -10.154119   1.000000
  456      -10.154117   1.000000
  457      -10.144007   1.000000
  458      -10.018243   1.000000
  459       -9.967507   1.000000
  460       -9.967484   1.000000
  461       -9.872952   1.000000
  462       -9.849039   1.000000
  463       -9.849005   1.000000
  464       -9.820275   1.000000
  465       -9.773168   1.000000
  466       -9.670824   1.000000
  467       -9.633372   1.000000
  468       -9.633306   1.000000
  469       -9.561484   1.000000
  470       -9.544205   1.000000
  471       -9.544173   1.000000
  472       -9.531016   1.000000
  473       -9.530954   1.000000
  474       -9.514759   1.000000
  475       -9.433061   1.000000
  476       -9.433050   1.000000
  477       -9.406396   1.000000
  478       -9.398078   1.000000
  479       -9.398051   1.000000
  480       -9.380849   1.000000
  481       -9.308301   1.000000
  482       -9.308276   1.000000
  483       -8.989362   1.000000
  484       -8.926167   1.000000
  485       -8.926115   1.000000
  486       -8.824630   1.000000
  487       -8.704852   1.000000
  488       -8.704806   1.000000
  489       -8.606439   1.000000
  490       -8.579799   1.000000
  491       -8.579785   1.000000
  492       -8.434697   1.000000
  493       -8.374313   1.000000
  494       -8.374248   1.000000
  495       -8.143338   1.000000
  496       -8.136447   1.000000
  497       -8.136348   1.000000
  498       -8.091496   1.000000
  499       -8.050178   1.000000
  500       -8.050114   1.000000
  501       -8.008544   1.000000
  502       -7.923146   1.000000
  503       -7.911289   1.000000
  504       -7.911193   1.000000
  505       -7.869202   1.000000
  506       -7.869162   1.000000
  507       -7.860654   1.000000
  508       -7.774143   1.000000
  509       -7.713073   1.000000
  510       -7.713036   1.000000
  511       -7.681409   1.000000
  512       -7.670160   1.000000
  513       -7.670124   1.000000
  514       -7.600459   1.000000
  515       -7.580250   1.000000
  516       -7.580208   1.000000
  517       -7.537735   1.000000
  518       -7.522483   1.000000
  519       -7.522447   1.000000
  520       -7.415624   1.000000
  521       -7.377778   1.000000
  522       -7.377738   1.000000
  523       -7.348561   1.000000
  524       -7.348490   1.000000
  525       -7.301969   1.000000
  526       -7.283947   1.000000
  527       -7.283895   1.000000
  528       -7.249228   1.000000
  529       -7.207298   1.000000
  530       -7.207293   1.000000
  531       -7.189461   1.000000
  532       -7.102086   1.000000
  533       -7.077849   1.000000
  534       -7.077813   1.000000
  535       -7.050815   1.000000
  536       -7.018838   1.000000
  537       -7.018785   1.000000
  538       -6.967501   1.000000
  539       -6.875233   1.000000
  540       -6.875213   1.000000
  541       -6.812366   1.000000
  542       -6.768138   1.000000
  543       -6.768118   1.000000
  544       -6.681511   1.000000
  545       -6.681481   1.000000
  546       -6.628680   1.000000
  547       -6.540112   1.000000
  548       -6.501581   1.000000
  549       -6.501491   1.000000
  550       -6.440099   1.000000
  551       -6.440083   1.000000
  552       -6.420779   1.000000
  553       -6.367219   1.000000
  554       -6.367176   1.000000
  555       -6.318573   1.000000
  556       -6.294777   1.000000
  557       -6.250490   1.000000
  558       -6.247567   1.000000
  559       -6.247554   1.000000
  560       -6.175885   1.000000
  561       -6.175879   1.000000
  562       -6.132504   1.000000
  563       -6.121884   1.000000
  564       -6.121859   1.000000
  565       -6.111394   1.000000
  566       -6.087302   1.000000
  567       -6.087292   1.000000
  568       -5.996811   1.000000
  569       -5.996312   1.000000
  570       -5.996301   1.000000
  571       -5.889289   1.000000
  572       -5.889232   1.000000
  573       -5.871885   1.000000
  574       -5.869511   1.000000
  575       -5.869495   1.000000
  576       -5.837078   1.000000
  577       -5.805771   1.000000
  578       -5.805747   1.000000
  579       -5.753962   1.000000
  580       -5.748514   1.000000
  581       -5.748490   1.000000
  582       -5.705591   1.000000
  583       -5.693920   1.000000
  584       -5.676782   1.000000
  585       -5.676747   1.000000
  586       -5.657531   1.000000
  587       -5.614134   1.000000
  588       -5.611005   1.000000
  589       -5.611000   1.000000
  590       -5.572237   1.000000
  591       -5.571015   1.000000
  592       -5.571005   1.000000
  593       -5.531697   1.000000
  594       -5.528297   1.000000
  595       -5.528277   1.000000
  596       -5.517930   1.000000
  597       -5.517906   1.000000
  598       -5.473674   1.000000
  599       -5.430847   1.000000
  600       -5.417325   1.000000
  601       -5.417304   1.000000
  602       -5.393919   1.000000
  603       -5.392826   1.000000
  604       -5.392805   1.000000
  605       -5.371723   1.000000
  606       -5.350898   1.000000
  607       -5.350871   1.000000
  608       -5.332320   1.000000
  609       -5.332275   1.000000
  610       -5.319875   1.000000
  611       -5.297069   1.000000
  612       -5.288701   1.000000
  613       -5.288655   1.000000
  614       -5.253579   1.000000
  615       -5.211781   1.000000
  616       -5.211732   1.000000
  617       -5.188513   1.000000
  618       -5.168460   1.000000
  619       -5.168423   1.000000
  620       -5.133951   1.000000
  621       -5.133918   1.000000
  622       -5.101209   1.000000
  623       -5.101191   1.000000
  624       -5.090275   1.000000
  625       -5.069733   1.000000
  626       -5.066833   1.000000
  627       -5.066821   1.000000
  628       -5.029373   1.000000
  629       -5.026021   1.000000
  630       -5.026008   1.000000
  631       -5.015545   1.000000
  632       -4.979545   1.000000
  633       -4.979502   1.000000
  634       -4.976883   1.000000
  635       -4.957938   1.000000
  636       -4.957896   1.000000
  637       -4.931326   1.000000
  638       -4.923478   1.000000
  639       -4.918758   1.000000
  640       -4.918709   1.000000
  641       -4.883813   1.000000
  642       -4.883803   1.000000
  643       -4.865984   1.000000
  644       -4.844593   1.000000
  645       -4.844571   1.000000
  646       -4.827175   1.000000
  647       -4.816094   1.000000
  648       -4.816019   1.000000
  649       -4.796446   1.000000
  650       -4.792862   1.000000
  651       -4.792834   1.000000
  652       -4.761146   1.000000
  653       -4.753869   1.000000
  654       -4.742782   1.000000
  655       -4.742720   1.000000
  656       -4.727792   1.000000
  657       -4.705163   1.000000
  658       -4.705106   1.000000
  659       -4.666204   1.000000
  660       -4.664584   1.000000
  661       -4.664553   1.000000
  662       -4.632856   1.000000
  663       -4.632825   1.000000
  664       -4.625405   1.000000
  665       -4.621883   1.000000
  666       -4.597712   1.000000
  667       -4.588237   1.000000
  668       -4.588198   1.000000
  669       -4.568125   1.000000
  670       -4.568078   1.000000
  671       -4.563372   1.000000
  672       -4.534355   1.000000
  673       -4.534342   1.000000
  674       -4.520361   1.000000
  675       -4.520343   1.000000
  676       -4.497525   1.000000
  677       -4.488409   1.000000
  678       -4.481604   1.000000
  679       -4.480204   1.000000
  680       -4.480180   1.000000
  681       -4.475001   1.000000
  682       -4.474951   1.000000
  683       -4.452565   1.000000
  684       -4.452535   1.000000
  685       -4.442671   1.000000
  686       -4.430893   1.000000
  687       -4.424676   1.000000
  688       -4.420041   1.000000
  689       -4.420028   1.000000
  690       -4.409026   1.000000
  691       -4.398167   1.000000
  692       -4.398147   1.000000
  693       -4.388533   1.000000
  694       -4.381084   1.000000
  695       -4.381022   1.000000
  696       -4.369090   1.000000
  697       -4.363330   1.000000
  698       -4.363294   1.000000
  699       -4.354222   1.000000
  700       -4.328681   1.000000
  701       -4.326190   1.000000
  702       -4.326174   1.000000
  703       -4.315893   1.000000
  704       -4.315847   1.000000
  705       -4.302088   1.000000
  706       -4.266501   1.000000
  707       -4.266480   1.000000
  708       -4.265780   1.000000
  709       -4.251350   1.000000
  710       -4.251308   1.000000
  711       -4.235317   1.000000
  712       -4.219019   1.000000
  713       -4.219010   1.000000
  714       -4.205740   1.000000
  715       -4.205680   1.000000
  716       -4.179049   1.000000
  717       -4.179021   1.000000
  718       -4.158135   1.000000
  719       -4.158118   1.000000
  720       -4.154136   1.000000
  721       -4.150091   1.000000
  722       -4.121602   1.000000
  723       -4.113099   1.000000
  724       -4.113089   1.000000
  725       -4.096164   1.000000
  726       -4.096144   1.000000
  727       -4.081558   1.000000
  728       -4.066429   1.000000
  729       -4.066402   1.000000
  730       -4.047268   1.000000
  731       -4.043987   1.000000
  732       -4.043955   1.000000
  733       -4.031475   1.000000
  734       -3.996719   1.000000
  735       -3.996705   1.000000
  736       -3.992185   1.000000
  737       -3.980952   1.000000
  738       -3.974084   1.000000
  739       -3.967854   1.000000
  740       -3.967830   1.000000
  741       -3.954111   1.000000
  742       -3.954103   1.000000
  743       -3.922051   1.000000
  744       -3.910904   1.000000
  745       -3.910861   1.000000
  746       -3.906988   1.000000
  747       -3.897154   1.000000
  748       -3.897143   1.000000
  749       -3.878331   1.000000
  750       -3.867878   1.000000
  751       -3.834085   1.000000
  752       -3.825862   1.000000
  753       -3.825849   1.000000
  754       -3.812147   1.000000
  755       -3.812142   1.000000
  756       -3.800635   1.000000
  757       -3.789435   1.000000
  758       -3.779853   1.000000
  759       -3.767817   1.000000
  760       -3.767799   1.000000
  761       -3.762250   1.000000
  762       -3.746626   1.000000
  763       -3.746601   1.000000
  764       -3.722813   1.000000
  765       -3.722795   1.000000
  766       -3.716209   1.000000
  767       -3.686258   1.000000
  768       -3.677078   1.000000
  769       -3.677061   1.000000
  770       -3.655940   1.000000
  771       -3.653301   1.000000
  772       -3.653292   1.000000
  773       -3.622363   1.000000
  774       -3.613521   1.000000
  775       -3.613506   1.000000
  776       -3.612172   1.000000
  777       -3.592514   1.000000
  778       -3.591265   1.000000
  779       -3.591197   1.000000
  780       -3.568554   1.000000
  781       -3.568513   1.000000
  782       -3.554609   1.000000
  783       -3.539911   1.000000
  784       -3.531476   1.000000
  785       -3.531448   1.000000
  786       -3.485915   1.000000
  787       -3.468722   1.000000
  788       -3.468713   1.000000
  789       -3.467619   1.000000
  790       -3.439168   1.000000
  791       -3.416391   1.000000
  792       -3.416381   1.000000
  793       -3.387893   1.000000
  794       -3.387877   1.000000
  795       -3.373375   1.000000
  796       -3.344316   1.000000
  797       -3.344294   1.000000
  798       -3.302516   1.000000
  799       -3.276332   1.000000
  800       -3.276297   1.000000
  801       -3.259473   1.000000
  802       -3.259414   1.000000
  803       -3.225091   1.000000
  804       -3.205681   1.000000
  805       -3.205642   1.000000
  806       -3.198500   1.000000
  807       -3.169420   1.000000
  808       -3.169366   1.000000
  809       -3.136253   1.000000
  810       -3.136209   1.000000
  811       -3.135029   1.000000
  812       -3.123572   1.000000
  813       -3.123507   1.000000
  814       -3.095479   1.000000
  815       -3.071757   1.000000
  816       -3.059532   1.000000
  817       -3.059487   1.000000
  818       -3.017314   1.000000
  819       -3.016291   1.000000
  820       -3.016266   1.000000
  821       -2.988027   1.000000
  822       -2.987990   1.000000
  823       -2.969195   1.000000
  824       -2.952782   1.000000
  825       -2.952758   1.000000
  826       -2.938283   1.000000
  827       -2.914609   1.000000
  828       -2.904805   1.000000
  829       -2.904792   1.000000
  830       -2.893869   1.000000
  831       -2.893841   1.000000
  832       -2.892988   1.000000
  833       -2.876445   1.000000
  834       -2.876406   1.000000
  835       -2.862842   1.000000
  836       -2.843808   1.000000
  837       -2.837076   1.000000
  838       -2.837053   1.000000
  839       -2.821317   1.000000
  840       -2.807222   1.000000
  841       -2.807120   1.000000
  842       -2.798043   1.000000
  843       -2.789646   1.000000
  844       -2.789622   1.000000
  845       -2.786568   1.000000
  846       -2.769440   1.000000
  847       -2.754991   1.000000
  848       -2.754936   1.000000
  849       -2.740025   1.000000
  850       -2.734182   1.000000
  851       -2.734164   1.000000
  852       -2.723294   1.000000
  853       -2.712654   1.000000
  854       -2.712630   1.000000
  855       -2.685654   1.000000
  856       -2.685603   1.000000
  857       -2.669908   1.000000
  858       -2.654904   1.000000
  859       -2.654890   1.000000
  860       -2.626412   1.000000
  861       -2.626370   1.000000
  862       -2.619038   1.000000
  863       -2.606811   1.000000
  864       -2.606800   1.000000
  865       -2.594313   1.000000
  866       -2.560436   1.000000
  867       -2.560419   1.000000
  868       -2.545343   1.000000
  869       -2.514610   1.000000
  870       -2.514575   1.000000
  871       -2.510623   1.000000
  872       -2.497283   1.000000
  873       -2.497244   1.000000
  874       -2.487856   1.000000
  875       -2.476789   1.000000
  876       -2.476773   1.000000
  877       -2.444846   1.000000
  878       -2.444817   1.000000
  879       -2.423388   1.000000
  880       -2.423378   1.000000
  881       -2.402082   1.000000
  882       -2.400024   1.000000
  883       -2.400020   1.000000
  884       -2.390849   1.000000
  885       -2.378463   1.000000
  886       -2.378447   1.000000
  887       -2.371824   1.000000
  888       -2.354323   1.000000
  889       -2.346036   1.000000
  890       -2.346000   1.000000
  891       -2.337385   1.000000
  892       -2.331416   1.000000
  893       -2.331400   1.000000
  894       -2.307778   1.000000
  895       -2.292874   1.000000
  896       -2.292779   1.000000
  897       -2.267949   1.000000
  898       -2.260665   1.000000
  899       -2.260624   1.000000
  900       -2.240992   1.000000
  901       -2.219409   1.000000