         534
 Energy:  -40568.048321000002      en  -40473.186811000000      edisp  -94.861509999999996     
 X   0.00000000       0.00000000       0.00000000    
 X   14.4150839       0.00000000       0.00000000    
 X  -7.20754194       12.4838276       0.00000000    
 X   0.00000000       0.00000000       36.1162529    
 X   7.20754194       12.4838276       0.00000000    
 X   14.4150839       0.00000000       36.1162529    
 X  -7.20754194       12.4838276       36.1162529    
 X   7.20754194       12.4838276       36.1162529    
 Al   0.00000000       0.00000000       1.93994999    
 Al  -0.00000000       2.77418995      0.246099994    
 Al  -0.00000000       2.77418995       4.12598991    
 Al   2.40251994       1.38708997       2.43213010    
 Al   2.40251994       1.38708997       6.31202984    
 Al   0.00000000       0.00000000       4.61817980    
 Al   0.00000000       0.00000000       8.49806976    
 Al  -0.00000000       2.77418995       6.80423021    
 Al  -0.00000000       2.77418995       10.6841202    
 Al   2.40251994       1.38708997       8.99026012    
 Al   2.40251994       1.38708997       12.8701496    
 Al   0.00000000       0.00000000       11.1763096    
 Al  -2.40250993       4.16128016       1.93994999    
 Al  -2.40251994       6.93546009      0.246099994    
 Al  -2.40251994       6.93546009       4.12598991    
 Al   0.00000000       5.54836988       2.43213010    
 Al   0.00000000       5.54836988       6.31202984    
 Al  -2.40250993       4.16128016       4.61817980    
 Al  -2.40250993       4.16128016       8.49806976    
 Al  -2.40251994       6.93546009       6.80423021    
 Al  -2.40251994       6.93546009       10.6841202    
 Al   0.00000000       5.54836988       8.99026012    
 Al   0.00000000       5.54836988       12.8701496    
 Al  -2.40250993       4.16128016       11.1763096    
 Al  -4.80502987       8.32254982       1.93994999    
 Al  -4.80502987       11.0967398      0.246099994    
 Al  -4.80502987       11.0967398       4.12598991    
 Al  -2.40250993       9.70963955       2.43213010    
 Al  -2.40250993       9.70963955       6.31202984    
 Al  -4.80502987       8.32254982       4.61817980    
 Al  -4.80502987       8.32254982       8.49806976    
 Al  -4.80502987       11.0967398       6.80423021    
 Al  -4.80502987       11.0967398       10.6841202    
 Al  -2.40250993       9.70963955       8.99026012    
 Al  -2.40250993       9.70963955       12.8701496    
 Al  -4.80502987       8.32254982       11.1763096    
 Al   4.80502987       0.00000000       1.93994999    
 Al   4.80502987       2.77418995      0.246099994    
 Al   4.80502987       2.77418995       4.12598991    
 Al   7.20754004       1.38708997       2.43213010    
 Al   7.20754004       1.38708997       6.31202984    
 Al   4.80502987       0.00000000       4.61817980    
 Al   4.80502987       0.00000000       8.49806976    
 Al   4.80502987       2.77418995       6.80423021    
 Al   4.80502987       2.77418995       10.6841202    
 Al   7.20754004       1.38708997       8.99026012    
 Al   7.20754004       1.38708997       12.8701496    
 Al   4.80502987       0.00000000       11.1763096    
 Al   2.40250993       4.16128016       1.93994999    
 Al   2.40250993       6.93546009      0.246099994    
 Al   2.40250993       6.93546009       4.12598991    
 Al   4.80502987       5.54836988       2.43213010    
 Al   4.80502987       5.54836988       6.31202984    
 Al   2.40250993       4.16128016       4.61817980    
 Al   2.40250993       4.16128016       8.49806976    
 Al   2.40250993       6.93546009       6.80423021    
 Al   2.40250993       6.93546009       10.6841202    
 Al   4.80502987       5.54836988       8.99026012    
 Al   4.80502987       5.54836988       12.8701496    
 Al   2.40250993       4.16128016       11.1763096    
 Al   0.00000000       8.32254982       1.93994999    
 Al  -0.00000000       11.0967398      0.246099994    
 Al  -0.00000000       11.0967398       4.12598991    
 Al   2.40251994       9.70963955       2.43213010    
 Al   2.40251994       9.70963955       6.31202984    
 Al   0.00000000       8.32254982       4.61817980    
 Al   0.00000000       8.32254982       8.49806976    
 Al  -0.00000000       11.0967398       6.80423021    
 Al  -0.00000000       11.0967398       10.6841202    
 Al   2.40251994       9.70963955       8.99026012    
 Al   2.40251994       9.70963955       12.8701496    
 Al   0.00000000       8.32254982       11.1763096    
 Al   9.61005974       0.00000000       1.93994999    
 Al   9.61005020       2.77418995      0.246099994    
 Al   9.61005020       2.77418995       4.12598991    
 Al   12.0125704       1.38708997       2.43213010    
 Al   12.0125704       1.38708997       6.31202984    
 Al   9.61005974       0.00000000       4.61817980    
 Al   9.61005974       0.00000000       8.49806976    
 Al   9.61005020       2.77418995       6.80423021    
 Al   9.61005020       2.77418995       10.6841202    
 Al   12.0125704       1.38708997       8.99026012    
 Al   12.0125704       1.38708997       12.8701496    
 Al   9.61005974       0.00000000       11.1763096    
 Al   7.20754004       4.16128016       1.93994999    
 Al   7.20754004       6.93546009      0.246099994    
 Al   7.20754004       6.93546009       4.12598991    
 Al   9.61005974       5.54836988       2.43213010    
 Al   9.61005974       5.54836988       6.31202984    
 Al   7.20754004       4.16128016       4.61817980    
 Al   7.20754004       4.16128016       8.49806976    
 Al   7.20754004       6.93546009       6.80423021    
 Al   7.20754004       6.93546009       10.6841202    
 Al   9.61005974       5.54836988       8.99026012    
 Al   9.61005974       5.54836988       12.8701496    
 Al   7.20754004       4.16128016       11.1763096    
 Al   4.80502987       8.32254982       1.93994999    
 Al   4.80502987       11.0967398      0.246099994    
 Al   4.80502987       11.0967398       4.12598991    
 Al   7.20754004       9.70963955       2.43213010    
 Al   7.20754004       9.70963955       6.31202984    
 Al   4.80502987       8.32254982       4.61817980    
 Al   4.80502987       8.32254982       8.49806976    
 Al   4.80502987       11.0967398       6.80423021    
 Al   4.80502987       11.0967398       10.6841202    
 Al   7.20754004       9.70963955       8.99026012    
 Al   7.20754004       9.70963955       12.8701496    
 Al   4.80502987       8.32254982       11.1763096    
 O    1.47104001       0.00000000       3.27905989    
 O    3.13804007      0.113130003       1.09301996    
 O  -0.735520005       1.27395999       3.27905989    
 O    1.66699004       2.88732004       3.27905989    
 O    3.13804007       2.66105008       1.09301996    
 O   0.931479990       1.38708997       1.09301996    
 O    3.87355995       1.38708997       7.65114021    
 O   0.735520005       1.50022995       5.46510983    
 O    1.66700006       2.66105008       7.65114021    
 O    1.66700006      0.113130003       7.65114021    
 O   0.735520005       4.04814005       5.46510983    
 O   -1.47104001       2.77418995       5.46510983    
 O    1.47104001       2.77418995       12.0232401    
 O   -1.66699004       2.88732004       9.83718967    
 O  -0.735520005       4.04814005       12.0232401    
 O  -0.735520005       1.50022995       12.0232401    
 O   0.735520005       1.27395999       9.83718967    
 O    3.33399010       0.00000000       9.83718967    
 O  -0.931469977       4.16128016       3.27905989    
 O   0.735520005       4.27440977       1.09301996    
 O   -3.13803005       5.43522978       3.27905989    
 O  -0.735520005       7.04859018       3.27905989    
 O   0.735520005       6.82231998       1.09301996    
 O   -1.47104001       5.54836988       1.09301996    
 O    1.47104001       5.54836988       7.65114021    
 O   -1.66700006       5.66149998       5.46510983    
 O  -0.735520005       6.82231998       7.65114021    
 O  -0.735520005       4.27440977       7.65114021    
 O   -1.66700006       8.20942020       5.46510983    
 O   -3.87355995       6.93546009       5.46510983    
 O  -0.931479990       6.93546009       12.0232401    
 O   -4.06950998       7.04859018       9.83718967    
 O   -3.13804007       8.20942020       12.0232401    
 O   -3.13804007       5.66149998       12.0232401    
 O   -1.66699004       5.43522978       9.83718967    
 O   0.931469977       4.16128016       9.83718967    
 O   -3.33399010       8.32254982       3.27905989    
 O   -1.66699004       8.43568039       1.09301996    
 O   -5.54055023       9.59650993       3.27905989    
 O   -3.13803005       11.2098703       3.27905989    
 O   -1.66699004       10.9835997       1.09301996    
 O   -3.87354994       9.70963955       1.09301996    
 O  -0.931469977       9.70963955       7.65114021    
 O   -4.06950998       9.82277966       5.46510983    
 O   -3.13803005       10.9835997       7.65114021    
 O   -3.13803005       8.43568039       7.65114021    
 O   -4.06950998       12.3706999       5.46510983    
 O   -6.27607012       11.0967398       5.46510983    
 O   -3.33399010       11.0967398       12.0232401    
 O   -6.47202015       11.2098703       9.83718967    
 O   -5.54055023       12.3706999       12.0232401    
 O   -5.54055023       9.82277966       12.0232401    
 O   -4.06950998       9.59650993       9.83718967    
 O   -1.47104001       8.32254982       9.83718967    
 O    6.27607012       0.00000000       3.27905989    
 O    7.94305992      0.113130003       1.09301996    
 O    4.06950998       1.27395999       3.27905989    
 O    6.47202015       2.88732004       3.27905989    
 O    7.94305992       2.66105008       1.09301996    
 O    5.73649979       1.38708997       1.09301996    
 O    8.67858028       1.38708997       7.65114021    
 O    5.54055023       1.50022995       5.46510983    
 O    6.47202015       2.66105008       7.65114021    
 O    6.47202015      0.113130003       7.65114021    
 O    5.54055023       4.04814005       5.46510983    
 O    3.33399010       2.77418995       5.46510983    
 O    6.27607012       2.77418995       12.0232401    
 O    3.13803005       2.88732004       9.83718967    
 O    4.06950998       4.04814005       12.0232401    
 O    4.06950998       1.50022995       12.0232401    
 O    5.54055023       1.27395999       9.83718967    
 O    8.13901997       0.00000000       9.83718967    
 O    3.87354994       4.16128016       3.27905989    
 O    5.54055023       4.27440977       1.09301996    
 O    1.66699004       5.43522978       3.27905989    
 O    4.06950998       7.04859018       3.27905989    
 O    5.54055023       6.82231998       1.09301996    
 O    3.33399010       5.54836988       1.09301996    
 O    6.27607012       5.54836988       7.65114021    
 O    3.13803005       5.66149998       5.46510983    
 O    4.06950998       6.82231998       7.65114021    
 O    4.06950998       4.27440977       7.65114021    
 O    3.13803005       8.20942020       5.46510983    
 O   0.931469977       6.93546009       5.46510983    
 O    3.87354994       6.93546009       12.0232401    
 O   0.735520005       7.04859018       9.83718967    
 O    1.66699004       8.20942020       12.0232401    
 O    1.66699004       5.66149998       12.0232401    
 O    3.13803005       5.43522978       9.83718967    
 O    5.73649979       4.16128016       9.83718967    
 O    1.47104001       8.32254982       3.27905989    
 O    3.13804007       8.43568039       1.09301996    
 O  -0.735520005       9.59650993       3.27905989    
 O    1.66699004       11.2098703       3.27905989    
 O    3.13804007       10.9835997       1.09301996    
 O   0.931479990       9.70963955       1.09301996    
 O    3.87355995       9.70963955       7.65114021    
 O   0.735520005       9.82277966       5.46510983    
 O    1.66700006       10.9835997       7.65114021    
 O    1.66700006       8.43568039       7.65114021    
 O   0.735520005       12.3706999       5.46510983    
 O   -1.47104001       11.0967398       5.46510983    
 O    1.47104001       11.0967398       12.0232401    
 O   -1.66699004       11.2098703       9.83718967    
 O  -0.735520005       12.3706999       12.0232401    
 O  -0.735520005       9.82277966       12.0232401    
 O   0.735520005       9.59650993       9.83718967    
 O    3.33399010       8.32254982       9.83718967    
 O    11.0811005       0.00000000       3.27905989    
 O    12.7480898      0.113130003       1.09301996    
 O    8.87454033       1.27395999       3.27905989    
 O    11.2770500       2.88732004       3.27905989    
 O    12.7480898       2.66105008       1.09301996    
 O    10.5415297       1.38708997       1.09301996    
 O    13.4836102       1.38708997       7.65114021    
 O    10.3455696       1.50022995       5.46510983    
 O    11.2770500       2.66105008       7.65114021    
 O    11.2770500      0.113130003       7.65114021    
 O    10.3455696       4.04814005       5.46510983    
 O    8.13901043       2.77418995       5.46510983    
 O    11.0810900       2.77418995       12.0232401    
 O    7.94305992       2.88732004       9.83718967    
 O    8.87452984       4.04814005       12.0232401    
 O    8.87452984       1.50022995       12.0232401    
 O    10.3455801       1.27395999       9.83718967    
 O    12.9440403       0.00000000       9.83718967    
 O    8.67858028       4.16128016       3.27905989    
 O    10.3455801       4.27440977       1.09301996    
 O    6.47202015       5.43522978       3.27905989    
 O    8.87454033       7.04859018       3.27905989    
 O    10.3455801       6.82231998       1.09301996    
 O    8.13901997       5.54836988       1.09301996    
 O    11.0811005       5.54836988       7.65114021    
 O    7.94305992       5.66149998       5.46510983    
 O    8.87454033       6.82231998       7.65114021    
 O    8.87454033       4.27440977       7.65114021    
 O    7.94305992       8.20942020       5.46510983    
 O    5.73649979       6.93546009       5.46510983    
 O    8.67858028       6.93546009       12.0232401    
 O    5.54055023       7.04859018       9.83718967    
 O    6.47202015       8.20942020       12.0232401    
 O    6.47202015       5.66149998       12.0232401    
 O    7.94305992       5.43522978       9.83718967    
 O    10.5415297       4.16128016       9.83718967    
 O    6.27607012       8.32254982       3.27905989    
 O    7.94305992       8.43568039       1.09301996    
 O    4.06950998       9.59650993       3.27905989    
 O    6.47202015       11.2098703       3.27905989    
 O    7.94305992       10.9835997       1.09301996    
 O    5.73649979       9.70963955       1.09301996    
 O    8.67858028       9.70963955       7.65114021    
 O    5.54055023       9.82277966       5.46510983    
 O    6.47202015       10.9835997       7.65114021    
 O    6.47202015       8.43568039       7.65114021    
 O    5.54055023       12.3706999       5.46510983    
 O    3.33399010       11.0967398       5.46510983    
 O    6.27607012       11.0967398       12.0232401    
 O    3.13803005       11.2098703       9.83718967    
 O    4.06950998       12.3706999       12.0232401    
 O    4.06950998       9.82277966       12.0232401    
 O    5.54055023       9.59650993       9.83718967    
 O    8.13901997       8.32254982       9.83718967    
 O    0.00000000       0.00000000       14.2701502    
 O    0.00000000       0.00000000       15.4701500    
 O    0.00000000       0.00000000       16.6701508    
 O    0.00000000       0.00000000       17.8701496    
 O  -0.900940001       1.56048000       14.2701502    
 O  -0.900940001       1.56048000       15.4701500    
 O  -0.900940001       1.56048000       16.6701508    
 O  -0.900940001       1.56048000       17.8701496    
 O   -1.80189002       3.12096000       14.2701502    
 O   -1.80189002       3.12096000       15.4701500    
 O   -1.80189002       3.12096000       16.6701508    
 O   -1.80189002       3.12096000       17.8701496    
 O   -2.70283008       4.68143988       14.2701502    
 O   -2.70283008       4.68143988       15.4701500    
 O   -2.70283008       4.68143988       16.6701508    
 O   -2.70283008       4.68143988       17.8701496    
 O   -3.60377002       6.24190998       14.2701502    
 O   -3.60377002       6.24190998       15.4701500    
 O   -3.60377002       6.24190998       16.6701508    
 O   -3.60377002       6.24190998       17.8701496    
 O   -4.50471020       7.80239010       14.2701502    
 O   -4.50471020       7.80239010       15.4701500    
 O   -4.50471020       7.80239010       16.6701508    
 O   -4.50471020       7.80239010       17.8701496    
 O   -5.40566015       9.36287022       14.2701502    
 O   -5.40566015       9.36287022       15.4701500    
 O   -5.40566015       9.36287022       16.6701508    
 O   -5.40566015       9.36287022       17.8701496    
 O   -6.30660009       10.9233503       14.2701502    
 O   -6.30660009       10.9233503       15.4701500    
 O   -6.30660009       10.9233503       16.6701508    
 O   -6.30660009       10.9233503       17.8701496    
 O    1.80189002       0.00000000       14.2701502    
 O    1.80189002       0.00000000       15.4701500    
 O    1.80189002       0.00000000       16.6701508    
 O    1.80189002       0.00000000       17.8701496    
 O   0.900940001       1.56048000       14.2701502    
 O   0.900940001       1.56048000       15.4701500    
 O   0.900940001       1.56048000       16.6701508    
 O   0.900940001       1.56048000       17.8701496    
 O    0.00000000       3.12096000       14.2701502    
 O    0.00000000       3.12096000       15.4701500    
 O    0.00000000       3.12096000       16.6701508    
 O    0.00000000       3.12096000       17.8701496    
 O  -0.900940001       4.68143988       14.2701502    
 O  -0.900940001       4.68143988       15.4701500    
 O  -0.900940001       4.68143988       16.6701508    
 O  -0.900940001       4.68143988       17.8701496    
 O   -1.80189002       6.24190998       14.2701502    
 O   -1.80189002       6.24190998       15.4701500    
 O   -1.80189002       6.24190998       16.6701508    
 O   -1.80189002       6.24190998       17.8701496    
 O   -2.70283008       7.80239010       14.2701502    
 O   -2.70283008       7.80239010       15.4701500    
 O   -2.70283008       7.80239010       16.6701508    
 O   -2.70283008       7.80239010       17.8701496    
 O   -3.60377002       9.36287022       14.2701502    
 O   -3.60377002       9.36287022       15.4701500    
 O   -3.60377002       9.36287022       16.6701508    
 O   -3.60377002       9.36287022       17.8701496    
 O   -4.50471020       10.9233503       14.2701502    
 O   -4.50471020       10.9233503       15.4701500    
 O   -4.50471020       10.9233503       16.6701508    
 O   -4.50471020       10.9233503       17.8701496    
 O    3.60377002       0.00000000       14.2701502    
 O    3.60377002       0.00000000       15.4701500    
 O    3.60377002       0.00000000       16.6701508    
 O    3.60377002       0.00000000       17.8701496    
 O    2.70283008       1.56048000       14.2701502    
 O    2.70283008       1.56048000       15.4701500    
 O    2.70283008       1.56048000       16.6701508    
 O    2.70283008       1.56048000       17.8701496    
 O    1.80189002       3.12096000       14.2701502    
 O    1.80189002       3.12096000       15.4701500    
 O    1.80189002       3.12096000       16.6701508    
 O    1.80189002       3.12096000       17.8701496    
 O   0.900940001       4.68143988       14.2701502    
 O   0.900940001       4.68143988       15.4701500    
 O   0.900940001       4.68143988       16.6701508    
 O   0.900940001       4.68143988       17.8701496    
 O    0.00000000       6.24190998       14.2701502    
 O    0.00000000       6.24190998       15.4701500    
 O    0.00000000       6.24190998       16.6701508    
 O    0.00000000       6.24190998       17.8701496    
 O  -0.900940001       7.80239010       14.2701502    
 O  -0.900940001       7.80239010       15.4701500    
 O  -0.900940001       7.80239010       16.6701508    
 O  -0.900940001       7.80239010       17.8701496    
 O   -1.80189002       9.36287022       14.2701502    
 O   -1.80189002       9.36287022       15.4701500    
 O   -1.80189002       9.36287022       16.6701508    
 O   -1.80189002       9.36287022       17.8701496    
 O   -2.70283008       10.9233503       14.2701502    
 O   -2.70283008       10.9233503       15.4701500    
 O   -2.70283008       10.9233503       16.6701508    
 O   -2.70283008       10.9233503       17.8701496    
 O    5.40566015       0.00000000       14.2701502    
 O    5.40566015       0.00000000       15.4701500    
 O    5.40566015       0.00000000       16.6701508    
 O    5.40566015       0.00000000       17.8701496    
 O    4.50471020       1.56048000       14.2701502    
 O    4.50471020       1.56048000       15.4701500    
 O    4.50471020       1.56048000       16.6701508    
 O    4.50471020       1.56048000       17.8701496    
 O    3.60377002       3.12096000       14.2701502    
 O    3.60377002       3.12096000       15.4701500    
 O    3.60377002       3.12096000       16.6701508    
 O    3.60377002       3.12096000       17.8701496    
 O    2.70283008       4.68143988       14.2701502    
 O    2.70283008       4.68143988       15.4701500    
 O    2.70283008       4.68143988       16.6701508    
 O    2.70283008       4.68143988       17.8701496    
 O    1.80189002       6.24190998       14.2701502    
 O    1.80189002       6.24190998       15.4701500    
 O    1.80189002       6.24190998       16.6701508    
 O    1.80189002       6.24190998       17.8701496    
 O   0.900940001       7.80239010       14.2701502    
 O   0.900940001       7.80239010       15.4701500    
 O   0.900940001       7.80239010       16.6701508    
 O   0.900940001       7.80239010       17.8701496    
 O    0.00000000       9.36287022       14.2701502    
 O    0.00000000       9.36287022       15.4701500    
 O    0.00000000       9.36287022       16.6701508    
 O    0.00000000       9.36287022       17.8701496    
 O  -0.900940001       10.9233503       14.2701502    
 O  -0.900940001       10.9233503       15.4701500    
 O  -0.900940001       10.9233503       16.6701508    
 O  -0.900940001       10.9233503       17.8701496    
 O    7.20754004       0.00000000       14.2701502    
 O    7.20754004       0.00000000       15.4701500    
 O    7.20754004       0.00000000       16.6701508    
 O    7.20754004       0.00000000       17.8701496    
 O    6.30660009       1.56048000       14.2701502    
 O    6.30660009       1.56048000       15.4701500    
 O    6.30660009       1.56048000       16.6701508    
 O    6.30660009       1.56048000       17.8701496    
 O    5.40566015       3.12096000       14.2701502    
 O    5.40566015       3.12096000       15.4701500    
 O    5.40566015       3.12096000       16.6701508    
 O    5.40566015       3.12096000       17.8701496    
 O    4.50471020       4.68143988       14.2701502    
 O    4.50471020       4.68143988       15.4701500    
 O    4.50471020       4.68143988       16.6701508    
 O    4.50471020       4.68143988       17.8701496    
 O    3.60377002       6.24190998       14.2701502    
 O    3.60377002       6.24190998       15.4701500    
 O    3.60377002       6.24190998       16.6701508    
 O    3.60377002       6.24190998       17.8701496    
 O    2.70283008       7.80239010       14.2701502    
 O    2.70283008       7.80239010       15.4701500    
 O    2.70283008       7.80239010       16.6701508    
 O    2.70283008       7.80239010       17.8701496    
 O    1.80189002       9.36287022       14.2701502    
 O    1.80189002       9.36287022       15.4701500    
 O    1.80189002       9.36287022       16.6701508    
 O    1.80189002       9.36287022       17.8701496    
 O   0.900940001       10.9233503       14.2701502    
 O   0.900940001       10.9233503       15.4701500    
 O   0.900940001       10.9233503       16.6701508    
 O   0.900940001       10.9233503       17.8701496    
 O    9.00942993       0.00000000       14.2701502    
 O    9.00942993       0.00000000       15.4701500    
 O    9.00942993       0.00000000       16.6701508    
 O    9.00942993       0.00000000       17.8701496    
 O    8.10848045       1.56048000       14.2701502    
 O    8.10848045       1.56048000       15.4701500    
 O    8.10848045       1.56048000       16.6701508    
 O    8.10848045       1.56048000       17.8701496    
 O    7.20754004       3.12096000       14.2701502    
 O    7.20754004       3.12096000       15.4701500    
 O    7.20754004       3.12096000       16.6701508    
 O    7.20754004       3.12096000       17.8701496    
 O    6.30660009       4.68143988       14.2701502    
 O    6.30660009       4.68143988       15.4701500    
 O    6.30660009       4.68143988       16.6701508    
 O    6.30660009       4.68143988       17.8701496    
 O    5.40566015       6.24190998       14.2701502    
 O    5.40566015       6.24190998       15.4701500    
 O    5.40566015       6.24190998       16.6701508    
 O    5.40566015       6.24190998       17.8701496    
 O    4.50471020       7.80239010       14.2701502    
 O    4.50471020       7.80239010       15.4701500    
 O    4.50471020       7.80239010       16.6701508    
 O    4.50471020       7.80239010       17.8701496    
 O    3.60377002       9.36287022       14.2701502    
 O    3.60377002       9.36287022       15.4701500    
 O    3.60377002       9.36287022       16.6701508    
 O    3.60377002       9.36287022       17.8701496    
 O    2.70283008       10.9233503       14.2701502    
 O    2.70283008       10.9233503       15.4701500    
 O    2.70283008       10.9233503       16.6701508    
 O    2.70283008       10.9233503       17.8701496    
 O    10.8113098       0.00000000       14.2701502    
 O    10.8113098       0.00000000       15.4701500    
 O    10.8113098       0.00000000       16.6701508    
 O    10.8113098       0.00000000       17.8701496    
 O    9.91036987       1.56048000       14.2701502    
 O    9.91036987       1.56048000       15.4701500    
 O    9.91036987       1.56048000       16.6701508    
 O    9.91036987       1.56048000       17.8701496    
 O    9.00942993       3.12096000       14.2701502    
 O    9.00942993       3.12096000       15.4701500    
 O    9.00942993       3.12096000       16.6701508    
 O    9.00942993       3.12096000       17.8701496    
 O    8.10848045       4.68143988       14.2701502    
 O    8.10848045       4.68143988       15.4701500    
 O    8.10848045       4.68143988       16.6701508    
 O    8.10848045       4.68143988       17.8701496    
 O    7.20754004       6.24190998       14.2701502    
 O    7.20754004       6.24190998       15.4701500    
 O    7.20754004       6.24190998       16.6701508    
 O    7.20754004       6.24190998       17.8701496    
 O    6.30660009       7.80239010       14.2701502    
 O    6.30660009       7.80239010       15.4701500    
 O    6.30660009       7.80239010       16.6701508    
 O    6.30660009       7.80239010       17.8701496    
 O    5.40566015       9.36287022       14.2701502    
 O    5.40566015       9.36287022       15.4701500    
 O    5.40566015       9.36287022       16.6701508    
 O    5.40566015       9.36287022       17.8701496    
 O    4.50471020       10.9233503       14.2701502    
 O    4.50471020       10.9233503       15.4701500    
 O    4.50471020       10.9233503       16.6701508    
 O    4.50471020       10.9233503       17.8701496    
 O    12.6132002       0.00000000       14.2701502    
 O    12.6132002       0.00000000       15.4701500    
 O    12.6132002       0.00000000       16.6701508    
 O    12.6132002       0.00000000       17.8701496    
 O    11.7122602       1.56048000       14.2701502    
 O    11.7122602       1.56048000       15.4701500    
 O    11.7122602       1.56048000       16.6701508    
 O    11.7122602       1.56048000       17.8701496    
 O    10.8113098       3.12096000       14.2701502    
 O    10.8113098       3.12096000       15.4701500    
 O    10.8113098       3.12096000       16.6701508    
 O    10.8113098       3.12096000       17.8701496    
 O    9.91036987       4.68143988       14.2701502    
 O    9.91036987       4.68143988       15.4701500    
 O    9.91036987       4.68143988       16.6701508    
 O    9.91036987       4.68143988       17.8701496    
 O    9.00942993       6.24190998       14.2701502    
 O    9.00942993       6.24190998       15.4701500    
 O    9.00942993       6.24190998       16.6701508    
 O    9.00942993       6.24190998       17.8701496    
 O    8.10848045       7.80239010       14.2701502    
 O    8.10848045       7.80239010       15.4701500    
 O    8.10848045       7.80239010       16.6701508    
 O    8.10848045       7.80239010       17.8701496    
 O    7.20754004       9.36287022       14.2701502    
 O    7.20754004       9.36287022       15.4701500    
 O    7.20754004       9.36287022       16.6701508    
 O    7.20754004       9.36287022       17.8701496    
 O    6.30660009       10.9233503       14.2701502    
 O    6.30660009       10.9233503       15.4701500    
 O    6.30660009       10.9233503       16.6701508    
 O    6.30660009       10.9233503       17.8701496    
         534
 Energy:  -1248.9998681000000      en  -1158.5349881000000      edisp  -90.464879999999994     
 X   0.00000000       0.00000000       0.00000000    
 X   14.4150839       0.00000000       0.00000000    
 X  -7.20754194       12.4838276       0.00000000    
 X   0.00000000       0.00000000       36.1162529    
 X   7.20754194       12.4838276       0.00000000    
 X   14.4150839       0.00000000       36.1162529    
 X  -7.20754194       12.4838276       36.1162529    