       N       E                     dE             d eps       ncg     rms          rms(c)
DAV:   1     0.285796966108E+05    0.28580E+05   -0.12691E+06  6964   0.122E+03
DAV:   2     0.148138302029E+04   -0.27098E+05   -0.25781E+05  9400   0.462E+02
DAV:   3    -0.175265662803E+04   -0.32340E+04   -0.31511E+04  8736   0.151E+02
DAV:   4    -0.193349474343E+04   -0.18084E+03   -0.17158E+03 10088   0.366E+01
DAV:   5    -0.194339745854E+04   -0.99027E+01   -0.91956E+01  9552   0.726E+00    0.103E+03
DAV:   6    -0.210337774785E+04   -0.15998E+03   -0.17608E+03 10544   0.768E+01    0.121E+03
DAV:   7    -0.167187620262E+05   -0.14615E+05   -0.33753E+04 10952   0.156E+02    0.207E+03
DAV:   8    -0.110355997068E+06   -0.93637E+05   -0.23792E+05  8952   0.311E+02    0.266E+03
DAV:   9    -0.113998768941E+06   -0.36428E+04   -0.55372E+04  9346   0.217E+02    0.352E+03
DAV:  10     0.144534201040E+04    0.11544E+06   -0.18172E+05 10495   0.210E+02    0.242E+03
DAV:  11    -0.498083270139E+04   -0.64262E+04   -0.40638E+04  9864   0.141E+02    0.233E+03
DAV:  12    -0.629218783755E+04   -0.13114E+04   -0.11376E+04 10296   0.568E+01    0.226E+03
DAV:  13    -0.643682948951E+04   -0.14464E+03   -0.97942E+02  9240   0.170E+01    0.225E+03
DAV:  14    -0.668454044256E+04   -0.24771E+03   -0.74815E+01  9840   0.640E+00    0.227E+03
DAV:  15    -0.659942993477E+04    0.85111E+02   -0.14184E+02  9384   0.997E+00    0.202E+03
DAV:  16    -0.653597094991E+04    0.63459E+02   -0.91674E+01  9392   0.135E+01    0.215E+03
DAV:  17    -0.663589528091E+04   -0.99924E+02   -0.13576E+02  9736   0.149E+01    0.224E+03
DAV:  18    -0.605813638391E+04    0.57776E+03   -0.49605E+02  9888   0.330E+01    0.213E+03
DAV:  19    -0.106036822158E+05   -0.45455E+04   -0.25027E+04 11016   0.591E+01    0.189E+03
DAV:  20    -0.143101118661E+05   -0.37064E+04   -0.20527E+04  9922   0.101E+02    0.165E+03
DAV:  21    -0.161143507396E+05   -0.18042E+04   -0.13360E+04 10184   0.575E+01    0.147E+03
DAV:  22    -0.167982420898E+05   -0.68389E+03   -0.46598E+03 10096   0.314E+01    0.143E+03
DAV:  23    -0.181197451447E+05   -0.13215E+04   -0.10970E+03  9696   0.147E+01    0.142E+03
DAV:  24    -0.209244886768E+05   -0.28047E+04   -0.15543E+03 10072   0.395E+01    0.134E+03
DAV:  25    -0.219909400023E+05   -0.10665E+04   -0.21851E+03  9744   0.214E+01    0.126E+03
DAV:  26    -0.260633126055E+05   -0.40724E+04   -0.15827E+03  9088   0.472E+01    0.129E+03
DAV:  27    -0.267778101684E+05   -0.71450E+03   -0.84522E+02  8952   0.255E+01    0.112E+03
DAV:  28    -0.316736561898E+05   -0.48958E+04   -0.93116E+02 10024   0.330E+01    0.110E+03
DAV:  29    -0.349440351850E+05   -0.32704E+04   -0.66367E+02  9664   0.249E+01    0.109E+03
DAV:  30    -0.422287057590E+05   -0.72847E+04   -0.15005E+03 10536   0.325E+01    0.117E+03
DAV:  31    -0.548548527471E+05   -0.12626E+05   -0.21921E+03  9957   0.593E+01    0.154E+03
DAV:  32    -0.684589821200E+05   -0.13604E+05   -0.50201E+03  9560   0.126E+02    0.179E+03
DAV:  33    -0.613705369908E+05    0.70884E+04   -0.17228E+04 10424   0.108E+02    0.186E+03
DAV:  34    -0.635687025471E+05   -0.21982E+04   -0.14503E+04  9920   0.792E+01    0.198E+03
DAV:  35    -0.531710090365E+05    0.10398E+05   -0.26524E+03  9368   0.501E+01    0.192E+03
DAV:  36    -0.532734148082E+05   -0.10241E+03   -0.82852E+02 10128   0.183E+01    0.189E+03
DAV:  37    -0.569193054723E+05   -0.36459E+04   -0.27716E+02 10136   0.313E+01    0.190E+03
DAV:  38    -0.564379761430E+05    0.48133E+03   -0.92923E+01  9360   0.103E+01    0.190E+03
DAV:  39    -0.567206215206E+05   -0.28265E+03   -0.14506E+01  9536   0.383E+00    0.190E+03
DAV:  40    -0.542240116074E+05    0.24966E+04   -0.52180E+01 10056   0.149E+01    0.191E+03
DAV:  41    -0.533258423142E+05    0.89817E+03   -0.24168E+01  8400   0.776E+00    0.192E+03
DAV:  42    -0.507838588024E+05    0.25420E+04   -0.29628E+01  8840   0.864E+00    0.193E+03
DAV:  43    -0.419442151427E+05    0.88396E+04   -0.90709E+01  8432   0.128E+01    0.191E+03
DAV:  44    -0.371855225993E+05    0.47587E+04   -0.20272E+03 10292   0.147E+01    0.187E+03
DAV:  45    -0.383767546980E+05   -0.11912E+04   -0.59812E+03 11074   0.283E+01    0.184E+03
DAV:  46    -0.400340032456E+05   -0.16572E+04   -0.43650E+03 10752   0.314E+01    0.186E+03
DAV:  47    -0.403035981632E+05   -0.26959E+03   -0.20289E+03 10456   0.195E+01    0.187E+03
DAV:  48    -0.404930452399E+05   -0.18945E+03   -0.51228E+02 10136   0.100E+01    0.187E+03
DAV:  49    -0.404840326952E+05    0.90125E+01   -0.14963E+02 10288   0.442E+00    0.187E+03
DAV:  50    -0.404066397655E+05    0.77393E+02   -0.36326E+01 10040   0.229E+00    0.187E+03
DAV:  51    -0.642594949977E+05   -0.23853E+05   -0.31291E+05 10388   0.557E+02    0.267E+03
DAV:  52    -0.426893349501E+05    0.21570E+05   -0.47312E+04  8568   0.234E+02    0.330E+03
DAV:  53    -0.630713410083E+05   -0.20382E+05   -0.93966E+03  9896   0.111E+02    0.378E+03
DAV:  54    -0.576747743761E+05    0.53966E+04   -0.21799E+03  8896   0.474E+01    0.400E+03
DAV:  55    -0.605502264141E+05   -0.28755E+04   -0.38524E+02  9976   0.227E+01    0.404E+03
DAV:  56    -0.336814149156E+05    0.26869E+05   -0.22969E+03 10128   0.147E+02    0.313E+03
DAV:  57    -0.359530376726E+05   -0.22716E+04   -0.28930E+03  9040   0.399E+01    0.305E+03
DAV:  58    -0.420683836033E+05   -0.61153E+04   -0.85737E+02 10032   0.307E+01    0.322E+03
DAV:  59    -0.412668427981E+05    0.80154E+03   -0.13274E+02  8752   0.963E+00    0.323E+03
DAV:  60    -0.404731868111E+05    0.79366E+03   -0.16179E+01 10152   0.353E+00
   1 F= -.40568048E+05 E0= -.40568018E+05  d E =-.405680E+05
       N       E                     dE             d eps       ncg     rms          rms(c)
DAV:   1     0.151813489792E+05    0.56448E+05   -0.57471E+05 10658   0.858E+02    0.172E+03
DAV:   2    -0.425117348384E+06   -0.44030E+06   -0.53219E+06 13456   0.153E+03    0.315E+03
DAV:   3     0.225042074320E+04    0.42737E+06   -0.85753E+05 12594   0.485E+02    0.726E+02
DAV:   4    -0.209038904603E+05   -0.23154E+05   -0.33815E+05 10002   0.655E+02    0.107E+03
DAV:   5    -0.281462191657E+04    0.18089E+05   -0.12862E+05 11714   0.355E+02    0.826E+02
DAV:   6    -0.197323359171E+04    0.84139E+03   -0.36716E+04 10504   0.196E+02    0.535E+02
DAV:   7    -0.218955457769E+04   -0.21632E+03   -0.73874E+03 10000   0.136E+02    0.534E+02
DAV:   8    -0.201541055124E+04    0.17414E+03   -0.15852E+03  9848   0.420E+01    0.573E+02
DAV:   9    -0.202395931373E+04   -0.85488E+01   -0.73210E+01 10064   0.909E+00    0.568E+02
DAV:  10    -0.218365061231E+04   -0.15969E+03   -0.17409E+02 11584   0.194E+01    0.588E+02
DAV:  11    -0.209616739425E+04    0.87483E+02   -0.10549E+01  9256   0.930E+00    0.585E+02
DAV:  12    -0.195165337670E+04    0.14451E+03   -0.30130E+01 11272   0.155E+01    0.545E+02
DAV:  13    -0.189156129654E+04    0.60092E+02   -0.96014E+01 10784   0.174E+01    0.525E+02
DAV:  14    -0.178873789311E+04    0.10282E+03   -0.32523E+01 10176   0.155E+01    0.493E+02
DAV:  15    -0.173414989879E+04    0.54588E+02   -0.26041E+01  9312   0.106E+01    0.482E+02
DAV:  16    -0.164179069785E+04    0.92359E+02   -0.60783E+01  9960   0.216E+01    0.439E+02
DAV:  17    -0.144838558851E+04    0.19341E+03   -0.29270E+02  9080   0.343E+01    0.361E+02
DAV:  18    -0.133665595575E+04    0.11173E+03   -0.10888E+03 10288   0.596E+01    0.354E+02
DAV:  19    -0.184274837268E+04   -0.50609E+03   -0.10097E+03 10920   0.577E+01    0.599E+02
DAV:  20    -0.144034530432E+04    0.40240E+03   -0.24222E+02 10024   0.282E+01    0.515E+02
DAV:  21    -0.235633072727E+04   -0.91599E+03   -0.16695E+02  9848   0.306E+01    0.769E+02
DAV:  22    -0.263972789709E+04   -0.28340E+03   -0.60355E+01  9360   0.116E+01    0.772E+02
DAV:  23    -0.284335641250E+04   -0.20363E+03   -0.23895E+01  8240   0.429E+00    0.819E+02
DAV:  24    -0.285020678086E+04   -0.68504E+01   -0.17824E+00  8752   0.136E+00    0.821E+02
DAV:  25    -0.272483173102E+04    0.12538E+03   -0.91449E+00 11776   0.561E+00    0.771E+02
DAV:  26    -0.272338375136E+04    0.14480E+01   -0.15306E+00  7592   0.114E+00    0.769E+02
DAV:  27    -0.272784217618E+04   -0.44584E+01   -0.20007E-01 10136   0.754E-01    0.768E+02
DAV:  28    -0.281720970492E+04   -0.89368E+02   -0.25928E+01 10976   0.957E+00    0.829E+02
DAV:  29    -0.276206085003E+04    0.55149E+02   -0.91928E+01 10800   0.176E+01    0.840E+02
DAV:  30    -0.253110740070E+04    0.23095E+03   -0.15076E+02 10176   0.231E+01    0.801E+02
DAV:  31    -0.235563174589E+04    0.17548E+03   -0.74226E+01  9576   0.120E+01    0.762E+02
DAV:  32    -0.203200534442E+04    0.32363E+03   -0.66963E+01 10728   0.148E+01    0.708E+02
DAV:  33    -0.152484615237E+04    0.50716E+03   -0.70919E+01  9840   0.128E+01    0.649E+02
DAV:  34    -0.161218036168E+04   -0.87334E+02   -0.36756E+01  9704   0.104E+01    0.651E+02
DAV:  35    -0.125530937741E+04    0.35687E+03   -0.64480E+01 11024   0.150E+01    0.604E+02
DAV:  36    -0.115318800882E+04    0.10212E+03   -0.82673E+01 10552   0.121E+01    0.574E+02
DAV:  37    -0.105288569085E+04    0.10030E+03   -0.16773E+02 11176   0.163E+01    0.532E+02
DAV:  38    -0.106274760051E+04   -0.98619E+01   -0.81722E+01  9296   0.787E+00    0.531E+02
DAV:  39    -0.106549725543E+04   -0.27497E+01   -0.13069E+01  9088   0.264E+00    0.529E+02
DAV:  40    -0.107103659383E+04   -0.55393E+01   -0.66661E+00 10520   0.200E+00    0.536E+02
DAV:  41    -0.107200820399E+04   -0.97161E+00   -0.51686E-01  8296   0.621E-01    0.537E+02
DAV:  42    -0.107602311279E+04   -0.40149E+01   -0.10318E+00 11237   0.125E+00    0.535E+02
DAV:  43    -0.107924703724E+04   -0.32239E+01   -0.20933E+00 11136   0.187E+00    0.533E+02
DAV:  44    -0.107403890130E+04    0.52081E+01   -0.84553E+00 11349   0.414E+00    0.541E+02
DAV:  45    -0.107046871208E+04    0.35702E+01   -0.27444E+00  8480   0.130E+00    0.539E+02
DAV:  46    -0.107131273324E+04   -0.84402E+00   -0.26979E-01  8170   0.530E-01    0.539E+02
DAV:  47    -0.113841551453E+04   -0.67103E+02   -0.23304E+02  9040   0.230E+01    0.551E+02
DAV:  48    -0.105943228060E+04    0.78983E+02   -0.86489E+01  9088   0.161E+01    0.518E+02
DAV:  49    -0.104883110709E+04    0.10601E+02   -0.21689E+01  9608   0.644E+00    0.521E+02
DAV:  50    -0.106910509331E+04   -0.20274E+02   -0.37031E+01 10008   0.899E+00    0.530E+02
DAV:  51    -0.106041343065E+04    0.86917E+01   -0.16641E+01  9240   0.553E+00    0.535E+02
DAV:  52    -0.120343665514E+04   -0.14302E+03   -0.16223E+02 11120   0.240E+01    0.535E+02
DAV:  53    -0.120411864160E+04   -0.68199E+00   -0.62616E+01  9296   0.112E+01    0.535E+02
DAV:  54    -0.131378372954E+04   -0.10967E+03   -0.33290E+01 10832   0.117E+01    0.540E+02
DAV:  55    -0.133072680999E+04   -0.16943E+02   -0.12759E+01  8376   0.304E+00    0.544E+02
DAV:  56    -0.130612557585E+04    0.24601E+02   -0.43770E+00 10064   0.349E+00    0.543E+02
DAV:  57    -0.119323280626E+04    0.11289E+03   -0.91385E+01 11832   0.213E+01    0.534E+02
DAV:  58    -0.124142964752E+04   -0.48197E+02   -0.91351E+01  9400   0.156E+01    0.525E+02
DAV:  59    -0.117147550641E+04    0.69954E+02   -0.48522E+01  9576   0.100E+01    0.513E+02
DAV:  60    -0.115853498812E+04    0.12941E+02   -0.29789E+01  9480   0.765E+00
   2 F= -.12489999E+04 E0= -.12488961E+04  d E =0.393190E+05
       N       E                     dE             d eps       ncg     rms          rms(c)
DAV:   1    -0.136838663939E+04   -0.19691E+03   -0.39652E+04  6804   0.224E+02    0.426E+02
DAV:   2    -0.539893622522E+04   -0.40305E+04   -0.64776E+03 11570   0.162E+02    0.450E+02
DAV:   3    -0.211250316929E+05   -0.15726E+05   -0.20288E+05 12565   0.261E+02    0.166E+03
DAV:   4    -0.141655414562E+05    0.69595E+04   -0.38421E+04 10080   0.221E+02    0.152E+03
DAV:   5    -0.576428392721E+04    0.84013E+04   -0.83489E+03  9485   0.109E+02    0.749E+02
DAV:   6    -0.478474772341E+03    0.52858E+04   -0.58578E+04 10440   0.169E+02    0.279E+02
DAV:   7    -0.154660644694E+04   -0.10681E+04   -0.27123E+04  9808   0.193E+02    0.248E+02
DAV:   8    -0.198293251458E+04   -0.43633E+03   -0.65369E+03  9856   0.104E+02    0.246E+02
DAV:   9    -0.181714629718E+04    0.16579E+03   -0.10115E+03  9688   0.524E+01    0.231E+02
DAV:  10    -0.146717954376E+04    0.34997E+03   -0.26287E+02  9584   0.335E+01    0.168E+02
DAV:  11    -0.159334045063E+04   -0.12616E+03   -0.10782E+02  9520   0.227E+01    0.185E+02
DAV:  12    -0.135597090817E+04    0.23737E+03   -0.10300E+02  9952   0.192E+01    0.137E+02
DAV:  13    -0.131689462919E+04    0.39076E+02   -0.64139E+01  9408   0.149E+01    0.118E+02
DAV:  14    -0.126957833973E+04    0.47316E+02   -0.36294E+01 10080   0.138E+01    0.103E+02
DAV:  15    -0.125270049248E+04    0.16878E+02   -0.48232E+01 11088   0.147E+01    0.106E+02
DAV:  16    -0.123949743836E+04    0.13203E+02   -0.23763E+01 10104   0.954E+00    0.894E+01
DAV:  17    -0.123287686940E+04    0.66206E+01   -0.21215E+01 10776   0.109E+01    0.940E+01
DAV:  18    -0.122928432476E+04    0.35925E+01   -0.92877E+00  9392   0.561E+00    0.901E+01
DAV:  19    -0.122779263913E+04    0.14917E+01   -0.25036E+00  9016   0.246E+00    0.894E+01
DAV:  20    -0.122773195287E+04    0.60686E-01   -0.81560E-01  9464   0.993E-01    0.889E+01
DAV:  21    -0.122791565147E+04   -0.18370E+00   -0.82427E-02  9112   0.271E-01    0.891E+01
DAV:  22    -0.122892493993E+04   -0.10093E+01   -0.28688E+00 10944   0.229E+00    0.870E+01
DAV:  23    -0.122868177421E+04    0.24317E+00   -0.52195E+00 10853   0.351E+00    0.880E+01
DAV:  24    -0.122711384675E+04    0.15679E+01   -0.51786E+00  9624   0.296E+00    0.824E+01
DAV:  25    -0.122732722281E+04   -0.21338E+00   -0.64304E+00 10160   0.382E+00    0.848E+01
DAV:  26    -0.122756842035E+04   -0.24120E+00   -0.46498E+00 10480   0.406E+00    0.838E+01
DAV:  27    -0.122638852914E+04    0.11799E+01   -0.26016E+00  9784   0.291E+00    0.796E+01
DAV:  28    -0.122495705313E+04    0.14315E+01   -0.33726E+00 10616   0.367E+00    0.758E+01
DAV:  29    -0.122062499158E+04    0.43321E+01   -0.39045E+00 10000   0.361E+00    0.727E+01
DAV:  30    -0.121790651977E+04    0.27185E+01   -0.14651E+00  9856   0.205E+00    0.709E+01
DAV:  31    -0.121682497976E+04    0.10815E+01   -0.41112E-01  9248   0.858E-01    0.701E+01
DAV:  32    -0.121626206971E+04    0.56291E+00   -0.60529E-01  9744   0.795E-01    0.694E+01
DAV:  33    -0.121589619541E+04    0.36587E+00   -0.63807E-02  9192   0.304E-01    0.689E+01
DAV:  34    -0.121540098128E+04    0.49521E+00   -0.23135E+00 10800   0.134E+00    0.681E+01
DAV:  35    -0.121459994758E+04    0.80103E+00   -0.23243E-01  8896   0.613E-01    0.669E+01
DAV:  36    -0.121452741724E+04    0.72530E-01   -0.28758E-01  9240   0.482E-01    0.664E+01
DAV:  37    -0.121472549115E+04   -0.19807E+00   -0.37687E-02  8416   0.256E-01    0.670E+01
DAV:  38    -0.121379911521E+04    0.92638E+00   -0.12590E-01  8936   0.471E-01    0.652E+01
DAV:  39    -0.121235565348E+04    0.14435E+01   -0.87050E-01  9168   0.141E+00    0.609E+01
DAV:  40    -0.121118911798E+04    0.11665E+01   -0.13332E+00  8952   0.150E+00    0.561E+01
DAV:  41    -0.121026063735E+04    0.92848E+00   -0.65396E-01  9120   0.925E-01    0.527E+01
DAV:  42    -0.120997514111E+04    0.28550E+00   -0.39292E-01  9072   0.888E-01    0.495E+01
DAV:  43    -0.120960500663E+04    0.37013E+00   -0.25398E-01  9053   0.613E-01    0.466E+01
DAV:  44    -0.120940122413E+04    0.20378E+00   -0.22766E+00  8864   0.181E+00    0.392E+01
DAV:  45    -0.120855221710E+04    0.84901E+00   -0.92775E-01  9346   0.805E-01    0.347E+01
DAV:  46    -0.120977572742E+04   -0.12235E+01   -0.19017E+00  8848   0.132E+00    0.332E+01
DAV:  47    -0.120683099376E+04    0.29447E+01   -0.15063E+01 10442   0.568E+00    0.337E+01
DAV:  48    -0.120498827531E+04    0.18427E+01   -0.21294E+00  8016   0.136E+00    0.322E+01
DAV:  49    -0.120466259147E+04    0.32568E+00   -0.54098E-01  9288   0.778E-01    0.327E+01
DAV:  50    -0.120417126885E+04    0.49132E+00   -0.12229E-01  9144   0.576E-01    0.321E+01
DAV:  51    -0.120257608614E+04    0.15952E+01   -0.62094E-01  9832   0.980E-01    0.290E+01
DAV:  52    -0.120040155998E+04    0.21745E+01   -0.26879E+00 10648   0.202E+00    0.196E+01
DAV:  53    -0.119964520757E+04    0.75635E+00   -0.12161E+00  9992   0.192E+00    0.155E+01
DAV:  54    -0.119901989000E+04    0.62532E+00   -0.11517E+00  9704   0.130E+00    0.115E+01
DAV:  55    -0.119897474079E+04    0.45149E-01   -0.88747E-01  9584   0.997E-01    0.977E+00
DAV:  56    -0.119880155774E+04    0.17318E+00   -0.32473E-01  9528   0.857E-01    0.824E+00
DAV:  57    -0.119842308405E+04    0.37847E+00   -0.24397E+00 11384   0.358E+00    0.119E+01
DAV:  58    -0.119807028947E+04    0.35279E+00   -0.13153E+00  8416   0.121E+00    0.935E+00
DAV:  59    -0.119802898272E+04    0.41307E-01   -0.27337E-01  9512   0.824E-01    0.828E+00
DAV:  60    -0.119795283891E+04    0.76144E-01   -0.48468E-01  9696   0.842E-01
   3 F= -.12886023E+04 E0= -.12884325E+04  d E =0.392794E+05
       N       E                     dE             d eps       ncg     rms          rms(c)
DAV:   1     0.165063212174E+04    0.28487E+04   -0.22020E+05  7604   0.558E+02    0.623E+02
DAV:   2    -0.680162600410E+04   -0.84523E+04   -0.50204E+04 10610   0.261E+02    0.652E+02
DAV:   3    -0.303311478907E+05   -0.23530E+05   -0.40054E+05 13186   0.456E+02    0.167E+03
DAV:   4    -0.936394165167E+04    0.20967E+05   -0.51960E+04  9208   0.286E+02    0.986E+02
DAV:   5     0.120994779358E+04    0.10574E+05   -0.61329E+04 10104   0.164E+02    0.313E+02
DAV:   6    -0.469069252912E+04   -0.59006E+04   -0.59934E+04  9344   0.238E+02    0.511E+02
DAV:   7    -0.219702238152E+04    0.24937E+04   -0.17957E+04 10496   0.120E+02    0.321E+02
DAV:   8    -0.151539102647E+04    0.68163E+03   -0.17335E+03 10040   0.783E+01    0.263E+02
DAV:   9    -0.130615820467E+04    0.20923E+03   -0.35162E+02  9360   0.295E+01    0.226E+02
DAV:  10    -0.127735876119E+04    0.28799E+02   -0.86446E+01 10016   0.150E+01    0.241E+02
DAV:  11    -0.126297259570E+04    0.14386E+02   -0.33636E+01  9784   0.980E+00    0.231E+02
DAV:  12    -0.127248282918E+04   -0.95102E+01   -0.13267E+02 11352   0.243E+01    0.233E+02
DAV:  13    -0.121184270307E+04    0.60640E+02   -0.15053E+02 10840   0.283E+01    0.185E+02
DAV:  14    -0.142710319407E+04   -0.21526E+03   -0.24366E+02 10944   0.372E+01    0.242E+02
DAV:  15    -0.127897965294E+04    0.14812E+03   -0.22494E+02 10528   0.377E+01    0.161E+02
DAV:  16    -0.129004881146E+04   -0.11069E+02   -0.22408E+02 10352   0.293E+01    0.175E+02
DAV:  17    -0.117117863216E+04    0.11887E+03   -0.98458E+01  9512   0.148E+01    0.138E+02
DAV:  18    -0.117994929189E+04   -0.87707E+01   -0.38328E+01 10456   0.143E+01    0.144E+02
DAV:  19    -0.114001292129E+04    0.39936E+02   -0.28648E+01  9928   0.112E+01    0.115E+02
DAV:  20    -0.113072212651E+04    0.92908E+01   -0.82598E+00  8616   0.328E+00    0.110E+02
DAV:  21    -0.114100183504E+04   -0.10280E+02   -0.79634E+00 10376   0.516E+00    0.108E+02
DAV:  22    -0.113183556812E+04    0.91663E+01   -0.57276E+00 10040   0.377E+00    0.102E+02
DAV:  23    -0.111447165323E+04    0.17364E+02   -0.59001E+00 10048   0.378E+00    0.929E+01
DAV:  24    -0.110271935892E+04    0.11752E+02   -0.86008E+00 10040   0.531E+00    0.801E+01
DAV:  25    -0.108348989228E+04    0.19229E+02   -0.11558E+01  9824   0.534E+00    0.595E+01
DAV:  26    -0.107681439764E+04    0.66755E+01   -0.53617E+00  9653   0.336E+00    0.524E+01
DAV:  27    -0.107777412647E+04   -0.95973E+00   -0.34563E+00  9872   0.266E+00    0.533E+01
DAV:  28    -0.107799308993E+04   -0.21896E+00   -0.13664E+00  9885   0.187E+00    0.514E+01
DAV:  29    -0.107776027325E+04    0.23282E+00   -0.15103E+00  9928   0.192E+00    0.483E+01
DAV:  30    -0.107312330495E+04    0.46370E+01   -0.26202E+00  9389   0.203E+00    0.396E+01
DAV:  31    -0.106961924752E+04    0.35041E+01   -0.21926E+00  9608   0.229E+00    0.309E+01
DAV:  32    -0.106775531232E+04    0.18639E+01   -0.20200E+00  9362   0.142E+00    0.251E+01
DAV:  33    -0.106747129598E+04    0.28402E+00   -0.25999E-01  8584   0.657E-01    0.239E+01
DAV:  34    -0.106735686003E+04    0.11444E+00   -0.13026E-01  9869   0.472E-01    0.237E+01
DAV:  35    -0.106698961980E+04    0.36724E+00   -0.17568E-01  9744   0.526E-01    0.217E+01
DAV:  36    -0.106678212269E+04    0.20750E+00   -0.37229E-01 10053   0.816E-01    0.200E+01
DAV:  37    -0.106598313058E+04    0.79899E+00   -0.44157E-01  9504   0.880E-01    0.158E+01
DAV:  38    -0.106578421196E+04    0.19892E+00   -0.97248E-02  9032   0.428E-01    0.149E+01
DAV:  39    -0.106543960892E+04    0.34460E+00   -0.73140E-02  9240   0.388E-01    0.129E+01
DAV:  40    -0.106528956664E+04    0.15004E+00   -0.30073E-02  9096   0.222E-01    0.121E+01
DAV:  41    -0.106500307397E+04    0.28649E+00   -0.48023E-02  9592   0.363E-01    0.103E+01
DAV:  42    -0.106472128248E+04    0.28179E+00   -0.99973E-02  9320   0.400E-01    0.825E+00
DAV:  43    -0.106461215020E+04    0.10913E+00   -0.37133E-02  9144   0.268E-01    0.725E+00
DAV:  44    -0.106452062553E+04    0.91525E-01   -0.22374E-02  8936   0.215E-01    0.643E+00
DAV:  45    -0.106444112774E+04    0.79498E-01   -0.20336E-02  9216   0.199E-01    0.573E+00
DAV:  46    -0.106434434848E+04    0.96779E-01   -0.34267E-02  9253   0.271E-01    0.440E+00
DAV:  47    -0.106427492946E+04    0.69419E-01   -0.25070E-01  9288   0.754E-01    0.237E+00
DAV:  48    -0.106427486202E+04    0.67438E-04   -0.64070E-02  7968   0.228E-01    0.194E+00
DAV:  49    -0.106427032207E+04    0.45400E-02   -0.60622E-03  9432   0.910E-02    0.150E+00
DAV:  50    -0.106426965250E+04    0.66956E-03   -0.12538E-02  9560   0.135E-01    0.119E+00
DAV:  51    -0.106426913978E+04    0.51272E-03   -0.40492E-03  9000   0.114E-01    0.105E+00
DAV:  52    -0.106426380676E+04    0.53330E-02   -0.31381E-02  9624   0.189E-01    0.102E+00
DAV:  53    -0.106426146395E+04    0.23428E-02   -0.87251E-03  8744   0.103E-01    0.567E-01
DAV:  54    -0.106426219987E+04   -0.73592E-03   -0.39249E-03  9432   0.917E-02    0.565E-01
DAV:  55    -0.106426155477E+04    0.64509E-03   -0.18175E-03  9264   0.718E-02    0.398E-01
DAV:  56    -0.106426128474E+04    0.27003E-03   -0.74216E-04  9072   0.450E-02    0.262E-01
DAV:  57    -0.106426147052E+04   -0.18578E-03   -0.80821E-04 10400   0.473E-02    0.363E-01
DAV:  58    -0.106426134015E+04    0.13037E-03   -0.40107E-04  9288   0.270E-02    0.247E-01
DAV:  59    -0.106426149922E+04   -0.15907E-03   -0.40002E-04  8880   0.232E-02    0.295E-01
DAV:  60    -0.106426152205E+04   -0.22830E-04   -0.16925E-04  8752   0.186E-02
   4 F= -.11543369E+04 E0= -.11541952E+04  d E =0.134265E+03
       N       E                     dE             d eps       ncg     rms          rms(c)
DAV:   1    -0.125201142333E+04   -0.18775E+03   -0.21474E+04  6807   0.163E+02    0.129E+02
DAV:   2    -0.258891718735E+04   -0.13369E+04   -0.14095E+03 10352   0.615E+01    0.349E+02
DAV:   3    -0.187977238989E+04    0.70914E+03   -0.10305E+03 10589   0.600E+01    0.201E+02
DAV:   4    -0.181527652702E+04    0.64496E+02   -0.97171E+02 10144   0.653E+01    0.263E+02
DAV:   5    -0.146524738282E+04    0.35003E+03   -0.31492E+02 10136   0.282E+01    0.189E+02
DAV:   6    -0.169143957171E+04   -0.22619E+03   -0.76099E+01  9840   0.198E+01    0.225E+02
DAV:   7    -0.149548293199E+04    0.19596E+03   -0.16532E+02 11080   0.308E+01    0.140E+02
DAV:   8    -0.139822439581E+04    0.97259E+02   -0.11839E+02 10368   0.213E+01    0.789E+01
DAV:   9    -0.139009457433E+04    0.81298E+01   -0.58947E+01  9440   0.140E+01    0.797E+01
DAV:  10    -0.137836244208E+04    0.11732E+02   -0.35431E+01 10400   0.139E+01    0.755E+01
DAV:  11    -0.136023237734E+04    0.18130E+02   -0.22259E+01 10320   0.960E+00    0.748E+01
DAV:  12    -0.134484673116E+04    0.15386E+02   -0.88547E+00  9544   0.539E+00    0.639E+01
DAV:  13    -0.134280605188E+04    0.20407E+01   -0.31030E+00  9512   0.271E+00    0.613E+01
DAV:  14    -0.133730557545E+04    0.55005E+01   -0.22836E+00  9808   0.274E+00    0.525E+01
DAV:  15    -0.133198509124E+04    0.53205E+01   -0.71892E+00 10408   0.439E+00    0.448E+01
DAV:  16    -0.132962030825E+04    0.23648E+01   -0.57392E+00  9856   0.346E+00    0.360E+01
DAV:  17    -0.132871173380E+04    0.90857E+00   -0.50169E+00 10328   0.363E+00    0.325E+01
DAV:  18    -0.132670500839E+04    0.20067E+01   -0.66325E+00 10616   0.422E+00    0.274E+01
DAV:  19    -0.132382852695E+04    0.28765E+01   -0.44447E+00 10616   0.391E+00    0.216E+01
DAV:  20    -0.132291559145E+04    0.91294E+00   -0.23872E+00  9632   0.283E+00    0.194E+01
DAV:  21    -0.132270022675E+04    0.21536E+00   -0.22116E+00  9424   0.156E+00    0.183E+01
DAV:  22    -0.132268212392E+04    0.18103E-01   -0.57015E-01  9120   0.805E-01    0.169E+01
DAV:  23    -0.132268506108E+04   -0.29372E-02   -0.74969E-01 10424   0.132E+00    0.171E+01
DAV:  24    -0.132219260788E+04    0.49245E+00   -0.37635E-01  9736   0.108E+00    0.146E+01
DAV:  25    -0.132190802493E+04    0.28458E+00   -0.87293E-01 10112   0.142E+00    0.136E+01
DAV:  26    -0.132144229204E+04    0.46573E+00   -0.52013E-01  9376   0.104E+00    0.102E+01
DAV:  27    -0.132137550896E+04    0.66783E-01   -0.54481E-01  9528   0.777E-01    0.104E+01
DAV:  28    -0.132124454699E+04    0.13096E+00   -0.69893E-02  9056   0.430E-01    0.973E+00
DAV:  29    -0.132116349758E+04    0.81049E-01   -0.84487E-02  9360   0.398E-01    0.875E+00
DAV:  30    -0.132107768264E+04    0.85815E-01   -0.94850E-02  9552   0.479E-01    0.640E+00
DAV:  31    -0.132101035088E+04    0.67332E-01   -0.22780E-01  9488   0.575E-01    0.401E+00
DAV:  32    -0.132103541705E+04   -0.25066E-01   -0.72717E-02  9176   0.461E-01    0.345E+00
DAV:  33    -0.132101470128E+04    0.20716E-01   -0.30334E-02  9136   0.258E-01    0.235E+00
DAV:  34    -0.132101151719E+04    0.31841E-02   -0.20987E-02  9448   0.205E-01    0.189E+00
DAV:  35    -0.132100764158E+04    0.38756E-02   -0.12721E-02  9280   0.128E-01    0.149E+00
DAV:  36    -0.132100550905E+04    0.21325E-02   -0.76157E-03  9496   0.140E-01    0.128E+00
DAV:  37    -0.132100740827E+04   -0.18992E-02   -0.92602E-03  9472   0.133E-01    0.135E+00
DAV:  38    -0.132100202668E+04    0.53816E-02   -0.10380E-02  9384   0.132E-01    0.733E-01
DAV:  39    -0.132100239699E+04   -0.37032E-03   -0.30096E-03  9480   0.894E-02    0.593E-01
DAV:  40    -0.132100173777E+04    0.65923E-03   -0.13537E-03  9600   0.579E-02    0.404E-01
DAV:  41    -0.132100152177E+04    0.21600E-03   -0.62793E-04  9736   0.437E-02    0.321E-01
DAV:  42    -0.132100133668E+04    0.18509E-03   -0.86900E-04  9152   0.495E-02    0.279E-01
DAV:  43    -0.132100115506E+04    0.18161E-03   -0.69279E-04  8792   0.303E-02    0.150E-01
DAV:  44    -0.132100128969E+04   -0.13462E-03   -0.24126E-04  9288   0.208E-02    0.136E-01
DAV:  45    -0.132100137241E+04   -0.82724E-04   -0.13184E-04  8888   0.170E-02    0.120E-01
DAV:  46    -0.132100137966E+04   -0.72536E-05   -0.77218E-05  7568   0.124E-02    0.704E-02
DAV:  47    -0.132100140284E+04   -0.23179E-04   -0.85918E-05  8192   0.165E-02    0.669E-02
DAV:  48    -0.132100142664E+04   -0.23798E-04   -0.25882E-05  6560   0.657E-03    0.654E-02
DAV:  49    -0.132100143538E+04   -0.87353E-05   -0.10273E-05  4368   0.548E-03    0.330E-02
DAV:  50    -0.132100144705E+04   -0.11671E-04   -0.13226E-05  4520   0.467E-03    0.215E-02
DAV:  51    -0.132100145695E+04   -0.99041E-05   -0.41588E-06  4280   0.281E-03    0.188E-02
DAV:  52    -0.132100146563E+04   -0.86804E-05   -0.17001E-06  4240   0.212E-03    0.159E-02
DAV:  53    -0.132100147161E+04   -0.59749E-05   -0.21373E-06  4048   0.165E-03    0.152E-02
DAV:  54    -0.132100147997E+04   -0.83670E-05   -0.12841E-06  4280   0.139E-03    0.149E-02
DAV:  55    -0.132100148676E+04   -0.67875E-05   -0.87014E-07  4200   0.120E-03    0.136E-02
DAV:  56    -0.132100149278E+04   -0.60238E-05   -0.88578E-07  4232   0.888E-04    0.132E-02
DAV:  57    -0.132100149735E+04   -0.45677E-05   -0.56496E-07  4144   0.740E-04
   5 F= -.14114048E+04 E0= -.14112603E+04  d E =-.122802E+03
       N       E                     dE             d eps       ncg     rms          rms(c)
DAV:   1    -0.141395886996E+04   -0.92957E+02   -0.68355E+03  6796   0.892E+01    0.619E+01
DAV:   2    -0.172094737333E+04   -0.30699E+03   -0.33559E+02 10040   0.304E+01    0.150E+02
DAV:   3    -0.162535905182E+04    0.95588E+02   -0.17686E+02 10760   0.352E+01    0.131E+02
DAV:   4    -0.153413030086E+04    0.91229E+02   -0.12386E+02  9976   0.258E+01    0.150E+02
DAV:   5    -0.147866803195E+04    0.55462E+02   -0.25303E+01  8336   0.856E+00    0.103E+02
DAV:   6    -0.147619890096E+04    0.24691E+01   -0.14075E+01  9816   0.609E+00    0.115E+02
DAV:   7    -0.147622404344E+04   -0.25142E-01   -0.23985E+01 10608   0.776E+00    0.113E+02
DAV:   8    -0.145017385207E+04    0.26050E+02   -0.27475E+01 11168   0.107E+01    0.698E+01
DAV:   9    -0.143278094596E+04    0.17393E+02   -0.17483E+01 10152   0.728E+00    0.464E+01
DAV:  10    -0.143584154064E+04   -0.30606E+01   -0.13343E+01  9816   0.633E+00    0.425E+01
DAV:  11    -0.143649883097E+04   -0.65729E+00   -0.16029E+01 10424   0.724E+00    0.435E+01
DAV:  12    -0.143315928046E+04    0.33396E+01   -0.87091E+00  9712   0.423E+00    0.335E+01
DAV:  13    -0.143392156286E+04   -0.76228E+00   -0.61162E+00 10504   0.420E+00    0.337E+01
DAV:  14    -0.143111954531E+04    0.28020E+01   -0.20054E+00  9765   0.270E+00    0.259E+01
DAV:  15    -0.142996353593E+04    0.11560E+01   -0.22651E+00 10056   0.212E+00    0.186E+01
DAV:  16    -0.143035446370E+04   -0.39093E+00   -0.18980E+00  9992   0.199E+00    0.188E+01
DAV:  17    -0.142971479313E+04    0.63967E+00   -0.12372E+00 10176   0.183E+00    0.144E+01
DAV:  18    -0.142952786405E+04    0.18693E+00   -0.75383E-01  9824   0.148E+00    0.116E+01
DAV:  19    -0.142922512275E+04    0.30274E+00   -0.47131E-01 10080   0.120E+00    0.815E+00
DAV:  20    -0.142914354798E+04    0.81575E-01   -0.46695E-01 10248   0.829E-01    0.611E+00
DAV:  21    -0.142916234118E+04   -0.18793E-01   -0.33450E-01 10024   0.771E-01    0.610E+00
DAV:  22    -0.142915196519E+04    0.10376E-01   -0.20051E-01 10192   0.838E-01    0.526E+00
DAV:  23    -0.142906546145E+04    0.86504E-01   -0.36426E-01 10904   0.840E-01    0.463E+00
DAV:  24    -0.142905151561E+04    0.13946E-01   -0.70007E-02  9272   0.386E-01    0.336E+00
DAV:  25    -0.142905238003E+04   -0.86442E-03   -0.34919E-02  9928   0.267E-01    0.313E+00
DAV:  26    -0.142905003304E+04    0.23470E-02   -0.21346E-02 10048   0.254E-01    0.278E+00
DAV:  27    -0.142903405072E+04    0.15982E-01   -0.93569E-02  9864   0.288E-01    0.170E+00
DAV:  28    -0.142903090079E+04    0.31499E-02   -0.27902E-02  9936   0.270E-01    0.145E+00
DAV:  29    -0.142902835092E+04    0.25499E-02   -0.10202E-02  9344   0.162E-01    0.146E+00
DAV:  30    -0.142902519620E+04    0.31547E-02   -0.66606E-03  9632   0.115E-01    0.840E-01
DAV:  31    -0.142902510572E+04    0.90485E-04   -0.37143E-03  9552   0.829E-02    0.655E-01
DAV:  32    -0.142902576380E+04   -0.65808E-03   -0.33694E-03  9384   0.726E-02    0.776E-01
DAV:  33    -0.142902593702E+04   -0.17323E-03   -0.14191E-03  9704   0.655E-02    0.840E-01
DAV:  34    -0.142902526496E+04    0.67206E-03   -0.92318E-04  9584   0.475E-02    0.636E-01
DAV:  35    -0.142902498539E+04    0.27957E-03   -0.45448E-04  9856   0.352E-02    0.498E-01
DAV:  36    -0.142902496744E+04    0.17951E-04   -0.57010E-04  9112   0.246E-02    0.442E-01
DAV:  37    -0.142902467519E+04    0.29225E-03   -0.22035E-04  8936   0.196E-02    0.278E-01
DAV:  38    -0.142902464460E+04    0.30586E-04   -0.10067E-04  9344   0.159E-02    0.206E-01
DAV:  39    -0.142902458799E+04    0.56614E-04   -0.14862E-04  8232   0.145E-02    0.138E-01
DAV:  40    -0.142902461293E+04   -0.24942E-04   -0.25945E-05  7016   0.851E-03    0.137E-01
DAV:  41    -0.142902460457E+04    0.83600E-05   -0.10465E-05  4272   0.616E-03    0.120E-01
DAV:  42    -0.142902459547E+04    0.90976E-05   -0.11385E-05  4456   0.614E-03    0.921E-02
DAV:  43    -0.142902459043E+04    0.50478E-05   -0.19085E-05  5424   0.529E-03    0.620E-02
DAV:  44    -0.142902459110E+04   -0.67567E-06   -0.81564E-06  4040   0.403E-03
   6 F= -.15194922E+04 E0= -.15193337E+04  d E =-.230890E+03
       N       E                     dE             d eps       ncg     rms          rms(c)
DAV:   1    -0.143251937340E+04   -0.34948E+01   -0.35611E+04  6820   0.210E+02    0.137E+02
DAV:   2    -0.373853903226E+04   -0.23060E+04   -0.24250E+03 10280   0.845E+01    0.356E+02
DAV:   3    -0.212794662305E+04    0.16106E+04   -0.14691E+03 10562   0.690E+01    0.228E+02
DAV:   4    -0.183735333117E+04    0.29059E+03   -0.78595E+02  9936   0.472E+01    0.198E+02
DAV:   5    -0.171266530910E+04    0.12469E+03   -0.21781E+02 10024   0.311E+01    0.123E+02
DAV:   6    -0.199578773831E+04   -0.28312E+03   -0.28049E+02 10944   0.401E+01    0.223E+02
DAV:   7    -0.177305684415E+04    0.22273E+03   -0.13506E+02 10608   0.279E+01    0.172E+02
DAV:   8    -0.177664160063E+04   -0.35848E+01   -0.10345E+02  9904   0.210E+01    0.164E+02
DAV:   9    -0.173648106381E+04    0.40161E+02   -0.60416E+01  9864   0.167E+01    0.143E+02
DAV:  10    -0.166506452985E+04    0.71417E+02   -0.52703E+01 11098   0.158E+01    0.108E+02
DAV:  11    -0.160863679921E+04    0.56428E+02   -0.40773E+01 11208   0.130E+01    0.640E+01
DAV:  12    -0.158982739220E+04    0.18809E+02   -0.29117E+01  9840   0.979E+00    0.467E+01
DAV:  13    -0.158375625582E+04    0.60711E+01   -0.10933E+01  9080   0.579E+00    0.362E+01
DAV:  14    -0.158163296383E+04    0.21233E+01   -0.38517E+00  9232   0.330E+00    0.322E+01
DAV:  15    -0.158008361712E+04    0.15493E+01   -0.38486E+00  9608   0.294E+00    0.294E+01
DAV:  16    -0.158102653556E+04   -0.94292E+00   -0.36202E+00  9800   0.308E+00    0.296E+01
DAV:  17    -0.157991907579E+04    0.11075E+01   -0.49328E+00 10608   0.432E+00    0.270E+01
DAV:  18    -0.157856976142E+04    0.13493E+01   -0.31185E+00  9360   0.356E+00    0.186E+01
DAV:  19    -0.157842437273E+04    0.14539E+00   -0.36309E+00  9872   0.346E+00    0.194E+01
DAV:  20    -0.157703371394E+04    0.13907E+01   -0.18948E+00  9728   0.229E+00    0.124E+01
DAV:  21    -0.157679326208E+04    0.24045E+00   -0.50061E-01  9368   0.110E+00    0.955E+00
DAV:  22    -0.157678690916E+04    0.63529E-02   -0.50696E-01 10336   0.865E-01    0.100E+01
DAV:  23    -0.157664132941E+04    0.14558E+00   -0.13723E-01  9920   0.683E-01    0.878E+00
DAV:  24    -0.157663068135E+04    0.10648E-01   -0.54903E-01 10072   0.868E-01    0.722E+00
DAV:  25    -0.157651656757E+04    0.11411E+00   -0.30532E-01  9816   0.954E-01    0.546E+00
DAV:  26    -0.157647247020E+04    0.44097E-01   -0.19159E-01  9616   0.718E-01    0.431E+00
DAV:  27    -0.157646871098E+04    0.37592E-02   -0.81636E-02  9216   0.427E-01    0.342E+00
DAV:  28    -0.157648421670E+04   -0.15506E-01   -0.56103E-02  9560   0.375E-01    0.370E+00
DAV:  29    -0.157648612489E+04   -0.19082E-02   -0.10296E-01 10176   0.473E-01    0.324E+00
DAV:  30    -0.157646529773E+04    0.20827E-01   -0.49477E-02  9840   0.395E-01    0.228E+00
DAV:  31    -0.157646686608E+04   -0.15683E-02   -0.27126E-02  9600   0.276E-01    0.235E+00
DAV:  32    -0.157645715202E+04    0.97141E-02   -0.16252E-02  9248   0.190E-01    0.163E+00
DAV:  33    -0.157645861012E+04   -0.14581E-02   -0.75628E-03  9888   0.137E-01    0.121E+00
DAV:  34    -0.157645830629E+04    0.30382E-03   -0.78195E-03  9584   0.115E-01    0.773E-01
DAV:  35    -0.157645886542E+04   -0.55913E-03   -0.40708E-03  9472   0.102E-01    0.525E-01
DAV:  36    -0.157645909300E+04   -0.22757E-03   -0.17811E-03  8784   0.626E-02    0.349E-01
DAV:  37    -0.157645920016E+04   -0.10716E-03   -0.65290E-04  8960   0.410E-02    0.296E-01
DAV:  38    -0.157645895750E+04    0.24266E-03   -0.54886E-04  9912   0.415E-02    0.210E-01
DAV:  39    -0.157645900765E+04   -0.50145E-04   -0.66663E-04  9528   0.342E-02    0.233E-01
DAV:  40    -0.157645892303E+04    0.84624E-04   -0.23838E-04  8456   0.239E-02    0.118E-01
DAV:  41    -0.157645900032E+04   -0.77292E-04   -0.10111E-04  8728   0.210E-02    0.108E-01
DAV:  42    -0.157645902195E+04   -0.21629E-04   -0.57873E-05  7832   0.120E-02    0.858E-02
DAV:  43    -0.157645903895E+04   -0.17008E-04   -0.29984E-05  5912   0.105E-02    0.598E-02
DAV:  44    -0.157645906271E+04   -0.23758E-04   -0.33493E-05  6176   0.868E-03    0.502E-02
DAV:  45    -0.157645908399E+04   -0.21273E-04   -0.22870E-05  4392   0.575E-03    0.292E-02
DAV:  46    -0.157645911330E+04   -0.29319E-04   -0.40851E-05  4560   0.666E-03    0.576E-02
DAV:  47    -0.157645910830E+04    0.50007E-05   -0.26223E-05  4008   0.465E-03    0.212E-02
DAV:  48    -0.157645912334E+04   -0.15041E-04   -0.72350E-06  4176   0.341E-03    0.259E-02
DAV:  49    -0.157645912967E+04   -0.63274E-05   -0.46942E-06  3968   0.239E-03    0.151E-02
DAV:  50    -0.157645913893E+04   -0.92625E-05   -0.11657E-06  4096   0.146E-03    0.137E-02
DAV:  51    -0.157645914667E+04   -0.77309E-05   -0.10404E-06  3984   0.138E-03    0.123E-02
DAV:  52    -0.157645915114E+04   -0.44783E-05   -0.87259E-07  3904   0.117E-03
   7 F= -.16666347E+04 E0= -.16664377E+04  d E =-.378032E+03
       N       E                     dE             d eps       ncg     rms          rms(c)
DAV:   1    -0.157579334873E+04    0.66580E+00   -0.15626E+03  6796   0.418E+01    0.328E+01
DAV:   2    -0.163249886119E+04   -0.56706E+02   -0.77556E+01  9880   0.146E+01    0.766E+01
DAV:   3    -0.166254930090E+04   -0.30050E+02   -0.70497E+01 11080   0.204E+01    0.725E+01
DAV:   4    -0.158342006534E+04    0.79129E+02   -0.26870E+01 10144   0.135E+01    0.447E+01
DAV:   5    -0.158802015282E+04   -0.46001E+01   -0.16804E+01 10216   0.678E+00    0.390E+01
DAV:   6    -0.161855487279E+04   -0.30535E+02   -0.39734E+01 11656   0.132E+01    0.743E+01
DAV:   7    -0.159365053110E+04    0.24904E+02   -0.13678E+01  9432   0.504E+00    0.566E+01
DAV:   8    -0.159167395038E+04    0.19766E+01   -0.30842E+00 10272   0.315E+00    0.512E+01
DAV:   9    -0.159006585914E+04    0.16081E+01   -0.75732E+00 10664   0.380E+00    0.446E+01
DAV:  10    -0.158626602824E+04    0.37998E+01   -0.69771E+00 11136   0.379E+00    0.405E+01
DAV:  11    -0.158237832413E+04    0.38877E+01   -0.61149E+00 10632   0.329E+00    0.307E+01
DAV:  12    -0.157980385765E+04    0.25745E+01   -0.19054E+00 10608   0.223E+00    0.230E+01
DAV:  13    -0.157867486999E+04    0.11290E+01   -0.67784E-01  9528   0.130E+00    0.195E+01
DAV:  14    -0.157832131427E+04    0.35356E+00   -0.25489E-01  8480   0.615E-01    0.167E+01
DAV:  15    -0.157809015277E+04    0.23116E+00   -0.11756E-01  9544   0.382E-01    0.154E+01
DAV:  16    -0.157809476647E+04   -0.46137E-02   -0.17305E-01 10336   0.510E-01    0.151E+01
DAV:  17    -0.157782475215E+04    0.27001E+00   -0.10794E-01  9336   0.349E-01    0.133E+01
DAV:  18    -0.157756183328E+04    0.26292E+00   -0.32374E-01 10392   0.663E-01    0.115E+01
DAV:  19    -0.157733169038E+04    0.23014E+00   -0.27072E-01  9680   0.880E-01    0.867E+00
DAV:  20    -0.157717753509E+04    0.15416E+00   -0.53273E-01  9696   0.869E-01    0.544E+00
DAV:  21    -0.157721426344E+04   -0.36728E-01   -0.11433E-01  8888   0.482E-01    0.520E+00
DAV:  22    -0.157722011601E+04   -0.58526E-02   -0.82510E-02  8688   0.285E-01    0.448E+00
DAV:  23    -0.157729251534E+04   -0.72399E-01   -0.44355E-01 10648   0.551E-01    0.497E+00
DAV:  24    -0.157719732234E+04    0.95193E-01   -0.17078E-01  9936   0.434E-01    0.250E+00
DAV:  25    -0.157718953239E+04    0.77899E-02   -0.11658E-01  9736   0.339E-01    0.208E+00
DAV:  26    -0.157719038909E+04   -0.85670E-03   -0.21808E-02  9736   0.248E-01    0.171E+00
DAV:  27    -0.157718548464E+04    0.49045E-02   -0.11636E-02  9296   0.149E-01    0.125E+00
DAV:  28    -0.157718494113E+04    0.54351E-03   -0.46587E-03  9688   0.100E-01    0.104E+00
DAV:  29    -0.157718439312E+04    0.54800E-03   -0.13171E-03  8760   0.543E-02    0.931E-01
DAV:  30    -0.157718460214E+04   -0.20901E-03   -0.11921E-03  9576   0.578E-02    0.793E-01
DAV:  31    -0.157718534413E+04   -0.74200E-03   -0.22172E-03 10504   0.785E-02    0.860E-01
DAV:  32    -0.157718337444E+04    0.19697E-02   -0.35608E-03  9800   0.671E-02    0.452E-01
DAV:  33    -0.157718384096E+04   -0.46652E-03   -0.58341E-04  9040   0.368E-02    0.374E-01
DAV:  34    -0.157718387684E+04   -0.35889E-04   -0.22443E-04  8952   0.213E-02    0.341E-01
DAV:  35    -0.157718381379E+04    0.63050E-04   -0.43363E-04  9568   0.285E-02    0.262E-01
DAV:  36    -0.157718371562E+04    0.98170E-04   -0.28167E-04  9184   0.236E-02    0.146E-01
DAV:  37    -0.157718372834E+04   -0.12718E-04   -0.13475E-04  8664   0.180E-02    0.108E-01
DAV:  38    -0.157718372130E+04    0.70375E-05   -0.63365E-05  7864   0.127E-02    0.642E-02
DAV:  39    -0.157718372573E+04   -0.44266E-05   -0.52429E-05  5512   0.894E-03    0.485E-02
DAV:  40    -0.157718372346E+04    0.22696E-05   -0.31594E-05  4048   0.651E-03
   8 F= -.16674348E+04 E0= -.16672356E+04  d E =-.378832E+03
       N       E                     dE             d eps       ncg     rms          rms(c)
DAV:   1    -0.157875642310E+04   -0.15727E+01   -0.37879E+02  6796   0.205E+01    0.154E+01
DAV:   2    -0.159245614098E+04   -0.13700E+02   -0.19327E+01  9560   0.645E+00    0.555E+01
DAV:   3    -0.159453573683E+04   -0.20796E+01   -0.26604E+01 10480   0.750E+00    0.457E+01
DAV:   4    -0.158178088860E+04    0.12755E+02   -0.16989E+01 10160   0.538E+00    0.239E+01
DAV:   5    -0.159365928431E+04   -0.11878E+02   -0.11848E+01 11632   0.740E+00    0.598E+01
DAV:   6    -0.158702203844E+04    0.66372E+01   -0.32741E+00  9373   0.289E+00    0.472E+01
DAV:   7    -0.158430212651E+04    0.27199E+01   -0.18968E+00 10256   0.231E+00    0.395E+01
DAV:   8    -0.158189728005E+04    0.24048E+01   -0.16018E+00 10741   0.225E+00    0.284E+01
DAV:   9    -0.157980079432E+04    0.20965E+01   -0.21366E+00 11224   0.205E+00    0.182E+01
DAV:  10    -0.158010929768E+04   -0.30850E+00   -0.11168E+00 10357   0.147E+00    0.178E+01
DAV:  11    -0.157938796785E+04    0.72133E+00   -0.18662E+00 10424   0.156E+00    0.128E+01
DAV:  12    -0.157935471336E+04    0.33254E-01   -0.89403E-01 10344   0.142E+00    0.974E+00
DAV:  13    -0.157904267896E+04    0.31203E+00   -0.12105E+00 10704   0.120E+00    0.567E+00
DAV:  14    -0.157902902078E+04    0.13658E-01   -0.17260E-01  9976   0.700E-01    0.409E+00
DAV:  15    -0.157902312970E+04    0.58911E-02   -0.20591E-01 10296   0.565E-01    0.390E+00
DAV:  16    -0.157898857228E+04    0.34557E-01   -0.40062E-02  9392   0.300E-01    0.266E+00
DAV:  17    -0.157899695404E+04   -0.83818E-02   -0.27912E-02 10384   0.271E-01    0.257E+00
DAV:  18    -0.157899853519E+04   -0.15812E-02   -0.29915E-02 10440   0.333E-01    0.233E+00
DAV:  19    -0.157898953473E+04    0.90005E-02   -0.43811E-02 10384   0.347E-01    0.189E+00
DAV:  20    -0.157898361401E+04    0.59207E-02   -0.36524E-02  9896   0.265E-01    0.130E+00
DAV:  21    -0.157898195269E+04    0.16613E-02   -0.13854E-02  9464   0.187E-01    0.111E+00
DAV:  22    -0.157898102053E+04    0.93216E-03   -0.42908E-03  9288   0.105E-01    0.927E-01
DAV:  23    -0.157898040808E+04    0.61245E-03   -0.22260E-03  9688   0.698E-02    0.680E-01
DAV:  24    -0.157897980710E+04    0.60098E-03   -0.99648E-04  9728   0.549E-02    0.494E-01
DAV:  25    -0.157898002581E+04   -0.21871E-03   -0.15619E-03 10448   0.541E-02    0.462E-01
DAV:  26    -0.157897957612E+04    0.44969E-03   -0.12453E-03 10192   0.492E-02    0.332E-01
DAV:  27    -0.157897943198E+04    0.14414E-03   -0.38524E-04  9672   0.319E-02    0.184E-01
DAV:  28    -0.157897945184E+04   -0.19865E-04   -0.22129E-04  9544   0.221E-02    0.153E-01
DAV:  29    -0.157897943935E+04    0.12494E-04   -0.87259E-05  8712   0.163E-02    0.117E-01
DAV:  30    -0.157897945236E+04   -0.13015E-04   -0.89787E-05  7432   0.151E-02    0.997E-02
DAV:  31    -0.157897944178E+04    0.10586E-04   -0.76729E-05  6816   0.128E-02    0.887E-02
DAV:  32    -0.157897943878E+04    0.29970E-05   -0.21831E-05  4256   0.675E-03
   9 F= -.16691915E+04 E0= -.16689923E+04  d E =-.380589E+03
       N       E                     dE             d eps       ncg     rms          rms(c)
DAV:   1    -0.181487488091E+04   -0.23590E+03   -0.11688E+04  6820   0.117E+02    0.102E+02
DAV:   2    -0.305923817385E+04   -0.12444E+04   -0.98929E+02  9874   0.603E+01    0.343E+02
DAV:   3    -0.212055016927E+04    0.93869E+03   -0.68447E+02 10128   0.485E+01    0.201E+02
DAV:   4    -0.198234056992E+04    0.13821E+03   -0.40503E+02  9848   0.434E+01    0.159E+02
DAV:   5    -0.191066327630E+04    0.71677E+02   -0.23159E+02 11272   0.342E+01    0.109E+02
DAV:   6    -0.187617247115E+04    0.34491E+02   -0.11170E+02 10080   0.242E+01    0.106E+02
DAV:   7    -0.188873062354E+04   -0.12558E+02   -0.37133E+01  9240   0.985E+00    0.969E+01
DAV:   8    -0.191350114082E+04   -0.24771E+02   -0.31699E+01 10512   0.142E+01    0.102E+02
DAV:   9    -0.188139730252E+04    0.32104E+02   -0.23899E+01 10816   0.122E+01    0.807E+01
DAV:  10    -0.186587313936E+04    0.15524E+02   -0.21305E+01 10464   0.921E+00    0.644E+01
DAV:  11    -0.185167634223E+04    0.14197E+02   -0.15170E+01 10496   0.735E+00    0.457E+01
DAV:  12    -0.184868509166E+04    0.29913E+01   -0.76830E+00  9792   0.448E+00    0.397E+01
DAV:  13    -0.184653942120E+04    0.21457E+01   -0.28508E+00  9480   0.264E+00    0.342E+01
DAV:  14    -0.184622133721E+04    0.31808E+00   -0.82761E-01  8744   0.952E-01    0.352E+01
DAV:  15    -0.184609007069E+04    0.13127E+00   -0.11643E-01  9544   0.342E-01    0.349E+01
DAV:  16    -0.184598846845E+04    0.10160E+00   -0.27399E-01 11064   0.584E-01    0.339E+01
DAV:  17    -0.184390651675E+04    0.20820E+01   -0.52687E+00 11576   0.269E+00    0.270E+01
DAV:  18    -0.184267275369E+04    0.12338E+01   -0.16675E+00  8968   0.127E+00    0.234E+01
DAV:  19    -0.184276770117E+04   -0.94947E-01   -0.22948E+00 10400   0.177E+00    0.256E+01
DAV:  20    -0.184195202045E+04    0.81568E+00   -0.89961E-01 10344   0.124E+00    0.237E+01
DAV:  21    -0.184138353157E+04    0.56849E+00   -0.64942E-01 10256   0.103E+00    0.231E+01
DAV:  22    -0.184070387244E+04    0.67966E+00   -0.29630E-01  9557   0.962E-01    0.210E+01
DAV:  23    -0.183996040506E+04    0.74347E+00   -0.33864E-01  9480   0.103E+00    0.186E+01
DAV:  24    -0.183924952670E+04    0.71088E+00   -0.48273E-01  9781   0.108E+00    0.150E+01
DAV:  25    -0.183892068818E+04    0.32884E+00   -0.34598E-01  9544   0.100E+00    0.125E+01
DAV:  26    -0.183865589356E+04    0.26479E+00   -0.26648E-01  9408   0.805E-01    0.976E+00
DAV:  27    -0.183852172971E+04    0.13416E+00   -0.14354E-01  9392   0.655E-01    0.817E+00
DAV:  28    -0.183840892161E+04    0.11281E+00   -0.11214E-01  9520   0.528E-01    0.654E+00
DAV:  29    -0.183834149381E+04    0.67428E-01   -0.79168E-02  9208   0.441E-01    0.506E+00
DAV:  30    -0.183830829456E+04    0.33199E-01   -0.13724E-01  9336   0.475E-01    0.399E+00
DAV:  31    -0.183830406408E+04    0.42305E-02   -0.16334E-01  8848   0.450E-01    0.371E+00
DAV:  32    -0.183827859442E+04    0.25470E-01   -0.15621E-01  9072   0.350E-01    0.269E+00
DAV:  33    -0.183827295401E+04    0.56404E-02   -0.11362E-01  9200   0.298E-01    0.231E+00
DAV:  34    -0.183826371944E+04    0.92346E-02   -0.19664E-02  8568   0.133E-01    0.178E+00
DAV:  35    -0.183827137486E+04   -0.76554E-02   -0.30216E-02  9544   0.135E-01    0.208E+00
DAV:  36    -0.183826209785E+04    0.92770E-02   -0.52094E-03  8736   0.736E-02    0.157E+00
DAV:  37    -0.183825834141E+04    0.37564E-02   -0.50841E-03  9949   0.110E-01    0.112E+00
DAV:  38    -0.183825621689E+04    0.21245E-02   -0.47509E-03  9360   0.837E-02    0.645E-01
DAV:  39    -0.183825629970E+04   -0.82811E-04   -0.11967E-03  8138   0.409E-02    0.500E-01
DAV:  40    -0.183825676456E+04   -0.46486E-03   -0.27097E-04  9016   0.235E-02    0.506E-01
DAV:  41    -0.183825661095E+04    0.15361E-03   -0.13562E-04  8816   0.190E-02    0.452E-01
DAV:  42    -0.183825643045E+04    0.18050E-03   -0.34344E-04  8816   0.278E-02    0.305E-01
DAV:  43    -0.183825632982E+04    0.10063E-03   -0.25704E-04  9216   0.271E-02    0.182E-01
DAV:  44    -0.183825634498E+04   -0.15158E-04   -0.16252E-04  8952   0.173E-02    0.169E-01
DAV:  45    -0.183825627204E+04    0.72941E-04   -0.69721E-05  8384   0.132E-02    0.114E-01
DAV:  46    -0.183825625291E+04    0.19133E-04   -0.96147E-05  8240   0.121E-02    0.593E-02
DAV:  47    -0.183825628021E+04   -0.27299E-04   -0.10890E-04  8408   0.143E-02    0.728E-02
DAV:  48    -0.183825628432E+04   -0.41178E-05   -0.30364E-05  6576   0.833E-03
  10 F= -.19283011E+04 E0= -.19281244E+04  d E =-.259110E+03
       N       E                     dE             d eps       ncg     rms          rms(c)
DAV:   1    -0.189741630044E+04   -0.59160E+02   -0.25888E+03  6796   0.534E+01    0.539E+01
DAV:   2    -0.204886399891E+04   -0.15145E+03   -0.17284E+02  9848   0.231E+01    0.133E+02
DAV:   3    -0.205818657379E+04   -0.93226E+01   -0.15542E+02 10800   0.316E+01    0.957E+01
DAV:   4    -0.195163398365E+04    0.10655E+03   -0.62420E+01 10080   0.227E+01    0.959E+01
DAV:   5    -0.191762625392E+04    0.34008E+02   -0.42317E+01 10944   0.171E+01    0.508E+01
DAV:   6    -0.192349873543E+04   -0.58725E+01   -0.43775E+01 10592   0.145E+01    0.675E+01
DAV:   7    -0.191604270597E+04    0.74560E+01   -0.29939E+01 10528   0.103E+01    0.525E+01
DAV:   8    -0.191295552514E+04    0.30872E+01   -0.15173E+01  9928   0.725E+00    0.544E+01
DAV:   9    -0.190890537506E+04    0.40502E+01   -0.76913E+00 10032   0.533E+00    0.432E+01
DAV:  10    -0.190796777654E+04    0.93760E+00   -0.11012E+01 10648   0.463E+00    0.361E+01
DAV:  11    -0.190239131710E+04    0.55765E+01   -0.63099E+00 10840   0.405E+00    0.241E+01
DAV:  12    -0.190032247002E+04    0.20688E+01   -0.33552E+00 10320   0.268E+00    0.159E+01
DAV:  13    -0.189944443401E+04    0.87804E+00   -0.16674E+00  9960   0.200E+00    0.105E+01
DAV:  14    -0.189948953495E+04   -0.45101E-01   -0.11321E+00 10000   0.164E+00    0.122E+01
DAV:  15    -0.189926848285E+04    0.22105E+00   -0.40535E-01  9776   0.949E-01    0.822E+00
DAV:  16    -0.189924475582E+04    0.23727E-01   -0.22365E-01  9672   0.625E-01    0.818E+00
DAV:  17    -0.189923547016E+04    0.92857E-02   -0.15466E-01 10416   0.736E-01    0.635E+00
DAV:  18    -0.189928138313E+04   -0.45913E-01   -0.21926E-01 10384   0.782E-01    0.723E+00
DAV:  19    -0.189917576246E+04    0.10562E+00   -0.40532E-01 10840   0.883E-01    0.472E+00
DAV:  20    -0.189912740450E+04    0.48358E-01   -0.15214E-01 10064   0.672E-01    0.459E+00
DAV:  21    -0.189911746181E+04    0.99427E-02   -0.54559E-02  9232   0.361E-01    0.373E+00
DAV:  22    -0.189911312359E+04    0.43382E-02   -0.31936E-02  9912   0.311E-01    0.337E+00
DAV:  23    -0.189909849182E+04    0.14632E-01   -0.27932E-02 10032   0.280E-01    0.243E+00
DAV:  24    -0.189909352704E+04    0.49648E-02   -0.29198E-02 10648   0.286E-01    0.154E+00
DAV:  25    -0.189908795194E+04    0.55751E-02   -0.20779E-02  9848   0.240E-01    0.989E-01
DAV:  26    -0.189908786382E+04    0.88124E-04   -0.10110E-02  9440   0.162E-01    0.109E+00
DAV:  27    -0.189908701477E+04    0.84904E-03   -0.77062E-03  9552   0.118E-01    0.779E-01
DAV:  28    -0.189908596236E+04    0.10524E-02   -0.26017E-03 10208   0.935E-02    0.435E-01
DAV:  29    -0.189908658187E+04   -0.61950E-03   -0.17315E-03  9816   0.782E-02    0.500E-01
DAV:  30    -0.189908620351E+04    0.37836E-03   -0.88406E-04  9392   0.563E-02    0.428E-01
DAV:  31    -0.189908598847E+04    0.21504E-03   -0.47447E-04  9680   0.394E-02    0.296E-01
DAV:  32    -0.189908588823E+04    0.10024E-03   -0.41697E-04 10160   0.332E-02    0.245E-01
DAV:  33    -0.189908568482E+04    0.20341E-03   -0.55068E-04 10248   0.267E-02    0.114E-01
DAV:  34    -0.189908566814E+04    0.16679E-04   -0.16985E-04  8816   0.172E-02    0.881E-02
DAV:  35    -0.189908564930E+04    0.18847E-04   -0.12352E-04  7992   0.130E-02    0.683E-02
DAV:  36    -0.189908565669E+04   -0.73891E-05   -0.97502E-05  5240   0.928E-03    0.689E-02
DAV:  37    -0.189908564507E+04    0.11619E-04   -0.17756E-05  4504   0.804E-03    0.400E-02
DAV:  38    -0.189908564464E+04    0.43074E-06   -0.88091E-06  4584   0.608E-03
  11 F= -.19890585E+04 E0= -.19888842E+04  d E =-.319867E+03
       N       E                     dE             d eps       ncg     rms          rms(c)
DAV:   1    -0.196076986456E+04   -0.61684E+02   -0.10127E+04  6812   0.109E+02    0.956E+01
DAV:   2    -0.246044322644E+04   -0.49967E+03   -0.57938E+02  9112   0.429E+01    0.201E+02
DAV:   3    -0.233946917711E+04    0.12097E+03   -0.24662E+02 10568   0.548E+01    0.149E+02
DAV:   4    -0.211538116701E+04    0.22409E+03   -0.22237E+02 10272   0.363E+01    0.111E+02
DAV:   5    -0.210505933130E+04    0.10322E+02   -0.11312E+02 11200   0.363E+01    0.127E+02
DAV:   6    -0.200702425911E+04    0.98035E+02   -0.12391E+02 10328   0.232E+01    0.627E+01
DAV:   7    -0.202155535644E+04   -0.14531E+02   -0.80949E+01 10384   0.170E+01    0.660E+01
DAV:   8    -0.203024465398E+04   -0.86893E+01   -0.44090E+01  9904   0.139E+01    0.728E+01
DAV:   9    -0.201438999888E+04    0.15855E+02   -0.28845E+01 10080   0.111E+01    0.571E+01
DAV:  10    -0.200928205838E+04    0.51079E+01   -0.12949E+01 10168   0.682E+00    0.506E+01
DAV:  11    -0.200185791060E+04    0.74241E+01   -0.82447E+00 10152   0.471E+00    0.418E+01
DAV:  12    -0.199679394075E+04    0.50640E+01   -0.53476E+00 10560   0.447E+00    0.359E+01
DAV:  13    -0.199080711466E+04    0.59868E+01   -0.44687E+00 10616   0.396E+00    0.283E+01
DAV:  14    -0.198762158538E+04    0.31855E+01   -0.28887E+00  9872   0.282E+00    0.202E+01
DAV:  15    -0.198618621845E+04    0.14354E+01   -0.17061E+00  9680   0.185E+00    0.149E+01
DAV:  16    -0.198581057977E+04    0.37564E+00   -0.76864E-01  9656   0.138E+00    0.123E+01
DAV:  17    -0.198561138996E+04    0.19919E+00   -0.35403E-01  9152   0.812E-01    0.114E+01
DAV:  18    -0.198547110068E+04    0.14029E+00   -0.30034E-01 10360   0.760E-01    0.106E+01
DAV:  19    -0.198534616111E+04    0.12494E+00   -0.66039E-01 11248   0.105E+00    0.106E+01
DAV:  20    -0.198532220835E+04    0.23953E-01   -0.10492E+00  9656   0.862E-01    0.102E+01
DAV:  21    -0.198527356738E+04    0.48641E-01   -0.24526E-01  9608   0.750E-01    0.841E+00
DAV:  22    -0.198523975013E+04    0.33817E-01   -0.60980E-01 10368   0.128E+00    0.801E+00
DAV:  23    -0.198519723706E+04    0.42513E-01   -0.35447E-01  9464   0.963E-01    0.723E+00
DAV:  24    -0.198520903591E+04   -0.11799E-01   -0.56200E-01  9824   0.845E-01    0.942E+00
DAV:  25    -0.198508621371E+04    0.12282E+00   -0.11952E-01  8573   0.453E-01    0.682E+00
DAV:  26    -0.198511711090E+04   -0.30897E-01   -0.83577E-02  9824   0.445E-01    0.722E+00
DAV:  27    -0.198503318642E+04    0.83924E-01   -0.93089E-02  9797   0.374E-01    0.373E+00
DAV:  28    -0.198504195573E+04   -0.87693E-02   -0.32909E-02  9040   0.280E-01    0.319E+00
DAV:  29    -0.198504241685E+04   -0.46112E-03   -0.10166E-02  8741   0.167E-01    0.242E+00
DAV:  30    -0.198505062430E+04   -0.82074E-02   -0.11992E-02  9728   0.201E-01    0.262E+00
DAV:  31    -0.198504221872E+04    0.84056E-02   -0.36130E-02 10232   0.214E-01    0.202E+00
DAV:  32    -0.198504119794E+04    0.10208E-02   -0.97381E-03  9368   0.184E-01    0.930E-01
DAV:  33    -0.198504015261E+04    0.10453E-02   -0.74975E-03  9120   0.144E-01    0.516E-01
DAV:  34    -0.198504097423E+04   -0.82162E-03   -0.43785E-03  8592   0.830E-02    0.548E-01
DAV:  35    -0.198503998130E+04    0.99293E-03   -0.20455E-03  9488   0.571E-02    0.368E-01
DAV:  36    -0.198503991722E+04    0.64079E-04   -0.50861E-04  9520   0.380E-02    0.344E-01
DAV:  37    -0.198503993224E+04   -0.15018E-04   -0.55347E-04  9560   0.413E-02    0.325E-01
DAV:  38    -0.198503977738E+04    0.15486E-03   -0.45307E-04  9808   0.387E-02    0.232E-01
DAV:  39    -0.198503981411E+04   -0.36731E-04   -0.23288E-04  9256   0.250E-02    0.198E-01
DAV:  40    -0.198503979134E+04    0.22770E-04   -0.74070E-05  8968   0.185E-02    0.152E-01
DAV:  41    -0.198503982064E+04   -0.29308E-04   -0.12881E-04  8400   0.139E-02    0.116E-01
DAV:  42    -0.198503988301E+04   -0.62363E-04   -0.46049E-05  7960   0.108E-02    0.929E-02
DAV:  43    -0.198503995000E+04   -0.66993E-04   -0.67054E-05  6384   0.999E-03    0.501E-02
DAV:  44    -0.198504000094E+04   -0.50943E-04   -0.67143E-05  4960   0.960E-03    0.669E-02
DAV:  45    -0.198504002652E+04   -0.25581E-04   -0.17181E-05  4400   0.556E-03    0.405E-02
DAV:  46    -0.198504003657E+04   -0.10041E-04   -0.60780E-06  4032   0.350E-03    0.289E-02
DAV:  47    -0.198504004340E+04   -0.68336E-05   -0.57515E-06  4288   0.709E-03    0.334E-02
DAV:  48    -0.198504006533E+04   -0.21935E-04   -0.57019E-06  4224   0.346E-03    0.183E-02
DAV:  49    -0.198504008201E+04   -0.16680E-04   -0.22191E-06  4008   0.255E-03    0.150E-02
DAV:  50    -0.198504009096E+04   -0.89509E-05   -0.12693E-06  3960   0.184E-03    0.126E-02
DAV:  51    -0.198504009994E+04   -0.89770E-05   -0.12269E-06  4024   0.126E-03    0.103E-02
DAV:  52    -0.198504011253E+04   -0.12591E-04   -0.13280E-06  4096   0.124E-03    0.986E-03
DAV:  53    -0.198504012387E+04   -0.11337E-04   -0.96051E-07  4112   0.112E-03    0.928E-03
DAV:  54    -0.198504013133E+04   -0.74557E-05   -0.78458E-07  3992   0.104E-03    0.951E-03
DAV:  55    -0.198504013591E+04   -0.45877E-05   -0.72206E-07  3992   0.792E-04
  12 F= -.20744922E+04 E0= -.20743033E+04  d E =-.405301E+03
       N       E                     dE             d eps       ncg     rms          rms(c)
DAV:   1    -0.175427102530E+04    0.23077E+03   -0.35233E+04  6900   0.212E+02    0.241E+02
DAV:   2    -0.291904267824E+04   -0.11648E+04   -0.27931E+03  9442   0.716E+01    0.331E+02
DAV:   3    -0.339276284671E+04   -0.47372E+03   -0.37223E+03 10376   0.834E+01    0.322E+02
DAV:   4    -0.289173470206E+04    0.50103E+03   -0.44015E+03 10752   0.104E+02    0.227E+02
DAV:   5    -0.257489904631E+04    0.31684E+03   -0.26224E+03 11040   0.111E+02    0.221E+02
DAV:   6    -0.217948871972E+04    0.39541E+03   -0.12009E+03  9856   0.569E+01    0.127E+02
DAV:   7    -0.211973215792E+04    0.59757E+02   -0.46362E+02 10728   0.449E+01    0.964E+01
DAV:   8    -0.212971515554E+04   -0.99830E+01   -0.19279E+02 10024   0.299E+01    0.876E+01
DAV:   9    -0.206451010252E+04    0.65205E+02   -0.11841E+02 10024   0.244E+01    0.710E+01
DAV:  10    -0.204892514947E+04    0.15585E+02   -0.59686E+01  9752   0.182E+01    0.686E+01
DAV:  11    -0.202429550637E+04    0.24630E+02   -0.36687E+01  8856   0.120E+01    0.527E+01
DAV:  12    -0.201114642092E+04    0.13149E+02   -0.18026E+01 10040   0.111E+01    0.519E+01
DAV:  13    -0.199418803678E+04    0.16958E+02   -0.23451E+01 10520   0.111E+01    0.427E+01
DAV:  14    -0.198676225398E+04    0.74258E+01   -0.21462E+01  9512   0.682E+00    0.324E+01
DAV:  15    -0.198462613921E+04    0.21361E+01   -0.12714E+01 10272   0.514E+00    0.276E+01
DAV:  16    -0.198086644830E+04    0.37597E+01   -0.14233E+01  9880   0.465E+00    0.226E+01
DAV:  17    -0.198128282084E+04   -0.41637E+00   -0.84450E+00  9744   0.440E+00    0.243E+01
DAV:  18    -0.197870017325E+04    0.25826E+01   -0.47350E+00 10696   0.418E+00    0.173E+01
DAV:  19    -0.197700616745E+04    0.16940E+01   -0.45590E+00 10536   0.368E+00    0.168E+01
DAV:  20    -0.197580598039E+04    0.12002E+01   -0.24743E+00  9408   0.245E+00    0.120E+01
DAV:  21    -0.197522038308E+04    0.58560E+00   -0.29399E+00  9848   0.208E+00    0.117E+01
DAV:  22    -0.197467116601E+04    0.54922E+00   -0.12598E+00  9152   0.125E+00    0.937E+00
DAV:  23    -0.197440586256E+04    0.26530E+00   -0.84812E-01 10784   0.128E+00    0.104E+01
DAV:  24    -0.197418461700E+04    0.22125E+00   -0.63475E-01 10808   0.161E+00    0.113E+01
DAV:  25    -0.197376734284E+04    0.41727E+00   -0.10383E+00 10096   0.140E+00    0.764E+00
DAV:  26    -0.197373672013E+04    0.30623E-01   -0.44499E-01  9912   0.136E+00    0.707E+00
DAV:  27    -0.197379012483E+04   -0.53405E-01   -0.85653E-01 10656   0.138E+00    0.113E+01
DAV:  28    -0.197336951735E+04    0.42061E+00   -0.66270E-01  9096   0.778E-01    0.584E+00
DAV:  29    -0.197341303400E+04   -0.43517E-01   -0.23642E-01  9488   0.715E-01    0.460E+00
DAV:  30    -0.197341583872E+04   -0.28047E-02   -0.15921E-01  9712   0.577E-01    0.364E+00
DAV:  31    -0.197341641097E+04   -0.57225E-03   -0.76045E-02  8928   0.410E-01    0.218E+00
DAV:  32    -0.197344520124E+04   -0.28790E-01   -0.13249E-01  9280   0.322E-01    0.221E+00
DAV:  33    -0.197344426124E+04    0.94000E-03   -0.15615E-01  9808   0.308E-01    0.182E+00
DAV:  34    -0.197343097809E+04    0.13283E-01   -0.21961E-02 10280   0.364E-01    0.180E+00
DAV:  35    -0.197342778616E+04    0.31919E-02   -0.18692E-02  9232   0.200E-01    0.185E+00
DAV:  36    -0.197341802121E+04    0.97650E-02   -0.91747E-03  9405   0.139E-01    0.133E+00
DAV:  37    -0.197341794861E+04    0.72591E-04   -0.36335E-03  9104   0.887E-02    0.976E-01
DAV:  38    -0.197341741862E+04    0.53000E-03   -0.13172E-03  9938   0.789E-02    0.822E-01
DAV:  39    -0.197341523134E+04    0.21873E-02   -0.37654E-03 10776   0.839E-02    0.434E-01
DAV:  40    -0.197341583692E+04   -0.60558E-03   -0.34335E-03 10432   0.104E-01    0.611E-01
DAV:  41    -0.197341349762E+04    0.23393E-02   -0.36915E-03 10792   0.122E-01    0.285E-01
DAV:  42    -0.197341421029E+04   -0.71266E-03   -0.20704E-03  8352   0.601E-02    0.254E-01
DAV:  43    -0.197341423418E+04   -0.23891E-04   -0.62690E-04  9448   0.426E-02    0.146E-01
DAV:  44    -0.197341446916E+04   -0.23499E-03   -0.23238E-04  8944   0.316E-02    0.118E-01
DAV:  45    -0.197341473315E+04   -0.26399E-03   -0.36001E-04  9008   0.235E-02    0.186E-01
DAV:  46    -0.197341480160E+04   -0.68449E-04   -0.28151E-04 10040   0.334E-02    0.713E-02
DAV:  47    -0.197341509244E+04   -0.29084E-03   -0.15960E-04  8392   0.184E-02    0.728E-02
DAV:  48    -0.197341520572E+04   -0.11327E-03   -0.71683E-05  7400   0.111E-02    0.296E-02
DAV:  49    -0.197341531546E+04   -0.10975E-03   -0.15030E-05  4424   0.658E-03    0.284E-02
DAV:  50    -0.197341537565E+04   -0.60185E-04   -0.58565E-06  4216   0.431E-03    0.228E-02
DAV:  51    -0.197341543755E+04   -0.61909E-04   -0.58448E-06  4232   0.372E-03    0.255E-02
DAV:  52    -0.197341549325E+04   -0.55698E-04   -0.42118E-06  4256   0.322E-03    0.177E-02
DAV:  53    -0.197341554328E+04   -0.50027E-04   -0.30560E-06  4360   0.285E-03    0.176E-02
DAV:  54    -0.197341557425E+04   -0.30970E-04   -0.26535E-06  4088   0.210E-03    0.131E-02
DAV:  55    -0.197341560602E+04   -0.31773E-04   -0.20539E-06  4208   0.150E-03    0.150E-02
DAV:  56    -0.197341563249E+04   -0.26469E-04   -0.14693E-06  4152   0.141E-03    0.132E-02
DAV:  57    -0.197341565295E+04   -0.20462E-04   -0.20487E-06  4272   0.131E-03    0.129E-02
DAV:  58    -0.197341565951E+04   -0.65602E-05   -0.92203E-07  3984   0.116E-03    0.128E-02
DAV:  59    -0.197341566565E+04   -0.61346E-05   -0.92183E-07  4000   0.867E-04    0.124E-02
DAV:  60    -0.197341566844E+04   -0.27902E-05   -0.55632E-07  3944   0.811E-04
  13 F= -.20623037E+04 E0= -.20621172E+04  d E =-.393112E+03
       N       E                     dE             d eps       ncg     rms          rms(c)
DAV:   1    -0.195598272911E+04    0.17433E+02   -0.13760E+04  6804   0.132E+02    0.168E+02
DAV:   2    -0.226465239663E+04   -0.30867E+03   -0.94501E+02  9544   0.495E+01    0.170E+02
DAV:   3    -0.465386530658E+04   -0.23892E+04   -0.23896E+03 10528   0.110E+02    0.399E+02
DAV:   4    -0.233123979733E+04    0.23226E+04   -0.87110E+02 10624   0.517E+01    0.204E+02
DAV:   5    -0.214259316015E+04    0.18865E+03   -0.39532E+02 10960   0.538E+01    0.139E+02
DAV:   6    -0.211725187347E+04    0.25341E+02   -0.25180E+02  9632   0.355E+01    0.116E+02
DAV:   7    -0.215160345083E+04   -0.34352E+02   -0.19005E+02 10920   0.364E+01    0.114E+02
DAV:   8    -0.209111712674E+04    0.60486E+02   -0.71102E+01 10064   0.307E+01    0.859E+01
DAV:   9    -0.207310435823E+04    0.18013E+02   -0.60217E+01 10040   0.197E+01    0.611E+01
DAV:  10    -0.204715038682E+04    0.25954E+02   -0.33457E+01 10040   0.133E+01    0.501E+01
DAV:  11    -0.203488228745E+04    0.12268E+02   -0.11898E+01  9504   0.851E+00    0.387E+01
DAV:  12    -0.203392764807E+04    0.95464E+00   -0.67559E+00  9328   0.426E+00    0.361E+01
DAV:  13    -0.202959532626E+04    0.43323E+01   -0.10984E+01  9912   0.411E+00    0.332E+01
DAV:  14    -0.202846000075E+04    0.11353E+01   -0.13500E+01 10232   0.366E+00    0.308E+01
DAV:  15    -0.202467579727E+04    0.37842E+01   -0.84031E+00 10648   0.428E+00    0.320E+01
DAV:  16    -0.202157656083E+04    0.30992E+01   -0.48056E+00  9104   0.229E+00    0.223E+01
DAV:  17    -0.202167715694E+04   -0.10060E+00   -0.44081E+00 10312   0.263E+00    0.269E+01
DAV:  18    -0.202083594737E+04    0.84121E+00   -0.21184E+00  9992   0.147E+00    0.265E+01
DAV:  19    -0.202098347249E+04   -0.14753E+00   -0.25552E+00 10680   0.194E+00    0.280E+01
DAV:  20    -0.201978130023E+04    0.12022E+01   -0.21242E+00 10016   0.172E+00    0.248E+01
DAV:  21    -0.201872170596E+04    0.10596E+01   -0.32089E+00 10528   0.153E+00    0.202E+01
DAV:  22    -0.201922953909E+04   -0.50783E+00   -0.25754E+00 10560   0.189E+00    0.206E+01
DAV:  23    -0.201766618397E+04    0.15634E+01   -0.12900E+00  9600   0.120E+00    0.139E+01
DAV:  24    -0.201756306860E+04    0.10312E+00   -0.49618E-01  9632   0.818E-01    0.121E+01
DAV:  25    -0.201748785716E+04    0.75211E-01   -0.43696E-01 10040   0.766E-01    0.116E+01
DAV:  26    -0.201721352911E+04    0.27433E+00   -0.30047E-01 10200   0.702E-01    0.786E+00
DAV:  27    -0.201713277864E+04    0.80750E-01   -0.43525E-01 10232   0.680E-01    0.527E+00
DAV:  28    -0.201720396673E+04   -0.71188E-01   -0.95083E-02  8872   0.455E-01    0.543E+00
DAV:  29    -0.201724657168E+04   -0.42605E-01   -0.14248E-01  9952   0.487E-01    0.619E+00
DAV:  30    -0.201715178457E+04    0.94787E-01   -0.32476E-01  9912   0.510E-01    0.371E+00
DAV:  31    -0.201714758280E+04    0.42018E-02   -0.59186E-02  9464   0.432E-01    0.298E+00
DAV:  32    -0.201711729644E+04    0.30286E-01   -0.46404E-02  9496   0.278E-01    0.213E+00
DAV:  33    -0.201711412406E+04    0.31724E-02   -0.20984E-02  8656   0.168E-01    0.212E+00
DAV:  34    -0.201711349357E+04    0.63049E-03   -0.11942E-02  9456   0.135E-01    0.223E+00
DAV:  35    -0.201709980022E+04    0.13693E-01   -0.11880E-02 10608   0.141E-01    0.173E+00
DAV:  36    -0.201709353860E+04    0.62616E-02   -0.77388E-03 11328   0.158E-01    0.158E+00
DAV:  37    -0.201708636020E+04    0.71784E-02   -0.51114E-03  9200   0.997E-02    0.117E+00
DAV:  38    -0.201708293696E+04    0.34232E-02   -0.25017E-03  9736   0.815E-02    0.876E-01
DAV:  39    -0.201708244542E+04    0.49154E-03   -0.11256E-03  8176   0.347E-02    0.766E-01
DAV:  40    -0.201708141625E+04    0.10292E-02   -0.77765E-04 11104   0.522E-02    0.728E-01
DAV:  41    -0.201708054639E+04    0.86986E-03   -0.47795E-04  8368   0.266E-02    0.634E-01
DAV:  42    -0.201707887435E+04    0.16720E-02   -0.31099E-03 10632   0.790E-02    0.437E-01
DAV:  43    -0.201707864453E+04    0.22982E-03   -0.26782E-03  9096   0.999E-02    0.433E-01
DAV:  44    -0.201707833110E+04    0.31343E-03   -0.19693E-03  7584   0.408E-02    0.202E-01
DAV:  45    -0.201707841724E+04   -0.86137E-04   -0.18193E-04  9016   0.184E-02    0.145E-01
DAV:  46    -0.201707843990E+04   -0.22665E-04   -0.17285E-04  7520   0.120E-02    0.119E-01
DAV:  47    -0.201707851646E+04   -0.76556E-04   -0.18466E-04  8064   0.199E-02    0.164E-01
DAV:  48    -0.201707841811E+04    0.98348E-04   -0.57457E-04  7624   0.196E-02    0.856E-02
DAV:  49    -0.201707841883E+04   -0.72084E-06   -0.74438E-05  6200   0.113E-02    0.367E-02
DAV:  50    -0.201707842210E+04   -0.32661E-05   -0.20401E-05  4152   0.603E-03
  14 F= -.21061462E+04 E0= -.21059628E+04  d E =-.436955E+03
       N       E                     dE             d eps       ncg     rms          rms(c)
DAV:   1    -0.209597898334E+04   -0.78901E+02   -0.95524E+03  6820   0.105E+02    0.831E+01
DAV:   2    -0.266027538905E+04   -0.56430E+03   -0.44954E+02  9024   0.397E+01    0.220E+02
DAV:   3    -0.220800486234E+04    0.45227E+03   -0.24009E+02 10120   0.395E+01    0.992E+01
DAV:   4    -0.213368961263E+04    0.74315E+02   -0.42914E+01  8992   0.182E+01    0.807E+01
DAV:   5    -0.219889470942E+04   -0.65205E+02   -0.69829E+01 11376   0.222E+01    0.111E+02
DAV:   6    -0.218955109719E+04    0.93436E+01   -0.80684E+01 11376   0.245E+01    0.900E+01
DAV:   7    -0.220516593220E+04   -0.15615E+02   -0.63615E+01 11192   0.175E+01    0.931E+01
DAV:   8    -0.215611289230E+04    0.49053E+02   -0.51356E+01 10120   0.155E+01    0.600E+01
DAV:   9    -0.215153812424E+04    0.45748E+01   -0.30573E+01 11296   0.113E+01    0.538E+01
DAV:  10    -0.214704863935E+04    0.44895E+01   -0.23075E+01 10560   0.125E+01    0.467E+01
DAV:  11    -0.213107411106E+04    0.15975E+02   -0.21908E+01 10088   0.579E+00    0.304E+01
DAV:  12    -0.212520334188E+04    0.58708E+01   -0.41392E+00 10032   0.368E+00    0.243E+01
DAV:  13    -0.212412623867E+04    0.10771E+01   -0.23946E+00  9240   0.201E+00    0.213E+01
DAV:  14    -0.212392998330E+04    0.19626E+00   -0.88291E-01  8992   0.115E+00    0.206E+01
DAV:  15    -0.212334044572E+04    0.58954E+00   -0.96801E-01 10520   0.987E-01    0.191E+01
DAV:  16    -0.212308988475E+04    0.25056E+00   -0.18408E+00 12008   0.172E+00    0.185E+01
DAV:  17    -0.212115463408E+04    0.19353E+01   -0.21249E+00 10064   0.186E+00    0.112E+01
DAV:  18    -0.212094527753E+04    0.20936E+00   -0.75360E-01 10256   0.136E+00    0.945E+00
DAV:  19    -0.212105516941E+04   -0.10989E+00   -0.87927E-01  9512   0.118E+00    0.107E+01
DAV:  20    -0.212057414150E+04    0.48103E+00   -0.18133E+00  9328   0.110E+00    0.701E+00
DAV:  21    -0.212047054331E+04    0.10360E+00   -0.38233E-01  9432   0.804E-01    0.526E+00
DAV:  22    -0.212042662910E+04    0.43914E-01   -0.36215E-01  9328   0.583E-01    0.388E+00
DAV:  23    -0.212042841749E+04   -0.17884E-02   -0.26354E-01  9656   0.529E-01    0.402E+00
DAV:  24    -0.212038693746E+04    0.41480E-01   -0.75873E-01  9536   0.584E-01    0.287E+00
DAV:  25    -0.212037972089E+04    0.72166E-02   -0.20528E-01  8768   0.480E-01    0.216E+00
DAV:  26    -0.212037816272E+04    0.15582E-02   -0.44794E-02  9360   0.337E-01    0.214E+00
DAV:  27    -0.212036073745E+04    0.17425E-01   -0.39943E-02  9192   0.231E-01    0.114E+00
DAV:  28    -0.212036428273E+04   -0.35453E-02   -0.60972E-03  8848   0.135E-01    0.994E-01
DAV:  29    -0.212036335392E+04    0.92881E-03   -0.29987E-03  9296   0.123E-01    0.908E-01
DAV:  30    -0.212036252154E+04    0.83238E-03   -0.40356E-03  9544   0.108E-01    0.829E-01
DAV:  31    -0.212036162977E+04    0.89178E-03   -0.22987E-03  8712   0.683E-02    0.470E-01
DAV:  32    -0.212036260613E+04   -0.97636E-03   -0.11730E-03  8800   0.611E-02    0.507E-01
DAV:  33    -0.212036240725E+04    0.19888E-03   -0.51589E-04  9120   0.372E-02    0.473E-01
DAV:  34    -0.212036226785E+04    0.13940E-03   -0.33796E-04  9208   0.323E-02    0.333E-01
DAV:  35    -0.212036237243E+04   -0.10457E-03   -0.11491E-03  9584   0.371E-02    0.193E-01
DAV:  36    -0.212036243322E+04   -0.60789E-04   -0.23535E-04  8152   0.253E-02    0.115E-01
DAV:  37    -0.212036244529E+04   -0.12071E-04   -0.14138E-04  8024   0.133E-02    0.105E-01
DAV:  38    -0.212036243172E+04    0.13570E-04   -0.57102E-05  6624   0.109E-02    0.670E-02
DAV:  39    -0.212036243849E+04   -0.67693E-05   -0.22939E-05  4792   0.810E-03    0.579E-02
DAV:  40    -0.212036244418E+04   -0.56974E-05   -0.19899E-05  4608   0.683E-03    0.418E-02
DAV:  41    -0.212036245052E+04   -0.63367E-05   -0.13306E-05  4520   0.715E-03    0.312E-02
DAV:  42    -0.212036245435E+04   -0.38324E-05   -0.97387E-06  4048   0.448E-03
  15 F= -.22092174E+04 E0= -.22090243E+04  d E =-.103071E+03
       N       E                     dE             d eps       ncg     rms          rms(c)
DAV:   1    -0.214498779306E+04   -0.24625E+02   -0.30853E+03  6836   0.592E+01    0.457E+01
DAV:   2    -0.235179115598E+04   -0.20680E+03   -0.16807E+02  9216   0.237E+01    0.141E+02
DAV:   3    -0.218066908181E+04    0.17112E+03   -0.13998E+02  9528   0.239E+01    0.517E+01
DAV:   4    -0.215812653047E+04    0.22543E+02   -0.21761E+01  9304   0.130E+01    0.349E+01
DAV:   5    -0.218452670024E+04   -0.26400E+02   -0.49682E+01 11232   0.162E+01    0.567E+01
DAV:   6    -0.216755780333E+04    0.16969E+02   -0.54256E+01 10984   0.152E+01    0.380E+01
DAV:   7    -0.216095026139E+04    0.66075E+01   -0.19568E+01 10264   0.103E+01    0.328E+01
DAV:   8    -0.215728580970E+04    0.36645E+01   -0.12980E+01  9576   0.677E+00    0.243E+01
DAV:   9    -0.215398905344E+04    0.32968E+01   -0.64683E+00  9616   0.498E+00    0.181E+01
DAV:  10    -0.215254916386E+04    0.14399E+01   -0.19491E+00  9864   0.276E+00    0.131E+01
DAV:  11    -0.215189449209E+04    0.65467E+00   -0.77107E-01  9040   0.175E+00    0.117E+01
DAV:  12    -0.215130089361E+04    0.59360E+00   -0.66719E-01  9640   0.139E+00    0.105E+01
DAV:  13    -0.215089761283E+04    0.40328E+00   -0.13329E+00  9832   0.149E+00    0.743E+00
DAV:  14    -0.215079387733E+04    0.10374E+00   -0.64575E-01  9944   0.126E+00    0.642E+00
DAV:  15    -0.215071674727E+04    0.77130E-01   -0.65205E-01  9728   0.101E+00    0.607E+00
DAV:  16    -0.215063586414E+04    0.80883E-01   -0.28712E-01  9400   0.641E-01    0.424E+00
DAV:  17    -0.215066293595E+04   -0.27072E-01   -0.41815E-01  9688   0.440E-01    0.488E+00
DAV:  18    -0.215063287388E+04    0.30062E-01   -0.21552E-01 10064   0.464E-01    0.394E+00
DAV:  19    -0.215067693355E+04   -0.44060E-01   -0.35878E-01 10000   0.631E-01    0.446E+00
DAV:  20    -0.215064632798E+04    0.30606E-01   -0.37140E-01  9800   0.611E-01    0.422E+00
DAV:  21    -0.215060628204E+04    0.40046E-01   -0.12899E-01  9120   0.381E-01    0.254E+00
DAV:  22    -0.215060488523E+04    0.13968E-02   -0.71921E-02  9584   0.266E-01    0.170E+00
DAV:  23    -0.215060838194E+04   -0.34967E-02   -0.28019E-02  9744   0.204E-01    0.117E+00
DAV:  24    -0.215060851263E+04   -0.13069E-03   -0.98107E-03  8696   0.127E-01    0.433E-01
DAV:  25    -0.215061159481E+04   -0.30822E-02   -0.31994E-03  8520   0.883E-02    0.442E-01
DAV:  26    -0.215061167634E+04   -0.81535E-04   -0.14061E-03  8680   0.736E-02    0.339E-01
DAV:  27    -0.215061181594E+04   -0.13960E-03   -0.84961E-04  9536   0.613E-02    0.331E-01
DAV:  28    -0.215061158340E+04    0.23254E-03   -0.73954E-04  9728   0.497E-02    0.242E-01
DAV:  29    -0.215061155935E+04    0.24051E-04   -0.80732E-04  9648   0.359E-02    0.245E-01
DAV:  30    -0.215061150499E+04    0.54364E-04   -0.21409E-04  8344   0.218E-02    0.221E-01
DAV:  31    -0.215061143472E+04    0.70268E-04   -0.59494E-05  6896   0.940E-03    0.176E-01
DAV:  32    -0.215061146650E+04   -0.31787E-04   -0.31393E-05  4976   0.855E-03    0.159E-01
DAV:  33    -0.215061145421E+04    0.12291E-04   -0.40984E-05  5504   0.862E-03    0.922E-02
DAV:  34    -0.215061150099E+04   -0.46772E-04   -0.51112E-05  6224   0.843E-03    0.662E-02
DAV:  35    -0.215061152640E+04   -0.25413E-04   -0.17903E-05  4656   0.547E-03    0.562E-02
DAV:  36    -0.215061154044E+04   -0.14042E-04   -0.61846E-06  4120   0.468E-03    0.510E-02
DAV:  37    -0.215061154679E+04   -0.63470E-05   -0.64946E-06  4088   0.414E-03    0.270E-02
DAV:  38    -0.215061156544E+04   -0.18656E-04   -0.43874E-06  4256   0.319E-03    0.197E-02
DAV:  39    -0.215061157355E+04   -0.81086E-05   -0.27545E-06  4040   0.261E-03    0.122E-02
DAV:  40    -0.215061158019E+04   -0.66431E-05   -0.14399E-06  3968   0.173E-03    0.135E-02
DAV:  41    -0.215061158597E+04   -0.57765E-05   -0.12089E-06  4056   0.132E-03    0.102E-02
DAV:  42    -0.215061159407E+04   -0.81020E-05   -0.15651E-06  4176   0.121E-03    0.119E-02
DAV:  43    -0.215061159698E+04   -0.29104E-05   -0.66581E-07  3984   0.104E-03
  16 F= -.22393985E+04 E0= -.22392138E+04  d E =-.133252E+03
       N       E                     dE             d eps       ncg     rms          rms(c)
DAV:   1    -0.213972926868E+04    0.10882E+02   -0.12066E+04  6804   0.121E+02    0.790E+01
DAV:   2    -0.279058628100E+04   -0.65086E+03   -0.50043E+02  8744   0.444E+01    0.238E+02
DAV:   3    -0.224032107699E+04    0.55027E+03   -0.21418E+02  9808   0.418E+01    0.601E+01
DAV:   4    -0.221871598309E+04    0.21605E+02   -0.68903E+01 10192   0.242E+01    0.683E+01
DAV:   5    -0.223391740339E+04   -0.15201E+02   -0.68860E+01 11328   0.266E+01    0.895E+01
DAV:   6    -0.219325197101E+04    0.40665E+02   -0.65698E+01  9664   0.188E+01    0.450E+01
DAV:   7    -0.218638098044E+04    0.68710E+01   -0.28012E+01  9872   0.112E+01    0.360E+01
DAV:   8    -0.218242961502E+04    0.39514E+01   -0.16586E+01  9536   0.931E+00    0.274E+01
DAV:   9    -0.218253406492E+04   -0.10445E+00   -0.13417E+01 10624   0.680E+00    0.260E+01
DAV:  10    -0.217939331063E+04    0.31408E+01   -0.10761E+01 10216   0.506E+00    0.157E+01
DAV:  11    -0.217904526818E+04    0.34804E+00   -0.60943E+00  9856   0.311E+00    0.153E+01
DAV:  12    -0.217820874432E+04    0.83652E+00   -0.19227E+00  9712   0.218E+00    0.115E+01
DAV:  13    -0.217792258620E+04    0.28616E+00   -0.15616E+00  9824   0.199E+00    0.966E+00
DAV:  14    -0.217787278190E+04    0.49804E-01   -0.11363E+00  9576   0.163E+00    0.967E+00
DAV:  15    -0.217790515898E+04   -0.32377E-01   -0.12776E+00 10304   0.150E+00    0.108E+01
DAV:  16    -0.217761079262E+04    0.29437E+00   -0.85671E-01  9784   0.998E-01    0.702E+00
DAV:  17    -0.217763023020E+04   -0.19438E-01   -0.94900E-01  9760   0.872E-01    0.588E+00
DAV:  18    -0.217763696071E+04   -0.67305E-02   -0.18733E-01  9512   0.708E-01    0.372E+00
DAV:  19    -0.217759830988E+04    0.38651E-01   -0.21471E-01  9592   0.642E-01    0.344E+00
DAV:  20    -0.217755993839E+04    0.38371E-01   -0.76593E-02  9080   0.387E-01    0.286E+00
DAV:  21    -0.217753951016E+04    0.20428E-01   -0.30932E-02  8944   0.263E-01    0.207E+00
DAV:  22    -0.217754372000E+04   -0.42098E-02   -0.16239E-02  8848   0.178E-01    0.167E+00
DAV:  23    -0.217754482256E+04   -0.11026E-02   -0.33143E-02  9872   0.208E-01    0.172E+00
DAV:  24    -0.217753556336E+04    0.92592E-02   -0.16450E-02  9584   0.197E-01    0.119E+00
DAV:  25    -0.217753631009E+04   -0.74673E-03   -0.10494E-02  8856   0.208E-01    0.112E+00
DAV:  26    -0.217753348814E+04    0.28219E-02   -0.61148E-03  8856   0.139E-01    0.860E-01
DAV:  27    -0.217753210945E+04    0.13787E-02   -0.10928E-02  8928   0.106E-01    0.341E-01
DAV:  28    -0.217753332469E+04   -0.12152E-02   -0.25350E-03  8592   0.794E-02    0.217E-01
DAV:  29    -0.217753321501E+04    0.10969E-03   -0.73104E-04  8624   0.450E-02    0.125E-01
DAV:  30    -0.217753326839E+04   -0.53387E-04   -0.20407E-04  8664   0.248E-02    0.120E-01
DAV:  31    -0.217753328276E+04   -0.14371E-04   -0.73688E-05  8288   0.142E-02    0.107E-01
DAV:  32    -0.217753338289E+04   -0.10012E-03   -0.13764E-04  6896   0.156E-02    0.161E-01
DAV:  33    -0.217753337312E+04    0.97705E-05   -0.18507E-04  7832   0.172E-02    0.693E-02
DAV:  34    -0.217753341375E+04   -0.40631E-04   -0.50253E-05  6976   0.115E-02    0.432E-02
[...]
DAV:  15    -0.251803425698E+04    0.15564E+00   -0.10491E+00  9712   0.127E+00    0.542E+00
DAV:  16    -0.251795424777E+04    0.80009E-01   -0.36795E-01  9576   0.916E-01    0.415E+00
DAV:  17    -0.251797038465E+04   -0.16137E-01   -0.36606E-01  9976   0.751E-01    0.454E+00
DAV:  18    -0.251797171011E+04   -0.13255E-02   -0.10952E+00  9552   0.114E+00    0.352E+00
DAV:  19    -0.251792968138E+04    0.42029E-01   -0.13833E-01  8992   0.598E-01    0.171E+00
DAV:  20    -0.251791530527E+04    0.14376E-01   -0.54797E-02 10312   0.516E-01    0.129E+00
DAV:  21    -0.251791140595E+04    0.38993E-02   -0.33497E-02  8832   0.281E-01    0.775E-01
DAV:  22    -0.251791215322E+04   -0.74728E-03   -0.16881E-02  8656   0.177E-01    0.445E-01
DAV:  23    -0.251791518018E+04   -0.30270E-02   -0.30793E-02  9472   0.174E-01    0.645E-01
DAV:  24    -0.251791406765E+04    0.11125E-02   -0.66261E-02  9069   0.224E-01    0.477E-01
DAV:  25    -0.251791264274E+04    0.14249E-02   -0.33381E-03  8944   0.109E-01    0.316E-01
DAV:  26    -0.251791241461E+04    0.22813E-03   -0.75745E-04  8690   0.502E-02    0.219E-01
DAV:  27    -0.251791227016E+04    0.14445E-03   -0.55056E-04  9560   0.363E-02    0.119E-01
DAV:  28    -0.251791227788E+04   -0.77183E-05   -0.45384E-04  9528   0.283E-02    0.604E-02
DAV:  29    -0.251791231569E+04   -0.37812E-04   -0.98388E-05  8160   0.152E-02    0.422E-02
DAV:  30    -0.251791232457E+04   -0.88755E-05   -0.23645E-05  5696   0.882E-03    0.289E-02
DAV:  31    -0.251791233517E+04   -0.10605E-04   -0.99827E-06  4224   0.576E-03    0.235E-02
DAV:  32    -0.251791234755E+04   -0.12383E-04   -0.12429E-05  4205   0.533E-03    0.165E-02
DAV:  33    -0.251791235756E+04   -0.10005E-04   -0.47793E-06  4264   0.430E-03    0.134E-02
DAV:  34    -0.251791236095E+04   -0.33937E-05   -0.18941E-06  4242   0.225E-03
  34 F= -.26042809E+04 E0= -.26041834E+04  d E =-.203265E+02
       N       E                     dE             d eps       ncg     rms          rms(c)
DAV:   1    -0.251888740757E+04   -0.97505E+00   -0.98550E+02  6796   0.349E+01    0.284E+01
DAV:   2    -0.253509550670E+04   -0.16208E+02   -0.36232E+01  9432   0.948E+00    0.437E+01
DAV:   3    -0.254095421718E+04   -0.58587E+01   -0.24336E+01 10184   0.185E+01    0.372E+01
DAV:   4    -0.252876423886E+04    0.12190E+02   -0.21972E+01 10664   0.110E+01    0.302E+01
DAV:   5    -0.252486928276E+04    0.38950E+01   -0.95184E+00  9824   0.717E+00    0.204E+01
DAV:   6    -0.252288699928E+04    0.19823E+01   -0.47316E+00  9176   0.475E+00    0.160E+01
DAV:   7    -0.252252152968E+04    0.36547E+00   -0.23922E+00  9760   0.356E+00    0.139E+01
DAV:   8    -0.252098027530E+04    0.15413E+01   -0.22892E+00  9608   0.263E+00    0.100E+01
DAV:   9    -0.252070794202E+04    0.27233E+00   -0.84322E-01 10408   0.195E+00    0.775E+00
DAV:  10    -0.252062828318E+04    0.79659E-01   -0.99713E-01  9120   0.142E+00    0.660E+00
DAV:  11    -0.252044943117E+04    0.17885E+00   -0.65179E-01 10016   0.137E+00    0.558E+00
DAV:  12    -0.252038912429E+04    0.60307E-01   -0.30586E-01  9632   0.941E-01    0.483E+00
DAV:  13    -0.252034661726E+04    0.42507E-01   -0.31602E-01  9000   0.840E-01    0.347E+00
DAV:  14    -0.252034722503E+04   -0.60778E-03   -0.19670E-01 10608   0.877E-01    0.381E+00
DAV:  15    -0.252032963615E+04    0.17589E-01   -0.64330E-01  8688   0.725E-01    0.244E+00
DAV:  16    -0.252031929078E+04    0.10345E-01   -0.19933E-01  9736   0.573E-01    0.281E+00
DAV:  17    -0.252030951600E+04    0.97748E-02   -0.17972E-01  9712   0.412E-01    0.203E+00
DAV:  18    -0.252029901570E+04    0.10500E-01   -0.50675E-01  9160   0.547E-01    0.102E+00
DAV:  19    -0.252030353287E+04   -0.45172E-02   -0.13033E-02  9168   0.194E-01    0.798E-01
DAV:  20    -0.252030194331E+04    0.15896E-02   -0.65595E-03  9264   0.138E-01    0.562E-01
DAV:  21    -0.252030057988E+04    0.13634E-02   -0.31776E-03  9352   0.107E-01    0.467E-01
DAV:  22    -0.252029921463E+04    0.13652E-02   -0.22409E-03 10256   0.956E-02    0.288E-01
DAV:  23    -0.252029930312E+04   -0.88492E-04   -0.12204E-03  8664   0.548E-02    0.165E-01
DAV:  24    -0.252029952712E+04   -0.22400E-03   -0.64649E-04  8864   0.389E-02    0.151E-01
DAV:  25    -0.252029954747E+04   -0.20358E-04   -0.47346E-04  8696   0.282E-02    0.109E-01
DAV:  26    -0.252029946986E+04    0.77614E-04   -0.14829E-04  8144   0.198E-02    0.712E-02
DAV:  27    -0.252029945718E+04    0.12679E-04   -0.53137E-05  6648   0.154E-02    0.498E-02
DAV:  28    -0.252029945688E+04    0.30501E-06   -0.39020E-05  5672   0.127E-02
  35 F= -.26066339E+04 E0= -.26065365E+04  d E =-.226794E+02
       N       E                     dE             d eps       ncg     rms          rms(c)
DAV:   1    -0.253347738112E+04   -0.13178E+02   -0.37323E+03  6796   0.674E+01    0.515E+01
DAV:   2    -0.255128368822E+04   -0.17806E+02   -0.12153E+02  9296   0.133E+01    0.509E+01
DAV:   3    -0.258303801599E+04   -0.31754E+02   -0.52848E+01 10672   0.230E+01    0.571E+01
DAV:   4    -0.257209444089E+04    0.10944E+02   -0.47367E+01 10864   0.224E+01    0.523E+01
DAV:   5    -0.254905584787E+04    0.23039E+02   -0.23634E+01 10136   0.135E+01    0.310E+01
DAV:   6    -0.254709002307E+04    0.19658E+01   -0.15172E+01  9856   0.999E+00    0.270E+01
DAV:   7    -0.254715269396E+04   -0.62671E-01   -0.28652E+01 10616   0.127E+01    0.210E+01
DAV:   8    -0.254436721187E+04    0.27855E+01   -0.42762E+00  9272   0.596E+00    0.186E+01
DAV:   9    -0.254183836936E+04    0.25288E+01   -0.24828E+00  9600   0.359E+00    0.121E+01
DAV:  10    -0.254201047189E+04   -0.17210E+00   -0.19891E+00  9448   0.221E+00    0.115E+01
DAV:  11    -0.254121168490E+04    0.79879E+00   -0.18870E+00 10472   0.243E+00    0.904E+00
DAV:  12    -0.254149154927E+04   -0.27986E+00   -0.17459E+00 10072   0.203E+00    0.106E+01
DAV:  13    -0.254089291183E+04    0.59864E+00   -0.79771E-01  9501   0.161E+00    0.525E+00
DAV:  14    -0.254097807196E+04   -0.85160E-01   -0.36941E-01  8736   0.913E-01    0.452E+00
DAV:  15    -0.254095046152E+04    0.27610E-01   -0.27088E-01  9298   0.925E-01    0.353E+00
DAV:  16    -0.254092339538E+04    0.27066E-01   -0.17611E-01  9392   0.782E-01    0.226E+00
DAV:  17    -0.254094449583E+04   -0.21100E-01   -0.12726E-01  9744   0.652E-01    0.286E+00
DAV:  18    -0.254091195859E+04    0.32537E-01   -0.57762E-02  9296   0.471E-01    0.129E+00
DAV:  19    -0.254091058473E+04    0.13739E-02   -0.14953E-02  9088   0.274E-01    0.637E-01
DAV:  20    -0.254090993976E+04    0.64497E-03   -0.62954E-03  8832   0.139E-01    0.400E-01
DAV:  21    -0.254091094616E+04   -0.10064E-02   -0.50843E-03  9216   0.130E-01    0.504E-01
DAV:  22    -0.254090988571E+04    0.10604E-02   -0.16520E-03  8704   0.850E-02    0.220E-01
DAV:  23    -0.254091003700E+04   -0.15128E-03   -0.98081E-04  9344   0.599E-02    0.144E-01
DAV:  24    -0.254091009545E+04   -0.58455E-04   -0.72639E-04  9736   0.381E-02    0.104E-01
DAV:  25    -0.254091013770E+04   -0.42244E-04   -0.43494E-04  8640   0.265E-02    0.991E-02
DAV:  26    -0.254091016895E+04   -0.31258E-04   -0.21595E-04  7488   0.182E-02    0.547E-02
DAV:  27    -0.254091020831E+04   -0.39357E-04   -0.20442E-05  5800   0.908E-03    0.364E-02
DAV:  28    -0.254091023059E+04   -0.22282E-04   -0.11571E-05  4560   0.806E-03    0.297E-02
DAV:  29    -0.254091025445E+04   -0.23855E-04   -0.72595E-06  4336   0.538E-03    0.203E-02
DAV:  30    -0.254091028350E+04   -0.29051E-04   -0.58127E-06  4392   0.405E-03    0.132E-02
DAV:  31    -0.254091030677E+04   -0.23272E-04   -0.31574E-06  4376   0.284E-03    0.111E-02
DAV:  32    -0.254091031771E+04   -0.10939E-04   -0.15891E-06  4296   0.208E-03    0.988E-03
DAV:  33    -0.254091033218E+04   -0.14473E-04   -0.12373E-06  4272   0.157E-03    0.951E-03
DAV:  34    -0.254091034358E+04   -0.11394E-04   -0.10254E-06  4312   0.131E-03    0.939E-03
DAV:  35    -0.254091035425E+04   -0.10675E-04   -0.71468E-07  4264   0.113E-03    0.893E-03
DAV:  36    -0.254091036248E+04   -0.82296E-05   -0.59412E-07  4296   0.969E-04    0.891E-03
DAV:  37    -0.254091036797E+04   -0.54855E-05   -0.55311E-07  4288   0.865E-04    0.903E-03
DAV:  38    -0.254091037119E+04   -0.32224E-05   -0.39632E-07  4304   0.742E-04
  36 F= -.26271721E+04 E0= -.26270801E+04  d E =-.205383E+02
       N       E                     dE             d eps       ncg     rms          rms(c)
DAV:   1    -0.254117097882E+04   -0.26061E+00   -0.23392E+03  6796   0.533E+01    0.436E+01
DAV:   2    -0.256456885731E+04   -0.23398E+02   -0.80994E+01  9256   0.128E+01    0.474E+01
DAV:   3    -0.259519568773E+04   -0.30627E+02   -0.50036E+01 10504   0.267E+01    0.668E+01
DAV:   4    -0.256006631600E+04    0.35129E+02   -0.44549E+01 10784   0.156E+01    0.351E+01
DAV:   5    -0.255788363054E+04    0.21827E+01   -0.14663E+01  9344   0.876E+00    0.295E+01
DAV:   6    -0.255310110160E+04    0.47825E+01   -0.92237E+00  9664   0.773E+00    0.249E+01
DAV:   7    -0.254897069525E+04    0.41304E+01   -0.58646E+00  9744   0.497E+00    0.172E+01
DAV:   8    -0.254699068026E+04    0.19800E+01   -0.48873E+00  9816   0.397E+00    0.141E+01
DAV:   9    -0.254581015004E+04    0.11805E+01   -0.30170E+00  9480   0.231E+00    0.102E+01
DAV:  10    -0.254580856711E+04    0.15829E-02   -0.24993E+00  9048   0.158E+00    0.948E+00
DAV:  11    -0.254544880015E+04    0.35977E+00   -0.37389E-01  8576   0.992E-01    0.595E+00
DAV:  12    -0.254555856544E+04   -0.10977E+00   -0.51549E-01  8968   0.889E-01    0.637E+00
DAV:  13    -0.254540359163E+04    0.15497E+00   -0.40690E-01 10048   0.893E-01    0.469E+00
DAV:  14    -0.254540400217E+04   -0.41054E-03   -0.23077E-01  9152   0.825E-01    0.407E+00
DAV:  15    -0.254537875853E+04    0.25244E-01   -0.36288E-01  9648   0.796E-01    0.403E+00
DAV:  16    -0.254533376007E+04    0.44998E-01   -0.24288E-01  8256   0.419E-01    0.298E+00
DAV:  17    -0.254531941934E+04    0.14341E-01   -0.48857E-02  8160   0.228E-01    0.191E+00
DAV:  18    -0.254533255845E+04   -0.13139E-01   -0.16228E-02  8576   0.168E-01    0.193E+00
DAV:  19    -0.254532913343E+04    0.34250E-02   -0.29580E-02 10120   0.245E-01    0.172E+00
DAV:  20    -0.254533914844E+04   -0.10015E-01   -0.58054E-02 10456   0.306E-01    0.188E+00
DAV:  21    -0.254532627105E+04    0.12877E-01   -0.58268E-02 10376   0.348E-01    0.127E+00
DAV:  22    -0.254532341676E+04    0.28543E-02   -0.89790E-03  8384   0.151E-01    0.758E-01
DAV:  23    -0.254532367784E+04   -0.26107E-03   -0.16787E-03  8464   0.688E-02    0.595E-01
DAV:  24    -0.254532344973E+04    0.22811E-03   -0.69580E-04  8824   0.323E-02    0.405E-01
DAV:  25    -0.254532364300E+04   -0.19327E-03   -0.41852E-04  9229   0.321E-02    0.274E-01
DAV:  26    -0.254532375078E+04   -0.10778E-03   -0.44771E-04  8856   0.325E-02    0.127E-01
DAV:  27    -0.254532390430E+04   -0.15352E-03   -0.21383E-04  9050   0.304E-02    0.967E-02
DAV:  28    -0.254532393791E+04   -0.33610E-04   -0.41468E-04  8064   0.229E-02    0.835E-02
DAV:  29    -0.254532394252E+04   -0.46170E-05   -0.10414E-04  6872   0.142E-02    0.302E-02
DAV:  30    -0.254532396721E+04   -0.24685E-04   -0.11104E-05  4312   0.605E-03    0.241E-02
DAV:  31    -0.254532398779E+04   -0.20584E-04   -0.86261E-06  4568   0.562E-03    0.204E-02
DAV:  32    -0.254532399389E+04   -0.60946E-05   -0.28936E-06  4288   0.327E-03    0.132E-02
DAV:  33    -0.254532400166E+04   -0.77770E-05   -0.14616E-06  4168   0.207E-03    0.992E-03
DAV:  34    -0.254532401105E+04   -0.93863E-05   -0.15037E-06  4224   0.172E-03    0.111E-02
DAV:  35    -0.254532401844E+04   -0.73900E-05   -0.10662E-06  4224   0.136E-03    0.903E-03
DAV:  36    -0.254532402092E+04   -0.24745E-05   -0.45528E-07  4280   0.864E-04
  37 F= -.26315355E+04 E0= -.26314346E+04  d E =-.249016E+02
       N       E                     dE             d eps       ncg     rms          rms(c)
DAV:   1    -0.255130934599E+04   -0.59853E+01   -0.43593E+03  6812   0.719E+01    0.564E+01
DAV:   2    -0.257717689620E+04   -0.25868E+02   -0.19128E+02  9296   0.169E+01    0.566E+01
DAV:   3    -0.259412067635E+04   -0.16944E+02   -0.60719E+01 10400   0.203E+01    0.543E+01
DAV:   4    -0.260145396464E+04   -0.73333E+01   -0.26147E+01 10520   0.232E+01    0.590E+01
DAV:   5    -0.257606260596E+04    0.25391E+02   -0.41520E+01 10848   0.243E+01    0.337E+01
DAV:   6    -0.257281225789E+04    0.32503E+01   -0.16816E+01 10080   0.119E+01    0.346E+01
DAV:   7    -0.257085527223E+04    0.19570E+01   -0.14601E+01  9592   0.857E+00    0.266E+01
DAV:   8    -0.256697856285E+04    0.38767E+01   -0.80012E+00  9760   0.729E+00    0.209E+01
DAV:   9    -0.256401504949E+04    0.29635E+01   -0.27395E+00  9480   0.491E+00    0.152E+01
DAV:  10    -0.256300841836E+04    0.10066E+01   -0.29062E+00  9904   0.303E+00    0.130E+01
DAV:  11    -0.256221739318E+04    0.79103E+00   -0.17642E+00  9384   0.218E+00    0.872E+00
DAV:  12    -0.256192845160E+04    0.28894E+00   -0.13773E+00 10552   0.210E+00    0.841E+00
DAV:  13    -0.256177409018E+04    0.15436E+00   -0.11762E+00  9112   0.138E+00    0.718E+00
DAV:  14    -0.256169832983E+04    0.75760E-01   -0.11842E+00  9368   0.134E+00    0.740E+00
DAV:  15    -0.256143753564E+04    0.26079E+00   -0.52020E-01  9552   0.105E+00    0.458E+00
DAV:  16    -0.256137557760E+04    0.61958E-01   -0.28768E-01 10920   0.154E+00    0.327E+00
DAV:  17    -0.256134698585E+04    0.28592E-01   -0.25696E-01  8888   0.764E-01    0.198E+00
DAV:  18    -0.256134106877E+04    0.59171E-02   -0.91249E-02  8672   0.515E-01    0.147E+00
DAV:  19    -0.256133985760E+04    0.12112E-02   -0.52622E-02  8720   0.361E-01    0.126E+00
DAV:  20    -0.256133594023E+04    0.39174E-02   -0.22407E-02  8896   0.233E-01    0.104E+00
DAV:  21    -0.256133696526E+04   -0.10250E-02   -0.17568E-02  9792   0.245E-01    0.880E-01
DAV:  22    -0.256133210123E+04    0.48640E-02   -0.74468E-03  9560   0.263E-01    0.548E-01
DAV:  23    -0.256133163261E+04    0.46862E-03   -0.31148E-03 10400   0.136E-01    0.268E-01
DAV:  24    -0.256133195909E+04   -0.32648E-03   -0.16555E-03  8416   0.650E-02    0.198E-01
DAV:  25    -0.256133191451E+04    0.44581E-04   -0.58943E-04  8432   0.422E-02    0.966E-02
DAV:  26    -0.256133200477E+04   -0.90258E-04   -0.17618E-04  8784   0.285E-02    0.884E-02
DAV:  27    -0.256133201008E+04   -0.53183E-05   -0.11708E-04  8928   0.324E-02    0.610E-02
DAV:  28    -0.256133201591E+04   -0.58301E-05   -0.57796E-05  7632   0.168E-02    0.423E-02
DAV:  29    -0.256133202723E+04   -0.11314E-04   -0.18967E-05  5032   0.964E-03    0.247E-02
DAV:  30    -0.256133204198E+04   -0.14756E-04   -0.97886E-06  4264   0.789E-03    0.147E-02
DAV:  31    -0.256133205418E+04   -0.12200E-04   -0.73801E-06  4224   0.591E-03    0.138E-02
DAV:  32    -0.256133206357E+04   -0.93826E-05   -0.46562E-06  4208   0.373E-03    0.108E-02
DAV:  33    -0.256133207073E+04   -0.71642E-05   -0.26194E-06  4224   0.346E-03    0.106E-02
DAV:  34    -0.256133207666E+04   -0.59316E-05   -0.21263E-06  4208   0.184E-03    0.968E-03
DAV:  35    -0.256133208175E+04   -0.50915E-05   -0.10859E-06  4192   0.164E-03    0.948E-03
DAV:  36    -0.256133208516E+04   -0.34105E-05   -0.63814E-07  4200   0.906E-04
  38 F= -.26475154E+04 E0= -.26474242E+04  d E =-.159800E+02
       N       E                     dE             d eps       ncg     rms          rms(c)
DAV:   1    -0.256191535029E+04   -0.58327E+00   -0.23224E+02  6796   0.166E+01    0.151E+01
DAV:   2    -0.256331499689E+04   -0.13996E+01   -0.75458E+00  9176   0.324E+00    0.139E+01
DAV:   3    -0.257105802684E+04   -0.77430E+01   -0.12095E+01 10544   0.728E+00    0.292E+01
DAV:   4    -0.256643890336E+04    0.46191E+01   -0.20654E+01 10792   0.815E+00    0.208E+01
DAV:   5    -0.256323957563E+04    0.31993E+01   -0.75862E+00 10472   0.549E+00    0.116E+01
DAV:   6    -0.256265179637E+04    0.58778E+00   -0.31614E+00  9968   0.303E+00    0.923E+00
DAV:   7    -0.256245815575E+04    0.19364E+00   -0.10537E+00  9552   0.181E+00    0.849E+00
DAV:   8    -0.256230983696E+04    0.14832E+00   -0.87236E-01  9160   0.117E+00    0.511E+00
DAV:   9    -0.256228212039E+04    0.27717E-01   -0.42800E-01  9560   0.922E-01    0.343E+00
DAV:  10    -0.256227284727E+04    0.92731E-02   -0.25426E-01  9568   0.658E-01    0.266E+00
DAV:  11    -0.256225727560E+04    0.15572E-01   -0.70839E-02  9080   0.349E-01    0.189E+00
DAV:  12    -0.256225599748E+04    0.12781E-02   -0.47349E-02  9424   0.321E-01    0.179E+00
DAV:  13    -0.256225547413E+04    0.52335E-03   -0.67348E-02  9776   0.318E-01    0.180E+00
DAV:  14    -0.256224645975E+04    0.90144E-02   -0.15054E-02  8920   0.184E-01    0.113E+00
DAV:  15    -0.256224490897E+04    0.15508E-02   -0.13748E-02  9504   0.167E-01    0.903E-01
DAV:  16    -0.256224349634E+04    0.14126E-02   -0.34747E-03  8680   0.849E-02    0.562E-01
DAV:  17    -0.256224374992E+04   -0.25358E-03   -0.12647E-03  9352   0.681E-02    0.414E-01
DAV:  18    -0.256224374837E+04    0.15530E-05   -0.12364E-03  8784   0.426E-02    0.174E-01
DAV:  19    -0.256224423164E+04   -0.48327E-03   -0.55088E-04  8560   0.403E-02    0.158E-01
DAV:  20    -0.256224417129E+04    0.60352E-04   -0.39096E-04  8576   0.289E-02    0.593E-02
DAV:  21    -0.256224421615E+04   -0.44861E-04   -0.85991E-05  7912   0.171E-02    0.475E-02
DAV:  22    -0.256224421223E+04    0.39232E-05   -0.33202E-05  5448   0.121E-02
  39 F= -.26484287E+04 E0= -.26483412E+04  d E =-.168932E+02
       N       E                     dE             d eps       ncg     rms          rms(c)
DAV:   1    -0.257164475904E+04   -0.94005E+01   -0.16734E+03  6796   0.448E+01    0.318E+01
DAV:   2    -0.258099334344E+04   -0.93486E+01   -0.51131E+01  9464   0.927E+00    0.335E+01
DAV:   3    -0.259087349197E+04   -0.98801E+01   -0.24047E+01 10392   0.135E+01    0.364E+01
DAV:   4    -0.260014468100E+04   -0.92712E+01   -0.24345E+01 10952   0.168E+01    0.495E+01
DAV:   5    -0.257873465698E+04    0.21410E+02   -0.16791E+01 10544   0.149E+01    0.226E+01
DAV:   6    -0.257605311321E+04    0.26815E+01   -0.61770E+00  9576   0.654E+00    0.155E+01
DAV:   7    -0.257608040226E+04   -0.27289E-01   -0.68825E+00  9216   0.429E+00    0.143E+01
DAV:   8    -0.257500802393E+04    0.10724E+01   -0.41115E+00  9784   0.342E+00    0.112E+01
DAV:   9    -0.257477578626E+04    0.23224E+00   -0.25619E+00  9704   0.218E+00    0.796E+00
DAV:  10    -0.257440719411E+04    0.36859E+00   -0.44720E-01  9120   0.143E+00    0.591E+00
DAV:  11    -0.257432222005E+04    0.84974E-01   -0.43625E-01  9280   0.982E-01    0.439E+00
DAV:  12    -0.257427692895E+04    0.45291E-01   -0.16221E-01  9672   0.784E-01    0.333E+00
DAV:  13    -0.257429484609E+04   -0.17917E-01   -0.29481E-01  9568   0.683E-01    0.363E+00
DAV:  14    -0.257427316533E+04    0.21681E-01   -0.23387E-01 10080   0.736E-01    0.284E+00
DAV:  15    -0.257424003437E+04    0.33131E-01   -0.59465E-02  9672   0.650E-01    0.132E+00
DAV:  16    -0.257424124500E+04   -0.12106E-02   -0.34317E-02  8696   0.383E-01    0.101E+00
DAV:  17    -0.257423918648E+04    0.20585E-02   -0.17300E-02  8208   0.261E-01    0.808E-01
DAV:  18    -0.257423704826E+04    0.21382E-02   -0.66225E-03  8608   0.154E-01    0.480E-01
DAV:  19    -0.257423723543E+04   -0.18717E-03   -0.28993E-03  9208   0.114E-01    0.339E-01
DAV:  20    -0.257423720148E+04    0.33948E-04   -0.16575E-03  9360   0.928E-02    0.261E-01
DAV:  21    -0.257423694743E+04    0.25405E-03   -0.89942E-04  9280   0.655E-02    0.151E-01
DAV:  22    -0.257423699719E+04   -0.49764E-04   -0.36880E-04  8832   0.418E-02    0.114E-01
DAV:  23    -0.257423692648E+04    0.70711E-04   -0.17836E-04  8352   0.254E-02    0.710E-02
DAV:  24    -0.257423691189E+04    0.14591E-04   -0.55574E-05  8120   0.178E-02    0.460E-02
DAV:  25    -0.257423690864E+04    0.32554E-05   -0.33140E-05  6792   0.120E-02
  40 F= -.26604026E+04 E0= -.26603288E+04  d E =-.119740E+02
