 running on    1 total cores
 distrk:  each k-point on    1 cores,    1 groups
 distr:  one band on    1 cores,    1 groups
 OpenACC runtime initialized ...    1 GPUs detected
 vasp.6.2.1 16May21 (build Jun 16 2021 03:23:30) complex                         
 POSCAR found type information on POSCAR NiAl
 POSCAR found :  2 types and     250 ions
 scaLAPACK will be used selectively (only on CPU)
 LDA part: xc-table for Pade appr. of Perdew
 POSCAR found type information on POSCAR NiAl
 POSCAR found :  2 types and     250 ions
 POSCAR, INCAR and KPOINTS ok, starting setup
 FFT: planning ...
 WAVECAR not read
 entering main loop
       N       E                     dE             d eps       ncg     rms          rms(c)
DAV:   1     0.116631278530E+05    0.11663E+05   -0.56917E+05  7896   0.130E+03
DAV:   2    -0.367513029558E+03   -0.12031E+05   -0.11591E+05  7800   0.440E+02
DAV:   3    -0.138083549090E+04   -0.10133E+04   -0.89531E+03 11872   0.121E+02
DAV:   4    -0.148125032756E+04   -0.10041E+03   -0.95446E+02 11128   0.438E+01
DAV:   5    -0.148986470960E+04   -0.86144E+01   -0.84367E+01 13216   0.983E+00    0.123E+02
DAV:   6    -0.173248341509E+04   -0.24262E+03   -0.54320E+03 10344   0.159E+02    0.208E+02
DAV:   7    -0.134135858140E+04    0.39112E+03   -0.10986E+03  9400   0.859E+01    0.399E+01
DAV:   8    -0.132446037528E+04    0.16898E+02   -0.34644E+02 12456   0.309E+01    0.190E+01
DAV:   9    -0.132011689190E+04    0.43435E+01   -0.28007E+01  9496   0.118E+01    0.392E+00
DAV:  10    -0.132018430942E+04   -0.67418E-01   -0.15775E+00 10912   0.206E+00    0.228E+00
DAV:  11    -0.132018607340E+04   -0.17640E-02   -0.95678E-02 11568   0.381E-01    0.163E+00
DAV:  12    -0.132017761547E+04    0.84579E-02   -0.36807E-02 10232   0.442E-01    0.496E-01
DAV:  13    -0.132017790998E+04   -0.29451E-03   -0.26375E-03  9328   0.106E-01    0.314E-01
DAV:  14    -0.132017758275E+04    0.32723E-03   -0.99493E-04 12288   0.609E-02    0.811E-02
DAV:  15    -0.132017756813E+04    0.14624E-04   -0.15000E-04 12392   0.170E-02    0.121E-02
DAV:  16    -0.132017757246E+04   -0.43361E-05   -0.51892E-06  9992   0.442E-03    0.273E-03
DAV:  17    -0.132017757426E+04   -0.17969E-05   -0.30120E-07  6368   0.126E-03    0.140E-03
DAV:  18    -0.132017757472E+04   -0.45629E-06   -0.10683E-07  4920   0.438E-04    0.959E-04
DAV:  19    -0.132017757492E+04   -0.20392E-06   -0.31285E-08  4792   0.285E-04    0.438E-04
DAV:  20    -0.132017757495E+04   -0.33146E-07   -0.11757E-08  4744   0.221E-04
   1 F= -.14286684E+04 E0= -.14286159E+04  d E =-.104896E+00
