         259
 Energy:   577.66552469999999     
 X   0.00000000       0.00000000       0.00000000    
 X   10.5415001       0.00000000       0.00000000    
 X   5.27075005       9.12920666       0.00000000    
 X   0.00000000       0.00000000       28.5415001    
 X   15.8122501       9.12920666       0.00000000    
 X   10.5415001       0.00000000       28.5415001    
 X   5.27075005       9.12920666       28.5415001    
 X   15.8122501       9.12920666       28.5415001    
 Ni   0.00000000       0.00000000       0.00000000    
 Ni   0.00000000       0.00000000       2.10829997    
 Ni   0.00000000       0.00000000       4.21659994    
 Ni   0.00000000       0.00000000       6.32490015    
 Ni   0.00000000       0.00000000       8.43319988    
 Ni   1.05414999       1.82584000       0.00000000    
 Ni   1.05414999       1.82584000       2.10829997    
 Ni   1.05414999       1.82584000       4.21659994    
 Ni   1.05414999       1.82584000       6.32490015    
 Ni   1.05414999       1.82584000       8.43319988    
 Ni   2.10829997       3.65167999       0.00000000    
 Ni   2.10829997       3.65167999       2.10829997    
 Ni   2.10829997       3.65167999       4.21659994    
 Ni   2.10829997       3.65167999       6.32490015    
 Ni   2.10829997       3.65167999       8.43319988    
 Ni   3.16245008       5.47751999       0.00000000    
 Ni   3.16245008       5.47751999       2.10829997    
 Ni   3.16245008       5.47751999       4.21659994    
 Ni   3.16245008       5.47751999       6.32490015    
 Ni   3.16245008       5.47751999       8.43319988    
 Ni   4.21659994       7.30337000       0.00000000    
 Ni   4.21659994       7.30337000       2.10829997    
 Ni   4.21659994       7.30337000       4.21659994    
 Ni   4.21659994       7.30337000       6.32490015    
 Ni   4.21659994       7.30337000       8.43319988    
 Ni   2.10829997       0.00000000       0.00000000    
 Ni   2.10829997       0.00000000       2.10829997    
 Ni   2.10829997       0.00000000       4.21659994    
 Ni   2.10829997       0.00000000       6.32490015    
 Ni   2.10829997       0.00000000       8.43319988    
 Ni   3.16245008       1.82584000       0.00000000    
 Ni   3.16245008       1.82584000       2.10829997    
 Ni   3.16245008       1.82584000       4.21659994    
 Ni   3.16245008       1.82584000       6.32490015    
 Ni   3.16245008       1.82584000       8.43319988    
 Ni   4.21659994       3.65167999       0.00000000    
 Ni   4.21659994       3.65167999       2.10829997    
 Ni   4.21659994       3.65167999       4.21659994    
 Ni   4.21659994       3.65167999       6.32490015    
 Ni   4.21659994       3.65167999       8.43319988    
 Ni   5.27075005       5.47751999       0.00000000    
 Ni   5.27075005       5.47751999       2.10829997    
 Ni   5.27075005       5.47751999       4.21659994    
 Ni   5.27075005       5.47751999       6.32490015    
 Ni   5.27075005       5.47751999       8.43319988    
 Ni   6.32490015       7.30337000       0.00000000    
 Ni   6.32490015       7.30337000       2.10829997    
 Ni   6.32490015       7.30337000       4.21659994    
 Ni   6.32490015       7.30337000       6.32490015    
 Ni   6.32490015       7.30337000       8.43319988    
 Ni   4.21659994       0.00000000       0.00000000    
 Ni   4.21659994       0.00000000       2.10829997    
 Ni   4.21659994       0.00000000       4.21659994    
 Ni   4.21659994       0.00000000       6.32490015    
 Ni   4.21659994       0.00000000       8.43319988    
 Ni   5.27075005       1.82584000       0.00000000    
 Ni   5.27075005       1.82584000       2.10829997    
 Ni   5.27075005       1.82584000       4.21659994    
 Ni   5.27075005       1.82584000       6.32490015    
 Ni   5.27075005       1.82584000       8.43319988    
 Ni   6.32490015       3.65167999       0.00000000    
 Ni   6.32490015       3.65167999       2.10829997    
 Ni   6.32490015       3.65167999       4.21659994    
 Ni   6.32490015       3.65167999       6.32490015    
 Ni   6.32490015       3.65167999       8.43319988    
 Ni   7.37904978       5.47751999       0.00000000    
 Ni   7.37904978       5.47751999       2.10829997    
 Ni   7.37904978       5.47751999       4.21659994    
 Ni   7.37904978       5.47751999       6.32490015    
 Ni   7.37904978       5.47751999       8.43319988    
 Ni   8.43319988       7.30337000       0.00000000    
 Ni   8.43319988       7.30337000       2.10829997    
 Ni   8.43319988       7.30337000       4.21659994    
 Ni   8.43319988       7.30337000       6.32490015    
 Ni   8.43319988       7.30337000       8.43319988    
 Ni   6.32490015       0.00000000       0.00000000    
 Ni   6.32490015       0.00000000       2.10829997    
 Ni   6.32490015       0.00000000       4.21659994    
 Ni   6.32490015       0.00000000       6.32490015    
 Ni   6.32490015       0.00000000       8.43319988    
 Ni   7.37904978       1.82584000       0.00000000    
 Ni   7.37904978       1.82584000       2.10829997    
 Ni   7.37904978       1.82584000       4.21659994    
 Ni   7.37904978       1.82584000       6.32490015    
 Ni   7.37904978       1.82584000       8.43319988    
 Ni   8.43319988       3.65167999       0.00000000    
 Ni   8.43319988       3.65167999       2.10829997    
 Ni   8.43319988       3.65167999       4.21659994    
 Ni   8.43319988       3.65167999       6.32490015    
 Ni   8.43319988       3.65167999       8.43319988    
 Ni   9.48735046       5.47751999       0.00000000    
 Ni   9.48735046       5.47751999       2.10829997    
 Ni   9.48735046       5.47751999       4.21659994    
 Ni   9.48735046       5.47751999       6.32490015    
 Ni   9.48735046       5.47751999       8.43319988    
 Ni   10.5415001       7.30337000       0.00000000    
 Ni   10.5415001       7.30337000       2.10829997    
 Ni   10.5415001       7.30337000       4.21659994    
 Ni   10.5415001       7.30337000       6.32490015    
 Ni   10.5415001       7.30337000       8.43319988    
 Ni   8.43319988       0.00000000       0.00000000    
 Ni   8.43319988       0.00000000       2.10829997    
 Ni   8.43319988       0.00000000       4.21659994    
 Ni   8.43319988       0.00000000       6.32490015    
 Ni   8.43319988       0.00000000       8.43319988    
 Ni   9.48735046       1.82584000       0.00000000    
 Ni   9.48735046       1.82584000       2.10829997    
 Ni   9.48735046       1.82584000       4.21659994    
 Ni   9.48735046       1.82584000       6.32490015    
 Ni   9.48735046       1.82584000       8.43319988    
 Ni   10.5415001       3.65167999       0.00000000    
 Ni   10.5415001       3.65167999       2.10829997    
 Ni   10.5415001       3.65167999       4.21659994    
 Ni   10.5415001       3.65167999       6.32490015    
 Ni   10.5415001       3.65167999       8.43319988    
 Ni   11.5956497       5.47751999       0.00000000    
 Ni   11.5956497       5.47751999       2.10829997    
 Ni   11.5956497       5.47751999       4.21659994    
 Ni   11.5956497       5.47751999       6.32490015    
 Ni   11.5956497       5.47751999       8.43319988    
 Ni   12.6498003       7.30337000       0.00000000    
 Ni   12.6498003       7.30337000       2.10829997    
 Ni   12.6498003       7.30337000       4.21659994    
 Ni   12.6498003       7.30337000       6.32490015    
 Ni   12.6498003       7.30337000       8.43319988    
 O    1.58123004      0.912919998       1.05414999    
 O    1.58123004      0.912919998       3.16245008    
 O    1.58123004      0.912919998       5.27075005    
 O    1.58123004      0.912919998       7.37904978    
 O    1.58123004      0.912919998       9.48735046    
 O    2.63538003       2.73875999       1.05414999    
 O    2.63538003       2.73875999       3.16245008    
 O    2.63538003       2.73875999       5.27075005    
 O    2.63538003       2.73875999       7.37904978    
 O    2.63538003       2.73875999       9.48735046    
 O    3.68952990       4.56459999       1.05414999    
 O    3.68952990       4.56459999       3.16245008    
 O    3.68952990       4.56459999       5.27075005    
 O    3.68952990       4.56459999       7.37904978    
 O    3.68952990       4.56459999       9.48735046    
 O    4.74366999       6.39043999       1.05414999    
 O    4.74366999       6.39043999       3.16245008    
 O    4.74366999       6.39043999       5.27075005    
 O    4.74366999       6.39043999       7.37904978    
 O    4.74366999       6.39043999       9.48735046    
 O    5.79782009       8.21629047       1.05414999    
 O    5.79782009       8.21629047       3.16245008    
 O    5.79782009       8.21629047       5.27075005    
 O    5.79782009       8.21629047       7.37904978    
 O    5.79782009       8.21629047       9.48735046    
 O    3.68952990      0.912919998       1.05414999    
 O    3.68952990      0.912919998       3.16245008    
 O    3.68952990      0.912919998       5.27075005    
 O    3.68952990      0.912919998       7.37904978    
 O    3.68952990      0.912919998       9.48735046    
 O    4.74368000       2.73875999       1.05414999    
 O    4.74368000       2.73875999       3.16245008    
 O    4.74368000       2.73875999       5.27075005    
 O    4.74368000       2.73875999       7.37904978    
 O    4.74368000       2.73875999       9.48735046    
 O    5.79783010       4.56459999       1.05414999    
 O    5.79783010       4.56459999       3.16245008    
 O    5.79783010       4.56459999       5.27075005    
 O    5.79783010       4.56459999       7.37904978    
 O    5.79783010       4.56459999       9.48735046    
 O    6.85198021       6.39043999       1.05414999    
 O    6.85198021       6.39043999       3.16245008    
 O    6.85198021       6.39043999       5.27075005    
 O    6.85198021       6.39043999       7.37904978    
 O    6.85198021       6.39043999       9.48735046    
 O    7.90612984       8.21629047       1.05414999    
 O    7.90612984       8.21629047       3.16245008    
 O    7.90612984       8.21629047       5.27075005    
 O    7.90612984       8.21629047       7.37904978    
 O    7.90612984       8.21629047       9.48735046    
 O    5.79783010      0.912919998       1.05414999    
 O    5.79783010      0.912919998       3.16245008    
 O    5.79783010      0.912919998       5.27075005    
 O    5.79783010      0.912919998       7.37904978    
 O    5.79783010      0.912919998       9.48735046    
 O    6.85198021       2.73875999       1.05414999    
 O    6.85198021       2.73875999       3.16245008    
 O    6.85198021       2.73875999       5.27075005    
 O    6.85198021       2.73875999       7.37904978    
 O    6.85198021       2.73875999       9.48735046    
 O    7.90612984       4.56459999       1.05414999    
 O    7.90612984       4.56459999       3.16245008    
 O    7.90612984       4.56459999       5.27075005    
 O    7.90612984       4.56459999       7.37904978    
 O    7.90612984       4.56459999       9.48735046    
 O    8.96028042       6.39043999       1.05414999    
 O    8.96028042       6.39043999       3.16245008    
 O    8.96028042       6.39043999       5.27075005    
 O    8.96028042       6.39043999       7.37904978    
 O    8.96028042       6.39043999       9.48735046    
 O    10.0144196       8.21629047       1.05414999    
 O    10.0144196       8.21629047       3.16245008    
 O    10.0144196       8.21629047       5.27075005    
 O    10.0144196       8.21629047       7.37904978    
 O    10.0144196       8.21629047       9.48735046    
 O    7.90611982      0.912919998       1.05414999    
 O    7.90611982      0.912919998       3.16245008    
 O    7.90611982      0.912919998       5.27075005    
 O    7.90611982      0.912919998       7.37904978    
 O    7.90611982      0.912919998       9.48735046    
 O    8.96028042       2.73875999       1.05414999    
 O    8.96028042       2.73875999       3.16245008    
 O    8.96028042       2.73875999       5.27075005    
 O    8.96028042       2.73875999       7.37904978    
 O    8.96028042       2.73875999       9.48735046    
 O    10.0144196       4.56459999       1.05414999    
 O    10.0144196       4.56459999       3.16245008    
 O    10.0144196       4.56459999       5.27075005    
 O    10.0144196       4.56459999       7.37904978    
 O    10.0144196       4.56459999       9.48735046    
 O    11.0685701       6.39043999       1.05414999    
 O    11.0685701       6.39043999       3.16245008    
 O    11.0685701       6.39043999       5.27075005    
 O    11.0685701       6.39043999       7.37904978    
 O    11.0685701       6.39043999       9.48735046    
 O    12.1227198       8.21629047       1.05414999    
 O    12.1227198       8.21629047       3.16245008    
 O    12.1227198       8.21629047       5.27075005    
 O    12.1227198       8.21629047       7.37904978    
 O    12.1227198       8.21629047       9.48735046    
 O    10.0144196      0.912919998       1.05414999    
 O    10.0144196      0.912919998       3.16245008    
 O    10.0144196      0.912919998       5.27075005    
 O    10.0144196      0.912919998       7.37904978    
 O    10.0144196      0.912919998       9.48735046    
 O    11.0685701       2.73875999       1.05414999    
 O    11.0685701       2.73875999       3.16245008    
 O    11.0685701       2.73875999       5.27075005    
 O    11.0685701       2.73875999       7.37904978    
 O    11.0685701       2.73875999       9.48735046    
 O    12.1227198       4.56459999       1.05414999    
 O    12.1227198       4.56459999       3.16245008    
 O    12.1227198       4.56459999       5.27075005    
 O    12.1227198       4.56459999       7.37904978    
 O    12.1227198       4.56459999       9.48735046    
 O    13.1768703       6.39043999       1.05414999    
 O    13.1768703       6.39043999       3.16245008    
 O    13.1768703       6.39043999       5.27075005    
 O    13.1768703       6.39043999       7.37904978    
 O    13.1768703       6.39043999       9.48735046    
 O    14.2310200       8.21629047       1.05414999    
 O    14.2310200       8.21629047       3.16245008    
 O    14.2310200       8.21629047       5.27075005    
 O    14.2310200       8.21629047       7.37904978    
 O    14.2310200       8.21629047       9.48735046    
 O    6.66359997       3.84722996       10.4873505    
         259
 Energy:   184.87711830000001     
 X   0.00000000       0.00000000       0.00000000    
 X   10.5415001       0.00000000       0.00000000    
 X   5.27075005       9.12920666       0.00000000    
 X   0.00000000       0.00000000       28.5415001    
 X   15.8122501       9.12920666       0.00000000    
 X   10.5415001       0.00000000       28.5415001    
 X   5.27075005       9.12920666       28.5415001    
 X   15.8122501       9.12920666       28.5415001    
 Ni   3.10000003E-04   1.80000003E-04 -0.537129998    
 Ni   5.20000001E-04   3.00000014E-04   2.07499003    
 Ni   1.99999995E-05   9.99999975E-06   4.21964979    
 Ni  -7.00000019E-05  -3.99999990E-05   6.31682014    
 Ni  -1.47000002E-03  -8.50000011E-04   8.62290001    
 Ni   1.05400002       1.82606006     -0.536520004    
 Ni   1.05412996       1.82612002       2.07603002    
 Ni   1.05421996       1.82596004       4.21908998    
 Ni   1.05436003       1.82562006       6.31749010    
 Ni   1.05429995       1.82562995       8.62292004    
 Ni   2.10841990       3.65151000     -0.536520004    
 Ni   2.10826993       3.65155005       2.07610011    
 Ni   2.10830998       3.65154004       4.21895981    
 Ni   2.10801005       3.65138006       6.31808996    
 Ni   2.11101007       3.65265989       8.62349033    
 Ni   3.16230989       5.47713995     -0.536830008    
 Ni   3.16234994       5.47735023       2.07510996    
 Ni   3.16224003       5.47758007       4.21969986    
 Ni   3.16381001       5.47820997       6.31698990    
 Ni   3.15872002       5.47472000       8.62125015    
 Ni   4.21643019       7.30343008     -0.535870016    
 Ni   4.21641016       7.30319977       2.07440996    
 Ni   4.21754980       7.30218983       4.21842003    
 Ni   4.21949005       7.29923010       6.32544994    
 Ni   4.21526003       7.30407000       8.61958981    
 Ni   2.10840988      -2.39999994E-04 -0.536520004    
 Ni   2.10853004      -1.59999996E-04   2.07603002    
 Ni   2.10843992      -0.00000000       4.21908998    
 Ni   2.10821009       2.89999996E-04   6.31749010    
 Ni   2.10819006       2.30000005E-04   8.62292004    
 Ni   3.16267991       1.82597005     -0.536279976    
 Ni   3.16206002       1.82562006       2.07610011    
 Ni   3.16261005       1.82593000       4.21887016    
 Ni   3.16315007       1.82623994       6.31829023    
 Ni   3.16141009       1.82524002       8.62331009    
 Ni   4.21667004       3.65177989     -0.536459982    
 Ni   4.21592999       3.65138006       2.07538009    
 Ni   4.21667004       3.65181994       4.21968985    
 Ni   4.21606016       3.65132999       6.31642008    
 Ni   4.20811987       3.64824009       8.62535000    
 Ni   5.27040005       5.47804022     -0.536339998    
 Ni   5.27039003       5.47804022       2.07428002    
 Ni   5.27111006       5.47641993       4.22038984    
 Ni   5.27050018       5.47663021       6.32257986    
 Ni   5.26966000       5.49595022       8.59906960    
 Ni   6.32516003       7.30322981     -0.536920011    
 Ni   6.32539988       7.30345011       2.07481003    
 Ni   6.32489014       7.30347013       4.21981001    
 Ni   6.32461023       7.30195999       6.31714010    
 Ni   6.32446003       7.30782986       8.61907005    
 Ni   4.21651983       1.90000006E-04 -0.536520004    
 Ni   4.21646976       3.99999990E-05   2.07610011    
 Ni   4.21647978       7.99999980E-05   4.21895981    
 Ni   4.21619987      -9.99999975E-05   6.31808996    
 Ni   4.21880007       1.85000000E-03   8.62349033    
 Ni   5.27087021       1.82586002     -0.536459982    
 Ni   5.27016020       1.82542002       2.07538009    
 Ni   5.27089977       1.82584000       4.21968985    
 Ni   5.27018023       1.82554996       6.31642008    
 Ni   5.26352978       1.82021999       8.62535000    
 Ni   6.32502985       3.65176010     -0.537020028    
 Ni   6.32462978       3.65153003       2.07397008    
 Ni   6.32507992       3.65177989       4.22000980    
 Ni   6.32469988       3.65157008       6.31643009    
 Ni   6.31429005       3.64556003       8.53666019    
 Ni   7.37896013       5.47757006     -0.536719978    
 Ni   7.37928009       5.47790003       2.07480001    
 Ni   7.37900019       5.47757006       4.22013998    
 Ni   7.37948990       5.47817993       6.31537008    
 Ni   7.37207985       5.47818995       8.62917995    
 Ni   8.43340969       7.30315018     -0.536469996    
 Ni   8.43334007       7.30327988       2.07599998    
 Ni   8.43321991       7.30319023       4.21892977    
 Ni   8.43266010       7.30332994       6.31696987    
 Ni   8.43527985       7.30800009       8.62483025    
 Ni   6.32450008       7.00000019E-05 -0.536830008    
 Ni   6.32469988       0.00000000       2.07510996    
 Ni   6.32484007      -1.99999995E-04   4.21969986    
 Ni   6.32616997       8.39999993E-04   6.31698990    
 Ni   6.32061005      -1.82999996E-03   8.62125015    
 Ni   7.37932014       1.82527995     -0.536339998    
 Ni   7.37931013       1.82527006       2.07428002    
 Ni   7.37827015       1.82670999       4.22038984    
 Ni   7.37816000       1.82606995       6.32257986    
 Ni   7.39447021       1.81569004       8.59906960    
 Ni   8.43319988       3.65158010     -0.536719978    
 Ni   8.43363953       3.65169001       2.07480001    
 Ni   8.43321037       3.65160990       4.22013998    
 Ni   8.43398952       3.65173006       6.31537008    
 Ni   8.43029022       3.64531994       8.62917995    
 Ni   9.48713970       5.47739983     -0.536260009    
 Ni   9.48773956       5.47774982       2.07612991    
 Ni   9.48721027       5.47743988       4.21915007    
 Ni   9.48721027       5.47743988       6.31648016    
 Ni   9.48828030       5.47805977       8.63140011    
 Ni   10.5414696       7.30338001     -0.536199987    
 Ni   10.5415897       7.30343008       2.07615995    
 Ni   10.5418701       7.30362988       4.21882010    
 Ni   10.5418901       7.30349016       6.31747007    
 Ni   10.5415697       7.30131006       8.62407017    
 Ni   8.43317032      -1.80000003E-04 -0.535870016    
 Ni   8.43295956      -7.99999980E-05   2.07440996    
 Ni   8.43266010       1.41000003E-03   4.21842003    
 Ni   8.43105984       4.57999995E-03   6.32544994    
 Ni   8.43313980      -1.50999997E-03   8.61958981    
 Ni   9.48736000       1.82614005     -0.536920011    
 Ni   9.48768044       1.82623005       2.07481003    
 Ni   9.48742962       1.82578003       4.21981001    
 Ni   9.48598957       1.82630002       6.31714010    
 Ni   9.49098969       1.82323003       8.61907005    
 Ni   10.5414200       3.65196991     -0.536469996    
 Ni   10.5415001       3.65184999       2.07599998    
 Ni   10.5413599       3.65178990       4.21892977    
 Ni   10.5411997       3.65123010       6.31696987    
 Ni   10.5465498       3.65117002       8.62483025    
 Ni   11.5956497       5.47748995     -0.536199987    
 Ni   11.5957499       5.47757006       2.07615995    
 Ni   11.5960703       5.47770977       4.21882010    
 Ni   11.5959501       5.47779989       6.31747007    
 Ni   11.5938997       5.47861004       8.62407017    
 Ni   12.6494598       7.30317020     -0.537100017    
 Ni   12.6493702       7.30312014       2.07518005    
 Ni   12.6495705       7.30323982       4.21970987    
 Ni   12.6501398       7.30355978       6.31688976    
 Ni   12.6508904       7.30398989       8.62267017    
 O    1.58097005      0.912779987       1.01424003    
 O    1.58104002      0.912810028       3.17656994    
 O    1.58140004      0.913020015       5.27333021    
 O    1.58132005      0.912980020       7.36346006    
 O    1.58039999      0.912450016       9.90933990    
 O    2.63532996       2.73877001       1.01352000    
 O    2.63546991       2.73887992       3.17700005    
 O    2.63530993       2.73868990       5.27323008    
 O    2.63576007       2.73888993       7.36308002    
 O    2.63539004       2.73993993       9.90867996    
 O    3.68971992       4.56474018       1.01444995    
 O    3.68958998       4.56466007       3.17709994    
 O    3.68954992       4.56470013       5.27341986    
 O    3.69192004       4.56566000       7.36395979    
 O    3.69402003       4.56806993       9.90279007    
 O    4.74417019       6.38988018       1.01356995    
 O    4.74320984       6.39133978       3.17896008    
 O    4.74269009       6.39257002       5.26731014    
 O    4.73785019       6.39670992       7.35680008    
 O    4.74420023       6.39227009       9.91287041    
 O    5.79747009       8.21623993       1.01522005    
 O    5.79761982       8.21660995       3.17697001    
 O    5.79807997       8.21605015       5.27291012    
 O    5.79692984       8.21630001       7.36392021    
 O    5.79807997       8.21459961       9.91178036    
 O    3.68950009      0.912880003       1.01352000    
 O    3.68967009      0.912940025       3.17700005    
 O    3.68943000      0.912899971       5.27323008    
 O    3.68983006      0.913190007       7.36308002    
 O    3.69055009      0.912339985       9.90867996    
 O    4.74384022       2.73885989       1.01405001    
 O    4.74386978       2.73886991       3.17730999    
 O    4.74390984       2.73889995       5.27225018    
 O    4.74583006       2.74001002       7.36302996    
 O    4.73775005       2.73534012       9.89770031    
 O    5.79819012       4.56405020       1.01496994    
 O    5.79788017       4.56484985       3.17796993    
 O    5.79745007       4.56532001       5.27023983    
 O    5.80082989       4.56188011       7.37796021    
 O    5.76492977       4.53667021       9.93787003    
 O    6.85179996       6.39025021       1.01487005    
 O    6.85179996       6.39053011       3.17724991    
 O    6.85184002       6.39068985       5.27240992    
 O    6.85199022       6.38786983       7.36535978    
 O    6.85323000       6.39730978       9.90886974    
 O    7.90588999       8.21648026       1.01387000    
 O    7.90602016       8.21642971       3.17687011    
 O    7.90639019       8.21597958       5.27369022    
 O    7.90510988       8.21527004       7.36298990    
 O    7.90561008       8.21665955       9.91016960    
 O    5.79803991      0.913020015       1.01444995    
 O    5.79791021      0.912949979       3.17709994    
 O    5.79792023      0.912890017       5.27341986    
 O    5.79994011      0.914470017       7.36395979    
 O    5.80308008      0.915080011       9.90279007    
 O    6.85167980       2.73936009       1.01496994    
 O    6.85221004       2.73867989       3.17796993    
 O    6.85240984       2.73808002       5.27023983    
 O    6.85112000       2.74272990       7.37796021    
 O    6.81133986       2.72424006       9.93787003    
 O    7.90607977       4.56456995       1.01475000    
 O    7.90607977       4.56457996       3.17703009    
 O    7.90601015       4.56453991       5.27248001    
 O    7.90431023       4.56356001       7.36587000    
 O    7.97730017       4.60570002       9.87450027    
 O    8.96014977       6.39047003       1.01340997    
 O    8.96016979       6.39052010       3.17717004    
 O    8.96030045       6.39056015       5.27349997    
 O    8.95895958       6.38861990       7.36506987    
 O    8.95825958       6.38938999       9.90336037    
 O    10.0145903       8.21621990       1.01344001    
 O    10.0144396       8.21613979       3.17705989    
 O    10.0144196       8.21625996       5.27302980    
 O    10.0144997       8.21609020       7.36399984    
 O    10.0145197       8.21632004       9.90783978    
 O    7.90588999      0.913630009       1.01356995    
 O    7.90666008      0.912069976       3.17896008    
 O    7.90747023      0.911000013       5.26731014    
 O    7.90863991      0.904739976       7.35680008    
 O    7.90796995      0.912460029       9.91287041    
 O    8.96002007       2.73870993       1.01487005    
 O    8.96026039       2.73855996       3.17724991    
 O    8.96041965       2.73851991       5.27240992    
 O    8.95806026       2.74006009       7.36535978    
 O    8.96685028       2.73640990       9.90886974    
 O    10.0143805       4.56447983       1.01340997    
 O    10.0144396       4.56447983       3.17717004    
 O    10.0145302       4.56456995       5.27349997    
 O    10.0121899       4.56437016       7.36506987    
 O    10.0124998       4.56337976       9.90336037    
 O    11.0686798       6.39051008       1.01357996    
 O    11.0683298       6.39030981       3.17687988    
 O    11.0685196       6.39040995       5.27332020    
 O    11.0680103       6.39012003       7.36317015    
 O    11.0683603       6.39031982       9.90867996    
 O    12.1231604       8.21634960       1.01497996    
 O    12.1228800       8.21609020       3.17673993    
 O    12.1224899       8.21652031       5.27333021    
 O    12.1235504       8.21595001       7.36288023    
 O    12.1237602       8.21765995       9.91172028    
 O    10.0142097      0.912639976       1.01522005    
 O    10.0146103      0.912580013       3.17697001    
 O    10.0143404      0.913259983       5.27291012    
 O    10.0139904      0.912140012       7.36392021    
 O    10.0130901      0.913980007       9.91178036    
 O    11.0686197       2.73846006       1.01387000    
 O    11.0686502       2.73860002       3.17687011    
 O    11.0684404       2.73915005       5.27369022    
 O    11.0671902       2.73838997       7.36298990    
 O    11.0686398       2.73813009       9.91016960    
 O    12.1227503       4.56478024       1.01344001    
 O    12.1226101       4.56470013       3.17705989    
 O    12.1226997       4.56461000       5.27302980    
 O    12.1225901       4.56477022       7.36399984    
 O    12.1227999       4.56467009       9.90783978    
 O    13.1771498       6.39078999       1.01497996    
 O    13.1767797       6.39067984       3.17673993    
 O    13.1769600       6.39013004       5.27333021    
 O    13.1770000       6.39132023       7.36288023    
 O    13.1785803       6.39065981       9.91172028    
 O    14.2311001       8.21632957       1.01391006    
 O    14.2309704       8.21625042       3.17966008    
 O    14.2309103       8.21621990       5.26473999    
 O    14.2309103       8.21621990       7.36455011    
 O    14.2311602       8.21636009       9.91016960    
 O    6.67553997       3.85413003       10.6088104    
         259
 Energy:   139.65240940000001     
 X   0.00000000       0.00000000       0.00000000    
 X   10.5415001       0.00000000       0.00000000    
 X   5.27075005       9.12920666       0.00000000    
 X   0.00000000       0.00000000       28.5415001    
 X   15.8122501       9.12920666       0.00000000    
 X   10.5415001       0.00000000       28.5415001    
 X   5.27075005       9.12920666       28.5415001    
 X   15.8122501       9.12920666       28.5415001    
 Ni   4.29999985E-04   2.50000012E-04 -0.741999984    
 Ni   7.20000011E-04   4.19999997E-04   2.06228995    
 Ni   2.99999992E-05   1.99999995E-05   4.22081995    
 Ni  -9.00000014E-05  -4.99999987E-05   6.31372976    
 Ni  -2.03000009E-03  -1.16999994E-03   8.69526005    
 Ni   1.05394006       1.82614005     -0.741150022    
 Ni   1.05411994       1.82623005       2.06373000    
 Ni   1.05423999       1.82600999       4.22004986    
 Ni   1.05444002       1.82553995       6.31466007    
 Ni   1.05435002       1.82555997       8.69528961    
 Ni   2.10846996       3.65144992     -0.741150022    
 Ni   2.10825992       3.65148997       2.06381989    
 Ni   2.10832000       3.65147996       4.21986008    
 Ni   2.10790992       3.65126991       6.31548977    
 Ni   2.11204004       3.65303993       8.69606972    
 Ni   3.16226006       5.47700024     -0.741580009    
 Ni   3.16230989       5.47728014       2.06244993    