/store/Terry_project/NiAlO_EDIP_fitting_DFT/NiO-Slab-O/NiO_Slab_O_iter_last_no_ox_lmp.data (written by ASE) 

125 	 atoms 
1  atom types
0.0             10.54150009  xlo xhi
0.0      9.1292068700000009  ylo yhi
0.0             28.54150009  zlo zhi
    -5.2707500399999994                       0                       0  xy xz yz


Atoms 

     1   1    0.013958105688583602   0.0080587160724238018      22.902228260797667
     2   1      0.0119442575107532   0.0068960202854606014     0.92776029781550939
     3   1      15.302738486761339      8.8350401800028084      4.2271106147443609
     4   1      15.684220880576442      9.0552891426467106      7.7862242593673239
     5   1      15.631319416508058       9.024746468142439      11.734800372638382
     6   1      11.364715665396938      1.6863175143961415      24.695970779483879
     7   1      11.441449879980899      1.7845967128661646      28.445179377156272
     8   1      11.513778063725439      1.7974269002012626      3.6624641289388595
     9   1      11.541249529217197      1.8197280919115735      7.4059415933931785
    10   1      1.1184273865915322      1.8445601736424544      10.829439158678504
    11   1      2.2042384758698987      3.6759785801193372      24.878010464962905
    12   1      12.595208738157524      3.8134685437246287      27.949694083538855
    13   1      2.1431334582010333      3.4483508447306885      4.4555927437548339
    14   1      12.581061781425849      3.6794659371436773      7.3283192735034106
    15   1      2.1236975674554457      3.5311522032891762      11.820622094674004
    16   1      3.4430208571207119      5.6104213642131322      24.014496227604983
    17   1      3.6692732311587717      4.6680829948714502     0.82957867916591299
    18   1      3.0908253858911743      5.3180958526574811      5.3199067139452785
    19   1      3.1578350666362662      5.4057081206523216      8.5847449343803017
    20   1      13.760755259778819      5.6990603028125726      12.002209682791603
    21   1      4.7256031712173696      7.4935483287382452      24.639728611896533
    22   1      4.2513315418528572      7.0227889998098325      28.199512410941608
    23   1       14.37538274675906      7.1145377114374702      2.9466826939517832
    24   1      4.2394651334962425      7.3371931330123052      7.0116156531297493
    25   1      4.1619321893221715      7.0046741884938974      10.492060075639644
    26   1      7.1427516437887313      8.9989737129356726      24.695970779483879
    27   1      7.2662310336199418      9.0162878928091086      28.445179377156272
    28   1       7.313506393689357      9.0725108436545536      3.6624641289388595
    29   1      7.3465555249959431      9.0851512347788237      7.4059415933931785
    30   1      2.1566496623381557    0.046306441174975801      10.829439158678504
    31   1      3.4445837379404822      1.9887313472955555      24.978365233429358
    32   1      3.1925986128519326      1.8432476675707543       27.91279763012751
    33   1      3.0172393356968197       1.742003941753836      2.3405254504153858
    34   1      3.3861247423153915      1.9549800304526843      7.4188209453087914
    35   1      3.3464774225593592      1.9320896397309839       10.48090206159446
    36   1      3.9392268695953572      3.6626042920547874      22.834932826470464
    37   1       4.152221146883166      3.8530956006931696      27.002353460416604
    38   1      3.8168146485166936      3.6287405946753468      3.1103533553878866
    39   1      4.3323179848845808      3.7276707968872698      8.8156234077383324
    40   1      4.2205438767300496      3.6678924764263039      12.408576996528005
    41   1      5.6170925092815622      5.5041799453873015      25.006018522036555
    42   1      5.6378800838958476      5.4572716156033865      27.619046798711228
    43   1      5.3794471450138905      5.5886614431781441      3.0569359400644456
    44   1      5.2057847332126652      5.6415176338220014      6.0522918811947104
    45   1      5.2939315446408006      5.5466952095333033       12.22588171279191
    46   1      6.3950115223980468      7.3160686960675356      23.217115785520601
    47   1      6.1715022043186298      7.3687161017502776      1.4084699422513325
    48   1      6.3008241151549971      7.3774019030426015      4.6662310123240411
    49   1      6.3475751936779066      7.3614503485865823      8.3511341832186563
    50   1      6.2675934064163119      7.1948698021217599       11.21671763173971
    51   1      4.2856100717930374    0.070937223894373208      24.878010464962905
    52   1      9.6001650090629802      9.0010364572279489      27.949694083538855
    53   1      4.0579261615599957     0.13183259410795251      4.4555927437548339
    54   1      9.4770418692667793      9.0557861366687131      7.3283192735034106
    55   1      4.1199162961273537    0.073599939662146105      11.820622094674004
    56   1      5.1415217962621362      1.5801683918517659      22.834932826470464
    57   1      5.4129892474187011      1.6693811923950548      27.002353460416604
    58   1      5.0509888634804065      1.4910881473922297      3.1103533553878866
    59   1      5.3944166001899037      1.8880620311748975      8.8156234077383324
    60   1      5.2867600019666199      1.8211519743070872      12.408576996528005
    61   1      5.8577163732836048      3.3819541231651788      23.970583417226514
    62   1      6.2999837447193929      3.6372973089825291     0.14049410711802049
    63   1      6.3963502382176118      3.6929345299151937      3.3060821151400792
    64   1      5.9652510590557055      3.4440393029101251      6.0526980267409911
    65   1      6.3940280511620511      3.6915938145942664      9.1965317033944505
    66   1      7.2983516149185563      5.4273762931582654      23.434920539347406
    67   1      7.2683781770817948      5.3938577710905804      1.0266260562222631
    68   1      7.5234911233726347      5.5449753582510644      4.4204915506991496
    69   1      7.2800719158988132      5.5028253536719314      8.0136349404644189
    70   1      7.2702066529756904      5.3861577415560777      11.306837989103887
    71   1      7.9489137581455491      7.0755600149535924      25.230945807210819
    72   1      8.4748528634069551      7.2647249411258326      0.1396404308503286
    73   1      8.5093498696810226      7.1497751718667084      3.2271083552210507
    74   1      8.1269813575626575      7.2842963173978763      6.8842452131681116
    75   1      8.4950746230283194      7.2623843950685023      11.156922047391156
    76   1      6.5802778554945203     0.17653284262622052      24.014496227604983
    77   1      5.8773150761532174     0.84364233128597466     0.82957867916591299
    78   1      6.1510188006376429    0.017685373424770102      5.3199067139452785
    79   1      6.2603980907767811    0.031911325198222401      8.5847449343803017
    80   1      11.815908634276774      9.0676334735921866      12.002209682791603
    81   1      7.5753059150075455      2.1124548321091616      25.006018522036555
    82   1      7.5450758970996574      2.1539115647185874      27.619046798711228
    83   1      7.5296463559668654      1.8644071606699031      3.0569359400644456
    84   1      7.4885899538094938      1.6875830050524609      6.0522918811947104
    85   1      7.4505447313174518      1.8113315951849593       12.22588171279191
    86   1      8.3494215547176811      3.6068697537768872      23.434920539347406
    87   1       8.305406944189361      3.5976712562267448      1.0266260562222631
    88   1      8.5638350868403599      3.7430467548501358      4.4204915506991496
    89   1      8.4056225082681753      3.5533145397629946      8.0136349404644189
    90   1       8.299652760953208      3.6031047775716303      11.306837989103887
    91   1      9.0819820213684146      5.2434847620424136      24.922565744508404
    92   1      9.4809344216281968      5.4738200376045674      28.339864095974182
    93   1      9.9279245959357993      5.7318899349298489      4.1550727247622037
    94   1      9.4761344549756963      5.4710487755671089      7.1279000036264284
    95   1      9.4090187267664618      5.4322994918391183      12.205624953933034
    96   1       10.34249185749675      7.3413807914956415      24.261037705382403
    97   1       10.67805231440186      7.4376019928609614     0.50067642165378445
    98   1       10.71071989631611      7.8216560404970679      3.3367950525569259
    99   1      10.525282786723169      7.3017725406932543      7.6881599462830987
   100   1      10.666725208943644      7.3024739376570773      11.493485699772442
   101   1       8.852404802295883     0.34571822568725896      24.639728611896533
   102   1        8.20757944963953     0.17036661113794774      28.199512410941608
   103   1      13.349061771895256      8.8921777860845577      2.9466826939517832
   104   1      8.4739282117493051   0.0028879333012558003      7.0116156531297493
   105   1      8.1471918865540172     0.10200190644747181      10.492060075639644
   106   1      9.5334071081954956      1.8802080832125678      23.217115785520601
   107   1      9.4672464397952059      1.6603196329479615      1.4084699422513325
   108   1      9.5394295198429422       1.767972792324169      4.6662310123240411
   109   1      9.5489906077436171        1.81643619120632      8.3511341832186563
   110   1      9.3647367291206951      1.8304602049238079       11.21671763173971
   111   1      10.102071599218476      3.3461812347530153      25.230945807210819
   112   1      10.528862783599944      3.7070753974806188      0.1396404308503286
   113   1      10.446561866457627      3.7944255659462209      3.2271083552210507
   114   1      10.371876339544283      3.3960241480852917      6.8842452131681116
   115   1      10.536946691076695      3.7257582280480048      11.156922047391156
   116   1      11.529068195271741      5.2861702858965414      24.261037705382403
   117   1      11.780178428613453      5.5286635652919545     0.50067642165378445
   118   1      12.129112781125366      5.3649274971036878      3.3367950525569259
   119   1      11.586161908591736      5.4642759995743937      7.6881599462830987
   120   1      11.657490547357616      5.5864180318819097      11.493485699772442
   121   1      12.763724844298679      7.3691399708252519      25.559572924662081
   122   1      12.612693978963968       7.281942260114378      28.307606492572461
   123   1      12.870239639936749      7.4306363167270826      5.0186805782404207
   124   1      12.712357642861376      7.3394831032635759      8.7055682396362961
   125   1      12.645587096072699      7.3009331101215578      13.087174279782825
