 running on    1 total cores
 distrk:  each k-point on    1 cores,    1 groups
 distr:  one band on    1 cores,    1 groups
 OpenACC runtime initialized ...    1 GPUs detected
 vasp.6.2.1 16May21 (build May 12 2022 08:28:04) complex                         
 POSCAR found type information on POSCAR NiO 
 POSCAR found :  2 types and     251 ions
 scaLAPACK will be used selectively (only on CPU)
 LDA part: xc-table for Pade appr. of Perdew
 POSCAR found type information on POSCAR NiO 
 POSCAR found :  2 types and     251 ions
 POSCAR, INCAR and KPOINTS ok, starting setup
 FFT: planning ...
 WAVECAR not read
 entering main loop
       N       E                     dE             d eps       ncg     rms          rms(c)
DAV:   1     0.311065650731E+05    0.31107E+05   -0.90215E+05  7282   0.156E+03
DAV:   2     0.517467104269E+04   -0.25932E+05   -0.24067E+05  7499   0.568E+02
DAV:   3     0.530965275508E+03   -0.46437E+04   -0.42650E+04  8908   0.280E+02
DAV:   4     0.807173241396E+01   -0.52289E+03   -0.50138E+03 10348   0.985E+01
DAV:   5    -0.908533065440E+01   -0.17157E+02   -0.16997E+02  9604   0.194E+01    0.738E+02
DAV:   6    -0.371032954565E+03   -0.36195E+03   -0.10667E+03 12084   0.224E+02    0.673E+02
DAV:   7    -0.102499571373E+05   -0.98789E+04   -0.51505E+04 11464   0.785E+02    0.346E+03
DAV:   8    -0.115467374111E+05   -0.12968E+04   -0.22474E+04 11740   0.241E+02    0.295E+03
DAV:   9    -0.845833170168E+04    0.30884E+04   -0.31252E+03 10596   0.837E+01    0.232E+03
DAV:  10    -0.353987211902E+04    0.49185E+04   -0.54256E+02 12676   0.942E+01    0.166E+03
DAV:  11    -0.143652004345E+04    0.21034E+04   -0.26031E+03 10972   0.141E+02    0.123E+03
DAV:  12    -0.780256839110E+03    0.65626E+03   -0.15985E+04 11108   0.594E+02    0.221E+03
DAV:  13    -0.202543670420E+04   -0.12452E+04   -0.12954E+04 10708   0.165E+02    0.160E+03
DAV:  14    -0.815949133138E+03    0.12095E+04   -0.12414E+03 10548   0.127E+02    0.894E+02
DAV:  15    -0.300115486027E+04   -0.21852E+04   -0.28596E+03  9876   0.460E+02    0.128E+03
DAV:  16    -0.132718248275E+04    0.16740E+04   -0.31512E+03 10404   0.144E+02    0.876E+02
DAV:  17    -0.452549994300E+03    0.87463E+03   -0.14633E+03 11772   0.139E+02    0.691E+02
DAV:  18     0.273060007276E+03    0.72561E+03   -0.94864E+02 12276   0.101E+02    0.448E+02
DAV:  19     0.412880138164E+03    0.13982E+03   -0.26659E+02 11148   0.792E+01    0.337E+02
DAV:  20     0.403218640898E+03   -0.96615E+01   -0.12189E+02  7828   0.550E+01    0.316E+02
DAV:  21     0.404012528983E+03    0.79389E+00   -0.11866E+02  7604   0.476E+01    0.312E+02
DAV:  22     0.399598565449E+03   -0.44140E+01   -0.30560E+01  7812   0.264E+01    0.328E+02
DAV:  23     0.405510304819E+03    0.59117E+01   -0.17177E+01  7788   0.155E+01    0.320E+02
DAV:  24     0.404243533869E+03   -0.12668E+01   -0.10075E+01  7684   0.175E+01    0.322E+02
DAV:  25     0.408034688429E+03    0.37912E+01   -0.17281E+01 11084   0.228E+01    0.310E+02
DAV:  26     0.406675230628E+03   -0.13595E+01   -0.26682E+01  9388   0.290E+01    0.321E+02
DAV:  27     0.413281988907E+03    0.66068E+01   -0.22257E+01  9476   0.249E+01    0.313E+02
DAV:  28     0.418169238246E+03    0.48872E+01   -0.18573E+01  7844   0.167E+01    0.317E+02
DAV:  29     0.401707743870E+03   -0.16461E+02   -0.23906E+01  9644   0.280E+01    0.301E+02
DAV:  30     0.412491136448E+03    0.10783E+02   -0.11245E+01  7932   0.125E+01    0.297E+02
DAV:  31     0.418250049739E+03    0.57589E+01   -0.47398E+00  7732   0.103E+01    0.293E+02
DAV:  32     0.415026612902E+03   -0.32234E+01   -0.43464E+00  7716   0.122E+01    0.289E+02
DAV:  33     0.419779054147E+03    0.47524E+01   -0.29044E+00  8484   0.702E+00    0.288E+02
DAV:  34     0.418671107294E+03   -0.11079E+01   -0.25639E+00  7924   0.766E+00    0.286E+02
DAV:  35     0.419099945039E+03    0.42884E+00   -0.22390E+00  8308   0.680E+00    0.286E+02
DAV:  36     0.420429142015E+03    0.13292E+01   -0.16060E+00  8332   0.666E+00    0.285E+02
DAV:  37     0.419455275334E+03   -0.97387E+00   -0.14960E+00  9148   0.538E+00    0.287E+02
DAV:  38     0.419171181708E+03   -0.28409E+00   -0.11728E+00  8012   0.317E+00    0.289E+02
DAV:  39     0.418928941513E+03   -0.24224E+00   -0.40125E-01  8348   0.135E+00    0.290E+02
DAV:  40     0.418813784054E+03   -0.11516E+00   -0.65508E-02  8772   0.482E-01    0.290E+02
DAV:  41     0.417405559359E+03   -0.14082E+01   -0.10197E-01  9868   0.189E+00    0.291E+02
DAV:  42     0.416461166496E+03   -0.94439E+00   -0.68045E-02  9972   0.112E+00    0.294E+02
DAV:  43     0.412209349967E+03   -0.42518E+01   -0.51140E-01  9972   0.365E+00    0.304E+02
DAV:  44     0.409536876799E+03   -0.26725E+01   -0.41371E-01  9316   0.232E+00    0.312E+02
DAV:  45     0.408425549947E+03   -0.11113E+01   -0.21003E-01  7500   0.116E+00    0.315E+02
DAV:  46     0.406781731437E+03   -0.16438E+01   -0.54208E-02  7748   0.110E+00    0.320E+02
DAV:  47     0.407551756637E+03    0.77003E+00   -0.38720E-02  7436   0.647E-01    0.318E+02
DAV:  48     0.409621498534E+03    0.20697E+01   -0.44103E-02 11796   0.110E+00    0.313E+02
DAV:  49     0.409701141774E+03    0.79643E-01   -0.16829E-02  7780   0.244E-01    0.313E+02
DAV:  50     0.409569469329E+03   -0.13167E+00   -0.13448E-03  9908   0.187E-01    0.314E+02
DAV:  51     0.274490324028E+03   -0.13508E+03   -0.13575E+02 12588   0.969E+01    0.207E+02
DAV:  52     0.356353722784E+03    0.81863E+02   -0.13234E+02 10180   0.553E+01    0.138E+02
DAV:  53     0.398530781870E+03    0.42177E+02   -0.53666E+01  7932   0.489E+01    0.122E+02
DAV:  54     0.406867810955E+03    0.83370E+01   -0.40053E+01  8156   0.442E+01    0.118E+02
DAV:  55     0.424101014872E+03    0.17233E+02   -0.30630E+01  7932   0.327E+01    0.107E+02
DAV:  56     0.383581853183E+03   -0.40519E+02   -0.92917E+01 12548   0.743E+01    0.156E+02
DAV:  57     0.422777764021E+03    0.39196E+02   -0.79925E+01  8796   0.411E+01    0.117E+02
DAV:  58     0.424700815535E+03    0.19231E+01   -0.33080E+01  7604   0.300E+01    0.113E+02
DAV:  59     0.424668721340E+03   -0.32094E-01   -0.26961E+01  7596   0.285E+01    0.108E+02
DAV:  60     0.437845434012E+03    0.13177E+02   -0.23279E+01  7788   0.285E+01    0.856E+01
DAV:  61     0.417788444698E+03   -0.20057E+02   -0.89017E+01 12900   0.505E+01    0.931E+01
DAV:  62     0.428397784960E+03    0.10609E+02   -0.68761E+01  8716   0.409E+01    0.791E+01
DAV:  63     0.435675068934E+03    0.72773E+01   -0.35082E+01  7788   0.309E+01    0.677E+01
DAV:  64     0.438853809790E+03    0.31787E+01   -0.18219E+01  7828   0.217E+01    0.620E+01
DAV:  65     0.441607681046E+03    0.27539E+01   -0.12327E+01  7796   0.175E+01    0.594E+01
DAV:  66     0.439524567452E+03   -0.20831E+01   -0.38720E+01 13748   0.486E+01    0.739E+01
DAV:  67     0.445915852416E+03    0.63913E+01   -0.33642E+01  9844   0.339E+01    0.566E+01
DAV:  68     0.451775924265E+03    0.58601E+01   -0.14603E+01  8276   0.229E+01    0.436E+01
DAV:  69     0.454644624016E+03    0.28687E+01   -0.14338E+01  8212   0.187E+01    0.359E+01
DAV:  70     0.457855338480E+03    0.32107E+01   -0.72303E+00  7908   0.137E+01    0.283E+01
DAV:  71     0.457922743790E+03    0.67405E-01   -0.48045E+00  8396   0.124E+01    0.290E+01
DAV:  72     0.459665243729E+03    0.17425E+01   -0.71626E+00  8028   0.102E+01    0.240E+01
DAV:  73     0.460249692553E+03    0.58445E+00   -0.21805E+00  7948   0.698E+00    0.192E+01
DAV:  74     0.460681054302E+03    0.43136E+00   -0.13329E+00  7852   0.466E+00    0.175E+01
DAV:  75     0.460853465233E+03    0.17241E+00   -0.10216E+00  7804   0.455E+00    0.162E+01
DAV:  76     0.460609539153E+03   -0.24393E+00   -0.18694E+00  7876   0.764E+00    0.169E+01
DAV:  77     0.461227581901E+03    0.61804E+00   -0.14315E+00  7668   0.698E+00    0.134E+01
DAV:  78     0.461372711772E+03    0.14513E+00   -0.64070E-01  7692   0.341E+00    0.119E+01
DAV:  79     0.461497097082E+03    0.12439E+00   -0.68803E-01  7564   0.323E+00    0.994E+00
DAV:  80     0.461516984859E+03    0.19888E-01   -0.79243E-01  7644   0.295E+00    0.985E+00
DAV:  81     0.461364711883E+03   -0.15227E+00   -0.13383E+00  9100   0.527E+00    0.116E+01
DAV:  82     0.461668700839E+03    0.30399E+00   -0.13522E+00  8332   0.495E+00    0.795E+00
DAV:  83     0.461829818514E+03    0.16112E+00   -0.51872E-01  8092   0.322E+00    0.529E+00
DAV:  84     0.461844752161E+03    0.14934E-01   -0.31289E-01  7828   0.222E+00    0.477E+00
DAV:  85     0.461887827069E+03    0.43075E-01   -0.14503E-01  7668   0.168E+00    0.361E+00
DAV:  86     0.461884426800E+03   -0.34003E-02   -0.12014E-01  7884   0.167E+00    0.341E+00
DAV:  87     0.461906973424E+03    0.22547E-01   -0.79509E-02  7588   0.116E+00    0.271E+00
DAV:  88     0.461911081674E+03    0.41082E-02   -0.39450E-02  8180   0.800E-01    0.238E+00
DAV:  89     0.461915774063E+03    0.46924E-02   -0.25104E-02  7876   0.711E-01    0.204E+00
DAV:  90     0.461919546773E+03    0.37727E-02   -0.14816E-02  8156   0.542E-01    0.153E+00
DAV:  91     0.461907556675E+03   -0.11990E-01   -0.44895E-02 10908   0.103E+00    0.244E+00
DAV:  92     0.461914003069E+03    0.64464E-02   -0.34538E-02  9196   0.973E-01    0.179E+00
DAV:  93     0.461917791341E+03    0.37883E-02   -0.20688E-02  7804   0.891E-01    0.140E+00
DAV:  94     0.461920608202E+03    0.28169E-02   -0.13141E-02  7988   0.595E-01    0.994E-01
DAV:  95     0.461921538494E+03    0.93029E-03   -0.65093E-03  7684   0.448E-01    0.743E-01
DAV:  96     0.461920548866E+03   -0.98963E-03   -0.65959E-03  7764   0.487E-01    0.885E-01
DAV:  97     0.461922679290E+03    0.21304E-02   -0.44377E-03  7812   0.375E-01    0.397E-01
DAV:  98     0.461922764775E+03    0.85485E-04   -0.15288E-03  7777   0.227E-01    0.308E-01
DAV:  99     0.461922773914E+03    0.91391E-05   -0.92318E-04  7836   0.134E-01    0.255E-01
DAV: 100     0.461922649525E+03   -0.12439E-03   -0.49489E-04  8265   0.838E-02    0.249E-01
DAV: 101     0.461922516882E+03   -0.13264E-03   -0.43473E-04  7772   0.112E-01    0.229E-01
DAV: 102     0.461922425411E+03   -0.91471E-04   -0.55998E-04  7497   0.136E-01    0.238E-01
DAV: 103     0.461922416355E+03   -0.90566E-05   -0.26169E-04  7492   0.880E-02    0.151E-01
DAV: 104     0.461922378298E+03   -0.38056E-04   -0.14877E-04  7412   0.622E-02    0.903E-02
DAV: 105     0.461922321603E+03   -0.56696E-04   -0.75552E-05  7196   0.426E-02    0.675E-02
DAV: 106     0.461922294841E+03   -0.26762E-04   -0.48522E-05  6572   0.410E-02    0.670E-02
DAV: 107     0.461922265606E+03   -0.29235E-04   -0.29280E-05  5988   0.300E-02    0.458E-02
DAV: 108     0.461922235955E+03   -0.29651E-04   -0.17558E-05  5612   0.241E-02    0.336E-02
DAV: 109     0.461922170965E+03   -0.64990E-04   -0.12651E-05  4993   0.179E-02    0.268E-02
DAV: 110     0.461922133454E+03   -0.37511E-04   -0.94540E-06  4460   0.151E-02    0.171E-02
DAV: 111     0.461922115047E+03   -0.18407E-04   -0.55276E-06  4252   0.121E-02    0.163E-02
DAV: 112     0.461922092372E+03   -0.22675E-04   -0.42171E-06  3948   0.910E-03    0.110E-02
DAV: 113     0.461922066753E+03   -0.25619E-04   -0.19829E-06  3988   0.559E-03    0.762E-03
DAV: 114     0.461922035588E+03   -0.31165E-04   -0.15664E-06  3980   0.514E-03    0.889E-03
DAV: 115     0.461921989180E+03   -0.46408E-04   -0.12094E-06  4068   0.471E-03    0.560E-03
DAV: 116     0.461921944079E+03   -0.45102E-04   -0.11560E-06  3980   0.467E-03    0.806E-03
DAV: 117     0.461921931765E+03   -0.12313E-04   -0.89951E-07  3980   0.385E-03    0.660E-03
DAV: 118     0.461921898860E+03   -0.32905E-04   -0.63450E-07  3908   0.342E-03    0.613E-03
DAV: 119     0.461921881350E+03   -0.17510E-04   -0.62785E-07  3988   0.301E-03    0.332E-03
DAV: 120     0.461921874732E+03   -0.66180E-05   -0.44130E-07  3964   0.233E-03
 -----------------------------------------------------------------------------
|                                                                             |
|           W    W    AA    RRRRR   N    N  II  N    N   GGGG   !!!           |
|           W    W   A  A   R    R  NN   N  II  NN   N  G    G  !!!           |
|           W    W  A    A  R    R  N N  N  II  N N  N  G       !!!           |
|           W WW W  AAAAAA  RRRRR   N  N N  II  N  N N  G  GGG   !            |
|           WW  WW  A    A  R   R   N   NN  II  N   NN  G    G                |
|           W    W  A    A  R    R  N    N  II  N    N   GGGG   !!!           |
|                                                                             |
|     The electronic self-consistency was not achieved in the given           |
|     number of steps (NELM). The forces and other quantities evaluated       |
|     might not be reliable so examine the results carefully. If you find     |
|     spurious results, we suggest increasing NELM, if you were close to      |
|     convergence or switching to a different ALGO or adjusting the           |
|     density mixing parameters otherwise.                                    |
|                                                                             |
 -----------------------------------------------------------------------------

   1 F= 0.34617822E+03 E0= 0.34627992E+03  d E =0.346178E+03
 curvature:   0.00 expect dE= 0.000E+00 dE for cont linesearch  0.000E+00
 trial: gam= 0.00000 g(F)=  0.654E+03 g(S)=  0.000E+00 ort = 0.000E+00 (trialstep = 0.100E+01)
 search vector abs. value=  0.654E+03
 bond charge predicted
       N       E                     dE             d eps       ncg     rms          rms(c)
DAV:   1     0.177379745523E+04    0.13119E+04   -0.88208E+04  9632   0.475E+02    0.831E+02
DAV:   2    -0.181980943906E+05   -0.19972E+05   -0.12773E+05 13019   0.111E+03    0.564E+03
DAV:   3    -0.237944548043E+05   -0.55964E+04   -0.56288E+04 11980   0.418E+02    0.412E+03
DAV:   4    -0.155339712003E+05    0.82605E+04   -0.71632E+05 12218   0.918E+02    0.694E+03
DAV:   5    -0.898085147657E+04    0.65531E+04   -0.90922E+04  8859   0.502E+02    0.211E+03
DAV:   6    -0.235793121930E+03    0.87451E+04   -0.33639E+04  9290   0.284E+02    0.660E+02
DAV:   7    -0.290027027025E+03   -0.54234E+02   -0.99456E+03 10724   0.322E+02    0.785E+02
DAV:   8    -0.844536996563E+03   -0.55451E+03   -0.96710E+03  9212   0.246E+02    0.437E+02
DAV:   9    -0.205351977310E+04   -0.12090E+04   -0.22967E+03  7796   0.293E+02    0.547E+02
DAV:  10    -0.910129974637E+03    0.11434E+04   -0.21725E+03 11356   0.130E+02    0.398E+02
DAV:  11    -0.498710844852E+03    0.41142E+03   -0.86568E+02  8980   0.177E+02    0.245E+02
DAV:  12    -0.331003136129E+03    0.16771E+03   -0.29479E+02  7628   0.774E+01    0.238E+02
DAV:  13    -0.228895459036E+03    0.10211E+03   -0.13763E+02  7708   0.534E+01    0.226E+02
DAV:  14    -0.131755375113E+03    0.97140E+02   -0.79988E+01  8220   0.470E+01    0.228E+02
DAV:  15    -0.113824498051E+03    0.17931E+02   -0.46657E+01  8748   0.315E+01    0.218E+02
DAV:  16    -0.952938254140E+02    0.18531E+02   -0.33444E+01  8076   0.266E+01    0.213E+02
DAV:  17    -0.741853510654E+02    0.21108E+02   -0.19696E+01  8004   0.190E+01    0.212E+02
DAV:  18    -0.453986822385E+02    0.28787E+02   -0.25994E+01  8620   0.323E+01    0.213E+02
DAV:  19     0.862318210024E+01    0.54022E+02   -0.80380E+01 10292   0.480E+01    0.203E+02
DAV:  20     0.393983937618E+02    0.30775E+02   -0.52414E+01  8284   0.415E+01    0.199E+02
DAV:  21     0.486887336113E+02    0.92903E+01   -0.44133E+01  8276   0.274E+01    0.203E+02
DAV:  22     0.518596624997E+02    0.31709E+01   -0.23287E+01  7852   0.213E+01    0.204E+02
DAV:  23     0.563431452126E+02    0.44835E+01   -0.20931E+01  7876   0.221E+01    0.205E+02
DAV:  24     0.588240720835E+02    0.24809E+01   -0.15857E+01  8084   0.213E+01    0.206E+02
DAV:  25     0.625903063845E+02    0.37662E+01   -0.13120E+01  8228   0.178E+01    0.205E+02
DAV:  26     0.655485524805E+02    0.29582E+01   -0.91175E+00  8116   0.174E+01    0.206E+02
DAV:  27     0.719051457024E+02    0.63566E+01   -0.10324E+01  8140   0.125E+01    0.206E+02
DAV:  28     0.713148617167E+02   -0.59028E+00   -0.66361E+00  8276   0.129E+01    0.206E+02
DAV:  29     0.746281024069E+02    0.33132E+01   -0.50138E+00  8028   0.106E+01    0.206E+02
DAV:  30     0.743610001360E+02   -0.26710E+00   -0.35662E+00  7980   0.935E+00    0.207E+02
DAV:  31     0.760389881115E+02    0.16780E+01   -0.41767E+00  8108   0.896E+00    0.207E+02
DAV:  32     0.774787508631E+02    0.14398E+01   -0.44289E+00  7892   0.102E+01    0.207E+02
DAV:  33     0.799974014708E+02    0.25187E+01   -0.47219E+00  7916   0.116E+01    0.209E+02
DAV:  34     0.806393368253E+02    0.64194E+00   -0.41707E+00  7868   0.108E+01    0.211E+02
DAV:  35     0.821076188642E+02    0.14683E+01   -0.39973E+00  7916   0.970E+00    0.211E+02
DAV:  36     0.833246469246E+02    0.12170E+01   -0.20689E+00  7892   0.696E+00    0.211E+02
DAV:  37     0.838377385298E+02    0.51309E+00   -0.95397E-01  7908   0.503E+00    0.212E+02
DAV:  38     0.839767970601E+02    0.13906E+00   -0.68112E-01  8204   0.306E+00    0.213E+02
DAV:  39     0.840353362146E+02    0.58539E-01   -0.39726E-01  7868   0.215E+00    0.213E+02
DAV:  40     0.839756358266E+02   -0.59700E-01   -0.28621E-01  7756   0.207E+00    0.214E+02
DAV:  41     0.837402771194E+02   -0.23536E+00   -0.46205E-01  9164   0.335E+00    0.217E+02
DAV:  42     0.832487341920E+02   -0.49154E+00   -0.90550E-01  8012   0.441E+00    0.223E+02
DAV:  43     0.832434285386E+02   -0.53057E-02   -0.10470E+00  7636   0.400E+00    0.226E+02
DAV:  44     0.831895189392E+02   -0.53910E-01   -0.48398E-01  8004   0.239E+00    0.229E+02
DAV:  45     0.829880194063E+02   -0.20150E+00   -0.19863E-01  7660   0.146E+00    0.230E+02
DAV:  46     0.829777817754E+02   -0.10238E-01   -0.70944E-02  8212   0.637E-01    0.230E+02
DAV:  47     0.215653744088E+02   -0.61412E+02   -0.77609E+01 12036   0.435E+01    0.164E+02
DAV:  48     0.236584897540E+02    0.20931E+01   -0.66369E+01  9516   0.425E+01    0.163E+02
DAV:  49     0.367055445462E+02    0.13047E+02   -0.28121E+01  7804   0.282E+01    0.155E+02
DAV:  50     0.430783552895E+02    0.63728E+01   -0.11073E+01  7748   0.205E+01    0.150E+02
DAV:  51     0.430110944659E+02   -0.67261E-01   -0.71689E+00  8428   0.121E+01    0.150E+02
DAV:  52    -0.497272986499E+03   -0.54028E+03   -0.22409E+02 13356   0.148E+02    0.327E+02
DAV:  53    -0.229500091110E+03    0.26777E+03   -0.19144E+02 11108   0.782E+01    0.245E+02
DAV:  54    -0.239965911298E+03   -0.10466E+02   -0.54030E+01  8484   0.327E+01    0.244E+02
DAV:  55    -0.244590790877E+03   -0.46249E+01   -0.23380E+01  9692   0.842E+00    0.243E+02
DAV:  56    -0.208831923191E+03    0.35759E+02   -0.12223E+01  9156   0.260E+01    0.235E+02
DAV:  57    -0.223601785959E+03   -0.14770E+02   -0.19651E+02  9305   0.147E+02    0.263E+02
DAV:  58    -0.796040959163E+02    0.14400E+03   -0.20493E+02 11748   0.101E+02    0.162E+02
DAV:  59    -0.233535510204E+02    0.56251E+02   -0.15474E+02  8996   0.837E+01    0.149E+02
DAV:  60    -0.142176967571E+02    0.91359E+01   -0.11323E+02  7740   0.654E+01    0.149E+02
DAV:  61    -0.441938193794E+01    0.97983E+01   -0.99921E+01  7684   0.582E+01    0.135E+02
DAV:  62    -0.664830430890E+02   -0.62064E+02   -0.13196E+02  7756   0.886E+01    0.217E+02
DAV:  63    -0.293836797257E+02    0.37099E+02   -0.74119E+01  7548   0.500E+01    0.174E+02
DAV:  64    -0.180648481636E+02    0.11319E+02   -0.35112E+01  7508   0.352E+01    0.162E+02
DAV:  65     0.155771126272E+01    0.19623E+02   -0.21100E+01  7556   0.289E+01    0.150E+02
DAV:  66    -0.424094311008E+01   -0.57987E+01   -0.14796E+01  8500   0.255E+01    0.140E+02
DAV:  67    -0.224459594991E+02   -0.18205E+02   -0.61575E+01  8452   0.554E+01    0.149E+02
DAV:  68     0.423058731901E+01    0.26677E+02   -0.49162E+01  7972   0.462E+01    0.148E+02
DAV:  69     0.223279330558E+02    0.18097E+02   -0.23968E+01  7652   0.380E+01    0.120E+02
DAV:  70     0.284589048070E+02    0.61310E+01   -0.18236E+01  7748   0.278E+01    0.125E+02
DAV:  71     0.276000401550E+02   -0.85886E+00   -0.14099E+01  7940   0.240E+01    0.120E+02
DAV:  72     0.317992642433E+02    0.41992E+01   -0.19380E+01  7748   0.329E+01    0.137E+02
DAV:  73     0.310054827686E+02   -0.79378E+00   -0.17677E+01  7700   0.315E+01    0.128E+02
DAV:  74     0.340431041862E+02    0.30376E+01   -0.52372E+00  8020   0.697E+00    0.127E+02
DAV:  75     0.337557242522E+02   -0.28738E+00   -0.22910E+00  9836   0.237E+00    0.127E+02
DAV:  76     0.338965298724E+02    0.14081E+00   -0.84722E-02 10508   0.615E-01    0.127E+02
DAV:  77     0.205258217109E+02   -0.13371E+02   -0.22214E+01  9908   0.314E+01    0.134E+02
DAV:  78     0.307202103254E+02    0.10194E+02   -0.22367E+01  9012   0.262E+01    0.128E+02
DAV:  79     0.322223625062E+02    0.15022E+01   -0.59506E+00  8484   0.130E+01    0.127E+02
DAV:  80     0.339036865886E+02    0.16813E+01   -0.38421E+00  8868   0.861E+00    0.129E+02
DAV:  81     0.332583969417E+02   -0.64529E+00   -0.14655E+00  8444   0.470E+00    0.129E+02
DAV:  82     0.825022309646E+01   -0.25008E+02   -0.59377E+01  9140   0.595E+01    0.155E+02
DAV:  83     0.264714672831E+02    0.18221E+02   -0.45923E+01  8124   0.418E+01    0.134E+02
DAV:  84     0.298589586350E+02    0.33875E+01   -0.87424E+00  7756   0.139E+01    0.128E+02
DAV:  85     0.329347460284E+02    0.30758E+01   -0.52057E+00  7764   0.111E+01    0.131E+02
DAV:  86     0.325858230572E+02   -0.34892E+00   -0.23387E+00  7668   0.707E+00    0.129E+02
DAV:  87     0.223734532730E+02   -0.10212E+02   -0.15655E+01  9164   0.248E+01    0.140E+02
DAV:  88     0.299659919087E+02    0.75925E+01   -0.17512E+01  8748   0.204E+01    0.135E+02
DAV:  89     0.321636374756E+02    0.21976E+01   -0.24541E+00  8164   0.723E+00    0.133E+02
DAV:  90     0.318544741138E+02   -0.30916E+00   -0.11550E+00  7996   0.467E+00    0.134E+02
DAV:  91     0.322307941518E+02    0.37632E+00   -0.48967E-01  8708   0.305E+00    0.133E+02
DAV:  92     0.392043505795E+01   -0.28310E+02   -0.19984E+01 10340   0.345E+01    0.184E+02
DAV:  93     0.262638837881E+02    0.22343E+02   -0.11885E+01 10324   0.181E+01    0.152E+02
DAV:  94     0.247262071227E+02   -0.15377E+01   -0.45420E+00  8172   0.839E+00    0.154E+02
DAV:  95     0.247990294597E+02    0.72822E-01   -0.19629E+00  9940   0.263E+00    0.153E+02
DAV:  96     0.272135641892E+02    0.24145E+01   -0.11503E+00  7972   0.614E+00    0.149E+02
DAV:  97    -0.232322647315E+02   -0.50446E+02   -0.16638E+02 13212   0.845E+01    0.139E+02
DAV:  98    -0.490900760284E+01    0.18323E+02   -0.13250E+02  8508   0.668E+01    0.121E+02
DAV:  99     0.229594820393E+02    0.27868E+02   -0.48937E+01  7812   0.383E+01    0.107E+02
DAV: 100     0.230096716955E+02    0.50190E-01   -0.25098E+01  7628   0.260E+01    0.105E+02
DAV: 101     0.171438791757E+02   -0.58658E+01   -0.28509E+01  8772   0.374E+01    0.104E+02
DAV: 102    -0.995487767616E+02   -0.11669E+03   -0.13638E+02 10340   0.101E+02    0.218E+02
DAV: 103     0.834318838175E+01    0.10789E+03   -0.77293E+01  8052   0.585E+01    0.149E+02
DAV: 104     0.276390901078E+02    0.19296E+02   -0.27998E+01  7580   0.233E+01    0.131E+02
DAV: 105     0.295881452123E+02    0.19491E+01   -0.14392E+01  7900   0.138E+01    0.123E+02
DAV: 106     0.366630426059E+02    0.70749E+01   -0.17062E+01  7700   0.250E+01    0.113E+02
DAV: 107     0.427792521291E+02    0.61162E+01   -0.14685E+01  7684   0.251E+01    0.106E+02
DAV: 108     0.511064133290E+02    0.83272E+01   -0.78015E+00  7604   0.159E+01    0.947E+01
DAV: 109     0.469000105001E+02   -0.42064E+01   -0.96576E+00  8276   0.172E+01    0.103E+02
DAV: 110     0.492873324025E+02    0.23873E+01   -0.13037E+01  8548   0.228E+01    0.893E+01
DAV: 111     0.649553794102E+02    0.15668E+02   -0.14125E+01  8164   0.263E+01    0.709E+01
DAV: 112     0.633498056433E+02   -0.16056E+01   -0.22201E+01  9764   0.322E+01    0.713E+01
DAV: 113     0.670066144075E+02    0.36568E+01   -0.14239E+01  7884   0.272E+01    0.654E+01
DAV: 114     0.683526855111E+02    0.13461E+01   -0.70511E+00  7740   0.150E+01    0.626E+01
DAV: 115     0.658099514572E+02   -0.25427E+01   -0.59216E+00  7836   0.156E+01    0.665E+01
DAV: 116     0.682267357418E+02    0.24168E+01   -0.11032E+01  8148   0.177E+01    0.586E+01
DAV: 117     0.434232048378E+02   -0.24804E+02   -0.47278E+01 10404   0.479E+01    0.905E+01
DAV: 118     0.587962866793E+02    0.15373E+02   -0.31588E+01  8708   0.407E+01    0.743E+01
DAV: 119     0.725032243938E+02    0.13707E+02   -0.21561E+01  8100   0.266E+01    0.488E+01
DAV: 120     0.744798183893E+02    0.19766E+01   -0.11391E+01  7724   0.209E+01
 -----------------------------------------------------------------------------
|                                                                             |
|           W    W    AA    RRRRR   N    N  II  N    N   GGGG   !!!           |
|           W    W   A  A   R    R  NN   N  II  NN   N  G    G  !!!           |
|           W    W  A    A  R    R  N N  N  II  N N  N  G       !!!           |
|           W WW W  AAAAAA  RRRRR   N  N N  II  N  N N  G  GGG   !            |
|           WW  WW  A    A  R   R   N   NN  II  N   NN  G    G                |
|           W    W  A    A  R    R  N    N  II  N    N   GGGG   !!!           |
|                                                                             |
|     The electronic self-consistency was not achieved in the given           |
|     number of steps (NELM). The forces and other quantities evaluated       |
|     might not be reliable so examine the results carefully. If you find     |
|     spurious results, we suggest increasing NELM, if you were close to      |
|     convergence or switching to a different ALGO or adjusting the           |
|     density mixing parameters otherwise.                                    |
|                                                                             |
 -----------------------------------------------------------------------------

   2 F= -.35917477E+02 E0= -.35826816E+02  d E =-.382096E+03
 trial-energy change: -382.095698  1 .order -417.349453 -654.097503 -180.601403
 step:   1.3814(harm=  1.3814)  dis= 0.62236  next Energy=  -105.613825 (dE=-0.452E+03)
 bond charge predicted
       N       E                     dE             d eps       ncg     rms          rms(c)
DAV:   1     0.163327151322E+03    0.90824E+02   -0.20195E+04  7234   0.177E+02    0.176E+02
DAV:   2    -0.271300962977E+03   -0.43463E+03   -0.18566E+03  8036   0.172E+02    0.385E+02
DAV:   3    -0.207668428394E+03    0.63633E+02   -0.92663E+02  7620   0.177E+02    0.208E+02
DAV:   4    -0.195543142038E+04   -0.17478E+04   -0.98284E+02  9902   0.324E+02    0.492E+02
DAV:   5    -0.519843417746E+03    0.14356E+04   -0.93827E+02 10996   0.127E+02    0.290E+02
DAV:   6    -0.524746023511E+03   -0.49026E+01   -0.41044E+02 11668   0.122E+02    0.286E+02
DAV:   7    -0.121709291305E+03    0.40304E+03   -0.26386E+02  9476   0.896E+01    0.136E+02
DAV:   8    -0.454892090913E+02    0.76220E+02   -0.11104E+02  9348   0.857E+01    0.140E+02
DAV:   9     0.450271180319E+01    0.49992E+02   -0.14485E+02  8452   0.403E+01    0.919E+01
DAV:  10     0.222864267942E+02    0.17784E+02   -0.47741E+01  7924   0.398E+01    0.803E+01
DAV:  11     0.218077336978E+02   -0.47869E+00   -0.39624E+01 10228   0.231E+01    0.745E+01
DAV:  12     0.165462312433E+02   -0.52615E+01   -0.17864E+01  7780   0.167E+01    0.757E+01
DAV:  13     0.169907104610E+02    0.44448E+00   -0.11033E+01  7644   0.145E+01    0.708E+01
DAV:  14     0.186217150846E+02    0.16310E+01   -0.80865E+00  7788   0.174E+01    0.672E+01
DAV:  15     0.218445723876E+02    0.32229E+01   -0.73643E+00  8044   0.146E+01    0.541E+01
DAV:  16     0.239423327646E+02    0.20978E+01   -0.67814E+00  7908   0.128E+01    0.482E+01
DAV:  17     0.104452354610E+02   -0.13497E+02   -0.11420E+01  8892   0.214E+01    0.676E+01
DAV:  18     0.135803839238E+02    0.31351E+01   -0.51148E+00  9236   0.974E+00    0.523E+01
DAV:  19     0.162917273613E+02    0.27113E+01   -0.48462E+00  8508   0.108E+01    0.477E+01
DAV:  20     0.779613944236E+00   -0.15512E+02   -0.15226E+01  9124   0.201E+01    0.783E+01
DAV:  21     0.106251244331E+02    0.98455E+01   -0.45113E+00  8508   0.891E+00    0.673E+01
DAV:  22     0.151242983262E+02    0.44992E+01   -0.15918E+00  8588   0.450E+00    0.591E+01
DAV:  23     0.168182741399E+02    0.16940E+01   -0.16440E+00  8452   0.518E+00    0.554E+01
DAV:  24     0.191559931273E+02    0.23377E+01   -0.14588E+00  8236   0.555E+00    0.517E+01
DAV:  25     0.217157191006E+02    0.25597E+01   -0.86363E-01  8140   0.427E+00    0.461E+01
DAV:  26     0.235915530655E+02    0.18758E+01   -0.90707E-01  8548   0.418E+00    0.419E+01
DAV:  27     0.272805291279E+02    0.36890E+01   -0.13539E+00 10980   0.542E+00    0.304E+01
DAV:  28     0.268595186914E+02   -0.42101E+00   -0.10520E+00  9020   0.546E+00    0.352E+01
DAV:  29     0.271207293770E+02    0.26121E+00   -0.63508E-01  8852   0.349E+00    0.356E+01
DAV:  30     0.280746644726E+02    0.95394E+00   -0.28162E-01  8652   0.248E+00    0.314E+01
DAV:  31     0.280978955929E+02    0.23231E-01   -0.33907E-01  8332   0.223E+00    0.320E+01
DAV:  32     0.289138607215E+02    0.81597E+00   -0.40110E-01  9660   0.272E+00    0.275E+01
DAV:  33     0.298815146266E+02    0.96765E+00   -0.46181E-01 11692   0.307E+00    0.213E+01
DAV:  34     0.298496429827E+02   -0.31872E-01   -0.52715E-01  9148   0.309E+00    0.209E+01
DAV:  35     0.304400770338E+02    0.59043E+00   -0.36646E-01  8948   0.266E+00    0.158E+01
DAV:  36     0.306155094788E+02    0.17543E+00   -0.22953E-01  8228   0.221E+00    0.141E+01
DAV:  37     0.307993768118E+02    0.18387E+00   -0.16446E-01  8212   0.158E+00    0.120E+01
DAV:  38     0.308659720253E+02    0.66595E-01   -0.84270E-02  8092   0.129E+00    0.110E+01
DAV:  39     0.309406805295E+02    0.74709E-01   -0.46118E-02  8436   0.828E-01    0.980E+00
DAV:  40     0.309373861281E+02   -0.32944E-02   -0.87463E-02  8524   0.135E+00    0.929E+00
DAV:  41     0.309836378815E+02    0.46252E-01   -0.64464E-02  8492   0.103E+00    0.792E+00
DAV:  42     0.309414022602E+02   -0.42236E-01   -0.95447E-02  9084   0.136E+00    0.783E+00
DAV:  43     0.309731946266E+02    0.31792E-01   -0.71894E-02  8452   0.116E+00    0.659E+00
DAV:  44     0.309757286189E+02    0.25340E-02   -0.36531E-02  8444   0.826E-01    0.626E+00
DAV:  45     0.309702333370E+02   -0.54953E-02   -0.24105E-02  8732   0.541E-01    0.598E+00
DAV:  46     0.309802419925E+02    0.10009E-01   -0.15366E-02  8308   0.450E-01    0.562E+00
DAV:  47     0.310230679940E+02    0.42826E-01   -0.31242E-01 11308   0.262E+00    0.477E+00
DAV:  48     0.310503737326E+02    0.27306E-01   -0.53565E-02 10364   0.117E+00    0.416E+00
DAV:  49     0.310891571776E+02    0.38783E-01   -0.25172E-02  8628   0.741E-01    0.313E+00
DAV:  50     0.311213362995E+02    0.32179E-01   -0.29074E-02 10388   0.908E-01    0.258E+00
DAV:  51     0.311395278554E+02    0.18192E-01   -0.22447E-02  9396   0.937E-01    0.191E+00
DAV:  52     0.311552444054E+02    0.15717E-01   -0.15744E-02  9548   0.698E-01    0.131E+00
DAV:  53     0.311584638283E+02    0.32194E-02   -0.84093E-03  8684   0.470E-01    0.107E+00
DAV:  54     0.311610198878E+02    0.25561E-02   -0.48689E-03  8076   0.357E-01    0.923E-01
DAV:  55     0.311638714499E+02    0.28516E-02   -0.35768E-03  8004   0.327E-01    0.833E-01
DAV:  56     0.311679279935E+02    0.40565E-02   -0.26987E-03  7956   0.286E-01    0.597E-01
DAV:  57     0.311661979770E+02   -0.17300E-02   -0.78303E-03  8204   0.472E-01    0.994E-01
DAV:  58     0.311704237252E+02    0.42257E-02   -0.41302E-03  8084   0.372E-01    0.673E-01
DAV:  59     0.311728056325E+02    0.23819E-02   -0.19814E-03  8108   0.229E-01    0.390E-01
DAV:  60     0.311736020227E+02    0.79639E-03   -0.11384E-03  8108   0.175E-01    0.294E-01
DAV:  61     0.311739385901E+02    0.33657E-03   -0.86002E-04  8236   0.129E-01    0.259E-01
DAV:  62     0.311741565145E+02    0.21792E-03   -0.85909E-04  8108   0.136E-01    0.193E-01
DAV:  63     0.311741136983E+02   -0.42816E-04   -0.48644E-04  7980   0.111E-01    0.182E-01
DAV:  64     0.311740237195E+02   -0.89979E-04   -0.30599E-04  7844   0.828E-02    0.179E-01
DAV:  65     0.311739133950E+02   -0.11032E-03   -0.29589E-04  7780   0.670E-02    0.123E-01
DAV:  66     0.311736888275E+02   -0.22457E-03   -0.17852E-04  7788   0.611E-02    0.107E-01
DAV:  67     0.311735684625E+02   -0.12037E-03   -0.16724E-04  7500   0.573E-02    0.137E-01
DAV:  68     0.311735633751E+02   -0.50873E-05   -0.11276E-04  6772   0.528E-02    0.105E-01
DAV:  69     0.311732793488E+02   -0.28403E-03   -0.10990E-04  7788   0.454E-02    0.642E-02
DAV:  70     0.311731386655E+02   -0.14068E-03   -0.57260E-05  7372   0.341E-02    0.628E-02
DAV:  71     0.311730507836E+02   -0.87882E-04   -0.40664E-05  6852   0.272E-02    0.446E-02
DAV:  72     0.311729992977E+02   -0.51486E-04   -0.38503E-05  6652   0.301E-02    0.743E-02
DAV:  73     0.311729543800E+02   -0.44918E-04   -0.33213E-05  6164   0.284E-02    0.435E-02
DAV:  74     0.311728468542E+02   -0.10753E-03   -0.16382E-05  6020   0.163E-02    0.381E-02
DAV:  75     0.311727747642E+02   -0.72090E-04   -0.11962E-05  5660   0.166E-02    0.279E-02
DAV:  76     0.311727177147E+02   -0.57050E-04   -0.64712E-06  4508   0.123E-02    0.260E-02
DAV:  77     0.311726781633E+02   -0.39551E-04   -0.54358E-06  4548   0.130E-02    0.314E-02
DAV:  78     0.311726538888E+02   -0.24274E-04   -0.45494E-06  4340   0.116E-02    0.191E-02
DAV:  79     0.311725849044E+02   -0.68984E-04   -0.35392E-06  4484   0.837E-03    0.158E-02
DAV:  80     0.311725299763E+02   -0.54928E-04   -0.27885E-06  4332   0.687E-03    0.116E-02
DAV:  81     0.311724983188E+02   -0.31658E-04   -0.23047E-06  4132   0.626E-03    0.582E-03
DAV:  82     0.311724887080E+02   -0.96108E-05   -0.11421E-06  4100   0.501E-03    0.690E-03
DAV:  83     0.311724779671E+02   -0.10741E-04   -0.88677E-07  4028   0.361E-03    0.310E-03
DAV:  84     0.311724711303E+02   -0.68368E-05   -0.46384E-07  4076   0.202E-03    0.303E-03
DAV:  85     0.311724636764E+02   -0.74538E-05   -0.29881E-07  3996   0.176E-03    0.235E-03
DAV:  86     0.311724535492E+02   -0.10127E-04   -0.22337E-07  3996   0.158E-03    0.183E-03
DAV:  87     0.311724494360E+02   -0.41132E-05   -0.15447E-07  4116   0.136E-03
   3 F= -.77307511E+02 E0= -.77198873E+02  d E =-.423486E+03
 curvature:  -0.69 expect dE=-0.280E+03 dE for cont linesearch -0.118E+02
 ZBRENT: increasing intervall
 opt :   2.1443  next Energy=  -101.020279 (dE=-0.447E+03)
 bond charge predicted
       N       E                     dE             d eps       ncg     rms          rms(c)
DAV:   1     0.868910023159E+03    0.83774E+03   -0.84604E+04  8370   0.388E+02    0.567E+02
DAV:   2    -0.891578922483E+04   -0.97847E+04   -0.40085E+04 11348   0.770E+02    0.334E+03
DAV:   3    -0.147737592174E+05   -0.58580E+04   -0.30628E+04 11988   0.284E+02    0.270E+03
DAV:   4    -0.745283792301E+04    0.73209E+04   -0.28229E+05 12530   0.752E+02    0.466E+03
DAV:   5    -0.761605664220E+04   -0.16322E+03   -0.54117E+04  8797   0.391E+02    0.200E+03
DAV:   6    -0.916989201246E+03    0.66991E+04   -0.11505E+04  9616   0.182E+02    0.655E+02
DAV:   7    -0.654891899616E+03    0.26210E+03   -0.74270E+03 10796   0.240E+02    0.961E+02
DAV:   8    -0.432681235403E+03    0.22221E+03   -0.83244E+03 10220   0.214E+02    0.304E+02
DAV:   9    -0.879163050727E+03   -0.44648E+03   -0.15861E+03  7500   0.325E+02    0.642E+02
DAV:  10    -0.760071290884E+03    0.11909E+03   -0.16972E+03 10436   0.833E+01    0.470E+02
DAV:  11    -0.803713742996E+03   -0.43642E+02   -0.41488E+02  8988   0.664E+01    0.448E+02
DAV:  12    -0.366574958971E+03    0.43714E+03   -0.14606E+02  8724   0.502E+01    0.216E+02
DAV:  13    -0.189765872948E+03    0.17681E+03   -0.10154E+02  9884   0.528E+01    0.155E+02
DAV:  14    -0.180498425461E+03    0.92674E+01   -0.83964E+01 10044   0.518E+01    0.158E+02
DAV:  15    -0.101466712170E+03    0.79032E+02   -0.53623E+01  7732   0.391E+01    0.108E+02
DAV:  16    -0.857826803802E+02    0.15684E+02   -0.25003E+01  8036   0.161E+01    0.977E+01
DAV:  17    -0.836835847371E+02    0.20991E+01   -0.11606E+01  7764   0.134E+01    0.989E+01
DAV:  18    -0.828456344926E+02    0.83795E+00   -0.80877E+00  8028   0.165E+01    0.967E+01
DAV:  19    -0.726924483213E+02    0.10153E+02   -0.12053E+01  7996   0.164E+01    0.879E+01
DAV:  20    -0.435328509999E+02    0.29160E+02   -0.19836E+01  9052   0.226E+01    0.738E+01
DAV:  21    -0.333788189767E+02    0.10154E+02   -0.21314E+01 10572   0.243E+01    0.584E+01
DAV:  22    -0.317837217841E+02    0.15951E+01   -0.10672E+01  8884   0.171E+01    0.500E+01
DAV:  23    -0.331178255826E+02   -0.13341E+01   -0.10497E+01  8340   0.164E+01    0.595E+01
DAV:  24    -0.296771589294E+02    0.34407E+01   -0.86476E+00  8356   0.123E+01    0.529E+01
DAV:  25    -0.282127171806E+02    0.14644E+01   -0.59354E+00  8156   0.115E+01    0.499E+01
DAV:  26    -0.283978778771E+02   -0.18516E+00   -0.55919E+00  8276   0.997E+00    0.485E+01
DAV:  27    -0.275465884726E+02    0.85129E+00   -0.56822E+00  8324   0.105E+01    0.446E+01
DAV:  28    -0.270758860116E+02    0.47070E+00   -0.44053E+00  8284   0.107E+01    0.437E+01
DAV:  29    -0.264883821905E+02    0.58750E+00   -0.64205E+00  8980   0.795E+00    0.394E+01
DAV:  30    -0.290881071165E+02   -0.25997E+01   -0.41086E+00  9532   0.932E+00    0.486E+01
DAV:  31    -0.272018527230E+02    0.18863E+01   -0.41154E+00  8308   0.640E+00    0.392E+01
DAV:  32    -0.270954174930E+02    0.10644E+00   -0.26790E+00  8124   0.660E+00    0.378E+01
DAV:  33    -0.264517691550E+02    0.64365E+00   -0.20040E+00  8292   0.417E+00    0.349E+01
DAV:  34    -0.267440978596E+02   -0.29233E+00   -0.14215E+00  8596   0.523E+00    0.339E+01
DAV:  35    -0.280836820183E+02   -0.13396E+01   -0.26363E+00  7996   0.685E+00    0.368E+01
DAV:  36    -0.273340079300E+02    0.74967E+00   -0.20892E+00  8460   0.408E+00    0.323E+01
DAV:  37    -0.270616847454E+02    0.27232E+00   -0.10513E+00  8164   0.401E+00    0.300E+01
DAV:  38    -0.268769011698E+02    0.18478E+00   -0.84172E-01  8148   0.378E+00    0.283E+01
DAV:  39    -0.267130155331E+02    0.16389E+00   -0.47329E-01  8124   0.281E+00    0.270E+01
DAV:  40    -0.268912265883E+02   -0.17821E+00   -0.49704E-01  8556   0.308E+00    0.277E+01
DAV:  41    -0.269215232916E+02   -0.30297E-01   -0.41740E-01  8444   0.285E+00    0.269E+01
DAV:  42    -0.268525694599E+02    0.68954E-01   -0.56286E-01  8588   0.264E+00    0.248E+01
DAV:  43    -0.268401348381E+02    0.12435E-01   -0.23412E-01  8308   0.195E+00    0.245E+01
DAV:  44    -0.267318627876E+02    0.10827E+00   -0.28864E-01  8116   0.194E+00    0.233E+01
DAV:  45    -0.266371682626E+02    0.94695E-01   -0.23709E-01  8956   0.212E+00    0.229E+01
DAV:  46    -0.263911117059E+02    0.24606E+00   -0.40323E-01  7908   0.231E+00    0.206E+01
DAV:  47    -0.363314763382E+02   -0.99404E+01   -0.14387E+01 12420   0.157E+01    0.661E+01
DAV:  48    -0.268186034644E+02    0.95129E+01   -0.88709E+00  8884   0.107E+01    0.295E+01
DAV:  49    -0.254709612657E+02    0.13476E+01   -0.56975E+00  9316   0.958E+00    0.206E+01
DAV:  50    -0.262064462025E+02   -0.73548E+00   -0.27643E+00  9244   0.724E+00    0.253E+01
DAV:  51    -0.260808206289E+02    0.12563E+00   -0.10544E+00  8476   0.572E+00    0.255E+01
DAV:  52    -0.255210193680E+02    0.55980E+00   -0.38692E+00  9164   0.949E+00    0.243E+01
DAV:  53    -0.269544343217E+02   -0.14334E+01   -0.51518E+00  9212   0.975E+00    0.328E+01
DAV:  54    -0.252122817193E+02    0.17422E+01   -0.41836E+00  8660   0.909E+00    0.205E+01
DAV:  55    -0.244324377463E+02    0.77984E+00   -0.98984E-01  8092   0.567E+00    0.155E+01
DAV:  56    -0.243156577307E+02    0.11678E+00   -0.76981E-01  8364   0.466E+00    0.137E+01
DAV:  57    -0.287250650548E+02   -0.44094E+01   -0.61569E+00 11027   0.890E+00    0.322E+01
DAV:  58    -0.248254665565E+02    0.38996E+01   -0.33687E+00  9110   0.780E+00    0.161E+01
DAV:  59    -0.244245939818E+02    0.40087E+00   -0.75210E-01  8324   0.445E+00    0.132E+01
DAV:  60    -0.242559556318E+02    0.16864E+00   -0.49714E-01  8212   0.401E+00    0.123E+01
DAV:  61    -0.240342544923E+02    0.22170E+00   -0.62699E-01  7886   0.314E+00    0.111E+01
DAV:  62    -0.258326999201E+02   -0.17984E+01   -0.22094E+00 10388   0.715E+00    0.232E+01
DAV:  63    -0.239409280564E+02    0.18918E+01   -0.15251E+00  9060   0.600E+00    0.887E+00
DAV:  64    -0.238500435534E+02    0.90885E-01   -0.27480E-01  8612   0.230E+00    0.796E+00
DAV:  65    -0.237822041265E+02    0.67839E-01   -0.18220E-01  8452   0.198E+00    0.664E+00
DAV:  66    -0.237447317387E+02    0.37472E-01   -0.89143E-02  8276   0.181E+00    0.592E+00
DAV:  67    -0.238644271940E+02   -0.11970E+00   -0.38856E-01  9140   0.273E+00    0.852E+00
DAV:  68    -0.237007769402E+02    0.16365E+00   -0.31468E-01  8516   0.225E+00    0.517E+00
DAV:  69    -0.236445510504E+02    0.56226E-01   -0.88343E-02  8428   0.121E+00    0.319E+00
DAV:  70    -0.236312233163E+02    0.13328E-01   -0.22842E-02  8164   0.777E-01    0.268E+00
DAV:  71    -0.236284272708E+02    0.27960E-02   -0.15413E-02  8172   0.726E-01    0.250E+00
DAV:  72    -0.236386891878E+02   -0.10262E-01   -0.20269E-02  8132   0.740E-01    0.305E+00
DAV:  73    -0.236232280955E+02    0.15461E-01   -0.20569E-02  7908   0.764E-01    0.223E+00
DAV:  74    -0.236166477138E+02    0.65804E-02   -0.14103E-02  8604   0.543E-01    0.181E+00
DAV:  75    -0.236139819454E+02    0.26658E-02   -0.11845E-02  8260   0.350E-01    0.158E+00
DAV:  76    -0.236100955503E+02    0.38864E-02   -0.37144E-03  8276   0.305E-01    0.128E+00
DAV:  77    -0.236147309612E+02   -0.46354E-02   -0.83787E-03  8540   0.389E-01    0.165E+00
DAV:  78    -0.236095228125E+02    0.52081E-02   -0.97297E-03  7988   0.372E-01    0.117E+00
DAV:  79    -0.236084424979E+02    0.10803E-02   -0.16716E-03  8300   0.196E-01    0.101E+00
DAV:  80    -0.236067627543E+02    0.16797E-02   -0.21564E-03  8308   0.202E-01    0.656E-01
DAV:  81    -0.236068908875E+02   -0.12813E-03   -0.12486E-03  9492   0.156E-01    0.609E-01
DAV:  82    -0.236071831491E+02   -0.29226E-03   -0.32598E-03  8620   0.233E-01    0.597E-01
DAV:  83    -0.236064209789E+02    0.76217E-03   -0.15444E-03  7908   0.188E-01    0.331E-01
DAV:  84    -0.236063476037E+02    0.73375E-04   -0.52291E-04  7908   0.101E-01    0.196E-01
DAV:  85    -0.236065995996E+02   -0.25200E-03   -0.36454E-04  7932   0.693E-02    0.239E-01
DAV:  86    -0.236067113662E+02   -0.11177E-03   -0.23943E-04  7476   0.704E-02    0.213E-01
DAV:  87    -0.236067594462E+02   -0.48080E-04   -0.19083E-04  7100   0.666E-02    0.193E-01
DAV:  88    -0.236068300088E+02   -0.70563E-04   -0.15958E-04  6620   0.574E-02    0.150E-01
DAV:  89    -0.236069030236E+02   -0.73015E-04   -0.96045E-05  6668   0.493E-02    0.106E-01
DAV:  90    -0.236069944054E+02   -0.91382E-04   -0.59837E-05  6436   0.421E-02    0.123E-01
DAV:  91    -0.236070294878E+02   -0.35082E-04   -0.45400E-05  6292   0.342E-02    0.102E-01
DAV:  92    -0.236070618662E+02   -0.32378E-04   -0.50633E-05  5932   0.315E-02    0.880E-02
DAV:  93    -0.236070757541E+02   -0.13888E-04   -0.21955E-05  5620   0.249E-02    0.424E-02
DAV:  94    -0.236071371646E+02   -0.61410E-04   -0.10266E-05  4756   0.182E-02    0.286E-02
DAV:  95    -0.236071832697E+02   -0.46105E-04   -0.74276E-06  4500   0.140E-02    0.292E-02
DAV:  96    -0.236072294982E+02   -0.46229E-04   -0.49638E-06  4300   0.107E-02    0.283E-02
DAV:  97    -0.236072609229E+02   -0.31425E-04   -0.41133E-06  4188   0.105E-02    0.382E-02
DAV:  98    -0.236072648000E+02   -0.38771E-05   -0.42868E-06  4100   0.941E-03
   4 F= -.12873013E+03 E0= -.12854244E+03  d E =-.474908E+03
 curvature:  -1.38 expect dE=-0.674E+03 dE for cont linesearch -0.400E+01
 trial: gam= 0.67778 g(F)=  0.487E+03 g(S)=  0.000E+00 ort = 0.435E+02 (trialstep = 0.950E+00)
 search vector abs. value=  0.846E+03
 bond charge predicted
       N       E                     dE             d eps       ncg     rms          rms(c)
DAV:   1     0.132951028968E+04    0.13531E+04   -0.12614E+05  7634   0.595E+02    0.744E+02
DAV:   2    -0.166404741533E+05   -0.17970E+05   -0.11449E+05 12820   0.974E+02    0.499E+03
DAV:   3    -0.261198647128E+05   -0.94794E+04   -0.53541E+04 11924   0.422E+02    0.410E+03
DAV:   4    -0.185127509656E+05    0.76071E+04   -0.77415E+05 12482   0.905E+02    0.679E+03
DAV:   5    -0.605165474985E+04    0.12461E+05   -0.84588E+04  8867   0.489E+02    0.177E+03
DAV:   6    -0.950799121471E+03    0.51009E+04   -0.26554E+04  9522   0.230E+02    0.832E+02
DAV:   7    -0.114626744917E+04   -0.19547E+03   -0.80547E+03  9580   0.280E+02    0.650E+02
DAV:   8    -0.114201167262E+04    0.42558E+01   -0.77617E+03 10924   0.179E+02    0.270E+02
DAV:   9    -0.141360539414E+04   -0.27159E+03   -0.13911E+03 10100   0.175E+02    0.417E+02
DAV:  10    -0.144145827641E+04   -0.27853E+02   -0.10748E+03  9132   0.162E+02    0.355E+02
DAV:  11    -0.690010733256E+03    0.75145E+03   -0.44452E+02  8116   0.149E+02    0.247E+02
DAV:  12    -0.539907174558E+03    0.15010E+03   -0.29411E+02  7900   0.703E+01    0.211E+02
DAV:  13    -0.643416492146E+03   -0.10351E+03   -0.22454E+02  8740   0.815E+01    0.217E+02
DAV:  14    -0.523273337443E+03    0.12014E+03   -0.13102E+02  8412   0.560E+01    0.185E+02
DAV:  15    -0.474831147756E+03    0.48442E+02   -0.71773E+01  9076   0.282E+01    0.168E+02
DAV:  16    -0.480453022180E+03   -0.56219E+01   -0.55744E+01  9468   0.453E+01    0.181E+02
DAV:  17    -0.414149970034E+03    0.66303E+02   -0.50555E+01  8620   0.426E+01    0.151E+02
DAV:  18    -0.399108671833E+03    0.15041E+02   -0.38488E+01  8156   0.285E+01    0.147E+02
DAV:  19    -0.384277678189E+03    0.14831E+02   -0.37500E+01  8372   0.267E+01    0.150E+02
DAV:  20    -0.376131410987E+03    0.81463E+01   -0.35175E+01  7996   0.264E+01    0.150E+02
DAV:  21    -0.371567086181E+03    0.45643E+01   -0.34269E+01  7844   0.272E+01    0.146E+02
DAV:  22    -0.374884382317E+03   -0.33173E+01   -0.29250E+01  8092   0.245E+01    0.142E+02
DAV:  23    -0.362356577496E+03    0.12528E+02   -0.24146E+01  8884   0.237E+01    0.133E+02
DAV:  24    -0.361408480715E+03    0.94810E+00   -0.25005E+01  7932   0.223E+01    0.129E+02
DAV:  25    -0.349696964432E+03    0.11712E+02   -0.15159E+01  8068   0.201E+01    0.127E+02
DAV:  26    -0.348875096473E+03    0.82187E+00   -0.17869E+01  8004   0.209E+01    0.126E+02
DAV:  27    -0.348262641204E+03    0.61246E+00   -0.13720E+01  7724   0.197E+01    0.121E+02
DAV:  28    -0.346666694961E+03    0.15959E+01   -0.98798E+00  7852   0.168E+01    0.118E+02
DAV:  29    -0.344417858821E+03    0.22488E+01   -0.80920E+00  7684   0.150E+01    0.115E+02
DAV:  30    -0.345945482265E+03   -0.15276E+01   -0.62820E+00  8180   0.124E+01    0.117E+02
DAV:  31    -0.340370361310E+03    0.55751E+01   -0.32483E+00  7724   0.827E+00    0.112E+02
DAV:  32    -0.339910328552E+03    0.46003E+00   -0.31539E+00  8012   0.753E+00    0.112E+02
DAV:  33    -0.343059159580E+03   -0.31488E+01   -0.69128E+00  9028   0.142E+01    0.115E+02
DAV:  34    -0.334827375051E+03    0.82318E+01   -0.95754E+00  8732   0.161E+01    0.105E+02
DAV:  35    -0.329954357571E+03    0.48730E+01   -0.76503E+00  7804   0.145E+01    0.103E+02
DAV:  36    -0.331490419419E+03   -0.15361E+01   -0.35997E+00  7908   0.959E+00    0.103E+02
DAV:  37    -0.329970469439E+03    0.15199E+01   -0.28021E+00  8468   0.670E+00    0.101E+02
DAV:  38    -0.328592382776E+03    0.13781E+01   -0.24423E+00  7764   0.688E+00    0.996E+01
DAV:  39    -0.328269544101E+03    0.32284E+00   -0.10215E+00  7620   0.463E+00    0.100E+02
DAV:  40    -0.328489396779E+03   -0.21985E+00   -0.80370E-01  8004   0.340E+00    0.981E+01
DAV:  41    -0.328620550194E+03   -0.13115E+00   -0.42444E-01  7764   0.360E+00    0.984E+01
DAV:  42    -0.328707049389E+03   -0.86499E-01   -0.93041E-01  7732   0.438E+00    0.990E+01
DAV:  43    -0.329064413027E+03   -0.35736E+00   -0.11904E+00  8668   0.470E+00    0.970E+01
DAV:  44    -0.329518884354E+03   -0.45447E+00   -0.72976E-01  8500   0.370E+00    0.959E+01
DAV:  45    -0.329854899353E+03   -0.33601E+00   -0.52722E-01  8068   0.281E+00    0.962E+01
DAV:  46    -0.330022030608E+03   -0.16713E+00   -0.32310E-01  7780   0.208E+00    0.965E+01
DAV:  47    -0.407742223901E+03   -0.77720E+02   -0.33338E+01 13441   0.492E+01    0.144E+02
DAV:  48    -0.393392574623E+03    0.14350E+02   -0.41954E+01 10844   0.393E+01    0.136E+02
DAV:  49    -0.378098223008E+03    0.15294E+02   -0.19583E+01  7972   0.303E+01    0.131E+02
DAV:  50    -0.364498488211E+03    0.13600E+02   -0.19479E+01  7924   0.316E+01    0.116E+02
DAV:  51    -0.354867272585E+03    0.96312E+01   -0.17739E+01  7868   0.311E+01    0.111E+02
DAV:  52    -0.539930263210E+03   -0.18506E+03   -0.11879E+02 13380   0.101E+02    0.179E+02
DAV:  53    -0.405366852807E+03    0.13456E+03   -0.93129E+01 12340   0.724E+01    0.111E+02
DAV:  54    -0.396940778305E+03    0.84261E+01   -0.44804E+01 12724   0.419E+01    0.103E+02
DAV:  55    -0.394538917094E+03    0.24019E+01   -0.37682E+01  9156   0.408E+01    0.103E+02
DAV:  56    -0.381297935817E+03    0.13241E+02   -0.25698E+01  8284   0.365E+01    0.877E+01
DAV:  57    -0.394207010746E+03   -0.12909E+02   -0.29816E+01  8868   0.443E+01    0.958E+01
DAV:  58    -0.379473807415E+03    0.14733E+02   -0.22647E+01  8916   0.334E+01    0.882E+01
DAV:  59    -0.382976956301E+03   -0.35031E+01   -0.17615E+01  8316   0.261E+01    0.804E+01
DAV:  60    -0.384144403590E+03   -0.11674E+01   -0.90763E+00  9108   0.125E+01    0.768E+01
DAV:  61    -0.384545840218E+03   -0.40144E+00   -0.48606E+00  7796   0.120E+01    0.752E+01
DAV:  62    -0.385202424966E+03   -0.65658E+00   -0.12799E+01  8228   0.195E+01    0.706E+01
DAV:  63    -0.377340771244E+03    0.78617E+01   -0.95038E+00  8140   0.186E+01    0.712E+01
DAV:  64    -0.371414016190E+03    0.59268E+01   -0.12356E+01  8076   0.193E+01    0.624E+01
DAV:  65    -0.365700451435E+03    0.57136E+01   -0.42119E+00  8532   0.956E+00    0.561E+01
DAV:  66    -0.364528192704E+03    0.11723E+01   -0.25104E+00  7652   0.697E+00    0.555E+01
DAV:  67    -0.370931657753E+03   -0.64035E+01   -0.24773E+01 10372   0.278E+01    0.614E+01
DAV:  68    -0.357960498805E+03    0.12971E+02   -0.14326E+01  8852   0.254E+01    0.552E+01
DAV:  69    -0.352531667811E+03    0.54288E+01   -0.42370E+00  8012   0.117E+01    0.490E+01
DAV:  70    -0.350300419975E+03    0.22312E+01   -0.36132E+00  8804   0.597E+00    0.466E+01
DAV:  71    -0.346336053857E+03    0.39644E+01   -0.35876E+00 10116   0.711E+00    0.476E+01
DAV:  72    -0.356649645861E+03   -0.10314E+02   -0.25759E+01 10372   0.342E+01    0.846E+01
DAV:  73    -0.341117201299E+03    0.15532E+02   -0.23860E+01  8620   0.267E+01    0.438E+01
DAV:  74    -0.338293881736E+03    0.28233E+01   -0.52806E+00  8212   0.855E+00    0.376E+01
DAV:  75    -0.336083376535E+03    0.22105E+01   -0.24172E+00  8236   0.625E+00    0.351E+01
DAV:  76    -0.335626061744E+03    0.45731E+00   -0.12180E+00  9756   0.208E+00    0.343E+01
DAV:  77    -0.337859354727E+03   -0.22333E+01   -0.57520E+00 10084   0.125E+01    0.397E+01
DAV:  78    -0.335229908512E+03    0.26294E+01   -0.45954E+00  8548   0.973E+00    0.369E+01
DAV:  79    -0.333220921836E+03    0.20090E+01   -0.94003E-01  8172   0.390E+00    0.320E+01
DAV:  80    -0.331552699030E+03    0.16682E+01   -0.18235E+00 11260   0.730E+00    0.333E+01
DAV:  81    -0.329190125087E+03    0.23626E+01   -0.37238E+00 10924   0.742E+00    0.280E+01
DAV:  82    -0.351692824751E+03   -0.22503E+02   -0.15772E+01 10764   0.243E+01    0.839E+01
DAV:  83    -0.328143028641E+03    0.23550E+02   -0.79654E+00  9156   0.153E+01    0.247E+01
DAV:  84    -0.327441174538E+03    0.70185E+00   -0.33606E+00  8804   0.844E+00    0.240E+01
DAV:  85    -0.326472779654E+03    0.96839E+00   -0.16294E+00  8356   0.552E+00    0.191E+01
DAV:  86    -0.326322008014E+03    0.15077E+00   -0.12868E+00  8412   0.468E+00    0.182E+01
DAV:  87    -0.327016473686E+03   -0.69447E+00   -0.26493E+00  9897   0.905E+00    0.228E+01
DAV:  88    -0.325754173514E+03    0.12623E+01   -0.26693E+00  8590   0.835E+00    0.151E+01
DAV:  89    -0.325685950393E+03    0.68223E-01   -0.80427E-01  8500   0.538E+00    0.144E+01
DAV:  90    -0.325447011225E+03    0.23894E+00   -0.52942E-01  8428   0.381E+00    0.129E+01
DAV:  91    -0.325326613616E+03    0.12040E+00   -0.37786E-01  8324   0.280E+00    0.120E+01
DAV:  92    -0.325327734460E+03   -0.11208E-02   -0.45557E-01  8436   0.386E+00    0.113E+01
DAV:  93    -0.325213188204E+03    0.11455E+00   -0.53937E-01  8196   0.421E+00    0.100E+01
DAV:  94    -0.325050751262E+03    0.16244E+00   -0.22941E-01  8140   0.288E+00    0.812E+00
DAV:  95    -0.324962341839E+03    0.88409E-01   -0.15889E-01  8148   0.195E+00    0.656E+00
DAV:  96    -0.324910903642E+03    0.51438E-01   -0.11314E-01  8148   0.167E+00    0.527E+00
DAV:  97    -0.325052179469E+03   -0.14128E+00   -0.31144E-01 10185   0.318E+00    0.769E+00
DAV:  98    -0.324881568064E+03    0.17061E+00   -0.37482E-01  9076   0.260E+00    0.463E+00
DAV:  99    -0.324859272643E+03    0.22295E-01   -0.15693E-01  8988   0.151E+00    0.407E+00
DAV: 100    -0.324832278915E+03    0.26994E-01   -0.65498E-02  8428   0.104E+00    0.312E+00
DAV: 101    -0.324822000904E+03    0.10278E-01   -0.22596E-02  8388   0.826E-01    0.281E+00
DAV: 102    -0.324849916603E+03   -0.27916E-01   -0.83902E-02  9052   0.174E+00    0.355E+00
DAV: 103    -0.324808258999E+03    0.41658E-01   -0.43924E-02  8236   0.130E+00    0.210E+00
DAV: 104    -0.324803651682E+03    0.46073E-02   -0.11847E-02  8148   0.623E-01    0.185E+00
DAV: 105    -0.324801258724E+03    0.23930E-02   -0.19277E-02  8012   0.593E-01    0.178E+00
DAV: 106    -0.324795434280E+03    0.58244E-02   -0.76127E-03  8076   0.496E-01    0.136E+00
DAV: 107    -0.324805769166E+03   -0.10335E-01   -0.26655E-02  8676   0.842E-01    0.222E+00
DAV: 108    -0.324791911058E+03    0.13858E-01   -0.20854E-02  8044   0.738E-01    0.108E+00
DAV: 109    -0.324789105149E+03    0.28059E-02   -0.62267E-03  7940   0.382E-01    0.829E-01
DAV: 110    -0.324788989805E+03    0.11534E-03   -0.25527E-03  8132   0.269E-01    0.900E-01
DAV: 111    -0.324787536090E+03    0.14537E-02   -0.29303E-03  8060   0.227E-01    0.566E-01
DAV: 112    -0.324787952393E+03   -0.41630E-03   -0.24597E-03  8132   0.273E-01    0.639E-01
DAV: 113    -0.324786600239E+03    0.13522E-02   -0.15336E-03  7916   0.214E-01    0.364E-01
DAV: 114    -0.324786533133E+03    0.67106E-04   -0.72689E-04  9316   0.120E-01    0.288E-01
DAV: 115    -0.324786395923E+03    0.13721E-03   -0.39682E-04  8516   0.106E-01    0.268E-01
DAV: 116    -0.324786309168E+03    0.86755E-04   -0.22550E-04  7916   0.654E-02    0.203E-01
DAV: 117    -0.324786650268E+03   -0.34110E-03   -0.57607E-04  8676   0.117E-01    0.298E-01
DAV: 118    -0.324786419455E+03    0.23081E-03   -0.37668E-04  7660   0.987E-02    0.168E-01
DAV: 119    -0.324786557442E+03   -0.13799E-03   -0.15228E-04  7500   0.611E-02    0.139E-01
DAV: 120    -0.324786698153E+03   -0.14071E-03   -0.10567E-04  7180   0.482E-02
 -----------------------------------------------------------------------------
|                                                                             |
|           W    W    AA    RRRRR   N    N  II  N    N   GGGG   !!!           |
|           W    W   A  A   R    R  NN   N  II  NN   N  G    G  !!!           |
|           W    W  A    A  R    R  N N  N  II  N N  N  G       !!!           |
|           W WW W  AAAAAA  RRRRR   N  N N  II  N  N N  G  GGG   !            |
|           WW  WW  A    A  R   R   N   NN  II  N   NN  G    G                |
|           W    W  A    A  R    R  N    N  II  N    N   GGGG   !!!           |
|                                                                             |
|     The electronic self-consistency was not achieved in the given           |
|     number of steps (NELM). The forces and other quantities evaluated       |
|     might not be reliable so examine the results carefully. If you find     |
|     spurious results, we suggest increasing NELM, if you were close to      |
|     convergence or switching to a different ALGO or adjusting the           |
|     density mixing parameters otherwise.                                    |
|                                                                             |
 -----------------------------------------------------------------------------

   5 F= -.42490630E+03 E0= -.42474263E+03  d E =-.296176E+03
 trial-energy change: -296.176169  1 .order -316.657996 -490.390853 -142.925139
 step:   1.3405(harm=  1.3405)  dis= 0.59127  next Energy=  -474.783253 (dE=-0.346E+03)
 bond charge predicted
       N       E                     dE             d eps       ncg     rms          rms(c)
DAV:   1    -0.264762669361E+03    0.60024E+02   -0.20680E+04  7218   0.198E+02    0.870E+01
DAV:   2    -0.119380828650E+04   -0.92905E+03   -0.96525E+02  8372   0.174E+02    0.320E+02
DAV:   3    -0.491030879137E+03    0.70278E+03   -0.62178E+02  7788   0.131E+02    0.150E+02
DAV:   4    -0.747052479457E+03   -0.25602E+03   -0.24469E+02  8316   0.143E+02    0.332E+02
DAV:   5    -0.480949405309E+03    0.26610E+03   -0.16338E+02  8532   0.600E+01    0.140E+02
DAV:   6    -0.540261868967E+03   -0.59312E+02   -0.77210E+01  9244   0.672E+01    0.189E+02
DAV:   7    -0.401013394074E+03    0.13925E+03   -0.69828E+01  8332   0.292E+01    0.951E+01
DAV:   8    -0.393467331644E+03    0.75461E+01   -0.21939E+01  8732   0.307E+01    0.988E+01
DAV:   9    -0.397840945360E+03   -0.43736E+01   -0.20115E+01  9012   0.254E+01    0.101E+02
DAV:  10    -0.389602433275E+03    0.82385E+01   -0.15247E+01  8508   0.184E+01    0.866E+01
DAV:  11    -0.389299039772E+03    0.30339E+00   -0.16141E+01  8404   0.186E+01    0.836E+01
DAV:  12    -0.395607031414E+03   -0.63080E+01   -0.16889E+01  8820   0.227E+01    0.912E+01
DAV:  13    -0.402412792676E+03   -0.68058E+01   -0.18921E+01  8380   0.246E+01    0.972E+01
DAV:  14    -0.384033285766E+03    0.18380E+02   -0.15619E+01  8764   0.224E+01    0.618E+01
DAV:  15    -0.375930502931E+03    0.81028E+01   -0.13213E+01  8420   0.163E+01    0.455E+01
DAV:  16    -0.376846001456E+03   -0.91550E+00   -0.12837E+01  8828   0.162E+01    0.456E+01
DAV:  17    -0.375263993102E+03    0.15820E+01   -0.89042E+00  8596   0.128E+01    0.424E+01
DAV:  18    -0.373852867159E+03    0.14111E+01   -0.50720E+00  8036   0.982E+00    0.429E+01
DAV:  19    -0.372715214798E+03    0.11377E+01   -0.13918E+00  7828   0.492E+00    0.421E+01
DAV:  20    -0.371700879515E+03    0.10143E+01   -0.55899E-01  7820   0.306E+00    0.391E+01
DAV:  21    -0.371023972102E+03    0.67691E+00   -0.22074E+00  8708   0.658E+00    0.321E+01
DAV:  22    -0.369846799217E+03    0.11772E+01   -0.26068E+00  9788   0.960E+00    0.282E+01
DAV:  23    -0.369067067799E+03    0.77973E+00   -0.18493E+00  9428   0.647E+00    0.233E+01
DAV:  24    -0.368608874335E+03    0.45819E+00   -0.12924E+00  8124   0.456E+00    0.193E+01
DAV:  25    -0.368262403418E+03    0.34647E+00   -0.86988E-01  8180   0.416E+00    0.173E+01
DAV:  26    -0.368322929418E+03   -0.60526E-01   -0.24141E-01  8036   0.184E+00    0.178E+01
DAV:  27    -0.368392827535E+03   -0.69898E-01   -0.13974E-01  7732   0.154E+00    0.187E+01
DAV:  28    -0.368444734322E+03   -0.51907E-01   -0.52184E-01  9116   0.309E+00    0.180E+01
DAV:  29    -0.368142002449E+03    0.30273E+00   -0.37137E-01  8012   0.173E+00    0.134E+01
DAV:  30    -0.368073038904E+03    0.68964E-01   -0.22742E-01  8484   0.219E+00    0.121E+01
DAV:  31    -0.367992398908E+03    0.80640E-01   -0.15739E-01  8532   0.138E+00    0.113E+01
DAV:  32    -0.368010076978E+03   -0.17678E-01   -0.14369E-01  8364   0.139E+00    0.113E+01
DAV:  33    -0.367995000877E+03    0.15076E-01   -0.96540E-02  8340   0.152E+00    0.110E+01
DAV:  34    -0.367930967877E+03    0.64033E-01   -0.41790E-02  8036   0.753E-01    0.979E+00
DAV:  35    -0.367917821729E+03    0.13146E-01   -0.16649E-02  7708   0.453E-01    0.946E+00
DAV:  36    -0.367893628614E+03    0.24193E-01   -0.37726E-02  8972   0.922E-01    0.816E+00
DAV:  37    -0.367856307750E+03    0.37321E-01   -0.37849E-02  8916   0.919E-01    0.684E+00
DAV:  38    -0.367842755711E+03    0.13552E-01   -0.45319E-02  8068   0.784E-01    0.591E+00
DAV:  39    -0.367843063973E+03   -0.30826E-03   -0.46839E-02  8676   0.780E-01    0.551E+00
DAV:  40    -0.367841650100E+03    0.14139E-02   -0.11380E-02  7892   0.376E-01    0.537E+00
DAV:  41    -0.367844162347E+03   -0.25122E-02   -0.10437E-02  7964   0.501E-01    0.531E+00
DAV:  42    -0.367836550441E+03    0.76119E-02   -0.58042E-03  7860   0.354E-01    0.492E+00
DAV:  43    -0.367829569940E+03    0.69805E-02   -0.62446E-03  8516   0.363E-01    0.453E+00
DAV:  44    -0.367818363303E+03    0.11207E-01   -0.89696E-03  8524   0.503E-01    0.403E+00
DAV:  45    -0.367805991845E+03    0.12371E-01   -0.10661E-02  8580   0.398E-01    0.351E+00
DAV:  46    -0.367800536612E+03    0.54552E-02   -0.80016E-03  8532   0.421E-01    0.324E+00
DAV:  47    -0.367804424916E+03   -0.38883E-02   -0.24642E-02  9876   0.786E-01    0.301E+00
DAV:  48    -0.367793216852E+03    0.11208E-01   -0.10206E-02  8412   0.473E-01    0.250E+00
DAV:  49    -0.367791561244E+03    0.16556E-02   -0.55111E-03  8012   0.344E-01    0.221E+00
DAV:  50    -0.367790456425E+03    0.11048E-02   -0.30505E-03  7492   0.219E-01    0.206E+00
DAV:  51    -0.367789970737E+03    0.48569E-03   -0.20564E-03  7636   0.212E-01    0.196E+00
DAV:  52    -0.367813857117E+03   -0.23886E-01   -0.33948E-02 11334   0.117E+00    0.304E+00
DAV:  53    -0.367787886706E+03    0.25970E-01   -0.45654E-02  9598   0.105E+00    0.197E+00
DAV:  54    -0.367785642064E+03    0.22446E-02   -0.20848E-02  9172   0.586E-01    0.146E+00
DAV:  55    -0.367786295104E+03   -0.65304E-03   -0.10039E-02  9148   0.490E-01    0.197E+00
DAV:  56    -0.367783804961E+03    0.24901E-02   -0.21993E-03  9132   0.253E-01    0.188E+00
DAV:  57    -0.367780214605E+03    0.35904E-02   -0.46354E-03  9268   0.268E-01    0.128E+00
DAV:  58    -0.367779138139E+03    0.10765E-02   -0.21553E-03  8508   0.238E-01    0.946E-01
DAV:  59    -0.367778646080E+03    0.49206E-03   -0.13143E-03  8900   0.199E-01    0.898E-01
DAV:  60    -0.367777876174E+03    0.76991E-03   -0.10169E-03  8676   0.152E-01    0.644E-01
DAV:  61    -0.367777714652E+03    0.16152E-03   -0.64718E-04  8396   0.103E-01    0.436E-01
DAV:  62    -0.367777964797E+03   -0.25015E-03   -0.58302E-04  8332   0.137E-01    0.406E-01
DAV:  63    -0.367777667841E+03    0.29696E-03   -0.43460E-04  8044   0.119E-01    0.254E-01
DAV:  64    -0.367777712262E+03   -0.44421E-04   -0.11338E-04  7572   0.525E-02    0.253E-01
DAV:  65    -0.367777671790E+03    0.40472E-04   -0.10335E-04  7108   0.475E-02    0.161E-01
DAV:  66    -0.367777685949E+03   -0.14158E-04   -0.55745E-05  6636   0.361E-02    0.108E-01
DAV:  67    -0.367777723910E+03   -0.37962E-04   -0.58268E-05  6900   0.377E-02    0.115E-01
DAV:  68    -0.367777724246E+03   -0.33528E-06   -0.54713E-05  6196   0.341E-02    0.962E-02
DAV:  69    -0.367777744379E+03   -0.20134E-04   -0.16575E-05  5276   0.206E-02    0.672E-02
DAV:  70    -0.367777761597E+03   -0.17217E-04   -0.91220E-06  4540   0.143E-02    0.535E-02
DAV:  71    -0.367777772611E+03   -0.11014E-04   -0.49862E-06  4172   0.113E-02    0.500E-02
DAV:  72    -0.367777794784E+03   -0.22173E-04   -0.66885E-06  4020   0.117E-02    0.783E-02
DAV:  73    -0.367777791926E+03    0.28578E-05   -0.10444E-05  4212   0.124E-02
   6 F= -.46595423E+03 E0= -.46578798E+03  d E =-.337224E+03
 curvature:  -1.10 expect dE=-0.690E+03 dE for cont linesearch -0.541E+01
 trial: gam= 1.26559 g(F)=  0.628E+03 g(S)=  0.000E+00 ort = 0.646E+02 (trialstep = 0.405E+00)
 search vector abs. value=  0.215E+04
 bond charge predicted
       N       E                     dE             d eps       ncg     rms          rms(c)
DAV:   1     0.717953982265E+02    0.43957E+03   -0.68962E+04  7338   0.422E+02    0.268E+02
DAV:   2    -0.154724407943E+04   -0.16190E+04   -0.59429E+03  7932   0.266E+02    0.388E+02
DAV:   3    -0.350008468128E+04   -0.19528E+04   -0.57896E+03  8971   0.422E+02    0.489E+02
DAV:   4    -0.228962522022E+04    0.12105E+04   -0.27955E+03 10542   0.179E+02    0.388E+02
DAV:   5    -0.930163494014E+03    0.13595E+04   -0.11974E+03 10782   0.190E+02    0.280E+02
DAV:   6    -0.115772066544E+04   -0.22756E+03   -0.82538E+02  8772   0.190E+02    0.280E+02
DAV:   7    -0.110591755065E+04    0.51803E+02   -0.76595E+02  8076   0.144E+02    0.272E+02
DAV:   8    -0.717444804719E+03    0.38847E+03   -0.29301E+02  7740   0.936E+01    0.213E+02
DAV:   9    -0.660648731137E+03    0.56796E+02   -0.16112E+02  7964   0.819E+01    0.199E+02
DAV:  10    -0.635635230781E+03    0.25014E+02   -0.16202E+02  9772   0.468E+01    0.181E+02
DAV:  11    -0.616450440052E+03    0.19185E+02   -0.63816E+01  7772   0.352E+01    0.164E+02
DAV:  12    -0.605639718109E+03    0.10811E+02   -0.26720E+01  7836   0.200E+01    0.153E+02
DAV:  13    -0.602971143162E+03    0.26686E+01   -0.12012E+01 10156   0.887E+00    0.149E+02
DAV:  14    -0.603115781264E+03   -0.14464E+00   -0.26992E+00 11644   0.296E+00    0.149E+02
DAV:  15    -0.602883774967E+03    0.23201E+00   -0.11980E-01 10228   0.686E-01    0.148E+02
DAV:  16    -0.603229050979E+03   -0.34528E+00   -0.74860E-02 12148   0.104E+00    0.148E+02
DAV:  17    -0.605709787422E+03   -0.24807E+01   -0.57579E+00 10244   0.150E+01    0.147E+02
DAV:  18    -0.590503467206E+03    0.15206E+02   -0.16798E+01 10660   0.229E+01    0.124E+02
DAV:  19    -0.582576989050E+03    0.79265E+01   -0.11793E+01 10020   0.172E+01    0.110E+02
DAV:  20    -0.575639897109E+03    0.69371E+01   -0.76264E+00  8372   0.159E+01    0.925E+01
DAV:  21    -0.583945929883E+03   -0.83060E+01   -0.11410E+01  8956   0.189E+01    0.897E+01
DAV:  22    -0.608548423201E+03   -0.24602E+02   -0.19790E+01  9580   0.287E+01    0.107E+02
DAV:  23    -0.597751585127E+03    0.10797E+02   -0.16115E+01  8508   0.292E+01    0.973E+01
DAV:  24    -0.601180870249E+03   -0.34293E+01   -0.17779E+01  8332   0.217E+01    0.101E+02
DAV:  25    -0.600640709243E+03    0.54016E+00   -0.11725E+01  8020   0.134E+01    0.958E+01
DAV:  26    -0.597628376777E+03    0.30123E+01   -0.61583E+00  7796   0.987E+00    0.879E+01
DAV:  27    -0.596468121205E+03    0.11603E+01   -0.27548E+00  7932   0.555E+00    0.847E+01
DAV:  28    -0.594911163657E+03    0.15570E+01   -0.23174E+00  8148   0.570E+00    0.816E+01
DAV:  29    -0.592931085722E+03    0.19801E+01   -0.14442E+00  7804   0.454E+00    0.776E+01
DAV:  30    -0.592384791132E+03    0.54629E+00   -0.13861E+00  8852   0.541E+00    0.765E+01
DAV:  31    -0.591801750944E+03    0.58304E+00   -0.35454E+00  9124   0.827E+00    0.748E+01
DAV:  32    -0.589572714987E+03    0.22290E+01   -0.49466E+00  8028   0.102E+01    0.737E+01
DAV:  33    -0.584121736697E+03    0.54510E+01   -0.37796E+00  8740   0.114E+01    0.638E+01
DAV:  34    -0.591086210199E+03   -0.69645E+01   -0.67788E+00  8788   0.162E+01    0.716E+01
DAV:  35    -0.581714559624E+03    0.93717E+01   -0.47278E+00  8089   0.125E+01    0.572E+01
DAV:  36    -0.575457786523E+03    0.62568E+01   -0.29424E+00  8196   0.913E+00    0.448E+01
DAV:  37    -0.579317894183E+03   -0.38601E+01   -0.50585E+00  8220   0.106E+01    0.536E+01
DAV:  38    -0.576819719014E+03    0.24982E+01   -0.17896E+00  7860   0.540E+00    0.506E+01
DAV:  39    -0.574873035814E+03    0.19467E+01   -0.99725E-01  7772   0.400E+00    0.464E+01
DAV:  40    -0.574336636805E+03    0.53640E+00   -0.43828E-01  7828   0.284E+00    0.459E+01
DAV:  41    -0.574449135007E+03   -0.11250E+00   -0.48027E-01  8372   0.375E+00    0.458E+01
DAV:  42    -0.573480905068E+03    0.96823E+00   -0.25241E-01  8332   0.220E+00    0.440E+01
DAV:  43    -0.571665911999E+03    0.18150E+01   -0.46275E-01 11748   0.295E+00    0.402E+01
DAV:  44    -0.568967107291E+03    0.26988E+01   -0.94097E-01 11364   0.451E+00    0.344E+01
DAV:  45    -0.567811777781E+03    0.11553E+01   -0.61768E-01 11028   0.387E+00    0.313E+01
DAV:  46    -0.566244589273E+03    0.15672E+01   -0.80537E-01 10428   0.359E+00    0.259E+01
DAV:  47    -0.566760220564E+03   -0.51563E+00   -0.54478E+00 13092   0.973E+00    0.365E+01
DAV:  48    -0.565790413643E+03    0.96981E+00   -0.83619E-01  9508   0.226E+00    0.309E+01
DAV:  49    -0.565974833557E+03   -0.18442E+00   -0.20978E-01  7644   0.199E+00    0.330E+01
DAV:  50    -0.566303118985E+03   -0.32829E+00   -0.18370E-01  7860   0.232E+00    0.351E+01
DAV:  51    -0.566282138002E+03    0.20981E-01   -0.54060E-02 10036   0.409E-01    0.349E+01
DAV:  52    -0.564766493051E+03    0.15156E+01   -0.26858E+00 13300   0.697E+00    0.264E+01
DAV:  53    -0.565964658999E+03   -0.11982E+01   -0.12533E+00 11988   0.477E+00    0.335E+01
DAV:  54    -0.565748827671E+03    0.21583E+00   -0.38847E-01 10948   0.457E+00    0.317E+01
DAV:  55    -0.565551697287E+03    0.19713E+00   -0.61688E-01 10036   0.516E+00    0.299E+01
DAV:  56    -0.565058077541E+03    0.49362E+00   -0.39707E-01  9364   0.402E+00    0.280E+01
DAV:  57    -0.564152532889E+03    0.90554E+00   -0.13720E+00  9868   0.746E+00    0.197E+01
DAV:  58    -0.563564764432E+03    0.58777E+00   -0.11419E+00  9644   0.797E+00    0.168E+01
DAV:  59    -0.563283894425E+03    0.28087E+00   -0.37675E-01  9092   0.356E+00    0.146E+01
DAV:  60    -0.563431314924E+03   -0.14742E+00   -0.38996E-01  8828   0.366E+00    0.158E+01
DAV:  61    -0.563332679013E+03    0.98636E-01   -0.24041E-01  8436   0.274E+00    0.153E+01
DAV:  62    -0.564529162722E+03   -0.11965E+01   -0.22960E+00 10732   0.851E+00    0.225E+01
DAV:  63    -0.563041211083E+03    0.14880E+01   -0.13484E+00  9620   0.608E+00    0.127E+01
DAV:  64    -0.562879178809E+03    0.16203E+00   -0.33758E-01  9564   0.332E+00    0.107E+01
DAV:  65    -0.562874498121E+03    0.46807E-02   -0.29273E-01  9132   0.271E+00    0.114E+01
DAV:  66    -0.562879993654E+03   -0.54955E-02   -0.38136E-01  9228   0.298E+00    0.107E+01
DAV:  67    -0.564905759196E+03   -0.20258E+01   -0.25094E+00  9556   0.793E+00    0.230E+01
DAV:  68    -0.563913337180E+03    0.99242E+00   -0.80817E-01  8340   0.566E+00    0.196E+01
DAV:  69    -0.563355154079E+03    0.55818E+00   -0.47059E-01  8548   0.322E+00    0.151E+01
DAV:  70    -0.563082404524E+03    0.27275E+00   -0.32438E-01  8804   0.300E+00    0.125E+01
DAV:  71    -0.562886197637E+03    0.19621E+00   -0.13105E-01  9004   0.212E+00    0.105E+01
DAV:  72    -0.564627444861E+03   -0.17412E+01   -0.16836E+00 10748   0.693E+00    0.234E+01
DAV:  73    -0.563063724536E+03    0.15637E+01   -0.11098E+00  8932   0.565E+00    0.129E+01
DAV:  74    -0.562829820985E+03    0.23390E+00   -0.41265E-01  8364   0.243E+00    0.106E+01
DAV:  75    -0.562712159146E+03    0.11766E+00   -0.11752E-01  8228   0.153E+00    0.846E+00
DAV:  76    -0.562650765284E+03    0.61394E-01   -0.13588E-01  8308   0.144E+00    0.705E+00
DAV:  77    -0.562654825011E+03   -0.40597E-02   -0.12989E-01  8556   0.202E+00    0.696E+00
DAV:  78    -0.562610330297E+03    0.44495E-01   -0.12978E-01  8212   0.204E+00    0.591E+00
DAV:  79    -0.562557086766E+03    0.53244E-01   -0.95024E-02  8244   0.179E+00    0.471E+00
DAV:  80    -0.562530080395E+03    0.27006E-01   -0.70664E-02  8044   0.148E+00    0.381E+00
DAV:  81    -0.562523419921E+03    0.66605E-02   -0.62261E-02  8052   0.128E+00    0.370E+00
DAV:  82    -0.562549108526E+03   -0.25689E-01   -0.82834E-02  8372   0.158E+00    0.444E+00
DAV:  83    -0.562504556616E+03    0.44552E-01   -0.87076E-02  8100   0.142E+00    0.260E+00
DAV:  84    -0.562499935448E+03    0.46212E-02   -0.21309E-02  8084   0.786E-01    0.237E+00
DAV:  85    -0.562493320211E+03    0.66152E-02   -0.11292E-02  8092   0.580E-01    0.176E+00
DAV:  86    -0.562491063095E+03    0.22571E-02   -0.76347E-03  8068   0.470E-01    0.161E+00
DAV:  87    -0.562547471949E+03   -0.56409E-01   -0.77881E-02  9492   0.124E+00    0.414E+00
DAV:  88    -0.562488083298E+03    0.59389E-01   -0.83910E-02  8732   0.117E+00    0.151E+00
DAV:  89    -0.562487638192E+03    0.44511E-03   -0.48242E-03  8252   0.405E-01    0.124E+00
DAV:  90    -0.562485425815E+03    0.22124E-02   -0.36116E-03  8516   0.282E-01    0.896E-01
DAV:  91    -0.562484521657E+03    0.90416E-03   -0.21137E-03  8172   0.189E-01    0.642E-01
DAV:  92    -0.562497903452E+03   -0.13382E-01   -0.24398E-02  9884   0.659E-01    0.194E+00
DAV:  93    -0.562485561025E+03    0.12342E-01   -0.12980E-02  8860   0.632E-01    0.930E-01
DAV:  94    -0.562485239399E+03    0.32163E-03   -0.28038E-03  8676   0.262E-01    0.819E-01
DAV:  95    -0.562484683385E+03    0.55601E-03   -0.18588E-03  8532   0.231E-01    0.635E-01
DAV:  96    -0.562484300424E+03    0.38296E-03   -0.12557E-03  8172   0.193E-01    0.464E-01
DAV:  97    -0.562484406625E+03   -0.10620E-03   -0.14941E-03  8300   0.213E-01    0.425E-01
DAV:  98    -0.562483938860E+03    0.46777E-03   -0.10048E-03  8148   0.173E-01    0.267E-01
DAV:  99    -0.562483867053E+03    0.71807E-04   -0.34488E-04  8092   0.837E-02    0.205E-01
DAV: 100    -0.562483839858E+03    0.27195E-04   -0.19615E-04  7884   0.671E-02    0.175E-01
DAV: 101    -0.562483886437E+03   -0.46579E-04   -0.87752E-05  7708   0.439E-02    0.179E-01
DAV: 102    -0.562483956148E+03   -0.69712E-04   -0.11882E-04  7404   0.610E-02    0.167E-01
DAV: 103    -0.562483939960E+03    0.16189E-04   -0.10522E-04  7428   0.605E-02    0.133E-01
DAV: 104    -0.562483963052E+03   -0.23093E-04   -0.71045E-05  7068   0.389E-02    0.740E-02
DAV: 105    -0.562484016826E+03   -0.53774E-04   -0.43448E-05  6796   0.329E-02    0.758E-02
DAV: 106    -0.562484055964E+03   -0.39138E-04   -0.30824E-05  6476   0.267E-02    0.612E-02
DAV: 107    -0.562484070410E+03   -0.14445E-04   -0.39019E-05  6396   0.325E-02    0.738E-02
DAV: 108    -0.562484122783E+03   -0.52374E-04   -0.33932E-05  6052   0.279E-02    0.456E-02
DAV: 109    -0.562484184612E+03   -0.61828E-04   -0.15363E-05  5164   0.181E-02    0.526E-02
DAV: 110    -0.562484218329E+03   -0.33718E-04   -0.13694E-05  4692   0.162E-02    0.244E-02
DAV: 111    -0.562484267553E+03   -0.49224E-04   -0.87930E-06  4412   0.148E-02    0.278E-02
DAV: 112    -0.562484290261E+03   -0.22708E-04   -0.78817E-06  4380   0.137E-02    0.252E-02
DAV: 113    -0.562484340494E+03   -0.50233E-04   -0.70492E-06  4124   0.128E-02    0.262E-02
DAV: 114    -0.562484369619E+03   -0.29125E-04   -0.41615E-06  4148   0.816E-03    0.314E-02
DAV: 115    -0.562484394222E+03   -0.24604E-04   -0.29145E-06  4060   0.692E-03    0.286E-02
DAV: 116    -0.562484428912E+03   -0.34689E-04   -0.25892E-06  4044   0.687E-03    0.179E-02
DAV: 117    -0.562484469390E+03   -0.40479E-04   -0.33830E-06  4092   0.977E-03    0.221E-02
DAV: 118    -0.562484517072E+03   -0.47682E-04   -0.28308E-06  4060   0.850E-03    0.106E-02
DAV: 119    -0.562484538546E+03   -0.21474E-04   -0.18104E-06  4124   0.477E-03    0.924E-03
DAV: 120    -0.562484549551E+03   -0.11005E-04   -0.13833E-06  4052   0.404E-03
 -----------------------------------------------------------------------------
|                                                                             |
|           W    W    AA    RRRRR   N    N  II  N    N   GGGG   !!!           |
|           W    W   A  A   R    R  NN   N  II  NN   N  G    G  !!!           |
|           W    W  A    A  R    R  N N  N  II  N N  N  G       !!!           |
|           W WW W  AAAAAA  RRRRR   N  N N  II  N  N N  G  GGG   !            |
|           WW  WW  A    A  R   R   N   NN  II  N   NN  G    G                |
|           W    W  A    A  R    R  N    N  II  N    N   GGGG   !!!           |
|                                                                             |
|     The electronic self-consistency was not achieved in the given           |
|     number of steps (NELM). The forces and other quantities evaluated       |
|     might not be reliable so examine the results carefully. If you find     |
|     spurious results, we suggest increasing NELM, if you were close to      |
|     convergence or switching to a different ALGO or adjusting the           |
|     density mixing parameters otherwise.                                    |
|                                                                             |
 -----------------------------------------------------------------------------

   7 F= -.65733291E+03 E0= -.65715359E+03  d E =-.191379E+03
 trial-energy change: -191.378678  1 .order -199.876261 -287.501048 -112.251475
 step:   0.6648(harm=  0.6648)  dis= 0.36110  next Energy=  -701.780350 (dE=-0.236E+03)
 bond charge predicted
       N       E                     dE             d eps       ncg     rms          rms(c)
DAV:   1    -0.468616141610E+03    0.93868E+02   -0.26188E+04  7314   0.227E+02    0.815E+01
DAV:   2    -0.642470073214E+03   -0.17385E+03   -0.16670E+03  7460   0.868E+01    0.933E+01
DAV:   3    -0.195677514382E+04   -0.13143E+04   -0.29049E+02 10420   0.197E+02    0.387E+02
DAV:   4    -0.860561797685E+03    0.10962E+04   -0.22386E+02  9705   0.666E+01    0.202E+02
DAV:   5    -0.757900221727E+03    0.10266E+03   -0.63194E+01  8612   0.618E+01    0.166E+02
DAV:   6    -0.672635076597E+03    0.85265E+02   -0.50301E+01  8156   0.472E+01    0.109E+02
DAV:   7    -0.639858052652E+03    0.32777E+02   -0.34175E+01  9044   0.349E+01    0.851E+01
DAV:   8    -0.638840324269E+03    0.10177E+01   -0.32182E+01  9036   0.340E+01    0.882E+01
DAV:   9    -0.628111141314E+03    0.10729E+02   -0.23776E+01  9396   0.306E+01    0.689E+01
DAV:  10    -0.625624807569E+03    0.24863E+01   -0.97502E+00  7988   0.146E+01    0.602E+01
DAV:  11    -0.624868572028E+03    0.75624E+00   -0.93122E+00  7612   0.161E+01    0.586E+01
DAV:  12    -0.627963292991E+03   -0.30947E+01   -0.68036E+00  7876   0.153E+01    0.643E+01
DAV:  13    -0.632034640242E+03   -0.40713E+01   -0.64654E+00  8316   0.157E+01    0.678E+01
DAV:  14    -0.630404154829E+03    0.16305E+01   -0.55530E+00  8556   0.166E+01    0.612E+01
DAV:  15    -0.624952904660E+03    0.54513E+01   -0.58498E+00  8108   0.167E+01    0.485E+01
DAV:  16    -0.620732145382E+03    0.42208E+01   -0.38914E+00  7996   0.109E+01    0.365E+01
DAV:  17    -0.619492188461E+03    0.12400E+01   -0.24050E+00  8780   0.864E+00    0.355E+01
DAV:  18    -0.617271842502E+03    0.22203E+01   -0.91322E-01  7900   0.488E+00    0.285E+01
DAV:  19    -0.616590138072E+03    0.68170E+00   -0.66078E-01  7884   0.368E+00    0.272E+01
DAV:  20    -0.616281573264E+03    0.30856E+00   -0.34204E-01  9076   0.162E+00    0.268E+01
DAV:  21    -0.615859313916E+03    0.42226E+00   -0.10924E-01  7844   0.144E+00    0.252E+01
DAV:  22    -0.615250492936E+03    0.60882E+00   -0.13378E-01  8100   0.249E+00    0.225E+01
DAV:  23    -0.614605375842E+03    0.64512E+00   -0.14975E-01  9212   0.201E+00    0.193E+01
DAV:  24    -0.614060594146E+03    0.54478E+00   -0.52458E-01 11252   0.290E+00    0.154E+01
DAV:  25    -0.613781220140E+03    0.27937E+00   -0.36972E-01  9996   0.238E+00    0.122E+01
DAV:  26    -0.613700490362E+03    0.80730E-01   -0.25173E-01  9116   0.224E+00    0.113E+01
DAV:  27    -0.613578626875E+03    0.12186E+00   -0.14673E-01  9100   0.199E+00    0.994E+00
DAV:  28    -0.613480659527E+03    0.97967E-01   -0.20910E-01 10092   0.187E+00    0.864E+00
DAV:  29    -0.613443370057E+03    0.37289E-01   -0.19665E-01  9180   0.166E+00    0.754E+00
DAV:  30    -0.613436020670E+03    0.73494E-02   -0.10961E-01  8876   0.148E+00    0.723E+00
[...]
DAV:  11    -0.996859585062E+03    0.19981E+00   -0.28385E+00  7948   0.103E+01    0.217E+01
DAV:  12    -0.995828279846E+03    0.10313E+01   -0.16674E+00  7996   0.796E+00    0.167E+01
DAV:  13    -0.995883731370E+03   -0.55452E-01   -0.17228E+00  8140   0.553E+00    0.171E+01
DAV:  14    -0.995507418907E+03    0.37631E+00   -0.52144E-01  8084   0.374E+00    0.156E+01
DAV:  15    -0.995508069452E+03   -0.65054E-03   -0.87944E-01  8524   0.501E+00    0.148E+01
DAV:  16    -0.995404410191E+03    0.10366E+00   -0.10015E+00  7996   0.467E+00    0.139E+01
DAV:  17    -0.995048164112E+03    0.35625E+00   -0.54110E-01  8060   0.426E+00    0.949E+00
DAV:  18    -0.995129492884E+03   -0.81329E-01   -0.55562E-01  8452   0.456E+00    0.109E+01
DAV:  19    -0.994929975447E+03    0.19952E+00   -0.47234E-01  8620   0.330E+00    0.736E+00
DAV:  20    -0.994881156605E+03    0.48819E-01   -0.25875E-01  8196   0.240E+00    0.597E+00
DAV:  21    -0.994827204427E+03    0.53952E-01   -0.15014E-01  8452   0.191E+00    0.363E+00
DAV:  22    -0.994857895640E+03   -0.30691E-01   -0.97660E-02  8364   0.169E+00    0.501E+00
DAV:  23    -0.994822235408E+03    0.35660E-01   -0.10741E-01  8548   0.157E+00    0.319E+00
DAV:  24    -0.994840273897E+03   -0.18038E-01   -0.67698E-02  8356   0.136E+00    0.459E+00
DAV:  25    -0.994798716425E+03    0.41557E-01   -0.63002E-02  8436   0.113E+00    0.217E+00
DAV:  26    -0.994814753954E+03   -0.16038E-01   -0.50956E-02  8148   0.890E-01    0.307E+00
DAV:  27    -0.994794571470E+03    0.20182E-01   -0.24350E-02  8228   0.595E-01    0.106E+00
DAV:  28    -0.994803612607E+03   -0.90411E-02   -0.91199E-03  8620   0.418E-01    0.107E+00
DAV:  29    -0.994802511838E+03    0.11008E-02   -0.74463E-03  8780   0.363E-01    0.833E-01
DAV:  30    -0.994802526925E+03   -0.15087E-04   -0.38780E-03  8524   0.293E-01    0.652E-01
DAV:  31    -0.994802944074E+03   -0.41715E-03   -0.24152E-03  8756   0.276E-01    0.778E-01
DAV:  32    -0.994801723452E+03    0.12206E-02   -0.19310E-03  8772   0.241E-01    0.493E-01
DAV:  33    -0.994801999814E+03   -0.27636E-03   -0.11868E-03  8732   0.193E-01    0.549E-01
DAV:  34    -0.994801580236E+03    0.41958E-03   -0.11030E-03  8540   0.142E-01    0.328E-01
DAV:  35    -0.994801771047E+03   -0.19081E-03   -0.51454E-04  8644   0.114E-01    0.282E-01
DAV:  36    -0.994801622377E+03    0.14867E-03   -0.45809E-04  8388   0.820E-02    0.180E-01
DAV:  37    -0.994801633908E+03   -0.11531E-04   -0.20737E-04  8220   0.683E-02    0.107E-01
DAV:  38    -0.994801634416E+03   -0.50827E-06   -0.13063E-04  7628   0.530E-02    0.987E-02
DAV:  39    -0.994801631160E+03    0.32561E-05   -0.93618E-05  7564   0.470E-02    0.791E-02
DAV:  40    -0.994801648878E+03   -0.17718E-04   -0.73372E-05  7044   0.405E-02    0.107E-01
DAV:  41    -0.994801632602E+03    0.16276E-04   -0.71186E-05  6716   0.338E-02    0.600E-02
DAV:  42    -0.994801652935E+03   -0.20333E-04   -0.34833E-05  6404   0.289E-02    0.512E-02
DAV:  43    -0.994801653634E+03   -0.69872E-06   -0.21848E-05  5692   0.226E-02
  37 F= -.10702072E+04 E0= -.10700282E+04  d E =-.107165E+02
 trial-energy change:  -10.716499  1 .order  -10.675844  -12.287314   -9.064373
 step:   0.8056(harm=  0.9432)  dis= 0.47394  next Energy= -1080.900385 (dE=-0.214E+02)
 bond charge predicted
       N       E                     dE             d eps       ncg     rms          rms(c)
DAV:   1    -0.862166217633E+03    0.13264E+03   -0.23964E+04  7218   0.218E+02    0.109E+02
DAV:   2    -0.126031165552E+04   -0.39815E+03   -0.15041E+03  8660   0.117E+02    0.246E+02
DAV:   3    -0.175031294437E+04   -0.49000E+03   -0.49212E+02  8164   0.194E+02    0.276E+02
DAV:   4    -0.124848849724E+04    0.50182E+03   -0.25568E+02  7516   0.134E+02    0.175E+02
DAV:   5    -0.172818443001E+04   -0.47970E+03   -0.22670E+02  8580   0.175E+02    0.274E+02
DAV:   6    -0.133029508991E+04    0.39789E+03   -0.19639E+02  7540   0.111E+02    0.209E+02
DAV:   7    -0.113555619061E+04    0.19474E+03   -0.10369E+02  7470   0.710E+01    0.129E+02
DAV:   8    -0.113469424760E+04    0.86194E+00   -0.98583E+01  7820   0.802E+01    0.158E+02
DAV:   9    -0.111767130419E+04    0.17023E+02   -0.81263E+01  8084   0.620E+01    0.142E+02
DAV:  10    -0.104986918600E+04    0.67802E+02   -0.58703E+01  8052   0.493E+01    0.973E+01
DAV:  11    -0.102751403711E+04    0.22355E+02   -0.37891E+01  7868   0.388E+01    0.697E+01
DAV:  12    -0.102690120429E+04    0.61283E+00   -0.32350E+01  7780   0.310E+01    0.663E+01
DAV:  13    -0.101560524321E+04    0.11296E+02   -0.27077E+01  7828   0.263E+01    0.508E+01
DAV:  14    -0.101169535215E+04    0.39099E+01   -0.18774E+01  7828   0.205E+01    0.472E+01
DAV:  15    -0.101331394233E+04   -0.16186E+01   -0.10866E+01  7876   0.174E+01    0.501E+01
DAV:  16    -0.100960376309E+04    0.37102E+01   -0.75233E+00  7772   0.119E+01    0.385E+01
DAV:  17    -0.100884722398E+04    0.75654E+00   -0.37778E+00  8004   0.946E+00    0.367E+01
DAV:  18    -0.100919735613E+04   -0.35013E+00   -0.36290E+00  8084   0.970E+00    0.363E+01
DAV:  19    -0.100876950863E+04    0.42785E+00   -0.37997E+00  8148   0.103E+01    0.299E+01
DAV:  20    -0.100975251571E+04   -0.98301E+00   -0.59069E+00  8444   0.148E+01    0.370E+01
DAV:  21    -0.100908614546E+04    0.66637E+00   -0.67944E+00  8500   0.132E+01    0.279E+01
DAV:  22    -0.100867487891E+04    0.41127E+00   -0.41026E+00  8516   0.147E+01    0.337E+01
DAV:  23    -0.100991949025E+04   -0.12446E+01   -0.63035E+00  8684   0.113E+01    0.335E+01
DAV:  24    -0.100811701825E+04    0.18025E+01   -0.41829E+00  8732   0.106E+01    0.246E+01
DAV:  25    -0.100858872584E+04   -0.47171E+00   -0.28809E+00  8748   0.939E+00    0.271E+01
DAV:  26    -0.100729689555E+04    0.12918E+01   -0.23528E+00  8532   0.741E+00    0.178E+01
DAV:  27    -0.100707377401E+04    0.22312E+00   -0.14615E+00  8244   0.601E+00    0.164E+01
DAV:  28    -0.100686971525E+04    0.20406E+00   -0.86040E-01  8404   0.519E+00    0.179E+01
DAV:  29    -0.100639494841E+04    0.47477E+00   -0.91344E-01  8444   0.443E+00    0.124E+01
DAV:  30    -0.100623110770E+04    0.16384E+00   -0.35729E-01  8428   0.337E+00    0.105E+01
DAV:  31    -0.100612036380E+04    0.11074E+00   -0.19782E-01  8452   0.228E+00    0.938E+00
DAV:  32    -0.100607015435E+04    0.50209E-01   -0.87265E-02  8540   0.127E+00    0.889E+00
DAV:  33    -0.100606755338E+04    0.26010E-02   -0.98016E-02  8572   0.176E+00    0.886E+00
DAV:  34    -0.100599736477E+04    0.70189E-01   -0.76979E-02  8860   0.145E+00    0.777E+00
DAV:  35    -0.100599206770E+04    0.52971E-02   -0.11800E-01  8724   0.213E+00    0.723E+00
DAV:  36    -0.100593851741E+04    0.53550E-01   -0.11362E-01  9140   0.201E+00    0.622E+00
DAV:  37    -0.100589603506E+04    0.42482E-01   -0.11298E-01  8836   0.180E+00    0.572E+00
DAV:  38    -0.100586565677E+04    0.30378E-01   -0.78569E-02  8916   0.150E+00    0.527E+00
DAV:  39    -0.100583194723E+04    0.33710E-01   -0.52028E-02  8436   0.118E+00    0.504E+00
DAV:  40    -0.100580303060E+04    0.28917E-01   -0.37746E-02  8484   0.925E-01    0.412E+00
DAV:  41    -0.100578940563E+04    0.13625E-01   -0.26369E-02  8692   0.757E-01    0.360E+00
DAV:  42    -0.100577789521E+04    0.11510E-01   -0.28314E-02  8636   0.773E-01    0.282E+00
DAV:  43    -0.100577061751E+04    0.72777E-02   -0.18477E-02  8892   0.716E-01    0.237E+00
DAV:  44    -0.100576280006E+04    0.78174E-02   -0.14466E-02  8564   0.641E-01    0.207E+00
DAV:  45    -0.100575563604E+04    0.71640E-02   -0.11182E-02  8852   0.484E-01    0.187E+00
DAV:  46    -0.100575228580E+04    0.33502E-02   -0.87903E-03  8412   0.450E-01    0.166E+00
DAV:  47    -0.100575367623E+04   -0.13904E-02   -0.18348E-02 10972   0.543E-01    0.154E+00
DAV:  48    -0.100575285871E+04    0.81752E-03   -0.87300E-03  9412   0.530E-01    0.130E+00
DAV:  49    -0.100574995505E+04    0.29037E-02   -0.60638E-03  8900   0.418E-01    0.951E-01
DAV:  50    -0.100574907924E+04    0.87581E-03   -0.38252E-03  8796   0.374E-01    0.745E-01
DAV:  51    -0.100574762945E+04    0.14498E-02   -0.21626E-03  8724   0.268E-01    0.461E-01
DAV:  52    -0.100575301228E+04   -0.53828E-02   -0.63837E-03  9644   0.499E-01    0.123E+00
DAV:  53    -0.100574899907E+04    0.40132E-02   -0.61046E-03  9148   0.468E-01    0.761E-01
DAV:  54    -0.100574756357E+04    0.14355E-02   -0.17311E-03  8732   0.258E-01    0.611E-01
DAV:  55    -0.100574685185E+04    0.71171E-03   -0.14732E-03  8508   0.184E-01    0.339E-01
DAV:  56    -0.100574710071E+04   -0.24886E-03   -0.69325E-04  8636   0.155E-01    0.292E-01
DAV:  57    -0.100574724371E+04   -0.14300E-03   -0.10773E-03  8724   0.167E-01    0.336E-01
DAV:  58    -0.100574700836E+04    0.23535E-03   -0.53282E-04  8572   0.132E-01    0.180E-01
DAV:  59    -0.100574693811E+04    0.70249E-04   -0.19340E-04  8180   0.846E-02    0.122E-01
DAV:  60    -0.100574695390E+04   -0.15792E-04   -0.13978E-04  7860   0.626E-02    0.120E-01
DAV:  61    -0.100574693307E+04    0.20835E-04   -0.93865E-05  7580   0.533E-02    0.812E-02
DAV:  62    -0.100574697089E+04   -0.37820E-04   -0.89498E-05  7532   0.559E-02    0.124E-01
DAV:  63    -0.100574693910E+04    0.31786E-04   -0.11191E-04  7108   0.474E-02    0.889E-02
DAV:  64    -0.100574693376E+04    0.53418E-05   -0.42573E-05  6404   0.297E-02    0.527E-02
DAV:  65    -0.100574693891E+04   -0.51474E-05   -0.18485E-05  5420   0.236E-02    0.451E-02
DAV:  66    -0.100574693846E+04    0.45053E-06   -0.14002E-05  4428   0.171E-02
  38 F= -.10805050E+04 E0= -.10803247E+04  d E =-.210144E+02
 curvature:  -4.29 expect dE=-0.366E+03 dE for cont linesearch -0.446E-01
 trial: gam= 0.91695 g(F)=  0.853E+02 g(S)=  0.000E+00 ort =-0.221E+01 (trialstep = 0.354E+00)
 search vector abs. value=  0.477E+03
 bond charge predicted
       N       E                     dE             d eps       ncg     rms          rms(c)
DAV:   1    -0.991100921175E+03    0.14646E+02   -0.97134E+03  7242   0.128E+02    0.442E+01
DAV:   2    -0.106061431600E+04   -0.69513E+02   -0.38294E+02  8276   0.462E+01    0.110E+02
DAV:   3    -0.113725682512E+04   -0.76643E+02   -0.11476E+02  7988   0.727E+01    0.120E+02
DAV:   4    -0.117924723989E+04   -0.41990E+02   -0.66243E+01  7660   0.936E+01    0.164E+02
DAV:   5    -0.107215114891E+04    0.10710E+03   -0.31289E+01  7900   0.619E+01    0.946E+01
DAV:   6    -0.106415586855E+04    0.79953E+01   -0.34530E+01  7852   0.497E+01    0.776E+01
DAV:   7    -0.104222315374E+04    0.21933E+02   -0.25050E+01  7996   0.442E+01    0.613E+01
DAV:   8    -0.103313095492E+04    0.90922E+01   -0.17864E+01  7820   0.316E+01    0.443E+01
DAV:   9    -0.103946642841E+04   -0.63355E+01   -0.16927E+01  8388   0.257E+01    0.727E+01
DAV:  10    -0.103487036613E+04    0.45961E+01   -0.10029E+01  8684   0.148E+01    0.423E+01
DAV:  11    -0.103295323607E+04    0.19171E+01   -0.11584E+01  8388   0.205E+01    0.411E+01
DAV:  12    -0.103203519112E+04    0.91804E+00   -0.10408E+01  8380   0.200E+01    0.361E+01
DAV:  13    -0.103313904975E+04   -0.11039E+01   -0.10107E+01  8460   0.189E+01    0.363E+01
DAV:  14    -0.103175622698E+04    0.13828E+01   -0.94939E+00  8572   0.194E+01    0.333E+01
DAV:  15    -0.102941157148E+04    0.23447E+01   -0.58706E+00  8316   0.161E+01    0.288E+01
DAV:  16    -0.102910545650E+04    0.30611E+00   -0.43473E+00  8364   0.137E+01    0.273E+01
DAV:  17    -0.102719613630E+04    0.19093E+01   -0.32727E+00  8556   0.980E+00    0.187E+01
DAV:  18    -0.102633193678E+04    0.86420E+00   -0.13297E+00  8164   0.657E+00    0.156E+01
DAV:  19    -0.102632958167E+04    0.23551E-02   -0.17592E+00  8652   0.604E+00    0.152E+01
DAV:  20    -0.102606386546E+04    0.26572E+00   -0.11365E+00  8100   0.453E+00    0.129E+01
DAV:  21    -0.102642525291E+04   -0.36139E+00   -0.19051E+00  8452   0.509E+00    0.146E+01
DAV:  22    -0.102609746512E+04    0.32779E+00   -0.76435E-01  8492   0.408E+00    0.128E+01
DAV:  23    -0.102585038822E+04    0.24708E+00   -0.44129E-01  8548   0.291E+00    0.105E+01
DAV:  24    -0.102586417725E+04   -0.13789E-01   -0.45909E-01  8844   0.351E+00    0.113E+01
DAV:  25    -0.102569370727E+04    0.17047E+00   -0.28094E-01  8556   0.258E+00    0.672E+00
DAV:  26    -0.102567417236E+04    0.19535E-01   -0.16675E-01  8460   0.198E+00    0.583E+00
DAV:  27    -0.102564190247E+04    0.32270E-01   -0.16006E-01  8924   0.156E+00    0.507E+00
DAV:  28    -0.102562972246E+04    0.12180E-01   -0.11526E-01  8668   0.121E+00    0.415E+00
DAV:  29    -0.102562924175E+04    0.48071E-03   -0.61971E-02  8772   0.119E+00    0.374E+00
DAV:  30    -0.102561447819E+04    0.14764E-01   -0.33988E-02  8828   0.954E-01    0.291E+00
DAV:  31    -0.102561270512E+04    0.17731E-02   -0.27509E-02  8780   0.871E-01    0.270E+00
DAV:  32    -0.102560725521E+04    0.54499E-02   -0.27324E-02  8876   0.926E-01    0.232E+00
DAV:  33    -0.102559768135E+04    0.95739E-02   -0.16346E-02  8700   0.709E-01    0.203E+00
DAV:  34    -0.102559187078E+04    0.58106E-02   -0.11556E-02  8844   0.555E-01    0.149E+00
DAV:  35    -0.102559277264E+04   -0.90186E-03   -0.73793E-03  9004   0.389E-01    0.120E+00
DAV:  36    -0.102559596433E+04   -0.31917E-02   -0.65873E-03  8852   0.464E-01    0.139E+00
DAV:  37    -0.102559318994E+04    0.27744E-02   -0.49433E-03  8716   0.403E-01    0.106E+00
DAV:  38    -0.102559287582E+04    0.31412E-03   -0.58782E-03  8980   0.339E-01    0.108E+00
DAV:  39    -0.102559163803E+04    0.12378E-02   -0.22825E-03  8972   0.269E-01    0.898E-01
DAV:  40    -0.102559068024E+04    0.95779E-03   -0.14132E-03  9124   0.183E-01    0.640E-01
DAV:  41    -0.102559113830E+04   -0.45807E-03   -0.17560E-03  9076   0.170E-01    0.570E-01
DAV:  42    -0.102559117749E+04   -0.39189E-04   -0.92487E-04  9060   0.148E-01    0.494E-01
DAV:  43    -0.102559075261E+04    0.42488E-03   -0.58502E-04  8956   0.120E-01    0.382E-01
DAV:  44    -0.102559067961E+04    0.72999E-04   -0.50672E-04  8868   0.993E-02    0.259E-01
DAV:  45    -0.102559085525E+04   -0.17564E-03   -0.35102E-04  8836   0.937E-02    0.206E-01
DAV:  46    -0.102559088423E+04   -0.28982E-04   -0.22138E-04  8820   0.694E-02    0.171E-01
DAV:  47    -0.102559096206E+04   -0.77832E-04   -0.21014E-04  9148   0.742E-02    0.164E-01
DAV:  48    -0.102559093795E+04    0.24112E-04   -0.18201E-04  8516   0.680E-02    0.116E-01
DAV:  49    -0.102559095181E+04   -0.13857E-04   -0.10954E-04  7892   0.526E-02    0.109E-01
DAV:  50    -0.102559095061E+04    0.12009E-05   -0.55659E-05  7308   0.403E-02    0.871E-02
DAV:  51    -0.102559095526E+04   -0.46515E-05   -0.40208E-05  6748   0.345E-02
  39 F= -.10999105E+04 E0= -.10997304E+04  d E =-.194055E+02
 trial-energy change:  -19.405492  1 .order  -20.390254  -29.506824  -11.273685
 step:   0.5733(harm=  0.5733)  dis= 0.45937  next Energy= -1104.380590 (dE=-0.239E+02)
 bond charge predicted
       N       E                     dE             d eps       ncg     rms          rms(c)
DAV:   1    -0.102124205041E+04    0.43489E+01   -0.36754E+03  7218   0.765E+01    0.241E+01
DAV:   2    -0.105343975709E+04   -0.32198E+02   -0.10485E+02  8820   0.250E+01    0.722E+01
DAV:   3    -0.106560045619E+04   -0.12161E+02   -0.40667E+01  8140   0.393E+01    0.773E+01
DAV:   4    -0.107423024643E+04   -0.86298E+01   -0.26135E+01  7836   0.480E+01    0.932E+01
DAV:   5    -0.104610115678E+04    0.28129E+02   -0.19851E+01  8284   0.376E+01    0.601E+01
DAV:   6    -0.104127701482E+04    0.48241E+01   -0.14906E+01  8964   0.266E+01    0.500E+01
DAV:   7    -0.104419557323E+04   -0.29186E+01   -0.12063E+01  8444   0.235E+01    0.710E+01
DAV:   8    -0.103524090174E+04    0.89547E+01   -0.70154E+00  8420   0.127E+01    0.273E+01
DAV:   9    -0.103348541404E+04    0.17555E+01   -0.54949E+00  8108   0.159E+01    0.284E+01
DAV:  10    -0.103504575147E+04   -0.15603E+01   -0.64365E+00  8476   0.152E+01    0.308E+01
DAV:  11    -0.103537220747E+04   -0.32646E+00   -0.58460E+00  8620   0.160E+01    0.307E+01
DAV:  12    -0.103291713056E+04    0.24551E+01   -0.36582E+00  8396   0.121E+01    0.211E+01
DAV:  13    -0.103223355381E+04    0.68358E+00   -0.26393E+00  8556   0.103E+01    0.212E+01
DAV:  14    -0.103150654444E+04    0.72701E+00   -0.20418E+00  8476   0.779E+00    0.160E+01
DAV:  15    -0.103125106558E+04    0.25548E+00   -0.18919E+00  8740   0.625E+00    0.135E+01
DAV:  16    -0.103067924101E+04    0.57182E+00   -0.76675E-01  8772   0.495E+00    0.719E+00
DAV:  17    -0.103059446291E+04    0.84778E-01   -0.36550E-01  8628   0.325E+00    0.566E+00
DAV:  18    -0.103055686990E+04    0.37593E-01   -0.24874E-01  8652   0.232E+00    0.524E+00
DAV:  19    -0.103060771265E+04   -0.50843E-01   -0.25928E-01  8676   0.233E+00    0.566E+00
DAV:  20    -0.103066207044E+04   -0.54358E-01   -0.22476E-01  8532   0.281E+00    0.648E+00
DAV:  21    -0.103058873581E+04    0.73335E-01   -0.21410E-01  8452   0.253E+00    0.495E+00
DAV:  22    -0.103061339065E+04   -0.24655E-01   -0.41505E-01  8436   0.193E+00    0.696E+00
DAV:  23    -0.103050191976E+04    0.11147E+00   -0.14676E-01  8700   0.152E+00    0.358E+00
DAV:  24    -0.103054740689E+04   -0.45487E-01   -0.13565E-01  8524   0.160E+00    0.384E+00
DAV:  25    -0.103051223866E+04    0.35168E-01   -0.65780E-02  8396   0.137E+00    0.217E+00
DAV:  26    -0.103050694216E+04    0.52965E-02   -0.22248E-02  8700   0.847E-01    0.131E+00
DAV:  27    -0.103050419222E+04    0.27499E-02   -0.96316E-03  8620   0.502E-01    0.990E-01
DAV:  28    -0.103050307625E+04    0.11160E-02   -0.58005E-03  9172   0.357E-01    0.678E-01
DAV:  29    -0.103050372196E+04   -0.64571E-03   -0.44301E-03  9172   0.325E-01    0.706E-01
DAV:  30    -0.103050301140E+04    0.71056E-03   -0.25839E-03  8700   0.287E-01    0.485E-01
DAV:  31    -0.103050307661E+04   -0.65210E-04   -0.19640E-03  9108   0.260E-01    0.440E-01
DAV:  32    -0.103050286163E+04    0.21499E-03   -0.12762E-03  8540   0.208E-01    0.350E-01
DAV:  33    -0.103050280361E+04    0.58017E-04   -0.10768E-03  8788   0.168E-01    0.349E-01
DAV:  34    -0.103050252790E+04    0.27571E-03   -0.64928E-04  8988   0.113E-01    0.205E-01
DAV:  35    -0.103050255265E+04   -0.24753E-04   -0.37301E-04  8444   0.814E-02    0.152E-01
DAV:  36    -0.103050259695E+04   -0.44302E-04   -0.25826E-04  8380   0.633E-02    0.144E-01
DAV:  37    -0.103050261442E+04   -0.17461E-04   -0.12719E-04  7396   0.503E-02    0.124E-01
DAV:  38    -0.103050261648E+04   -0.20638E-05   -0.92021E-05  7180   0.443E-02    0.964E-02
DAV:  39    -0.103050262262E+04   -0.61390E-05   -0.58889E-05  6636   0.336E-02    0.707E-02
DAV:  40    -0.103050263637E+04   -0.13751E-04   -0.37057E-05  6452   0.297E-02    0.539E-02
DAV:  41    -0.103050266100E+04   -0.24632E-04   -0.28814E-05  6388   0.260E-02    0.526E-02
DAV:  42    -0.103050267414E+04   -0.13141E-04   -0.20631E-05  5748   0.210E-02    0.372E-02
DAV:  43    -0.103050268444E+04   -0.10301E-04   -0.13270E-05  4956   0.161E-02    0.279E-02
DAV:  44    -0.103050269507E+04   -0.10622E-04   -0.89009E-06  4564   0.140E-02    0.271E-02
DAV:  45    -0.103050270160E+04   -0.65316E-05   -0.57654E-06  4204   0.108E-02    0.198E-02
DAV:  46    -0.103050270922E+04   -0.76205E-05   -0.36425E-06  4140   0.843E-03    0.192E-02
DAV:  47    -0.103050271699E+04   -0.77749E-05   -0.36241E-06  4188   0.758E-03    0.129E-02
DAV:  48    -0.103050272326E+04   -0.62666E-05   -0.23373E-06  4148   0.591E-03    0.905E-03
DAV:  49    -0.103050272971E+04   -0.64466E-05   -0.19829E-06  4164   0.519E-03    0.922E-03
DAV:  50    -0.103050273576E+04   -0.60513E-05   -0.16427E-06  4172   0.441E-03    0.966E-03
DAV:  51    -0.103050273891E+04   -0.31490E-05   -0.12955E-06  4052   0.383E-03
  40 F= -.11045590E+04 E0= -.11043819E+04  d E =-.240540E+02
 curvature:  -1.64 expect dE=-0.673E+02 dE for cont linesearch -0.471E+00
 ZBRENT: increasing intervall
 opt :   1.0114  next Energy= -1100.872482 (dE=-0.204E+02)
