 vasp.6.2.1 16May21 (build Jun 16 2021 03:23:30) complex                         
 executed on             LinuxPGI date 2022.04.24  18:32:47
 running on    1 total cores
 distrk:  each k-point on    1 cores,    1 groups
 distr:  one band on NCORE=   1 cores,    1 groups


--------------------------------------------------------------------------------------------------------


 INCAR:
   SYSTEM = NiAl
   ISTART = 0
   EDIFF = 1E-7
   NELMIN = 6
   ISIF = 1
   NSW = 40
   IBRION = 2
   POTIM = 0.2
   IVDW = 12
   LWAVE = .FALSE.
   LCHARG = .FALSE.
   LREAL = Auto
   NCORE = 1
   LPLANE = .TRUE.
   ENCUT = 360.00 eV
   ISMEAR = 0
   SIGMA = 0.05

 POTCAR:    PAW Al_GW 19Mar2012                   
 POTCAR:    PAW O_GW 19Mar2012                    
 POTCAR:    PAW Al_GW 19Mar2012                   
   VRHFIN =Al: s2p1                                                                                 
   LEXCH  = PE                                                                                      
   EATOM  =    53.5387 eV,    3.9350 Ry                                                             
                                                                                                    
   TITEL  = PAW Al_GW 19Mar2012                                                                     
   LULTRA =        F    use ultrasoft PP ?                                                          
   IUNSCR =        1    unscreen: 0-lin 1-nonlin 2-no                                               
   RPACOR =    1.500    partial core radius                                                         
   POMASS =   26.982; ZVAL   =    3.000    mass and valenz                                          
   RCORE  =    2.000    outmost cutoff radius                                                       
   RWIGS  =    2.000; RWIGS  =    1.058    wigner-seitz radius (au A)                               
   ENMAX  =  240.300; ENMIN  =  180.225 eV                                                          
   ICORE  =        3    local potential                                                             
   LCOR   =        T    correct aug charges                                                         
   LPAW   =        T    paw PP                                                                      
   EAUG   =  482.059                                                                                
   DEXC   =    0.000                                                                                
   RMAX   =    2.051    core radius for proj-oper                                                   
   RAUG   =    1.300    factor for augmentation sphere                                              
   RDEP   =    2.096    radius for radial grids                                                     
   RDEPT  =    1.856    core radius for aug-charge                                                  
                                                                                                    
   Atomic configuration                                                                             
    7 entries                                                                                       
     n  l   j            E        occ.                                                              
     1  0  0.50     -1511.1048   2.0000                                                             
     2  0  0.50      -108.1629   2.0000                                                             
     2  1  1.50       -69.6402   6.0000                                                             
     3  0  0.50        -7.7528   2.0000                                                             
     3  1  1.50        -2.7121   1.0000                                                             
     3  2  2.50        -2.7212   0.0000                                                             
     4  3  2.50        -2.7212   0.0000                                                             
   Description                                                                                      
     l       E           TYP  RCUT    TYP  RCUT                                                     
     0     -7.7528455     23  1.900                                                                 
     0     68.0291300     23  1.900                                                                 
     1     -2.7120682     23  1.900                                                                 
     1     68.0291300     23  1.900                                                                 
     2     -1.3605826     23  1.900                                                                 
     2     81.6349560     23  1.900                                                                 
     3     74.8320430     23  2.000                                                                 
  local pseudopotential read in
  partial core-charges read in
  partial kinetic energy density read in
  kinetic energy density of atom read in
  atomic valenz-charges read in
  non local Contribution for L=            0  read in
    real space projection operators read in
  non local Contribution for L=            0  read in
    real space projection operators read in
  non local Contribution for L=            1  read in
    real space projection operators read in
  non local Contribution for L=            1  read in
    real space projection operators read in
  non local Contribution for L=            2  read in
    real space projection operators read in
  non local Contribution for L=            2  read in
    real space projection operators read in
    PAW grid and wavefunctions read in
 
   number of l-projection  operators is LMAX  =            6
   number of lm-projection operators is LMMAX =           18
 
 POTCAR:    PAW O_GW 19Mar2012                    
   VRHFIN =O: s2p4                                                                                  
   LEXCH  = PE                                                                                      
   EATOM  =   432.3788 eV,   31.7789 Ry                                                             
                                                                                                    
   TITEL  = PAW O_GW 19Mar2012                                                                      
   LULTRA =        F    use ultrasoft PP ?                                                          
   IUNSCR =        1    unscreen: 0-lin 1-nonlin 2-no                                               
   RPACOR =    0.800    partial core radius                                                         
   POMASS =   16.000; ZVAL   =    6.000    mass and valenz                                          
   RCORE  =    1.600    outmost cutoff radius                                                       
   RWIGS  =    1.600; RWIGS  =    0.847    wigner-seitz radius (au A)                               
   ENMAX  =  434.431; ENMIN  =  325.824 eV                                                          
   ICORE  =        3    local potential                                                             
   LCOR   =        T    correct aug charges                                                         
   LPAW   =        T    paw PP                                                                      
   EAUG   = 1139.609                                                                                
   DEXC   =    0.000                                                                                
   RMAX   =    1.629    core radius for proj-oper                                                   
   RAUG   =    1.300    factor for augmentation sphere                                              
   RDEP   =    1.652    radius for radial grids                                                     
   RDEPT  =    1.200    core radius for aug-charge                                                  
                                                                                                    
   Atomic configuration                                                                             
    5 entries                                                                                       
     n  l   j            E        occ.                                                              
     1  0  0.50      -514.6923   2.0000                                                             
     2  0  0.50       -23.9615   2.0000                                                             
     2  1  0.50        -9.0305   4.0000                                                             
     3  2  1.50        -9.5241   0.0000                                                             
     4  3  2.50        -9.5241   0.0000                                                             
   Description                                                                                      
     l       E           TYP  RCUT    TYP  RCUT                                                     
     0    -23.9615316     23  1.150                                                                 
     0    -25.3221142     23  1.150                                                                 
     0    244.9048680     23  1.300                                                                 
     1     -9.0304908     23  1.500                                                                 
     1     -6.9258396     23  1.500                                                                 
     1    122.4524340     23  1.500                                                                 
     2     13.6058260     23  1.500                                                                 
     2    190.4815640     23  1.600                                                                 
     3     54.4233040     23  1.400                                                                 
  local pseudopotential read in
  partial core-charges read in
  partial kinetic energy density read in
  kinetic energy density of atom read in
  atomic valenz-charges read in
  non local Contribution for L=            0  read in
    real space projection operators read in
  non local Contribution for L=            0  read in
    real space projection operators read in
  non local Contribution for L=            0  read in
    real space projection operators read in
  non local Contribution for L=            1  read in
    real space projection operators read in
  non local Contribution for L=            1  read in
    real space projection operators read in
  non local Contribution for L=            1  read in
    real space projection operators read in
  non local Contribution for L=            2  read in
    real space projection operators read in
  non local Contribution for L=            2  read in
    real space projection operators read in
    PAW grid and wavefunctions read in
 
   number of l-projection  operators is LMAX  =            8
   number of lm-projection operators is LMMAX =           22
 
 Optimization of the real space projectors (new method)

 maximal supplied QI-value         = 18.90
 optimisation between [QCUT,QGAM] = [  9.64, 19.28] = [ 26.01,104.04] Ry 
 Optimized for a Real-space Cutoff    1.46 Angstroem

   l    n(q)    QCUT    max X(q) W(low)/X(q) W(high)/X(q)  e(spline) 
   0      8     9.638    11.519    0.10E-03    0.23E-03    0.86E-07
   0      8     9.638     5.834    0.72E-04    0.17E-03    0.68E-07
   1      8     9.638    10.132    0.33E-03    0.11E-03    0.32E-06
   1      8     9.638     3.004    0.25E-03    0.10E-03    0.24E-06
   2      7     9.638     3.169    0.30E-03    0.50E-03    0.35E-06
   2      7     9.638     1.607    0.15E-03    0.13E-03    0.12E-06
 Optimization of the real space projectors (new method)

 maximal supplied QI-value         = 23.62
 optimisation between [QCUT,QGAM] = [  9.68, 19.37] = [ 26.27,105.06] Ry 
 Optimized for a Real-space Cutoff    2.14 Angstroem

   l    n(q)    QCUT    max X(q) W(low)/X(q) W(high)/X(q)  e(spline) 
   0     13     9.685   116.464    0.15E-03    0.15E-03    0.47E-05
   0     13     9.685   116.329    0.15E-03    0.15E-03    0.46E-05
   0     13     9.685     0.942    0.20E-04    0.50E-04    0.17E-05
   1     12     9.685    29.046    0.36E-03    0.11E-02    0.25E-04
   1     12     9.685    24.247    0.38E-03    0.11E-02    0.26E-04
   1     12     9.685     2.381    0.13E-03    0.38E-03    0.78E-05
   2     12     9.685     2.237    0.60E-05    0.28E-04    0.14E-05
   2     12     9.685     1.850    0.17E-04    0.70E-04    0.25E-05
  PAW Al_GW 19Mar2012                   :
 energy of atom  1       EATOM=  -53.5387
 kinetic energy error for atom=    0.0006 (will be added to EATOM!!)
  PAW O_GW 19Mar2012                    :
 energy of atom  2       EATOM= -432.3788
 kinetic energy error for atom=    0.3913 (will be added to EATOM!!)
 
 
 POSCAR: al12 o18
  positions in direct lattice
  No initial velocities read in
 exchange correlation table for  LEXCH =        8
   RHO(1)=    0.500       N(1)  =     2000
   RHO(2)=  100.500       N(2)  =     4000

 VTST: version 4.1, (05/19/21)

 CHAIN: initializing optimizer
 
 OPT: Using VASP Conjugate-Gradient optimizer
 CHAIN: Read ICHAIN             0
 
 POSCAR: al12 o18
  positions in direct lattice
  No initial velocities read in
 


--------------------------------------------------------------------------------------------------------


 ion  position               nearest neighbor table
   1  0.000  0.000  0.148-  17 1.87  14 1.87  18 1.87  15 1.99  13 1.99  16 1.99
   2  0.333  0.667  0.019-  17 1.87  14 1.87  18 1.87  25 1.99  28 1.99  27 1.99
   3  0.333  0.667  0.315-  13 1.87  16 1.87  15 1.87  24 1.99  20 1.99  23 1.99
   4  0.667  0.333  0.185-  16 1.87  15 1.87  13 1.87  18 1.99  14 1.99  17 1.99
   5  0.667  0.333  0.481-  23 1.87  20 1.87  24 1.87  22 1.99  21 1.99  19 1.99
   6  0.000  0.000  0.352-  24 1.87  23 1.87  20 1.87  15 1.99  13 1.99  16 1.99
   7  0.000  0.000  0.648-  21 1.87  22 1.87  19 1.87  29 1.99  26 1.99  30 1.99
   8  0.333  0.667  0.519-  19 1.87  22 1.87  21 1.87  24 1.99  20 1.99  23 1.99
   9  0.333  0.667  0.815-  26 1.87  30 1.87  29 1.87  25 1.99  28 1.99  27 1.99
  10  0.667  0.333  0.685-  30 1.87  26 1.87  29 1.87  22 1.99  21 1.99  19 1.99
  11  0.667  0.333  0.981-  27 1.87  28 1.87  25 1.87  18 1.99  14 1.99  17 1.99
  12  0.000  0.000  0.852-  25 1.87  27 1.87  28 1.87  29 1.99  26 1.99  30 1.99
  13  0.306  0.000  0.250-   3 1.87   4 1.87   6 1.99   1 1.99
  14  0.667  0.027  0.083-   2 1.87   1 1.87  11 1.99   4 1.99
  15  1.000  0.306  0.250-   3 1.87   4 1.87   6 1.99   1 1.99
  16  0.694  0.694  0.250-   3 1.87   4 1.87   6 1.99   1 1.99
  17  0.973  0.639  0.083-   2 1.87   1 1.87  11 1.99   4 1.99
  18  0.361  0.333  0.083-   2 1.87   1 1.87  11 1.99   4 1.99
  19  0.973  0.333  0.583-   7 1.87   8 1.87   5 1.99  10 1.99
  20  0.333  0.361  0.417-   5 1.87   6 1.87   3 1.99   8 1.99
  21  0.667  0.639  0.583-   7 1.87   8 1.87   5 1.99  10 1.99
  22  0.361  0.027  0.583-   7 1.87   8 1.87   5 1.99  10 1.99
  23  0.639  0.973  0.417-   5 1.87   6 1.87   3 1.99   8 1.99
  24  0.027  0.667  0.417-   6 1.87   5 1.87   3 1.99   8 1.99
  25  0.639  0.667  0.917-  11 1.87  12 1.87   2 1.99   9 1.99
  26  0.000  0.694  0.750-   9 1.87  10 1.87  12 1.99   7 1.99
  27  0.333  0.973  0.917-  11 1.87  12 1.87   2 1.99   9 1.99
  28  0.027  0.361  0.917-  11 1.87  12 1.87   2 1.99   9 1.99
  29  0.306  0.306  0.750-   9 1.87  10 1.87  12 1.99   7 1.99
  30  0.694  0.000  0.750-   9 1.87  10 1.87  12 1.99   7 1.99
 
  LATTYP: Found a hexagonal cell.
 ALAT       =     4.8050279617
 C/A-ratio  =     2.7296935538
  
  Lattice vectors:
  
 A1 = (   4.8050279617,   0.0000000000,   0.0000000000)
 A2 = (  -2.4025139809,   4.1612762808,   0.0000000000)
 A3 = (   0.0000000000,   0.0000000000,  13.1162538528)


Analysis of symmetry for initial positions (statically):
=====================================================================
 Subroutine PRICEL returns following result:
 
  LATTYP: Found a trigonal (rhomboedric) cell.
 ALAT       =     5.1779557963
 COS(alpha) =     0.5694285031
  
  Lattice vectors:
  
 A1 = (   0.0000000481,  -2.7741842260,   4.3720850985)
 A2 = (   2.4025138847,   1.3870921713,   4.3720836557)
 A3 = (  -2.4025139328,   1.3870920548,   4.3720850985)
 
   3 primitive cells build up your supercell.
 

 Routine SETGRP: Setting up the symmetry group for a 
 hexagonal supercell.


 Subroutine GETGRP returns: Found 12 space group operations
 (whereof  6 operations were pure point group operations)
 out of a pool of 24 trial point group operations.


The static configuration has the point symmetry S_6 .
 The point group associated with its full space group is D_3d.


Analysis of symmetry for dynamics (positions and initial velocities):
=====================================================================
 Subroutine PRICEL returns following result:
 
  LATTYP: Found a trigonal (rhomboedric) cell.
 ALAT       =     5.1779557963
 COS(alpha) =     0.5694285031
  
  Lattice vectors:
  
 A1 = (   0.0000000481,  -2.7741842260,   4.3720850985)
 A2 = (   2.4025138847,   1.3870921713,   4.3720836557)
 A3 = (  -2.4025139328,   1.3870920548,   4.3720850985)
 
   3 primitive cells build up your supercell.
 

 Routine SETGRP: Setting up the symmetry group for a 
 hexagonal supercell.


 Subroutine GETGRP returns: Found 12 space group operations
 (whereof  6 operations were pure point group operations)
 out of a pool of 24 trial point group operations.


The dynamic configuration has the point symmetry S_6 .
 The point group associated with its full space group is D_3d.


 Subroutine INISYM returns: Found 12 space group operations
 (whereof  6 operations are pure point group operations),
 and found     3 'primitive' translations


----------------------------------------------------------------------------------------

                                     Primitive cell                                     

  volume of cell :      87.4200

  direct lattice vectors                    reciprocal lattice vectors
     0.000000048 -2.774184226  4.372085099     0.000000029 -0.240310872  0.076241281
     2.402513885  1.387092171  4.372083656     0.208115360  0.120155459  0.076241281
    -2.402513933  1.387092055  4.372085099    -0.208115320  0.120155452  0.076241281

  length of vectors
     5.177955796  5.177954533  5.177955743     0.252115148  0.252115193  0.252115157

  position of ions in fractional coordinates (direct lattice)
     0.147903991  0.147903991  0.147903991
     0.352095982  0.352095982  0.352095982
     0.647903946  0.647903946  0.647903946
     0.852096018  0.852096018  0.852096018
     0.250000042  0.556146047  0.943854012
     0.056146085  0.750000090  0.443854017
     0.943854138  0.250000122  0.556146070
     0.556146048  0.943854058  0.250000066
     0.443854092  0.056146147  0.750000054
     0.749999976  0.443853981  0.056145996

  ion indices of the primitive-cell ions
   primitive index   ion index
                 1           1
                 2           6
                 3           7
                 4          12
                 5          13
                 6          14
                 7          15
                 8          28
                 9          17
                10          24

----------------------------------------------------------------------------------------

 
 
 KPOINTS: Automatic generation                    

Automatic generation of k-mesh.
 Grid dimensions read from file:
 generate k-points for:    6    6    2

 Generating k-lattice:

  Cartesian coordinates                     Fractional coordinates (reciprocal lattice)
     0.034685889  0.020025907 -0.000000000     0.166666667  0.000000000  0.000000000
     0.000000000  0.040051815  0.000000000     0.000000000  0.166666667  0.000000000
     0.000000000 -0.000000000  0.038120641     0.000000000  0.000000000  0.500000000

  Length of vectors
     0.040051815  0.040051815  0.038120641

  Shift w.r.t. Gamma in fractional coordinates (k-lattice)
     0.000000000  0.000000000  0.000000000

 
 Subroutine IBZKPT returns following result:
 ===========================================
 
 Found     14 irreducible k-points:
 
 Following reciprocal coordinates:
            Coordinates               Weight
  0.000000  0.000000  0.000000      1.000000
  0.166667  0.000000  0.000000      6.000000
  0.333333  0.000000  0.000000      6.000000
  0.500000  0.000000  0.000000      3.000000
  0.166667  0.166667  0.000000      6.000000
  0.333333  0.166667  0.000000     12.000000
  0.333333  0.333333  0.000000      2.000000
  0.000000  0.000000  0.500000      1.000000
  0.166667  0.000000  0.500000      6.000000
  0.333333  0.000000  0.500000      6.000000
  0.500000  0.000000  0.500000      3.000000
  0.166667  0.166667  0.500000      6.000000
  0.333333  0.166667  0.500000     12.000000
  0.333333  0.333333  0.500000      2.000000
 
 Following cartesian coordinates:
            Coordinates               Weight
  0.000000  0.000000  0.000000      1.000000
  0.034686  0.020026  0.000000      6.000000
  0.069372  0.040052  0.000000      6.000000
  0.104058  0.060078  0.000000      3.000000
  0.034686  0.060078  0.000000      6.000000
  0.069372  0.080104  0.000000     12.000000
  0.069372  0.120155  0.000000      2.000000
  0.000000  0.000000  0.038121      1.000000
  0.034686  0.020026  0.038121      6.000000
  0.069372  0.040052  0.038121      6.000000
  0.104058  0.060078  0.038121      3.000000
  0.034686  0.060078  0.038121      6.000000
  0.069372  0.080104  0.038121     12.000000
  0.069372  0.120155  0.038121      2.000000
 


--------------------------------------------------------------------------------------------------------




 Dimension of arrays:
   k-points           NKPTS =     14   k-points in BZ     NKDIM =     14   number of bands    NBANDS=     88
   number of dos      NEDOS =    301   number of ions     NIONS =     30
   non local maximal  LDIM  =      8   non local SUM 2l+1 LMDIM =     22
   total plane-waves  NPLWV =  36864
   max r-space proj   IRMAX =   5796   max aug-charges    IRDMAX=   5670
   dimension x,y,z NGX =    24 NGY =   24 NGZ =   64
   dimension x,y,z NGXF=    48 NGYF=   48 NGZF=  128
   support grid    NGXF=    48 NGYF=   48 NGZF=  128
   ions per type =              12  18
   NGX,Y,Z   is equivalent  to a cutoff of   8.30,  8.30,  8.11 a.u.
   NGXF,Y,Z  is equivalent  to a cutoff of  16.61, 16.61, 16.22 a.u.

 SYSTEM =  NiAl                                    
 POSCAR =  al12 o18                                

 Startparameter for this run:
   NWRITE =      2    write-flag & timer
   PREC   = normal    normal or accurate (medium, high low for compatibility)
   ISTART =      0    job   : 0-new  1-cont  2-samecut
   ICHARG =      2    charge: 1-file 2-atom 10-const
   ISPIN  =      1    spin polarized calculation?
   LNONCOLLINEAR =      F non collinear calculations
   LSORBIT =      F    spin-orbit coupling
   INIWAV =      1    electr: 0-lowe 1-rand  2-diag
   LASPH  =      F    aspherical Exc in radial PAW
 Electronic Relaxation 1
   ENCUT  =  360.0 eV  26.46 Ry    5.14 a.u.   7.43  7.43 20.29*2*pi/ulx,y,z
   ENINI  =  360.0     initial cutoff
   ENAUG  = 1139.6 eV  augmentation charge cutoff
   NELM   =     60;   NELMIN=  6; NELMDL= -5     # of ELM steps 
   EDIFF  = 0.1E-06   stopping-criterion for ELM
   LREAL  =      T    real-space projection
   NLSPLINE    = F    spline interpolate recip. space projectors
   LCOMPAT=      F    compatible to vasp.4.4
   GGA_COMPAT  = T    GGA compatible to vasp.4.4-vasp.4.6
   LMAXPAW     = -100 max onsite density
   LMAXMIX     =    2 max onsite mixed and CHGCAR
   VOSKOWN=      0    Vosko Wilk Nusair interpolation
   ROPT   =   -0.00050  -0.00050
 Ionic relaxation
   EDIFFG = 0.1E-05   stopping-criterion for IOM
   NSW    =     40    number of steps for IOM
   NBLOCK =      1;   KBLOCK =     40    inner block; outer block 
   IBRION =      2    ionic relax: 0-MD 1-quasi-New 2-CG
   NFREE  =      1    steps in history (QN), initial steepest desc. (CG)
   ISIF   =      1    stress and relaxation
   IWAVPR =     11    prediction:  0-non 1-charg 2-wave 3-comb
   ISYM   =      2    0-nonsym 1-usesym 2-fastsym
   LCORR  =      T    Harris-Foulkes like correction to forces

   POTIM  = 0.2000    time-step for ionic-motion
   TEIN   =    0.0    initial temperature
   TEBEG  =    0.0;   TEEND  =   0.0 temperature during run
   SMASS  =  -3.00    Nose mass-parameter (am)
   estimated Nose-frequenzy (Omega)   =  0.10E-29 period in steps = 0.31E+47 mass=  -0.528E-27a.u.
   SCALEE = 1.0000    scale energy and forces
   NPACO  =    256;   APACO  = 16.0  distance and # of slots for P.C.
   PSTRESS=    0.0 pullay stress

  Mass of Ions in am
   POMASS =  26.98 16.00
  Ionic Valenz
   ZVAL   =   3.00  6.00
  Atomic Wigner-Seitz radii
   RWIGS  =  -1.00 -1.00
  virtual crystal weights 
   VCA    =   1.00  1.00
   NELECT =     144.0000    total number of electrons
   NUPDOWN=      -1.0000    fix difference up-down

 DOS related values:
   EMIN   =  10.00;   EMAX   =-10.00  energy-range for DOS
   EFERMI =   0.00
   ISMEAR =     0;   SIGMA  =   0.05  broadening in eV -4-tet -1-fermi 0-gaus

 Electronic relaxation 2 (details)
   IALGO  =     38    algorithm
   LDIAG  =      T    sub-space diagonalisation (order eigenvalues)
   LSUBROT=      F    optimize rotation matrix (better conditioning)
   TURBO    =      0    0=normal 1=particle mesh
   IRESTART =      0    0=no restart 2=restart with 2 vectors
   NREBOOT  =      0    no. of reboots
   NMIN     =      0    reboot dimension
   EREF     =   0.00    reference energy to select bands
   IMIX   =      4    mixing-type and parameters
     AMIX     =   0.40;   BMIX     =  1.00
     AMIX_MAG =   1.60;   BMIX_MAG =  1.00
     AMIN     =   0.10
     WC   =   100.;   INIMIX=   1;  MIXPRE=   1;  MAXMIX= -45

 Intra band minimization:
   WEIMIN = 0.0010     energy-eigenvalue tresh-hold
   EBREAK =  0.28E-09  absolut break condition
   DEPER  =   0.30     relativ break condition  

   TIME   =   0.40     timestep for ELM

  volume/ion in A,a.u.               =       8.74        58.99
  Fermi-wavevector in a.u.,A,eV,Ry     =   1.340556  2.533283 24.450892  1.797090
  Thomas-Fermi vector in A             =   2.468859
 
 Write flags
   LWAVE        =      F    write WAVECAR
   LDOWNSAMPLE  =      F    k-point downsampling of WAVECAR
   LCHARG       =      F    write CHGCAR
   LVTOT        =      F    write LOCPOT, total local potential
   LVHAR        =      F    write LOCPOT, Hartree potential only
   LELF         =      F    write electronic localiz. function (ELF)
   LORBIT       =      0    0 simple, 1 ext, 2 COOP (PROOUT), +10 PAW based schemes


 Dipole corrections
   LMONO  =      F    monopole corrections only (constant potential shift)
   LDIPOL =      F    correct potential (dipole corrections)
   IDIPOL =      0    1-x, 2-y, 3-z, 4-all directions 
   EPSILON=  1.0000000 bulk dielectric constant

 Exchange correlation treatment:
   GGA     =    --    GGA type
   LEXCH   =     8    internal setting for exchange type
   VOSKOWN=      0    Vosko Wilk Nusair interpolation
   LHFCALC =     F    Hartree Fock is set to
   LHFONE  =     F    Hartree Fock one center treatment
   AEXX    =    0.0000 exact exchange contribution

 Linear response parameters
   LEPSILON=     F    determine dielectric tensor
   LRPA    =     F    only Hartree local field effects (RPA)
   LNABLA  =     F    use nabla operator in PAW spheres
   LVEL    =     F    velocity operator in full k-point grid
   LINTERFAST=   F  fast interpolation
   KINTER  =     0    interpolate to denser k-point grid
   CSHIFT  =0.1000    complex shift for real part using Kramers Kronig
   OMEGAMAX=  -1.0    maximum frequency
   DEG_THRESHOLD= 0.2000000E-02 threshold for treating states as degnerate
   RTIME   =   -0.100 relaxation time in fs
  (WPLASMAI=    0.000 imaginary part of plasma frequency in eV, 0.658/RTIME)
   DFIELD  = 0.0000000 0.0000000 0.0000000 field for delta impulse in time
 
 Orbital magnetization related:
   ORBITALMAG=     F  switch on orbital magnetization
   LCHIMAG   =     F  perturbation theory with respect to B field
   DQ        =  0.001000  dq finite difference perturbation B field
   LLRAUG    =     F  two centre corrections for induced B field



--------------------------------------------------------------------------------------------------------


 conjugate gradient relaxation of ions
 charge density and potential will be updated during run
 non-spin polarized calculation
 Variant of blocked Davidson
 Davidson routine will perform the subspace rotation
 perform sub-space diagonalisation
    after iterative eigenvector-optimisation
 modified Broyden-mixing scheme, WC =      100.0
 initial mixing is a Kerker type mixing with AMIX =  0.4000 and BMIX =      1.0000
 Hartree-type preconditioning will be used
 using additional bands            16
 real space projection scheme for non local part
 use partial core corrections
 calculate Harris-corrections to forces 
   (improved forces if not selfconsistent)
 use gradient corrections 
 use of overlap-Matrix (Vanderbilt PP)
 Gauss-broadening in eV      SIGMA  =   0.05


--------------------------------------------------------------------------------------------------------


  energy-cutoff  :      360.00
  volume of cell :      262.26
      direct lattice vectors                 reciprocal lattice vectors
     4.805027962  0.000000000  0.000000000     0.208115334  0.120155444 -0.000000000
    -2.402513981  4.161276281  0.000000000     0.000000000  0.240310888  0.000000000
     0.000000000  0.000000000 13.116253853     0.000000000 -0.000000000  0.076241281

  length of vectors
     4.805027962  4.805027962 13.116253853     0.240310888  0.240310888  0.076241281


 
 k-points in units of 2pi/SCALE and weight: Automatic generation                    
   0.00000000  0.00000000  0.00000000       0.014
   0.03468589  0.02002591  0.00000000       0.083
   0.06937178  0.04005181  0.00000000       0.083
   0.10405767  0.06007772  0.00000000       0.042
   0.03468589  0.06007772  0.00000000       0.083
   0.06937178  0.08010363  0.00000000       0.167
   0.06937178  0.12015544  0.00000000       0.028
   0.00000000  0.00000000  0.03812064       0.014
   0.03468589  0.02002591  0.03812064       0.083
   0.06937178  0.04005181  0.03812064       0.083
   0.10405767  0.06007772  0.03812064       0.042
   0.03468589  0.06007772  0.03812064       0.083
   0.06937178  0.08010363  0.03812064       0.167
   0.06937178  0.12015544  0.03812064       0.028
 
 k-points in reciprocal lattice and weights: Automatic generation                    
   0.00000000  0.00000000  0.00000000       0.014
   0.16666667  0.00000000  0.00000000       0.083
   0.33333333  0.00000000  0.00000000       0.083
   0.50000000  0.00000000  0.00000000       0.042
   0.16666667  0.16666667  0.00000000       0.083
   0.33333333  0.16666667  0.00000000       0.167
   0.33333333  0.33333333  0.00000000       0.028
   0.00000000  0.00000000  0.50000000       0.014
   0.16666667  0.00000000  0.50000000       0.083
   0.33333333  0.00000000  0.50000000       0.083
   0.50000000  0.00000000  0.50000000       0.042
   0.16666667  0.16666667  0.50000000       0.083
   0.33333333  0.16666667  0.50000000       0.167
   0.33333333  0.33333333  0.50000000       0.028
 
 position of ions in fractional coordinates (direct lattice) 
   0.00000000  0.00000000  0.14790399
   0.33333333  0.66666668  0.01876267
   0.33333333  0.66666668  0.31457065
   0.66666667  0.33333334  0.18542933
   0.66666667  0.33333334  0.48123732
   0.00000000  0.00000000  0.35209598
   0.00000000  0.00000000  0.64790395
   0.33333333  0.66666668  0.51876265
   0.33333333  0.66666668  0.81457065
   0.66666667  0.33333334  0.68542932
   0.66666667  0.33333334  0.98123735
   0.00000000  0.00000000  0.85209602
   0.30614601  0.00000000  0.25000000
   0.66666668  0.02718733  0.08333332
   1.00000000  0.30614600  0.25000000
   0.69385398  0.69385399  0.25000000
   0.97281270  0.63947937  0.08333332
   0.36052066  0.33333334  0.08333332
   0.97281270  0.33333334  0.58333331
   0.33333334  0.36052068  0.41666665
   0.66666669  0.63947937  0.58333331
   0.36052065  0.02718733  0.58333331
   0.63947934  0.97281271  0.41666665
   0.02718733  0.66666668  0.41666665
   0.63947932  0.66666668  0.91666672
   0.00000001  0.69385399  0.75000002
   0.33333336  0.97281271  0.91666672
   0.02718733  0.36052068  0.91666672
   0.30614600  0.30614600  0.75000002
   0.69385397  0.00000000  0.75000002
 
 position of ions in cartesian coordinates  (Angst):
   0.00000000  0.00000000  1.93994629
  -0.00000005  2.77418423  0.24609596
  -0.00000005  2.77418423  4.12598849
   2.40251398  1.38709211  2.43213820
   2.40251398  1.38709211  6.31203079
   0.00000000  0.00000000  4.61818028
   0.00000000  0.00000000  8.49807263
  -0.00000005  2.77418423  6.80422258
  -0.00000005  2.77418423 10.68411541
   2.40251398  1.38709211  8.99026489
   2.40251398  1.38709211 12.87015820
   0.00000000  0.00000000 11.17630768
   1.47104013  0.00000000  3.27906346
   3.13803411  0.11313400  1.09302103
   4.06950790  1.27395809  3.27906346
   1.66699386  2.88731813  3.27906346
   3.13803411  2.66105032  1.09302103
   0.93147385  1.38709211  1.09302103
   3.87355423  1.38709211  7.65114784
   0.73552006  1.50022614  5.46510553
   1.66699398  2.66105032  7.65114784
   1.66699386  0.11313400  7.65114784
   0.73552000  4.04814243  5.46510553
  -1.47104013  2.77418423  5.46510553
   1.47104001  2.77418423 12.02323341
  -1.66699385  2.88731813  9.83719063
  -0.73552000  4.04814243 12.02323341
  -0.73552007  1.50022614 12.02323341
   0.73552006  1.27395809  9.83719063
   3.33398771  0.00000000  9.83719063
 


--------------------------------------------------------------------------------------------------------


 k-point   1 :   0.0000 0.0000 0.0000  plane waves:    4067
 k-point   2 :   0.1667 0.0000 0.0000  plane waves:    4091
 k-point   3 :   0.3333 0.0000 0.0000  plane waves:    4073
 k-point   4 :   0.5000 0.0000 0.0000  plane waves:    4064
 k-point   5 :   0.1667 0.1667 0.0000  plane waves:    4075
 k-point   6 :   0.3333 0.1667 0.0000  plane waves:    4057
 k-point   7 :   0.3333 0.3333 0.0000  plane waves:    4056
 k-point   8 :   0.0000 0.0000 0.5000  plane waves:    4096
 k-point   9 :   0.1667 0.0000 0.5000  plane waves:    4078
 k-point  10 :   0.3333 0.0000 0.5000  plane waves:    4074
 k-point  11 :   0.5000 0.0000 0.5000  plane waves:    4068
 k-point  12 :   0.1667 0.1667 0.5000  plane waves:    4082
 k-point  13 :   0.3333 0.1667 0.5000  plane waves:    4062
 k-point  14 :   0.3333 0.3333 0.5000  plane waves:    4050

 maximum and minimum number of plane-waves per node :      4096     4050

 maximum number of plane-waves:      4096
 maximum index in each direction: 
   IXMAX=    7   IYMAX=    7   IZMAX=   20
   IXMIN=   -7   IYMIN=   -7   IZMIN=  -20


 serial   3D FFT for wavefunctions
 parallel 3D FFT for charge:
    minimum data exchange during FFTs selected (reduces bandwidth)


 total amount of memory used by VASP MPI-rank0   177583. kBytes
=======================================================================

   base      :      30000. kBytes
   nonlr-proj:      25708. kBytes
   fftplans  :      10192. kBytes
   grid      :      18183. kBytes
   one-center:        696. kBytes
   wavefun   :      92804. kBytes
 
     INWAV:  cpu time    0.0001: real time    0.0002
 Broyden mixing: mesh for mixing (old mesh)
   NGX = 15   NGY = 15   NGZ = 41
  (NGX  = 48   NGY  = 48   NGZ  =128)
  gives a total of   9225 points

 initial charge density was supplied:
 charge density of overlapping atoms calculated
 number of electron     144.0000000 magnetization 
 keeping initial charge density in first step


--------------------------------------------------------------------------------------------------------


 Maximum index for non-local projection operator          5578
 Maximum index for augmentation-charges          5289 (set IRDMAX)


--------------------------------------------------------------------------------------------------------


 First call to EWALD:  gamma=   0.277
 Maximum number of real-space cells 4x 4x 2
 Maximum number of reciprocal cells 2x 2x 5

    FEWALD:  cpu time    0.0065: real time    0.0065


--------------------------------------- Iteration      1(   1)  ---------------------------------------


    POTLOK:  cpu time    0.0129: real time    0.0242
    SETDIJ:  cpu time    0.0459: real time    0.0459
     EDDAV:  cpu time    2.0344: real time    2.0347
       DOS:  cpu time    0.0014: real time    0.0014
    --------------------------------------------
      LOOP:  cpu time    2.0945: real time    2.1063

 eigenvalue-minimisations  :  2472
 total energy-change (2. order) : 0.8939939E+03  (-0.6182127E+04)
 number of electron     144.0000000 magnetization 
 augmentation part      144.0000000 magnetization 

 Free energy of the ion-electron system (eV)
  ---------------------------------------------------
  alpha Z        PSCENC =       243.67775989
  Ewald energy   TEWEN  =     -7125.17112741
  -Hartree energ DENC   =     -1939.55582295
  -exchange      EXHF   =         0.00000000
  -V(xc)+E(xc)   XCENC  =       168.72292616
  PAW double counting   =      7079.12904348    -6681.21407508
  entropy T*S    EENTRO =        -0.00933774
  eigenvalues    EBANDS =       730.18206400
  atomic energy  EATOM  =      8418.23244399
  Solvation  Ediel_sol  =         0.00000000
  ---------------------------------------------------
  free energy    TOTEN  =       893.99387434 eV

  energy without entropy =      894.00321208  energy(sigma->0) =      893.99854321


--------------------------------------------------------------------------------------------------------




--------------------------------------- Iteration      1(   2)  ---------------------------------------


     EDDAV:  cpu time    2.5063: real time    2.5068
       DOS:  cpu time    0.0007: real time    0.0007
    --------------------------------------------
      LOOP:  cpu time    2.5070: real time    2.5075

 eigenvalue-minimisations  :  3248
 total energy-change (2. order) :-0.1058430E+04  (-0.1023725E+04)
 number of electron     144.0000000 magnetization 
 augmentation part      144.0000000 magnetization 

 Free energy of the ion-electron system (eV)
  ---------------------------------------------------
  alpha Z        PSCENC =       243.67775989
  Ewald energy   TEWEN  =     -7125.17112741
  -Hartree energ DENC   =     -1939.55582295
  -exchange      EXHF   =         0.00000000
  -V(xc)+E(xc)   XCENC  =       168.72292616
  PAW double counting   =      7079.12904348    -6681.21407508
  entropy T*S    EENTRO =        -0.00000000
  eigenvalues    EBANDS =      -328.25724041
  atomic energy  EATOM  =      8418.23244399
  Solvation  Ediel_sol  =         0.00000000
  ---------------------------------------------------
  free energy    TOTEN  =      -164.43609233 eV

  energy without entropy =     -164.43609233  energy(sigma->0) =     -164.43609233


--------------------------------------------------------------------------------------------------------




--------------------------------------- Iteration      1(   3)  ---------------------------------------


     EDDAV:  cpu time    2.4894: real time    2.4899
       DOS:  cpu time    0.0007: real time    0.0007
    --------------------------------------------
      LOOP:  cpu time    2.4901: real time    2.4906

 eigenvalue-minimisations  :  3224
 total energy-change (2. order) :-0.7678329E+02  (-0.7626123E+02)
 number of electron     144.0000000 magnetization 
 augmentation part      144.0000000 magnetization 

 Free energy of the ion-electron system (eV)
  ---------------------------------------------------
  alpha Z        PSCENC =       243.67775989
  Ewald energy   TEWEN  =     -7125.17112741
  -Hartree energ DENC   =     -1939.55582295
  -exchange      EXHF   =         0.00000000
  -V(xc)+E(xc)   XCENC  =       168.72292616
  PAW double counting   =      7079.12904348    -6681.21407508
  entropy T*S    EENTRO =        -0.00000000
  eigenvalues    EBANDS =      -405.04052570
  atomic energy  EATOM  =      8418.23244399
  Solvation  Ediel_sol  =         0.00000000
  ---------------------------------------------------
  free energy    TOTEN  =      -241.21937762 eV

  energy without entropy =     -241.21937762  energy(sigma->0) =     -241.21937762


--------------------------------------------------------------------------------------------------------




--------------------------------------- Iteration      1(   4)  ---------------------------------------


     EDDAV:  cpu time    2.5576: real time    2.5580
       DOS:  cpu time    0.0007: real time    0.0007
    --------------------------------------------
      LOOP:  cpu time    2.5583: real time    2.5587

 eigenvalue-minimisations  :  3336
 total energy-change (2. order) :-0.2853200E+01  (-0.2844522E+01)
 number of electron     144.0000000 magnetization 
 augmentation part      144.0000000 magnetization 

 Free energy of the ion-electron system (eV)
  ---------------------------------------------------
  alpha Z        PSCENC =       243.67775989
  Ewald energy   TEWEN  =     -7125.17112741
  -Hartree energ DENC   =     -1939.55582295
  -exchange      EXHF   =         0.00000000
  -V(xc)+E(xc)   XCENC  =       168.72292616
  PAW double counting   =      7079.12904348    -6681.21407508
  entropy T*S    EENTRO =        -0.00000000
  eigenvalues    EBANDS =      -407.89372524
  atomic energy  EATOM  =      8418.23244399
  Solvation  Ediel_sol  =         0.00000000
  ---------------------------------------------------
  free energy    TOTEN  =      -244.07257716 eV

  energy without entropy =     -244.07257716  energy(sigma->0) =     -244.07257716


--------------------------------------------------------------------------------------------------------




--------------------------------------- Iteration      1(   5)  ---------------------------------------


     EDDAV:  cpu time    2.3919: real time    2.3924
       DOS:  cpu time    0.0007: real time    0.0007
    CHARGE:  cpu time    0.1370: real time    0.1370
    MIXING:  cpu time    0.0045: real time    0.0045
    --------------------------------------------
      LOOP:  cpu time    2.5342: real time    2.5346

 eigenvalue-minimisations  :  3072
 total energy-change (2. order) :-0.9208154E-01  (-0.9194963E-01)
 number of electron     143.9999893 magnetization 
 augmentation part       12.3117769 magnetization 

 Broyden mixing:
  rms(total) = 0.33624E+01    rms(broyden)= 0.33595E+01
  rms(prec ) = 0.38471E+01
  weight for this iteration     100.00

 Free energy of the ion-electron system (eV)
  ---------------------------------------------------
  alpha Z        PSCENC =       243.67775989
  Ewald energy   TEWEN  =     -7125.17112741
  -Hartree energ DENC   =     -1939.55582295
  -exchange      EXHF   =         0.00000000
  -V(xc)+E(xc)   XCENC  =       168.72292616
  PAW double counting   =      7079.12904348    -6681.21407508
  entropy T*S    EENTRO =        -0.00000000
  eigenvalues    EBANDS =      -407.98580678
  atomic energy  EATOM  =      8418.23244399
  Solvation  Ediel_sol  =         0.00000000
  ---------------------------------------------------
  free energy    TOTEN  =      -244.16465870 eV

  energy without entropy =     -244.16465870  energy(sigma->0) =     -244.16465870


--------------------------------------------------------------------------------------------------------




--------------------------------------- Iteration      1(   6)  ---------------------------------------


    POTLOK:  cpu time    0.0062: real time    0.0062
    SETDIJ:  cpu time    0.0460: real time    0.0460
     EDDAV:  cpu time    2.6988: real time    2.6993
       DOS:  cpu time    0.0007: real time    0.0007
    CHARGE:  cpu time    0.1338: real time    0.1338
    MIXING:  cpu time    0.0039: real time    0.0039
    --------------------------------------------
      LOOP:  cpu time    2.8894: real time    2.8899

 eigenvalue-minimisations  :  3560
 total energy-change (2. order) : 0.2210414E+02  (-0.9508350E+01)
 number of electron     143.9999912 magnetization 
 augmentation part       10.0412564 magnetization 

 Broyden mixing:
  rms(total) = 0.27830E+01    rms(broyden)= 0.27828E+01
  rms(prec ) = 0.28110E+01
  weight for this iteration     100.00

 eigenvalues of (default mixing * dielectric matrix)
  average eigenvalue GAMMA=   0.6753
  0.6753

 Free energy of the ion-electron system (eV)
  ---------------------------------------------------
  alpha Z        PSCENC =       243.67775989
  Ewald energy   TEWEN  =     -7125.17112741
  -Hartree energ DENC   =     -2212.73836646
  -exchange      EXHF   =         0.00000000
  -V(xc)+E(xc)   XCENC  =       187.77152333
  PAW double counting   =      8965.61963050    -8568.91422605
  entropy T*S    EENTRO =        -0.00000000
  eigenvalues    EBANDS =      -130.53815687
  atomic energy  EATOM  =      8418.23244399
  Solvation  Ediel_sol  =         0.00000000
  ---------------------------------------------------
  free energy    TOTEN  =      -222.06051908 eV

  energy without entropy =     -222.06051908  energy(sigma->0) =     -222.06051908


--------------------------------------------------------------------------------------------------------




--------------------------------------- Iteration      1(   7)  ---------------------------------------


    POTLOK:  cpu time    0.0056: real time    0.0056
    SETDIJ:  cpu time    0.0456: real time    0.0456
     EDDAV:  cpu time    2.4409: real time    2.4413
       DOS:  cpu time    0.0007: real time    0.0007
    CHARGE:  cpu time    0.1353: real time    0.1353
    MIXING:  cpu time    0.0047: real time    0.0047
    --------------------------------------------
      LOOP:  cpu time    2.6327: real time    2.6331

 eigenvalue-minimisations  :  3152
 total energy-change (2. order) : 0.1275058E+00  (-0.1467979E+00)
 number of electron     143.9999913 magnetization 
 augmentation part        9.9893748 magnetization 

 Broyden mixing:
  rms(total) = 0.20956E+01    rms(broyden)= 0.20956E+01
  rms(prec ) = 0.21134E+01
  weight for this iteration     100.00

 eigenvalues of (default mixing * dielectric matrix)
  average eigenvalue GAMMA=   1.9741
  1.0525  2.8957

 Free energy of the ion-electron system (eV)
  ---------------------------------------------------
  alpha Z        PSCENC =       243.67775989
  Ewald energy   TEWEN  =     -7125.17112741
  -Hartree energ DENC   =     -2230.68905693
  -exchange      EXHF   =         0.00000000
  -V(xc)+E(xc)   XCENC  =       189.49556360
  PAW double counting   =     10352.62801088    -9956.86743118
  entropy T*S    EENTRO =        -0.00000000
  eigenvalues    EBANDS =      -113.23917609
  atomic energy  EATOM  =      8418.23244399
  Solvation  Ediel_sol  =         0.00000000
  ---------------------------------------------------
  free energy    TOTEN  =      -221.93301324 eV

  energy without entropy =     -221.93301324  energy(sigma->0) =     -221.93301324


--------------------------------------------------------------------------------------------------------




--------------------------------------- Iteration      1(   8)  ---------------------------------------


    POTLOK:  cpu time    0.0061: real time    0.0061
    SETDIJ:  cpu time    0.0456: real time    0.0456
     EDDAV:  cpu time    2.2850: real time    2.2854
       DOS:  cpu time    0.0007: real time    0.0007
    CHARGE:  cpu time    0.1335: real time    0.1335
    MIXING:  cpu time    0.0044: real time    0.0043
    --------------------------------------------
      LOOP:  cpu time    2.4752: real time    2.4757

 eigenvalue-minimisations  :  2904
 total energy-change (2. order) : 0.2558213E-01  (-0.6418350E-01)
 number of electron     143.9999912 magnetization 
 augmentation part       10.1003521 magnetization 

 Broyden mixing:
  rms(total) = 0.39013E+00    rms(broyden)= 0.39012E+00
  rms(prec ) = 0.39453E+00
  weight for this iteration     100.00

 eigenvalues of (default mixing * dielectric matrix)
  average eigenvalue GAMMA=   1.4835
  2.5388  0.9559  0.9559

 Free energy of the ion-electron system (eV)
  ---------------------------------------------------
  alpha Z        PSCENC =       243.67775989
  Ewald energy   TEWEN  =     -7125.17112741
  -Hartree energ DENC   =     -2250.96448095
  -exchange      EXHF   =         0.00000000
  -V(xc)+E(xc)   XCENC  =       192.49578684
  PAW double counting   =     14549.48360283   -14156.50717085
  entropy T*S    EENTRO =        -0.00000000
  eigenvalues    EBANDS =       -93.15424546
  atomic energy  EATOM  =      8418.23244399
  Solvation  Ediel_sol  =         0.00000000
  ---------------------------------------------------
  free energy    TOTEN  =      -221.90743111 eV

  energy without entropy =     -221.90743111  energy(sigma->0) =     -221.90743111


--------------------------------------------------------------------------------------------------------




--------------------------------------- Iteration      1(   9)  ---------------------------------------


    POTLOK:  cpu time    0.0056: real time    0.0056
    SETDIJ:  cpu time    0.0457: real time    0.0457
     EDDAV:  cpu time    2.6981: real time    2.6986
       DOS:  cpu time    0.0008: real time    0.0008
    CHARGE:  cpu time    0.1353: real time    0.1353
    MIXING:  cpu time    0.0052: real time    0.0052
    --------------------------------------------
      LOOP:  cpu time    2.8906: real time    2.8911

 eigenvalue-minimisations  :  3560
 total energy-change (2. order) : 0.2245846E-01  (-0.7856615E-02)
 number of electron     143.9999913 magnetization 
 augmentation part       10.0340536 magnetization 

 Broyden mixing:
  rms(total) = 0.62173E-01    rms(broyden)= 0.62160E-01
  rms(prec ) = 0.63205E-01
  weight for this iteration     100.00

 eigenvalues of (default mixing * dielectric matrix)
  average eigenvalue GAMMA=   1.5006
  2.6050  1.1239  1.1239  1.1496

 Free energy of the ion-electron system (eV)
  ---------------------------------------------------
  alpha Z        PSCENC =       243.67775989
  Ewald energy   TEWEN  =     -7125.17112741
  -Hartree energ DENC   =     -2254.91612002
  -exchange      EXHF   =         0.00000000
  -V(xc)+E(xc)   XCENC  =       192.57754503
  PAW double counting   =     14039.32522246   -13646.02759582
  entropy T*S    EENTRO =        -0.00000000
  eigenvalues    EBANDS =       -89.58310077
  atomic energy  EATOM  =      8418.23244399
  Solvation  Ediel_sol  =         0.00000000
  ---------------------------------------------------
  free energy    TOTEN  =      -221.88497266 eV

  energy without entropy =     -221.88497266  energy(sigma->0) =     -221.88497266


--------------------------------------------------------------------------------------------------------




--------------------------------------- Iteration      1(  10)  ---------------------------------------


    POTLOK:  cpu time    0.0062: real time    0.0062
    SETDIJ:  cpu time    0.0456: real time    0.0457
     EDDAV:  cpu time    2.2996: real time    2.2999
       DOS:  cpu time    0.0007: real time    0.0007
    CHARGE:  cpu time    0.1337: real time    0.1338
    MIXING:  cpu time    0.0047: real time    0.0047
    --------------------------------------------
      LOOP:  cpu time    2.4905: real time    2.4909

 eigenvalue-minimisations  :  2928
 total energy-change (2. order) :-0.2100306E-02  (-0.2446302E-03)
 number of electron     143.9999913 magnetization 
 augmentation part       10.0332702 magnetization 

 Broyden mixing:
  rms(total) = 0.34018E-01    rms(broyden)= 0.34016E-01
  rms(prec ) = 0.34552E-01
  weight for this iteration     100.00

 eigenvalues of (default mixing * dielectric matrix)
  average eigenvalue GAMMA=   1.6323
  2.8101  2.4275  0.9951  0.9951  0.9339

 Free energy of the ion-electron system (eV)
  ---------------------------------------------------
  alpha Z        PSCENC =       243.67775989
  Ewald energy   TEWEN  =     -7125.17112741
  -Hartree energ DENC   =     -2255.48175355
  -exchange      EXHF   =         0.00000000
  -V(xc)+E(xc)   XCENC  =       192.63217781
  PAW double counting   =     14044.62336771   -13651.29791700
  entropy T*S    EENTRO =        -0.00000000
  eigenvalues    EBANDS =       -89.10202439
  atomic energy  EATOM  =      8418.23244399
  Solvation  Ediel_sol  =         0.00000000
  ---------------------------------------------------
  free energy    TOTEN  =      -221.88707296 eV

  energy without entropy =     -221.88707296  energy(sigma->0) =     -221.88707296


--------------------------------------------------------------------------------------------------------




--------------------------------------- Iteration      1(  11)  ---------------------------------------


    POTLOK:  cpu time    0.0054: real time    0.0054
    SETDIJ:  cpu time    0.0460: real time    0.0460
     EDDAV:  cpu time    2.2852: real time    2.2856
       DOS:  cpu time    0.0007: real time    0.0007
    CHARGE:  cpu time    0.1353: real time    0.1353
    MIXING:  cpu time    0.0059: real time    0.0059
    --------------------------------------------
      LOOP:  cpu time    2.4784: real time    2.4789

 eigenvalue-minimisations  :  2904
 total energy-change (2. order) :-0.5237957E-03  (-0.1260775E-03)
 number of electron     143.9999913 magnetization 
 augmentation part       10.0286476 magnetization 

 Broyden mixing:
  rms(total) = 0.52749E-02    rms(broyden)= 0.52641E-02
  rms(prec ) = 0.53956E-02
  weight for this iteration     100.00

 eigenvalues of (default mixing * dielectric matrix)
  average eigenvalue GAMMA=   1.6339
  2.8479  2.4123  1.3852  1.1036  1.0273  1.0273

 Free energy of the ion-electron system (eV)
  ---------------------------------------------------
  alpha Z        PSCENC =       243.67775989
  Ewald energy   TEWEN  =     -7125.17112741
  -Hartree energ DENC   =     -2256.18430994
  -exchange      EXHF   =         0.00000000
  -V(xc)+E(xc)   XCENC  =       192.67835836
  PAW double counting   =     14010.59199589   -13617.22512388
  entropy T*S    EENTRO =        -0.00000000
  eigenvalues    EBANDS =       -88.48759366
  atomic energy  EATOM  =      8418.23244399
  Solvation  Ediel_sol  =         0.00000000
  ---------------------------------------------------
  free energy    TOTEN  =      -221.88759676 eV

  energy without entropy =     -221.88759676  energy(sigma->0) =     -221.88759676


--------------------------------------------------------------------------------------------------------




--------------------------------------- Iteration      1(  12)  ---------------------------------------


    POTLOK:  cpu time    0.0060: real time    0.0060
    SETDIJ:  cpu time    0.0457: real time    0.0457
     EDDAV:  cpu time    2.3099: real time    2.3103
       DOS:  cpu time    0.0007: real time    0.0007
    CHARGE:  cpu time    0.1333: real time    0.1333
    MIXING:  cpu time    0.0054: real time    0.0055
    --------------------------------------------
      LOOP:  cpu time    2.5010: real time    2.5015

 eigenvalue-minimisations  :  2944
 total energy-change (2. order) : 0.6629418E-05  (-0.6546568E-05)
 number of electron     143.9999913 magnetization 
 augmentation part       10.0285104 magnetization 

 Broyden mixing:
  rms(total) = 0.25010E-02    rms(broyden)= 0.24820E-02
  rms(prec ) = 0.25141E-02
  weight for this iteration     100.00

 eigenvalues of (default mixing * dielectric matrix)
  average eigenvalue GAMMA=   1.5720
  2.8908  2.4529  1.3788  1.3788  1.0117  1.0117  0.8790

 Free energy of the ion-electron system (eV)
  ---------------------------------------------------
  alpha Z        PSCENC =       243.67775989
  Ewald energy   TEWEN  =     -7125.17112741
  -Hartree energ DENC   =     -2256.19944426
  -exchange      EXHF   =         0.00000000
  -V(xc)+E(xc)   XCENC  =       192.67824626
  PAW double counting   =     14011.48180848   -13618.11964511
  entropy T*S    EENTRO =        -0.00000000
  eigenvalues    EBANDS =       -88.46763198
  atomic energy  EATOM  =      8418.23244399
  Solvation  Ediel_sol  =         0.00000000
  ---------------------------------------------------
  free energy    TOTEN  =      -221.88759013 eV

  energy without entropy =     -221.88759013  energy(sigma->0) =     -221.88759013


--------------------------------------------------------------------------------------------------------




--------------------------------------- Iteration      1(  13)  ---------------------------------------


    POTLOK:  cpu time    0.0056: real time    0.0057
    SETDIJ:  cpu time    0.0457: real time    0.0457
     EDDAV:  cpu time    2.4692: real time    2.4696
       DOS:  cpu time    0.0007: real time    0.0007
    CHARGE:  cpu time    0.1331: real time    0.1331
    MIXING:  cpu time    0.0057: real time    0.0057
    --------------------------------------------
      LOOP:  cpu time    2.6602: real time    2.6606

 eigenvalue-minimisations  :  3200
 total energy-change (2. order) : 0.4988474E-06  (-0.6194824E-06)
 number of electron     143.9999913 magnetization 
 augmentation part       10.0286498 magnetization 

 Broyden mixing:
  rms(total) = 0.14842E-02    rms(broyden)= 0.14532E-02
  rms(prec ) = 0.14689E-02
  weight for this iteration     100.00

 eigenvalues of (default mixing * dielectric matrix)
  average eigenvalue GAMMA=   1.5697
  2.7842  2.4262  1.9428  1.0144  1.0144  1.0396  1.1682  1.1682

 Free energy of the ion-electron system (eV)
  ---------------------------------------------------
  alpha Z        PSCENC =       243.67775989
  Ewald energy   TEWEN  =     -7125.17112741
  -Hartree energ DENC   =     -2256.17548443
  -exchange      EXHF   =         0.00000000
  -V(xc)+E(xc)   XCENC  =       192.67618734
  PAW double counting   =     14010.78569839   -13617.42430587
  entropy T*S    EENTRO =        -0.00000000
  eigenvalues    EBANDS =       -88.48876152
  atomic energy  EATOM  =      8418.23244399
  Solvation  Ediel_sol  =         0.00000000
  ---------------------------------------------------
  free energy    TOTEN  =      -221.88758963 eV

  energy without entropy =     -221.88758963  energy(sigma->0) =     -221.88758963


--------------------------------------------------------------------------------------------------------




--------------------------------------- Iteration      1(  14)  ---------------------------------------


    POTLOK:  cpu time    0.0056: real time    0.0056
    SETDIJ:  cpu time    0.0459: real time    0.0459
     EDDAV:  cpu time    2.3303: real time    2.3307
       DOS:  cpu time    0.0007: real time    0.0007
    CHARGE:  cpu time    0.1336: real time    0.1336
    MIXING:  cpu time    0.0060: real time    0.0060
    --------------------------------------------
      LOOP:  cpu time    2.5220: real time    2.5224

 eigenvalue-minimisations  :  2976
 total energy-change (2. order) : 0.1594587E-05  (-0.9834938E-07)
 number of electron     143.9999913 magnetization 
 augmentation part       10.0288323 magnetization 

 Broyden mixing:
  rms(total) = 0.52472E-03    rms(broyden)= 0.42916E-03
  rms(prec ) = 0.43626E-03
  weight for this iteration     100.00
  WARNING: grid for Broyden might be to small

 eigenvalues of (default mixing * dielectric matrix)
  average eigenvalue GAMMA=   1.6418
  2.7942  2.7942  2.4075  1.4411  1.4411  1.0206  1.0206  0.8683  0.9886

 Free energy of the ion-electron system (eV)
  ---------------------------------------------------
  alpha Z        PSCENC =       243.67775989
  Ewald energy   TEWEN  =     -7125.17112741
  -Hartree energ DENC   =     -2256.15535365
  -exchange      EXHF   =         0.00000000
  -V(xc)+E(xc)   XCENC  =       192.67443856
  PAW double counting   =     14010.88702461   -13617.52760726
  entropy T*S    EENTRO =        -0.00000000
  eigenvalues    EBANDS =       -88.50516676
  atomic energy  EATOM  =      8418.23244399
  Solvation  Ediel_sol  =         0.00000000
  ---------------------------------------------------
  free energy    TOTEN  =      -221.88758803 eV

  energy without entropy =     -221.88758803  energy(sigma->0) =     -221.88758803


--------------------------------------------------------------------------------------------------------




--------------------------------------- Iteration      1(  15)  ---------------------------------------


    POTLOK:  cpu time    0.0055: real time    0.0055
    SETDIJ:  cpu time    0.0467: real time    0.0467
     EDDAV:  cpu time    1.8699: real time    1.8702
       DOS:  cpu time    0.0007: real time    0.0007
    CHARGE:  cpu time    0.1349: real time    0.1349
    MIXING:  cpu time    0.0074: real time    0.0074
    --------------------------------------------
      LOOP:  cpu time    2.0652: real time    2.0656

 eigenvalue-minimisations  :  2176
 total energy-change (2. order) : 0.8149491E-06  (-0.1785827E-07)
 number of electron     143.9999913 magnetization 
 augmentation part       10.0288268 magnetization 

 Broyden mixing:
  rms(total) = 0.31474E-03    rms(broyden)= 0.89052E-04
  rms(prec ) = 0.91043E-04
  weight for this iteration     100.00
  WARNING: grid for Broyden might be to small

 eigenvalues of (default mixing * dielectric matrix)
  average eigenvalue GAMMA=   1.6561
  3.0775  2.6002  2.4538  1.6909  1.6909  1.0179  1.0179  0.8870  1.1061  1.0190

 Free energy of the ion-electron system (eV)
  ---------------------------------------------------
  alpha Z        PSCENC =       243.67775989
  Ewald energy   TEWEN  =     -7125.17112741
  -Hartree energ DENC   =     -2256.16174880
  -exchange      EXHF   =         0.00000000
  -V(xc)+E(xc)   XCENC  =       192.67472012
  PAW double counting   =     14010.86744490   -13617.50909678
  entropy T*S    EENTRO =        -0.00000000
  eigenvalues    EBANDS =       -88.49798314
  atomic energy  EATOM  =      8418.23244399
  Solvation  Ediel_sol  =         0.00000000
  ---------------------------------------------------
  free energy    TOTEN  =      -221.88758722 eV

  energy without entropy =     -221.88758722  energy(sigma->0) =     -221.88758722


--------------------------------------------------------------------------------------------------------




--------------------------------------- Iteration      1(  16)  ---------------------------------------


    POTLOK:  cpu time    0.0062: real time    0.0062
    SETDIJ:  cpu time    0.0462: real time    0.0462
     EDDAV:  cpu time    1.6995: real time    1.6998
       DOS:  cpu time    0.0007: real time    0.0007
    --------------------------------------------
      LOOP:  cpu time    1.7525: real time    1.7528

 eigenvalue-minimisations  :  1880
 total energy-change (2. order) : 0.2294246E-07  (-0.1321304E-08)
 number of electron     143.9999913 magnetization 
 augmentation part       10.0288268 magnetization 

 Free energy of the ion-electron system (eV)
  ---------------------------------------------------
  alpha Z        PSCENC =       243.67775989
  Ewald energy   TEWEN  =     -7125.17112741
  -Hartree energ DENC   =     -2256.16173228
  -exchange      EXHF   =         0.00000000
  -V(xc)+E(xc)   XCENC  =       192.67473933
  PAW double counting   =     14010.96855715   -13617.61028162
  entropy T*S    EENTRO =        -0.00000000
  eigenvalues    EBANDS =       -88.49794625
  atomic energy  EATOM  =      8418.23244399
  Solvation  Ediel_sol  =         0.00000000
  ---------------------------------------------------
  free energy    TOTEN  =      -221.88758720 eV

  energy without entropy =     -221.88758720  energy(sigma->0) =     -221.88758720


--------------------------------------------------------------------------------------------------------




 average (electrostatic) potential at core
  the test charge radii are     1.0406  0.6768
  (the norm of the test charge is              1.0000)
       1 -49.3593       2 -49.3594       3 -49.3593       4 -49.3593       5 -49.3593
       6 -49.3593       7 -49.3592       8 -49.3593       9 -49.3592      10 -49.3592
      11 -49.3594      12 -49.3593      13-112.9009      14-112.9009      15-112.9009
      16-112.9009      17-112.9009      18-112.9009      19-112.9008      20-112.9008
      21-112.9008      22-112.9008      23-112.9008      24-112.9008      25-112.9008
      26-112.9008      27-112.9008      28-112.9008      29-112.9008      30-112.9008
 
 
 
 E-fermi :   6.0108     XC(G=0): -11.5543     alpha+bet :-16.2270

 Fermi energy:         6.0108409890

 k-point     1 :       0.0000    0.0000    0.0000
  band No.  band energies     occupation 
      1     -13.4086      2.00000
      2     -12.9636      2.00000
      3     -12.9636      2.00000
      4     -11.8857      2.00000
      5     -11.8856      2.00000
      6     -11.2002      2.00000
      7     -10.9333      2.00000
      8     -10.9333      2.00000
      9     -10.8702      2.00000
     10     -10.8702      2.00000
     11     -10.8702      2.00000
     12     -10.8702      2.00000
     13     -10.7179      2.00000
     14     -10.7179      2.00000
     15     -10.7179      2.00000
     16     -10.7179      2.00000
     17     -10.6263      2.00000
     18     -10.6263      2.00000
     19      -1.0999      2.00000
     20      -0.1316      2.00000
     21      -0.0892      2.00000
     22      -0.0892      2.00000
     23       0.2591      2.00000
     24       0.2591      2.00000
     25       0.3322      2.00000
     26       0.3322      2.00000
     27       0.5749      2.00000
     28       0.5749      2.00000
     29       0.7311      2.00000
     30       0.7312      2.00000
     31       0.7312      2.00000
     32       0.7312      2.00000
     33       1.3489      2.00000
     34       1.5024      2.00000
     35       1.5024      2.00000
     36       1.9046      2.00000
     37       1.9046      2.00000
     38       1.9046      2.00000
     39       1.9046      2.00000
     40       2.4918      2.00000
     41       2.7685      2.00000
     42       2.7686      2.00000
     43       2.7924      2.00000
     44       3.0520      2.00000
     45       3.0520      2.00000
     46       3.2613      2.00000
     47       3.2613      2.00000
     48       3.2614      2.00000
     49       3.2614      2.00000
     50       4.0651      2.00000
     51       4.0651      2.00000
     52       4.3230      2.00000
     53       4.3231      2.00000
     54       4.3777      2.00000
     55       4.3777      2.00000
     56       4.3777      2.00000
     57       4.3777      2.00000
     58       4.4569      2.00000
     59       4.4571      2.00000
     60       5.1996      2.00000
     61       5.1996      2.00000
     62       5.2000      2.00000
     63       5.2000      2.00000
     64       5.2186      2.00000
     65       5.2189      2.00000
     66       5.4948      2.00000
     67       5.4948      2.00000
     68       5.4952      2.00000
     69       5.4953      2.00000
     70       5.6639      2.00000
     71       5.6645      2.00000
     72       5.7843      2.00000
     73      11.4951      0.00000
     74      13.0532      0.00000
     75      13.0533      0.00000
     76      14.5226      0.00000
     77      14.5226      0.00000
     78      14.5734      0.00000
     79      16.0526      0.00000
     80      16.0526      0.00000
     81      16.0866      0.00000
     82      16.9403      0.00000
     83      16.9410      0.00000
     84      17.0429      0.00000
     85      17.0437      0.00000
     86      17.1569      0.00000
     87      17.6051      0.00000
     88      17.6563      0.00000

 k-point     2 :       0.1667    0.0000    0.0000
  band No.  band energies     occupation 
      1     -13.2861      2.00000
      2     -12.8523      2.00000
      3     -12.8502      2.00000
      4     -11.8263      2.00000
      5     -11.8118      2.00000
      6     -11.2393      2.00000
      7     -11.1444      2.00000
      8     -11.0690      2.00000
      9     -10.9918      2.00000
     10     -10.9858      2.00000
     11     -10.9562      2.00000
     12     -10.8955      2.00000
     13     -10.8088      2.00000
     14     -10.7705      2.00000
     15     -10.6686      2.00000
     16     -10.6604      2.00000
     17     -10.6062      2.00000
     18     -10.6022      2.00000
     19      -0.9858      2.00000
     20      -0.3935      2.00000
     21      -0.1741      2.00000
     22      -0.0393      2.00000
     23       0.0143      2.00000
     24       0.1127      2.00000
     25       0.1174      2.00000
     26       0.1392      2.00000
     27       0.3498      2.00000
     28       0.8406      2.00000
     29       0.8596      2.00000
     30       1.0367      2.00000
     31       1.0956      2.00000
     32       1.2085      2.00000
     33       1.2835      2.00000
     34       1.3442      2.00000
     35       1.8213      2.00000
     36       1.8796      2.00000
     37       2.0243      2.00000
     38       2.1433      2.00000
     39       2.3445      2.00000
     40       2.6318      2.00000
     41       2.6791      2.00000
     42       2.9972      2.00000
     43       3.0822      2.00000
     44       3.1104      2.00000
     45       3.1236      2.00000
     46       3.2845      2.00000
     47       3.3999      2.00000
     48       3.6038      2.00000
     49       3.7409      2.00000
     50       3.8881      2.00000
     51       4.0015      2.00000
     52       4.0568      2.00000
     53       4.0606      2.00000
     54       4.0785      2.00000
     55       4.3290      2.00000
     56       4.3347      2.00000
     57       4.4631      2.00000
     58       4.4786      2.00000
     59       4.6705      2.00000
     60       4.8353      2.00000
     61       4.8754      2.00000
     62       4.9896      2.00000
     63       5.0163      2.00000
     64       5.0324      2.00000
     65       5.1826      2.00000
     66       5.2767      2.00000
     67       5.3582      2.00000
     68       5.3712      2.00000
     69       5.3979      2.00000
     70       5.4270      2.00000
     71       5.6463      2.00000
     72       5.6873      2.00000
     73      12.0899      0.00000
     74      13.4634      0.00000
     75      13.4642      0.00000
     76      14.9763      0.00000
     77      14.9766      0.00000
     78      15.0694      0.00000
     79      15.6180      0.00000
     80      16.1714      0.00000
     81      16.1804      0.00000
     82      16.2474      0.00000
     83      16.5431      0.00000
     84      16.6632      0.00000
     85      16.7611      0.00000
     86      16.8401      0.00000
     87      17.0371      0.00000
     88      17.2148      0.00000

 k-point     3 :       0.3333    0.0000    0.0000
  band No.  band energies     occupation 
      1     -12.9323      2.00000
      2     -12.5555      2.00000
      3     -12.5289      2.00000
      4     -11.9020      2.00000
      5     -11.6175      2.00000
      6     -11.5692      2.00000
      7     -11.3679      2.00000
      8     -11.3537      2.00000
      9     -11.2163      2.00000
     10     -11.0877      2.00000
     11     -11.0449      2.00000
     12     -10.9210      2.00000
     13     -10.8992      2.00000
     14     -10.8348      2.00000
     15     -10.7761      2.00000
     16     -10.7227      2.00000
     17     -10.5986      2.00000
     18     -10.5778      2.00000
     19      -0.7970      2.00000
     20      -0.4582      2.00000
     21      -0.3120      2.00000
     22      -0.2748      2.00000
     23      -0.1240      2.00000
     24      -0.0874      2.00000
     25       0.0312      2.00000
     26       0.4123      2.00000
     27       0.6236      2.00000
     28       0.6836      2.00000
     29       1.1663      2.00000
     30       1.2284      2.00000
     31       1.3813      2.00000
     32       1.4066      2.00000
     33       1.4412      2.00000
     34       1.6610      2.00000
     35       1.7852      2.00000
     36       2.0936      2.00000
     37       2.2881      2.00000
     38       2.4356      2.00000
     39       2.6796      2.00000
     40       2.9188      2.00000
     41       3.0536      2.00000
     42       3.0554      2.00000
     43       3.1966      2.00000
     44       3.3013      2.00000
     45       3.4436      2.00000
     46       3.4680      2.00000
     47       3.4776      2.00000
     48       3.5970      2.00000
     49       3.7069      2.00000
     50       3.8468      2.00000
     51       4.0060      2.00000
     52       4.0119      2.00000
     53       4.0481      2.00000
     54       4.1293      2.00000
     55       4.1367      2.00000
     56       4.1520      2.00000
     57       4.3536      2.00000
     58       4.3825      2.00000
     59       4.4097      2.00000
     60       4.5060      2.00000
     61       4.6779      2.00000
     62       4.7697      2.00000
     63       4.8331      2.00000
     64       4.9673      2.00000
     65       5.0506      2.00000
     66       5.1636      2.00000
     67       5.1745      2.00000
     68       5.2156      2.00000
     69       5.2766      2.00000
     70       5.3015      2.00000
     71       5.5323      2.00000
     72       5.5614      2.00000
     73      13.3568      0.00000
     74      14.3314      0.00000
     75      14.3444      0.00000
     76      14.9684      0.00000
     77      15.1270      0.00000
     78      15.6711      0.00000
     79      15.7106      0.00000
     80      15.7794      0.00000
     81      15.9249      0.00000
     82      15.9953      0.00000
     83      15.9987      0.00000
     84      16.1497      0.00000
     85      16.1706      0.00000
     86      16.3245      0.00000
     87      16.5522      0.00000
     88      16.6523      0.00000

 k-point     4 :       0.5000    0.0000    0.0000
  band No.  band energies     occupation 
      1     -12.4155      2.00000
      2     -12.4155      2.00000
      3     -12.2996      2.00000
      4     -12.0632      2.00000
      5     -12.0632      2.00000
      6     -11.6617      2.00000
      7     -11.4623      2.00000
      8     -11.2835      2.00000
      9     -11.1510      2.00000
     10     -11.1510      2.00000
     11     -11.0819      2.00000
     12     -11.0819      2.00000
     13     -11.0479      2.00000
     14     -10.7919      2.00000
     15     -10.7919      2.00000
     16     -10.7017      2.00000
     17     -10.7017      2.00000
     18     -10.5824      2.00000
     19      -0.7083      2.00000
     20      -0.7083      2.00000
     21      -0.3651      2.00000
     22      -0.1864      2.00000
     23      -0.1864      2.00000
     24       0.0634      2.00000
     25       0.4234      2.00000
     26       0.4234      2.00000
     27       0.7511      2.00000
     28       0.7511      2.00000
     29       1.0652      2.00000
     30       1.1352      2.00000
     31       1.5796      2.00000
     32       1.7034      2.00000
     33       1.7034      2.00000
     34       1.8050      2.00000
     35       1.9797      2.00000
     36       2.0584      2.00000
     37       2.0584      2.00000
     38       2.3417      2.00000
     39       2.3417      2.00000
     40       2.4954      2.00000
     41       3.0985      2.00000
     42       3.0985      2.00000
     43       3.2065      2.00000
     44       3.4066      2.00000
     45       3.4067      2.00000
     46       3.4331      2.00000
     47       3.6015      2.00000
     48       3.6016      2.00000
     49       3.7075      2.00000
     50       3.7076      2.00000
     51       3.9820      2.00000
     52       4.1934      2.00000
     53       4.2155      2.00000
     54       4.2156      2.00000
     55       4.3726      2.00000
     56       4.3727      2.00000
     57       4.3809      2.00000
     58       4.4287      2.00000
     59       4.5240      2.00000
     60       4.5240      2.00000
     61       4.6213      2.00000
     62       4.6213      2.00000
     63       4.7117      2.00000
     64       4.8114      2.00000
     65       4.9989      2.00000
     66       5.0168      2.00000
     67       5.0169      2.00000
     68       5.3154      2.00000
     69       5.3154      2.00000
     70       5.4117      2.00000
     71       5.4117      2.00000
     72       5.4623      2.00000
     73      14.6609      0.00000
     74      14.6609      0.00000
     75      14.7579      0.00000
     76      14.7579      0.00000
     77      15.0166      0.00000
     78      15.1081      0.00000
     79      15.1082      0.00000
     80      15.1740      0.00000
     81      15.3004      0.00000
     82      15.5448      0.00000
     83      15.5448      0.00000
     84      15.8087      0.00000
     85      16.6075      0.00000
     86      16.6772      0.00000
     87      16.7214      0.00000
     88      16.7464      0.00000

 k-point     5 :       0.1667    0.1667    0.0000
  band No.  band energies     occupation 
      1     -13.0468      2.00000
      2     -12.6395      2.00000
      3     -12.6395      2.00000
      4     -11.7432      2.00000
      5     -11.7431      2.00000
      6     -11.4198      2.00000
      7     -11.2960      2.00000
      8     -11.2960      2.00000
      9     -11.1358      2.00000
     10     -11.1358      2.00000
     11     -11.1203      2.00000
     12     -10.9230      2.00000
     13     -10.8063      2.00000
     14     -10.8063      2.00000
     15     -10.7535      2.00000
     16     -10.7285      2.00000
     17     -10.5769      2.00000
     18     -10.5769      2.00000
     19      -0.7666      2.00000
     20      -0.4327      2.00000
     21      -0.2021      2.00000
     22      -0.2021      2.00000
     23      -0.0106      2.00000
     24       0.0437      2.00000
     25       0.0437      2.00000
     26       0.1620      2.00000
     27       0.1620      2.00000
     28       0.6848      2.00000
     29       1.2177      2.00000
     30       1.2177      2.00000
     31       1.2866      2.00000
     32       1.4610      2.00000
     33       1.5128      2.00000
     34       1.5128      2.00000
     35       1.8075      2.00000
     36       1.8076      2.00000
     37       2.3198      2.00000
     38       2.3198      2.00000
     39       2.7328      2.00000
     40       2.7328      2.00000
     41       3.0766      2.00000
     42       3.0767      2.00000
     43       3.1436      2.00000
     44       3.3060      2.00000
     45       3.5111      2.00000
     46       3.5380      2.00000
     47       3.5380      2.00000
     48       3.6572      2.00000
     49       3.6909      2.00000
     50       3.6910      2.00000
     51       3.8119      2.00000
     52       4.0025      2.00000
     53       4.0026      2.00000
     54       4.0939      2.00000
     55       4.1921      2.00000
     56       4.3207      2.00000
     57       4.3208      2.00000
     58       4.4468      2.00000
     59       4.5651      2.00000
     60       4.5652      2.00000
     61       4.6704      2.00000
     62       4.6705      2.00000
     63       4.8913      2.00000
     64       5.1061      2.00000
     65       5.1062      2.00000
     66       5.1454      2.00000
     67       5.1455      2.00000
     68       5.2060      2.00000
     69       5.3135      2.00000
     70       5.3136      2.00000
     71       5.5832      2.00000
     72       5.6457      2.00000
     73      12.9730      0.00000
     74      14.0717      0.00000
     75      14.0718      0.00000
[...]
     73      14.2806      0.00000
     74      14.2974      0.00000
     75      15.0085      0.00000
     76      15.0622      0.00000
     77      15.0960      0.00000
     78      15.2419      0.00000
     79      15.2607      0.00000
     80      15.3215      0.00000
     81      15.4918      0.00000
     82      15.5406      0.00000
     83      15.5870      0.00000
     84      15.7694      0.00000
     85      15.7804      0.00000
     86      15.8728      0.00000
     87      16.4043      0.00000
     88      16.6345      0.00000

 k-point    14 :       0.3333    0.3333    0.5000
  band No.  band energies     occupation 
      1     -12.0956      2.00000
      2     -12.0956      2.00000
      3     -12.0956      2.00000
      4     -12.0956      2.00000
      5     -12.0956      2.00000
      6     -12.0956      2.00000
      7     -11.3175      2.00000
      8     -11.3175      2.00000
      9     -11.3175      2.00000
     10     -11.3175      2.00000
     11     -11.3174      2.00000
     12     -11.3174      2.00000
     13     -10.7336      2.00000
     14     -10.7336      2.00000
     15     -10.7335      2.00000
     16     -10.7335      2.00000
     17     -10.7335      2.00000
     18     -10.7335      2.00000
     19      -0.0582      2.00000
     20      -0.0582      2.00000
     21      -0.0582      2.00000
     22      -0.0582      2.00000
     23      -0.0581      2.00000
     24      -0.0581      2.00000
     25       0.5349      2.00000
     26       0.5350      2.00000
     27       0.5350      2.00000
     28       0.5350      2.00000
     29       0.5350      2.00000
     30       0.5350      2.00000
     31       1.7569      2.00000
     32       1.7569      2.00000
     33       1.7569      2.00000
     34       1.7570      2.00000
     35       1.7571      2.00000
     36       1.7571      2.00000
     37       2.1567      2.00000
     38       2.1567      2.00000
     39       2.1567      2.00000
     40       2.1567      2.00000
     41       2.1567      2.00000
     42       2.1567      2.00000
     43       3.7077      2.00000
     44       3.7077      2.00000
     45       3.7078      2.00000
     46       3.7079      2.00000
     47       3.7079      2.00000
     48       3.7079      2.00000
     49       4.1045      2.00000
     50       4.1045      2.00000
     51       4.1046      2.00000
     52       4.1046      2.00000
     53       4.1047      2.00000
     54       4.1047      2.00000
     55       4.5116      2.00000
     56       4.5116      2.00000
     57       4.5117      2.00000
     58       4.5117      2.00000
     59       4.5117      2.00000
     60       4.5118      2.00000
     61       4.8861      2.00000
     62       4.8861      2.00000
     63       4.8862      2.00000
     64       4.8862      2.00000
     65       4.8863      2.00000
     66       4.8863      2.00000
     67       5.3578      2.00000
     68       5.3579      2.00000
     69       5.3580      2.00000
     70       5.3580      2.00000
     71       5.3580      2.00000
     72       5.3580      2.00000
     73      14.7787      0.00000
     74      14.7787      0.00000
     75      14.7788      0.00000
     76      14.7788      0.00000
     77      14.7788      0.00000
     78      14.7789      0.00000
     79      15.3989      0.00000
     80      15.3989      0.00000
     81      15.3990      0.00000
     82      15.3990      0.00000
     83      15.3990      0.00000
     84      15.3990      0.00000
     85      16.0530      0.00000
     86      16.0531      0.00000
     87      16.0531      0.00000
     88      16.0531      0.00000


--------------------------------------------------------------------------------------------------------


 soft charge-density along one line, spin component            1
         0         1         2         3         4         5         6         7         8         9
 total charge-density along one line
 
 pseudopotential strength for first ion, spin component:            1
  7.093 -16.564  -0.000   0.001  -0.000   0.000  -0.008   0.000
-16.564  48.476   0.000  -0.003   0.000  -0.000   0.016  -0.000
 -0.000   0.000   1.749   0.000   0.000  -6.661  -0.000  -0.000
  0.001  -0.003   0.000   1.749   0.000  -0.000  -6.661  -0.000
 -0.000   0.000   0.000   0.000   1.749  -0.000  -0.000  -6.661
  0.000  -0.000  -6.661  -0.000  -0.000  27.698   0.000   0.000
 -0.008   0.016  -0.000  -6.661  -0.000   0.000  27.701   0.000
  0.000  -0.000  -0.000  -0.000  -6.661   0.000   0.000  27.698
  0.000  -0.000   0.000  -0.000   0.000  -0.000   0.000  -0.001
  0.000  -0.000   0.001   0.000  -0.000  -0.003  -0.000   0.000
  0.000  -0.001   0.000   0.002   0.000  -0.000  -0.004  -0.000
  0.000  -0.000  -0.000   0.000   0.001   0.000  -0.000  -0.003
 -0.000   0.000   0.000   0.000  -0.000  -0.001  -0.000   0.000
 -0.000   0.000  -0.000   0.000  -0.001   0.001  -0.000   0.004
 -0.000   0.000  -0.006  -0.000   0.000   0.018   0.000  -0.000
 -0.002   0.004  -0.000  -0.008  -0.000   0.000   0.026   0.000
 -0.000   0.000   0.000  -0.000  -0.006  -0.000   0.000   0.018
  0.000  -0.000  -0.001  -0.000   0.000   0.004   0.000  -0.001
 total augmentation occupancy for first ion, spin component:            1
  1.019   0.024  -0.000  -0.053  -0.000  -0.000  -0.001   0.000  -0.000  -0.000  -0.016   0.000  -0.000  -0.000   0.000  -0.002
  0.024   0.001   0.000  -0.000   0.000  -0.000  -0.000  -0.000  -0.000   0.000  -0.001   0.000  -0.000  -0.000  -0.000  -0.000
  0.000  -0.000   0.980   0.000  -0.000   0.021  -0.000   0.000   0.071  -0.046   0.000  -0.000   0.022   0.005  -0.004   0.000
 -0.053  -0.000   0.000   0.914   0.000   0.000   0.019   0.000   0.000  -0.000   0.060  -0.000   0.000   0.000  -0.000   0.003
  0.000   0.000  -0.000   0.000   0.980  -0.000  -0.000   0.021   0.022   0.000  -0.000  -0.046  -0.071   0.002   0.000  -0.000
 -0.000   0.000   0.021   0.000  -0.000   0.001  -0.000  -0.000   0.002  -0.001   0.000  -0.000   0.001   0.000  -0.000   0.000
 -0.001  -0.000   0.000   0.019  -0.000   0.000   0.000   0.000   0.000   0.000   0.002  -0.000   0.000   0.000   0.000   0.000
 -0.000   0.000   0.000   0.000   0.021  -0.000  -0.000   0.001   0.001   0.000  -0.000  -0.001  -0.002   0.000   0.000  -0.000
 -0.000  -0.000   0.071   0.000   0.022   0.002   0.000   0.001   0.074  -0.051   0.000  -0.008   0.000   0.003  -0.002   0.000
 -0.000  -0.000  -0.046  -0.000   0.000  -0.001  -0.000   0.000  -0.051   0.099  -0.000  -0.000  -0.008  -0.002   0.004  -0.000
 -0.016  -0.001   0.000   0.060  -0.000   0.000   0.002  -0.000   0.000  -0.000   0.038   0.000   0.000   0.000  -0.000   0.001
  0.000  -0.000  -0.000  -0.000  -0.046  -0.000  -0.000  -0.001  -0.008  -0.000   0.000   0.099   0.051  -0.000   0.000   0.000
 -0.000  -0.000   0.022   0.000  -0.071   0.001   0.000  -0.002   0.000  -0.008   0.000   0.051   0.074   0.000  -0.000   0.000
 -0.000  -0.000   0.005   0.000   0.002   0.000   0.000   0.000   0.003  -0.002   0.000  -0.000   0.000   0.000  -0.000   0.000
 -0.000  -0.000  -0.004  -0.000   0.000  -0.000  -0.000   0.000  -0.002   0.004  -0.000   0.000  -0.000  -0.000   0.000  -0.000
 -0.002  -0.000   0.000   0.003  -0.000   0.000   0.000  -0.000   0.000  -0.000   0.001   0.000   0.000   0.000  -0.000   0.000
  0.000   0.000  -0.000  -0.000  -0.004  -0.000  -0.000  -0.000  -0.000  -0.000   0.000   0.004   0.002  -0.000  -0.000   0.000
 -0.000  -0.000   0.002   0.000  -0.005   0.000   0.000  -0.000  -0.000  -0.000   0.000   0.002   0.003   0.000  -0.000   0.000


------------------------ aborting loop because EDIFF is reached ----------------------------------------


    CHARGE:  cpu time    0.1566: real time    0.1566
    FORLOC:  cpu time    0.0015: real time    0.0015
    FORNL :  cpu time    0.8109: real time    0.8111
    STRESS:  cpu time    0.2785: real time    0.2785
    FORCOR:  cpu time    0.0056: real time    0.0056
    FORHAR:  cpu time    0.0017: real time    0.0017
    MIXING:  cpu time    0.0048: real time    0.0048
    OFIELD:  cpu time    0.0000: real time    0.0000

 ---------------------------------------------------------------------------------------------

         DFTD3 V3.0 Rev 1        
 Edisp (eV)   -6.90227

 E6    (eV) :    -4.2961
 E8    (eV) :    -2.6062
 % E8        : 37.76
    FORVDW:  cpu time    0.1245: real time    0.1246
 only isotrope contributions calculated
  for stress because ISIF=1 (only pressure is correct)

  FORCE on cell =-STRESS in cart. coord.  units (eV):
  Direction    XX          YY          ZZ          XY          YZ          ZX
  --------------------------------------------------------------------------------------
  Alpha Z   243.67776   243.67776   243.67776
  Ewald   -2347.79498 -2347.79498 -2429.48508     0.00000     0.00000    -0.00001
  Hartree   741.68387   741.68385   773.00368    -0.00002    -0.00000    -0.00000
  E(xc)    -676.55346  -676.55320  -676.32541     0.00000     0.00010     0.00013
  Local   -1608.47396 -1608.46740 -1572.41490     0.00647     0.00160     0.00091
  n-local   529.60895   529.60895   529.60895     0.00000     0.00000     0.00000
  augment   318.07473   318.07473   318.07473     0.00000     0.00000     0.00000
  Kinetic  2742.01047  2738.54605  2759.92082     0.32368     0.04301     0.18265
  Fock        0.00000     0.00000     0.00000     0.00000     0.00000     0.00000
  vdW        -7.08055    -7.08055    -7.02329     0.00000     0.00000    -0.00000
  -------------------------------------------------------------------------------------
  Total     -66.57599   -66.57599   -60.96275     0.00000     0.00000     0.00000
  in kB    -406.72036  -406.72036  -372.42847     0.00000     0.00000     0.00000
  external pressure =     -395.29 kB  Pullay stress =        0.00 kB


 VOLUME and BASIS-vectors are now :
 -----------------------------------------------------------------------------
  energy-cutoff  :      360.00
  volume of cell :      262.26
      direct lattice vectors                 reciprocal lattice vectors
     4.805027962  0.000000000  0.000000000     0.208115334  0.120155444 -0.000000000
    -2.402513981  4.161276281  0.000000000     0.000000000  0.240310888  0.000000000
     0.000000000  0.000000000 13.116253853     0.000000000 -0.000000000  0.076241281

  length of vectors
     4.805027962  4.805027962 13.116253853     0.240310888  0.240310888  0.076241281


 FORCES acting on ions
    electron-ion (+dipol)            ewald-force                    non-local-force                 convergence-correction
 -----------------------------------------------------------------------------------------------
   -.720E-04 -.138E-03 0.149E+02   0.793E-06 0.240E-06 -.160E+02   -.146E-17 0.325E-18 0.118E+01   0.332E-09 -.377E-09 0.352E-05
   0.111E-03 0.213E-03 -.149E+02   0.368E-05 -.512E-06 0.160E+02   0.108E-17 0.867E-18 -.118E+01   -.492E-09 0.945E-10 -.328E-05
   -.116E-03 -.197E-03 0.149E+02   0.129E-05 -.351E-05 -.160E+02   0.152E-17 -.434E-18 0.118E+01   0.494E-09 -.987E-10 0.330E-05
   0.763E-04 0.143E-03 -.149E+02   0.214E-05 0.271E-05 0.160E+02   0.358E-17 0.000E+00 -.118E+01   -.333E-09 0.378E-09 -.350E-05
   -.719E-04 -.135E-03 0.149E+02   -.196E-05 0.613E-05 -.160E+02   -.347E-17 -.228E-17 0.118E+01   0.330E-09 -.379E-09 0.326E-05
   0.114E-03 0.207E-03 -.149E+02   -.237E-05 -.365E-06 0.160E+02   0.130E-17 0.434E-18 -.118E+01   -.493E-09 0.985E-10 -.369E-05
   -.114E-03 -.207E-03 0.149E+02   -.641E-05 -.278E-06 -.160E+02   0.217E-17 -.130E-17 0.118E+01   0.495E-09 -.946E-10 0.344E-05
   0.670E-04 0.138E-03 -.149E+02   0.113E-04 0.428E-05 0.160E+02   -.255E-17 0.108E-17 -.118E+01   -.331E-09 0.377E-09 -.368E-05
   -.809E-04 -.138E-03 0.149E+02   0.509E-05 -.908E-05 -.160E+02   -.466E-17 -.651E-18 0.118E+01   0.333E-09 -.382E-09 0.367E-05
   0.112E-03 0.201E-03 -.149E+02   -.118E-06 0.549E-05 0.160E+02   0.260E-17 0.434E-18 -.118E+01   -.496E-09 0.961E-10 -.347E-05
   -.116E-03 -.209E-03 0.149E+02   0.298E-05 0.148E-04 -.160E+02   0.282E-17 -.173E-17 0.118E+01   0.492E-09 -.960E-10 0.371E-05
   0.721E-04 0.139E-03 -.149E+02   -.350E-05 -.580E-05 0.160E+02   -.759E-18 0.867E-18 -.118E+01   -.331E-09 0.381E-09 -.326E-05
   -.310E+02 -.269E-03 0.143E-04   0.316E+02 0.135E-04 0.191E-04   -.646E+00 0.390E-17 0.152E-17   -.408E-04 -.453E-08 -.241E-06
   -.155E+02 0.268E+02 0.782E-03   0.158E+02 -.274E+02 0.497E-04   -.323E+00 0.559E+00 -.434E-18   -.204E-04 0.353E-04 0.276E-06
   0.155E+02 -.268E+02 0.940E-05   -.158E+02 0.274E+02 0.240E-04   0.323E+00 -.559E+00 0.737E-17   0.204E-04 -.353E-04 -.241E-06
   0.155E+02 0.268E+02 0.105E-04   -.158E+02 -.274E+02 0.236E-04   0.323E+00 0.559E+00 -.390E-17   0.204E-04 0.353E-04 -.241E-06
   -.155E+02 -.268E+02 0.791E-03   0.158E+02 0.274E+02 0.522E-04   -.323E+00 -.559E+00 0.000E+00   -.204E-04 -.353E-04 0.276E-06
   0.310E+02 0.234E-03 0.773E-03   -.316E+02 -.786E-05 0.526E-04   0.646E+00 0.173E-16 -.152E-17   0.408E-04 0.499E-08 0.277E-06
   -.310E+02 -.290E-03 0.984E-03   0.316E+02 0.996E-05 0.164E-03   -.646E+00 0.434E-17 -.108E-17   -.408E-04 -.401E-08 -.302E-06
   -.155E+02 0.268E+02 -.281E-03   0.158E+02 -.274E+02 0.144E-03   -.323E+00 0.559E+00 -.217E-17   -.204E-04 0.353E-04 -.518E-06
   0.155E+02 -.268E+02 0.985E-03   -.158E+02 0.274E+02 0.153E-03   0.323E+00 -.559E+00 0.000E+00   0.204E-04 -.353E-04 -.301E-06
   0.155E+02 0.268E+02 0.981E-03   -.158E+02 -.274E+02 0.156E-03   0.323E+00 0.559E+00 -.867E-18   0.204E-04 0.353E-04 -.302E-06
   -.155E+02 -.268E+02 -.275E-03   0.158E+02 0.274E+02 0.141E-03   -.323E+00 -.559E+00 -.434E-17   -.204E-04 -.353E-04 -.517E-06
   0.310E+02 0.227E-03 -.290E-03   -.316E+02 -.430E-05 0.146E-03   0.646E+00 -.173E-16 -.499E-17   0.408E-04 0.465E-08 -.517E-06
   -.310E+02 -.352E-03 -.163E-02   0.316E+02 0.403E-04 -.347E-03   -.646E+00 -.304E-17 0.867E-18   -.408E-04 -.567E-08 0.542E-06
   -.155E+02 0.268E+02 -.355E-03   0.158E+02 -.274E+02 -.847E-04   -.323E+00 0.559E+00 -.347E-17   -.204E-04 0.353E-04 0.241E-06
   0.155E+02 -.268E+02 -.163E-02   -.158E+02 0.274E+02 -.352E-03   0.323E+00 -.559E+00 -.304E-17   0.204E-04 -.353E-04 0.543E-06
   0.155E+02 0.268E+02 -.165E-02   -.158E+02 -.274E+02 -.350E-03   0.323E+00 0.559E+00 0.304E-17   0.204E-04 0.353E-04 0.543E-06
   -.155E+02 -.268E+02 -.356E-03   0.158E+02 0.274E+02 -.833E-04   -.323E+00 -.559E+00 0.520E-17   -.204E-04 -.353E-04 0.241E-06
   0.310E+02 0.258E-03 -.360E-03   -.316E+02 0.311E-04 -.915E-04   0.646E+00 0.173E-16 -.130E-17   0.408E-04 0.454E-08 0.241E-06
 -----------------------------------------------------------------------------------------------
   -.286E-04 -.962E-03 -.163E-02   0.711E-14 0.574E-13 0.193E-12   0.666E-15 0.239E-15 0.657E-15   0.685E-12 -.470E-11 -.129E-10
 
 
 POSITION                                       TOTAL-FORCE (eV/Angst)
 -----------------------------------------------------------------------------------
     -0.00000      0.00000      1.93922        -0.000000      0.000000      0.000000
     -0.00000      2.77418      0.24683         0.000000     -0.000000     -0.000000
     -0.00000      2.77418      4.12526        -0.000000      0.000000      0.000000
      2.40251      1.38709      2.43287        -0.000000     -0.000000     -0.000000
      2.40251      1.38709      6.31130        -0.000000      0.000000      0.000000
     -0.00000      0.00000      4.61891        -0.000000     -0.000000     -0.000000
     -0.00000      0.00000      8.49734         0.000000      0.000000      0.000000
     -0.00000      2.77418      6.80495        -0.000000     -0.000000     -0.000000
     -0.00000      2.77418     10.68339        -0.000000      0.000000      0.000000
      2.40251      1.38709      8.99100        -0.000000     -0.000000     -0.000000
      2.40251      1.38709     12.86943         0.000000      0.000000      0.000000
     -0.00000      0.00000     11.17704        -0.000000     -0.000000     -0.000000
      1.47058      0.00000      3.27906         0.000085      0.000000     -0.000000
      3.13781      0.11353      1.09302         0.000043     -0.000074     -0.000000
      4.06974      1.27356      3.27906        -0.000043      0.000074     -0.000000
      1.66722      2.88771      3.27906        -0.000043     -0.000074      0.000000
      3.13781      2.66065      1.09302         0.000043      0.000074     -0.000000
      0.93193      1.38709      1.09302        -0.000085      0.000000      0.000000
      3.87310      1.38709      7.65115         0.000085      0.000000     -0.000000
      0.73529      1.50062      5.46511         0.000043     -0.000074      0.000000
      1.66722      2.66065      7.65115        -0.000043      0.000074     -0.000000
      1.66722      0.11353      7.65115        -0.000043     -0.000074      0.000000
      0.73529      4.04775      5.46511         0.000043      0.000074     -0.000000
     -1.47058      2.77418      5.46511        -0.000085      0.000000      0.000000
      1.47058      2.77418     12.02323         0.000085     -0.000000     -0.000000
     -1.66722      2.88771      9.83719         0.000043     -0.000074     -0.000000
     -0.73529      4.04775     12.02323        -0.000043      0.000074      0.000000
     -0.73529      1.50062     12.02323        -0.000043     -0.000074      0.000000
      0.73529      1.27356      9.83719         0.000043      0.000074     -0.000000
      3.33444      0.00000      9.83719        -0.000085      0.000000      0.000000
 -----------------------------------------------------------------------------------
    total drift:                               -0.000029     -0.000962     -0.001631


--------------------------------------------------------------------------------------------------------



  FREE ENERGIE OF THE ION-ELECTRON SYSTEM (eV)
  ---------------------------------------------------
  free  energy   TOTEN  =      -228.78999804 eV

  energy  without entropy=     -228.78999804  energy(sigma->0) =     -228.78999804
 
 d Force = 0.9208038E-07[ 0.276E-07, 0.157E-06]  d Energy = 0.1158577E-06-0.238E-07
 d Force = 0.1138173E-01[ 0.114E-01, 0.114E-01]  d Ewald  = 0.1138173E-01-0.569E-10


--------------------------------------------------------------------------------------------------------


    POTLOK:  cpu time    0.0549: real time    0.0549


--------------------------------------------------------------------------------------------------------


 stress matrix after NEB project (eV)
    -66.57599      0.00000      0.00000
      0.00000    -66.57599      0.00000
      0.00000      0.00000    -60.96275
  FORCES: max atom, RMS     0.000085    0.000066
  FORCE total and by dimension    0.000361    0.000085
  Stress total and by dimension  112.165866   66.575988


--------------------------------------------------------------------------------------------------------


  
 reached required accuracy - stopping structural energy minimisation
     LOOP+:  cpu time   12.8243: real time   12.8277
    4ORBIT:  cpu time    0.0000: real time    0.0000

 total amount of memory used by VASP MPI-rank0   177583. kBytes
=======================================================================

   base      :      30000. kBytes
   nonlr-proj:      25708. kBytes
   fftplans  :      10192. kBytes
   grid      :      18183. kBytes
   one-center:        696. kBytes
   wavefun   :      92804. kBytes
 
  
  
 General timing and accounting informations for this job:
 ========================================================
  
                  Total CPU time used (sec):      102.277
                            User time (sec):      101.467
                          System time (sec):        0.810
                         Elapsed time (sec):      102.644
  
                   Maximum memory used (kb):     1731524.
                   Average memory used (kb):          N/A
  
                          Minor page faults:       687969
                          Major page faults:            0
                 Voluntary context switches:         2238
