O_Scan/O2_scan_1.0/O2.data (written by ASE) 

2 	 atoms 
1  atom types
0.0                    14.5  xlo xhi
0.0                    14.5  ylo yhi
0.0                    14.5  zlo zhi


Atoms 

     1   1                       0                       0                       0
     2   1                       1                       0                       0
