 256 256   0   0
  0.1660138E+02  0.1619800E-08  0.1619800E-08  0.1619800E-08  0.5000000E-15
   1.0000000000000000E-004
  CAR 
 NiAl                                    
      9.99076596     -5.10919305  301      6.80934349      1.00000000
     -5.109  0.0000E+00  0.0000E+00
     -5.059  0.0000E+00  0.0000E+00
     -5.009  0.0000E+00  0.0000E+00
     -4.958  0.0000E+00  0.0000E+00
     -4.908  0.0000E+00  0.0000E+00
     -4.858  0.0000E+00  0.0000E+00
     -4.807  0.0000E+00  0.0000E+00
     -4.757  0.0000E+00  0.0000E+00
     -4.707  0.2481E-14  0.1249E-15
     -4.656  0.1018E-09  0.5122E-11
     -4.606  0.5603E-06  0.2821E-07
     -4.556  0.4330E-03  0.2182E-04
     -4.505  0.4881E-01  0.2478E-02
     -4.455  0.8571E+00  0.4562E-01
     -4.405  0.2567E+01  0.1748E+00
     -4.354  0.1973E+01  0.2741E+00
     -4.304  0.7480E+01  0.6506E+00
     -4.254  0.1559E+02  0.1435E+01
     -4.203  0.8216E+01  0.1849E+01
     -4.153  0.2006E+02  0.2858E+01
     -4.103  0.2945E+02  0.4341E+01
     -4.052  0.1062E+02  0.4875E+01
     -4.002  0.1673E+02  0.5717E+01
     -3.952  0.1735E+02  0.6590E+01
     -3.901  0.6684E+01  0.6927E+01
     -3.851  0.1440E+02  0.7651E+01
     -3.801  0.1181E+02  0.8246E+01
     -3.750  0.2300E+02  0.9403E+01
     -3.700  0.6182E+02  0.1251E+02
     -3.650  0.3441E+02  0.1425E+02
     -3.599  0.3412E+02  0.1596E+02
     -3.549  0.6187E+02  0.1908E+02
     -3.499  0.2195E+02  0.2018E+02
     -3.448  0.1329E+01  0.2025E+02
     -3.398  0.1670E+00  0.2026E+02
     -3.348  0.4928E+01  0.2051E+02
     -3.297  0.2599E+02  0.2181E+02
     -3.247  0.2535E+02  0.2309E+02
     -3.197  0.2476E+02  0.2434E+02
     -3.146  0.7434E+02  0.2808E+02
     -3.096  0.4947E+02  0.3057E+02
     -3.046  0.3100E+02  0.3213E+02
     -2.995  0.6254E+02  0.3528E+02
     -2.945  0.3114E+02  0.3684E+02
     -2.895  0.3855E+02  0.3878E+02
     -2.844  0.6021E+02  0.4181E+02
     -2.794  0.2029E+02  0.4284E+02
     -2.744  0.1677E+02  0.4368E+02
     -2.693  0.1820E+02  0.4460E+02
     -2.643  0.1708E+02  0.4546E+02
     -2.593  0.5698E+02  0.4832E+02
     -2.542  0.4524E+02  0.5060E+02
     -2.492  0.5010E+02  0.5312E+02
     -2.442  0.1239E+03  0.5936E+02
     -2.391  0.6190E+02  0.6248E+02
     -2.341  0.5360E+01  0.6275E+02
     -2.291  0.1121E+00  0.6275E+02
     -2.240  0.1631E+01  0.6283E+02
     -2.190  0.1128E+02  0.6340E+02
     -2.140  0.1465E+02  0.6414E+02
     -2.089  0.2742E+02  0.6552E+02
     -2.039  0.1107E+03  0.7109E+02
     -1.989  0.9122E+02  0.7568E+02
     -1.938  0.4399E+02  0.7790E+02
     -1.888  0.9259E+02  0.8256E+02
     -1.838  0.5179E+02  0.8517E+02
     -1.787  0.3640E+02  0.8700E+02
     -1.737  0.6190E+02  0.9011E+02
     -1.687  0.2769E+02  0.9151E+02
     -1.636  0.4565E+02  0.9380E+02
     -1.586  0.5645E+02  0.9665E+02
     -1.536  0.3667E+02  0.9849E+02
     -1.485  0.1109E+03  0.1041E+03
     -1.435  0.9091E+02  0.1086E+03
     -1.385  0.3375E+02  0.1103E+03
     -1.334  0.6182E+02  0.1135E+03
     -1.284  0.3255E+02  0.1151E+03
     -1.234  0.2989E+01  0.1152E+03
     -1.183  0.2047E+00  0.1153E+03
     -1.133  0.6707E+01  0.1156E+03
     -1.083  0.4556E+02  0.1179E+03
     -1.032  0.5532E+02  0.1207E+03
     -0.982  0.2840E+02  0.1221E+03
     -0.932  0.7121E+02  0.1257E+03
     -0.881  0.5811E+02  0.1286E+03
     -0.831  0.7725E+02  0.1325E+03
     -0.781  0.1866E+03  0.1419E+03
     -0.730  0.9424E+02  0.1466E+03
     -0.680  0.5594E+02  0.1495E+03
     -0.630  0.8028E+02  0.1535E+03
     -0.579  0.2376E+02  0.1547E+03
     -0.529  0.1206E+01  0.1548E+03
     -0.479  0.2193E+01  0.1549E+03
     -0.428  0.4789E+02  0.1573E+03
     -0.378  0.1768E+03  0.1662E+03
     -0.328  0.1213E+03  0.1723E+03
     -0.277  0.6974E+02  0.1758E+03
     -0.227  0.1249E+03  0.1821E+03
     -0.177  0.4972E+02  0.1846E+03
     -0.126  0.3401E+01  0.1847E+03
     -0.076  0.2172E+00  0.1848E+03
     -0.026  0.5395E+01  0.1850E+03
      0.025  0.2673E+02  0.1864E+03
      0.075  0.2593E+02  0.1877E+03
      0.125  0.4509E+02  0.1900E+03
      0.176  0.1231E+03  0.1961E+03
      0.226  0.7195E+02  0.1998E+03
      0.276  0.7325E+02  0.2035E+03
      0.327  0.1229E+03  0.2096E+03
      0.377  0.5591E+02  0.2125E+03
      0.427  0.9895E+02  0.2174E+03
      0.478  0.1056E+03  0.2228E+03
      0.528  0.4047E+02  0.2248E+03
      0.578  0.7438E+02  0.2285E+03
      0.629  0.5158E+02  0.2311E+03
      0.679  0.3940E+02  0.2331E+03
      0.729  0.6170E+02  0.2362E+03
      0.780  0.3911E+02  0.2382E+03
      0.830  0.1349E+03  0.2450E+03
      0.880  0.1657E+03  0.2533E+03
      0.931  0.3696E+02  0.2552E+03
      0.981  0.1415E+01  0.2553E+03
      1.031  0.2364E+01  0.2554E+03
      1.082  0.2914E+02  0.2568E+03
      1.132  0.6265E+02  0.2600E+03
      1.182  0.4469E+02  0.2622E+03
      1.233  0.1658E+03  0.2706E+03
      1.283  0.2310E+03  0.2822E+03
      1.333  0.7915E+02  0.2862E+03
      1.384  0.1079E+03  0.2916E+03
      1.434  0.9711E+02  0.2965E+03
      1.484  0.3657E+02  0.2984E+03
      1.535  0.6211E+02  0.3015E+03
      1.585  0.3740E+02  0.3034E+03
      1.635  0.4402E+02  0.3056E+03
      1.686  0.5878E+02  0.3085E+03
      1.736  0.4508E+02  0.3108E+03
      1.786  0.1577E+03  0.3187E+03
      1.837  0.1477E+03  0.3262E+03
      1.887  0.7108E+02  0.3298E+03
      1.937  0.1250E+03  0.3360E+03
      1.988  0.5876E+02  0.3390E+03
      2.038  0.5596E+01  0.3393E+03
      2.088  0.6739E+01  0.3396E+03
      2.139  0.9724E+01  0.3401E+03
      2.189  0.2653E+01  0.3403E+03
      2.239  0.6415E+01  0.3406E+03
      2.290  0.6991E+02  0.3441E+03
      2.340  0.1784E+03  0.3531E+03
      2.390  0.1464E+03  0.3604E+03
      2.441  0.1053E+03  0.3657E+03
      2.491  0.7071E+02  0.3693E+03
      2.541  0.7718E+02  0.3732E+03
      2.592  0.1725E+03  0.3819E+03
      2.642  0.1048E+03  0.3871E+03
      2.692  0.3599E+02  0.3890E+03
      2.743  0.6379E+02  0.3922E+03
      2.793  0.6230E+02  0.3953E+03
      2.843  0.1605E+03  0.4034E+03
      2.894  0.2152E+03  0.4142E+03
      2.944  0.1486E+03  0.4217E+03
      2.994  0.1251E+03  0.4280E+03
      3.045  0.3584E+02  0.4298E+03
      3.095  0.3849E+02  0.4317E+03
      3.145  0.1147E+03  0.4375E+03
      3.196  0.7443E+02  0.4412E+03
      3.246  0.9919E+01  0.4417E+03
      3.296  0.6548E+01  0.4421E+03
      3.347  0.5949E+02  0.4451E+03
      3.397  0.1472E+03  0.4525E+03
      3.447  0.1307E+03  0.4591E+03
      3.498  0.8290E+02  0.4632E+03
      3.548  0.4898E+02  0.4657E+03
      3.598  0.6510E+02  0.4690E+03
      3.649  0.1447E+03  0.4763E+03
      3.699  0.1097E+03  0.4818E+03
      3.749  0.4173E+02  0.4839E+03
      3.800  0.1098E+02  0.4844E+03
      3.850  0.2010E+02  0.4854E+03
      3.900  0.1564E+03  0.4933E+03
      3.951  0.3185E+03  0.5093E+03
      4.001  0.1653E+03  0.5177E+03
      4.051  0.4556E+02  0.5200E+03
      4.102  0.1527E+02  0.5207E+03
      4.152  0.6014E+02  0.5238E+03
      4.202  0.1252E+03  0.5301E+03
      4.253  0.5995E+02  0.5331E+03
      4.303  0.3449E+02  0.5348E+03
      4.353  0.2723E+02  0.5362E+03
      4.404  0.1178E+03  0.5421E+03
      4.454  0.2364E+03  0.5540E+03
      4.504  0.1791E+03  0.5630E+03
      4.555  0.5217E+02  0.5657E+03
      4.605  0.4714E+02  0.5680E+03
      4.655  0.9524E+02  0.5728E+03
      4.706  0.1307E+03  0.5794E+03
      4.756  0.8046E+02  0.5834E+03
      4.806  0.4151E+02  0.5855E+03
      4.857  0.5708E+02  0.5884E+03
      4.907  0.9165E+02  0.5930E+03
      4.957  0.1370E+03  0.5999E+03
      5.008  0.1347E+03  0.6067E+03
      5.058  0.8760E+02  0.6111E+03
      5.108  0.1037E+03  0.6163E+03
      5.159  0.1387E+03  0.6233E+03
      5.209  0.8414E+02  0.6275E+03
      5.259  0.3245E+02  0.6292E+03
      5.310  0.3439E+02  0.6309E+03
      5.360  0.6100E+02  0.6340E+03
      5.410  0.4431E+02  0.6362E+03
      5.461  0.7036E+02  0.6398E+03
      5.511  0.9044E+02  0.6443E+03
      5.561  0.1228E+03  0.6505E+03
      5.612  0.1631E+03  0.6587E+03
      5.662  0.1573E+03  0.6666E+03
      5.712  0.1105E+03  0.6722E+03
      5.763  0.1895E+03  0.6817E+03
      5.813  0.1223E+03  0.6879E+03
      5.863  0.6092E+02  0.6909E+03
      5.914  0.6910E+02  0.6944E+03
      5.964  0.1073E+03  0.6998E+03
      6.014  0.8003E+02  0.7038E+03
      6.065  0.1261E+03  0.7102E+03
      6.115  0.1720E+03  0.7188E+03
      6.165  0.1545E+03  0.7266E+03
      6.216  0.7830E+02  0.7306E+03
      6.266  0.6150E+02  0.7337E+03
      6.316  0.6377E+02  0.7369E+03
      6.367  0.6707E+02  0.7402E+03
      6.417  0.3666E+02  0.7421E+03
      6.467  0.1818E+02  0.7430E+03
      6.518  0.8418E+02  0.7472E+03
      6.568  0.1448E+03  0.7545E+03
      6.618  0.9442E+02  0.7593E+03
      6.669  0.1861E+02  0.7602E+03
      6.719  0.3169E+01  0.7604E+03
      6.769  0.4238E+02  0.7625E+03
      6.820  0.1427E+03  0.7697E+03
      6.870  0.1378E+03  0.7766E+03
      6.920  0.1336E+03  0.7833E+03
      6.971  0.1064E+03  0.7887E+03
      7.021  0.1386E+03  0.7957E+03
      7.071  0.1947E+03  0.8055E+03
      7.122  0.2528E+03  0.8182E+03
      7.172  0.1408E+03  0.8253E+03
      7.222  0.4841E+02  0.8277E+03
      7.273  0.8778E+02  0.8321E+03
      7.323  0.1026E+03  0.8373E+03
      7.373  0.8790E+02  0.8417E+03
      7.424  0.4642E+02  0.8441E+03
      7.474  0.4258E+02  0.8462E+03
      7.524  0.1690E+03  0.8547E+03
      7.575  0.3185E+03  0.8707E+03
      7.625  0.2159E+03  0.8816E+03
      7.675  0.5132E+02  0.8842E+03
      7.726  0.1118E+03  0.8898E+03
      7.776  0.1367E+03  0.8967E+03
      7.826  0.1221E+03  0.9028E+03
      7.877  0.1521E+03  0.9105E+03
      7.927  0.1108E+03  0.9161E+03
      7.977  0.3093E+02  0.9176E+03
      8.028  0.3116E+01  0.9178E+03
      8.078  0.2598E+02  0.9191E+03
      8.128  0.1256E+03  0.9254E+03
      8.179  0.1562E+03  0.9333E+03
      8.229  0.1410E+03  0.9404E+03
      8.279  0.1188E+03  0.9464E+03
      8.330  0.2666E+02  0.9477E+03
      8.380  0.5602E+01  0.9480E+03
      8.430  0.3272E+02  0.9496E+03
      8.481  0.8970E+02  0.9541E+03
      8.531  0.1831E+03  0.9634E+03
      8.581  0.2050E+03  0.9737E+03
      8.632  0.8553E+02  0.9780E+03
      8.682  0.6313E+02  0.9812E+03
      8.732  0.7455E+02  0.9849E+03
      8.783  0.9020E+02  0.9895E+03
      8.833  0.7962E+02  0.9935E+03
      8.883  0.8574E+02  0.9978E+03
      8.934  0.1400E+03  0.1005E+04
      8.984  0.1469E+03  0.1012E+04
      9.034  0.9196E+02  0.1017E+04
      9.085  0.7492E+02  0.1021E+04
      9.135  0.5605E+02  0.1023E+04
      9.185  0.2690E+02  0.1025E+04
      9.236  0.8858E+01  0.1025E+04
      9.286  0.9087E+01  0.1026E+04
      9.336  0.4893E+01  0.1026E+04
      9.387  0.9801E+00  0.1026E+04
      9.437  0.4982E-01  0.1026E+04
      9.487  0.4342E-03  0.1026E+04
      9.538  0.5605E-06  0.1026E+04
      9.588  0.1018E-09  0.1026E+04
      9.638  0.2206E-14  0.1026E+04
      9.689  0.0000E+00  0.1026E+04
      9.739  0.0000E+00  0.1026E+04
      9.789  0.0000E+00  0.1026E+04
      9.840  0.0000E+00  0.1026E+04
      9.890  0.0000E+00  0.1026E+04
      9.940  0.0000E+00  0.1026E+04
      9.991  0.0000E+00  0.1026E+04
