 vasp.6.2.1 16May21 (build Jun 16 2021 03:23:30) complex                         
 executed on             LinuxPGI date 2022.04.23  23:00:39
 running on    1 total cores
 distrk:  each k-point on    1 cores,    1 groups
 distr:  one band on NCORE=   1 cores,    1 groups


--------------------------------------------------------------------------------------------------------


 INCAR:
   SYSTEM = NiAl
   ISTART = 0
   EDIFF = 1E-7
   NELMIN = 6
   IVDW = 12
   LWAVE = .FALSE.
   LCHARG = .FALSE.
   LREAL = Auto
   NCORE = 1
   LPLANE = .TRUE.
   ENCUT = 360.00 eV
   ISMEAR = 0
   SIGMA = 0.05

 POTCAR:    PAW Al_GW 19Mar2012                   
 POTCAR:    PAW Al_GW 19Mar2012                   
   VRHFIN =Al: s2p1                                                                                 
   LEXCH  = PE                                                                                      
   EATOM  =    53.5387 eV,    3.9350 Ry                                                             
                                                                                                    
   TITEL  = PAW Al_GW 19Mar2012                                                                     
   LULTRA =        F    use ultrasoft PP ?                                                          
   IUNSCR =        1    unscreen: 0-lin 1-nonlin 2-no                                               
   RPACOR =    1.500    partial core radius                                                         
   POMASS =   26.982; ZVAL   =    3.000    mass and valenz                                          
   RCORE  =    2.000    outmost cutoff radius                                                       
   RWIGS  =    2.000; RWIGS  =    1.058    wigner-seitz radius (au A)                               
   ENMAX  =  240.300; ENMIN  =  180.225 eV                                                          
   ICORE  =        3    local potential                                                             
   LCOR   =        T    correct aug charges                                                         
   LPAW   =        T    paw PP                                                                      
   EAUG   =  482.059                                                                                
   DEXC   =    0.000                                                                                
   RMAX   =    2.051    core radius for proj-oper                                                   
   RAUG   =    1.300    factor for augmentation sphere                                              
   RDEP   =    2.096    radius for radial grids                                                     
   RDEPT  =    1.856    core radius for aug-charge                                                  
                                                                                                    
   Atomic configuration                                                                             
    7 entries                                                                                       
     n  l   j            E        occ.                                                              
     1  0  0.50     -1511.1048   2.0000                                                             
     2  0  0.50      -108.1629   2.0000                                                             
     2  1  1.50       -69.6402   6.0000                                                             
     3  0  0.50        -7.7528   2.0000                                                             
     3  1  1.50        -2.7121   1.0000                                                             
     3  2  2.50        -2.7212   0.0000                                                             
     4  3  2.50        -2.7212   0.0000                                                             
   Description                                                                                      
     l       E           TYP  RCUT    TYP  RCUT                                                     
     0     -7.7528455     23  1.900                                                                 
     0     68.0291300     23  1.900                                                                 
     1     -2.7120682     23  1.900                                                                 
     1     68.0291300     23  1.900                                                                 
     2     -1.3605826     23  1.900                                                                 
     2     81.6349560     23  1.900                                                                 
     3     74.8320430     23  2.000                                                                 
  local pseudopotential read in
  partial core-charges read in
  partial kinetic energy density read in
  kinetic energy density of atom read in
  atomic valenz-charges read in
  non local Contribution for L=            0  read in
    real space projection operators read in
  non local Contribution for L=            0  read in
    real space projection operators read in
  non local Contribution for L=            1  read in
    real space projection operators read in
  non local Contribution for L=            1  read in
    real space projection operators read in
  non local Contribution for L=            2  read in
    real space projection operators read in
  non local Contribution for L=            2  read in
    real space projection operators read in
    PAW grid and wavefunctions read in
 
   number of l-projection  operators is LMAX  =            6
   number of lm-projection operators is LMMAX =           18
 
 Optimization of the real space projectors (new method)

 maximal supplied QI-value         = 18.90
 optimisation between [QCUT,QGAM] = [  9.64, 19.28] = [ 26.01,104.04] Ry 
 Optimized for a Real-space Cutoff    1.46 Angstroem

   l    n(q)    QCUT    max X(q) W(low)/X(q) W(high)/X(q)  e(spline) 
   0      8     9.638    11.519    0.10E-03    0.23E-03    0.86E-07
   0      8     9.638     5.834    0.72E-04    0.17E-03    0.68E-07
   1      8     9.638    10.132    0.33E-03    0.11E-03    0.32E-06
   1      8     9.638     3.004    0.25E-03    0.10E-03    0.24E-06
   2      7     9.638     3.169    0.30E-03    0.50E-03    0.35E-06
   2      7     9.638     1.607    0.15E-03    0.13E-03    0.12E-06
  PAW Al_GW 19Mar2012                   :
 energy of atom  1       EATOM=  -53.5387
 kinetic energy error for atom=    0.0006 (will be added to EATOM!!)
 
 
 POSCAR: New structure
  positions in cartesian coordinates
  No initial velocities read in
 exchange correlation table for  LEXCH =        8
   RHO(1)=    0.500       N(1)  =     2000
   RHO(2)=  100.500       N(2)  =     4000

 VTST: version 4.1, (05/19/21)

 CHAIN: initializing optimizer
 
 OPT: Using VASP Dynamics algorithm
 CHAIN: Read ICHAIN             0
 
 POSCAR: New structure
  positions in cartesian coordinates
  No initial velocities read in
 


--------------------------------------------------------------------------------------------------------


 ion  position               nearest neighbor table
   1  0.000  0.000  0.000-
   2  0.000  0.125  0.125-
   3  0.125  0.000  0.125-
   4  0.125  0.125  0.000-
   5  0.000  0.000  0.250-
   6  0.000  0.125  0.375-
   7  0.125  0.000  0.375-
   8  0.125  0.125  0.250-
   9  0.000  0.000  0.500-
  10  0.000  0.125  0.625-
  11  0.125  0.000  0.625-
  12  0.125  0.125  0.500-
  13  0.000  0.000  0.750-
  14  0.000  0.125  0.875-
  15  0.125  0.000  0.875-
  16  0.125  0.125  0.750-
  17  0.000  0.250  0.000-
  18  0.000  0.375  0.125-
  19  0.125  0.250  0.125-
  20  0.125  0.375  0.000-
  21  0.000  0.250  0.250-
  22  0.000  0.375  0.375-
  23  0.125  0.250  0.375-
  24  0.125  0.375  0.250-
  25  0.000  0.250  0.500-
  26  0.000  0.375  0.625-
  27  0.125  0.250  0.625-
  28  0.125  0.375  0.500-
  29  0.000  0.250  0.750-
  30  0.000  0.375  0.875-
  31  0.125  0.250  0.875-
  32  0.125  0.375  0.750-
  33  0.000  0.500  0.000-
  34  0.000  0.625  0.125-
  35  0.125  0.500  0.125-
  36  0.125  0.625  0.000-
  37  0.000  0.500  0.250-
  38  0.000  0.625  0.375-
  39  0.125  0.500  0.375-
  40  0.125  0.625  0.250-
  41  0.000  0.500  0.500-
  42  0.000  0.625  0.625-
  43  0.125  0.500  0.625-
  44  0.125  0.625  0.500-
  45  0.000  0.500  0.750-
  46  0.000  0.625  0.875-
  47  0.125  0.500  0.875-
  48  0.125  0.625  0.750-
  49  0.000  0.750  0.000-
  50  0.000  0.875  0.125-
  51  0.125  0.750  0.125-
  52  0.125  0.875  0.000-
  53  0.000  0.750  0.250-
  54  0.000  0.875  0.375-
  55  0.125  0.750  0.375-
  56  0.125  0.875  0.250-
  57  0.000  0.750  0.500-
  58  0.000  0.875  0.625-
  59  0.125  0.750  0.625-
  60  0.125  0.875  0.500-
  61  0.000  0.750  0.750-
  62  0.000  0.875  0.875-
  63  0.125  0.750  0.875-
  64  0.125  0.875  0.750-
  65  0.250  0.000  0.000-
  66  0.250  0.125  0.125-
  67  0.375  0.000  0.125-
  68  0.375  0.125  0.000-
  69  0.250  0.000  0.250-
  70  0.250  0.125  0.375-
  71  0.375  0.000  0.375-
  72  0.375  0.125  0.250-
  73  0.250  0.000  0.500-
  74  0.250  0.125  0.625-
  75  0.375  0.000  0.625-
  76  0.375  0.125  0.500-
  77  0.250  0.000  0.750-
  78  0.250  0.125  0.875-
  79  0.375  0.000  0.875-
  80  0.375  0.125  0.750-
  81  0.250  0.250  0.000-
  82  0.250  0.375  0.125-
  83  0.375  0.250  0.125-
  84  0.375  0.375  0.000-
  85  0.250  0.250  0.250-
  86  0.250  0.375  0.375-
  87  0.375  0.250  0.375-
  88  0.375  0.375  0.250-
  89  0.250  0.250  0.500-
  90  0.250  0.375  0.625-
  91  0.375  0.250  0.625-
  92  0.375  0.375  0.500-
  93  0.250  0.250  0.750-
  94  0.250  0.375  0.875-
  95  0.375  0.250  0.875-
  96  0.375  0.375  0.750-
  97  0.250  0.500  0.000-
  98  0.250  0.625  0.125-
  99  0.375  0.500  0.125-
 100  0.375  0.625  0.000-
 101  0.250  0.500  0.250-
 102  0.250  0.625  0.375-
 103  0.375  0.500  0.375-
 104  0.375  0.625  0.250-
 105  0.250  0.500  0.500-
 106  0.250  0.625  0.625-
 107  0.375  0.500  0.625-
 108  0.375  0.625  0.500-
 109  0.250  0.500  0.750-
 110  0.250  0.625  0.875-
 111  0.375  0.500  0.875-
 112  0.375  0.625  0.750-
 113  0.250  0.750  0.000-
 114  0.250  0.875  0.125-
 115  0.375  0.750  0.125-
 116  0.375  0.875  0.000-
 117  0.250  0.750  0.250-
 118  0.250  0.875  0.375-
 119  0.375  0.750  0.375-
 120  0.375  0.875  0.250-
 121  0.250  0.750  0.500-
 122  0.250  0.875  0.625-
 123  0.375  0.750  0.625-
 124  0.375  0.875  0.500-
 125  0.250  0.750  0.750-
 126  0.250  0.875  0.875-
 127  0.375  0.750  0.875-
 128  0.375  0.875  0.750-
 129  0.500  0.000  0.000-
 130  0.500  0.125  0.125-
 131  0.625  0.000  0.125-
 132  0.625  0.125  0.000-
 133  0.500  0.000  0.250-
 134  0.500  0.125  0.375-
 135  0.625  0.000  0.375-
 136  0.625  0.125  0.250-
 137  0.500  0.000  0.500-
 138  0.500  0.125  0.625-
 139  0.625  0.000  0.625-
 140  0.625  0.125  0.500-
 141  0.500  0.000  0.750-
 142  0.500  0.125  0.875-
 143  0.625  0.000  0.875-
 144  0.625  0.125  0.750-
 145  0.500  0.250  0.000-
 146  0.500  0.375  0.125-
 147  0.625  0.250  0.125-
 148  0.625  0.375  0.000-
 149  0.500  0.250  0.250-
 150  0.500  0.375  0.375-
 151  0.625  0.250  0.375-
 152  0.625  0.375  0.250-
 153  0.500  0.250  0.500-
 154  0.500  0.375  0.625-
 155  0.625  0.250  0.625-
 156  0.625  0.375  0.500-
 157  0.500  0.250  0.750-
 158  0.500  0.375  0.875-
 159  0.625  0.250  0.875-
 160  0.625  0.375  0.750-
 161  0.500  0.500  0.000-
 162  0.500  0.625  0.125-
 163  0.625  0.500  0.125-
 164  0.625  0.625  0.000-
 165  0.500  0.500  0.250-
 166  0.500  0.625  0.375-
 167  0.625  0.500  0.375-
 168  0.625  0.625  0.250-
 169  0.500  0.500  0.500-
 170  0.500  0.625  0.625-
 171  0.625  0.500  0.625-
 172  0.625  0.625  0.500-
 173  0.500  0.500  0.750-
 174  0.500  0.625  0.875-
 175  0.625  0.500  0.875-
 176  0.625  0.625  0.750-
 177  0.500  0.750  0.000-
 178  0.500  0.875  0.125-
 179  0.625  0.750  0.125-
 180  0.625  0.875  0.000-
 181  0.500  0.750  0.250-
 182  0.500  0.875  0.375-
 183  0.625  0.750  0.375-
 184  0.625  0.875  0.250-
 185  0.500  0.750  0.500-
 186  0.500  0.875  0.625-
 187  0.625  0.750  0.625-
 188  0.625  0.875  0.500-
 189  0.500  0.750  0.750-
 190  0.500  0.875  0.875-
 191  0.625  0.750  0.875-
 192  0.625  0.875  0.750-
 193  0.750  0.000  0.000-
 194  0.750  0.125  0.125-
 195  0.875  0.000  0.125-
 196  0.875  0.125  0.000-
 197  0.750  0.000  0.250-
 198  0.750  0.125  0.375-
 199  0.875  0.000  0.375-
 200  0.875  0.125  0.250-
 201  0.750  0.000  0.500-
 202  0.750  0.125  0.625-
 203  0.875  0.000  0.625-
 204  0.875  0.125  0.500-
 205  0.750  0.000  0.750-
 206  0.750  0.125  0.875-
 207  0.875  0.000  0.875-
 208  0.875  0.125  0.750-
 209  0.750  0.250  0.000-
 210  0.750  0.375  0.125-
 211  0.875  0.250  0.125-
 212  0.875  0.375  0.000-
 213  0.750  0.250  0.250-
 214  0.750  0.375  0.375-
 215  0.875  0.250  0.375-
 216  0.875  0.375  0.250-
 217  0.750  0.250  0.500-
 218  0.750  0.375  0.625-
 219  0.875  0.250  0.625-
 220  0.875  0.375  0.500-
 221  0.750  0.250  0.750-
 222  0.750  0.375  0.875-
 223  0.875  0.250  0.875-
 224  0.875  0.375  0.750-
 225  0.750  0.500  0.000-
 226  0.750  0.625  0.125-
 227  0.875  0.500  0.125-
 228  0.875  0.625  0.000-
 229  0.750  0.500  0.250-
 230  0.750  0.625  0.375-
 231  0.875  0.500  0.375-
 232  0.875  0.625  0.250-
 233  0.750  0.500  0.500-
 234  0.750  0.625  0.625-
 235  0.875  0.500  0.625-
 236  0.875  0.625  0.500-
 237  0.750  0.500  0.750-
 238  0.750  0.625  0.875-
 239  0.875  0.500  0.875-
 240  0.875  0.625  0.750-
 241  0.750  0.750  0.000-
 242  0.750  0.875  0.125-
 243  0.875  0.750  0.125-
 244  0.875  0.875  0.000-
 245  0.750  0.750  0.250-
 246  0.750  0.875  0.375-
 247  0.875  0.750  0.375-
 248  0.875  0.875  0.250-
 249  0.750  0.750  0.500-
 250  0.750  0.875  0.625-
 251  0.875  0.750  0.625-
 252  0.875  0.875  0.500-
 253  0.750  0.750  0.750-
 254  0.750  0.875  0.875-
 255  0.875  0.750  0.875-
 256  0.875  0.875  0.750-
 
  LATTYP: Found a simple cubic cell.
 ALAT       =    16.1980000000
  
  Lattice vectors:
  
 A1 = (  16.1980000000,   0.0000000000,   0.0000000000)
 A2 = (   0.0000000000,  16.1980000000,   0.0000000000)
 A3 = (   0.0000000000,   0.0000000000,  16.1980000000)


Analysis of symmetry for initial positions (statically):
=====================================================================
 Subroutine PRICEL returns following result:
 
  LATTYP: Found a face centered cubic cell.
 ALAT       =     4.0495000000
  
  Lattice vectors:
  
 A1 = (   2.0247500000,  -2.0247500000,   0.0000000000)
 A2 = (   2.0247500000,   0.0000000000,   2.0247500000)
 A3 = (   0.0000000000,  -2.0247500000,   2.0247500000)
 
 256 primitive cells build up your supercell.
 

 Routine SETGRP: Setting up the symmetry group for a 
 simple cubic supercell.


 Subroutine GETGRP returns: Found 48 space group operations
 (whereof 48 operations were pure point group operations)
 out of a pool of 48 trial point group operations.


The static configuration has the point symmetry O_h .


Analysis of symmetry for dynamics (positions and initial velocities):
=====================================================================
 Subroutine PRICEL returns following result:
 
  LATTYP: Found a face centered cubic cell.
 ALAT       =     4.0495000000
  
  Lattice vectors:
  
 A1 = (   2.0247500000,  -2.0247500000,   0.0000000000)
 A2 = (   2.0247500000,   0.0000000000,   2.0247500000)
 A3 = (   0.0000000000,  -2.0247500000,   2.0247500000)
 
 256 primitive cells build up your supercell.
 

 Routine SETGRP: Setting up the symmetry group for a 
 simple cubic supercell.


 Subroutine GETGRP returns: Found 48 space group operations
 (whereof 48 operations were pure point group operations)
 out of a pool of 48 trial point group operations.


The dynamic configuration has the point symmetry O_h .


 Subroutine INISYM returns: Found 48 space group operations
 (whereof 48 operations are pure point group operations),
 and found   256 'primitive' translations


----------------------------------------------------------------------------------------

                                     Primitive cell                                     

  volume of cell :      16.6014

  direct lattice vectors                    reciprocal lattice vectors
     2.024750000 -2.024750000  0.000000000     0.246944067 -0.246944067 -0.246944067
     2.024750000  0.000000000  2.024750000     0.246944067  0.246944067  0.246944067
     0.000000000 -2.024750000  2.024750000    -0.246944067 -0.246944067  0.246944067

  length of vectors
     2.863428910  2.863428910  2.863428910     0.427719671  0.427719671  0.427719671

  position of ions in fractional coordinates (direct lattice)
     0.000000000  0.000000000  0.000000000

  ion indices of the primitive-cell ions
   primitive index   ion index
                 1           1

----------------------------------------------------------------------------------------

 
 
 KPOINTS: Automatic generation                    

Automatic generation of k-mesh.
 Grid dimensions read from file:
 generate k-points for:    2    2    2

 Generating k-lattice:

  Cartesian coordinates                     Fractional coordinates (reciprocal lattice)
     0.030868008  0.000000000  0.000000000     0.500000000  0.000000000  0.000000000
     0.000000000  0.030868008  0.000000000     0.000000000  0.500000000  0.000000000
     0.000000000  0.000000000  0.030868008     0.000000000  0.000000000  0.500000000

  Length of vectors
     0.030868008  0.030868008  0.030868008

  Shift w.r.t. Gamma in fractional coordinates (k-lattice)
     0.000000000  0.000000000  0.000000000

 
 Subroutine IBZKPT returns following result:
 ===========================================
 
 Found      4 irreducible k-points:
 
 Following reciprocal coordinates:
            Coordinates               Weight
  0.000000  0.000000  0.000000      1.000000
  0.500000  0.000000  0.000000      3.000000
  0.500000  0.500000  0.000000      3.000000
  0.500000  0.500000  0.500000      1.000000
 
 Following cartesian coordinates:
            Coordinates               Weight
  0.000000  0.000000  0.000000      1.000000
  0.030868  0.000000  0.000000      3.000000
  0.030868  0.030868  0.000000      3.000000
  0.030868  0.030868  0.030868      1.000000
 


--------------------------------------------------------------------------------------------------------




 Dimension of arrays:
   k-points           NKPTS =      4   k-points in BZ     NKDIM =      4   number of bands    NBANDS=    513
   number of dos      NEDOS =    301   number of ions     NIONS =    256
   non local maximal  LDIM  =      6   non local SUM 2l+1 LMDIM =     18
   total plane-waves  NPLWV = 512000
   max r-space proj   IRMAX =   1605   max aug-charges    IRDMAX=   4888
   dimension x,y,z NGX =    80 NGY =   80 NGZ =   80
   dimension x,y,z NGXF=   160 NGYF=  160 NGZF=  160
   support grid    NGXF=   160 NGYF=  160 NGZF=  160
   ions per type =             256
   NGX,Y,Z   is equivalent  to a cutoff of   8.21,  8.21,  8.21 a.u.
   NGXF,Y,Z  is equivalent  to a cutoff of  16.42, 16.42, 16.42 a.u.

 SYSTEM =  NiAl                                    
 POSCAR =  New structure                           

 Startparameter for this run:
   NWRITE =      2    write-flag & timer
   PREC   = normal    normal or accurate (medium, high low for compatibility)
   ISTART =      0    job   : 0-new  1-cont  2-samecut
   ICHARG =      2    charge: 1-file 2-atom 10-const
   ISPIN  =      1    spin polarized calculation?
   LNONCOLLINEAR =      F non collinear calculations
   LSORBIT =      F    spin-orbit coupling
   INIWAV =      1    electr: 0-lowe 1-rand  2-diag
   LASPH  =      F    aspherical Exc in radial PAW
 Electronic Relaxation 1
   ENCUT  =  360.0 eV  26.46 Ry    5.14 a.u.  25.06 25.06 25.06*2*pi/ulx,y,z
   ENINI  =  360.0     initial cutoff
   ENAUG  =  482.1 eV  augmentation charge cutoff
   NELM   =     60;   NELMIN=  6; NELMDL= -5     # of ELM steps 
   EDIFF  = 0.1E-06   stopping-criterion for ELM
   LREAL  =      T    real-space projection
   NLSPLINE    = F    spline interpolate recip. space projectors
   LCOMPAT=      F    compatible to vasp.4.4
   GGA_COMPAT  = T    GGA compatible to vasp.4.4-vasp.4.6
   LMAXPAW     = -100 max onsite density
   LMAXMIX     =    2 max onsite mixed and CHGCAR
   VOSKOWN=      0    Vosko Wilk Nusair interpolation
   ROPT   =   -0.00050
 Ionic relaxation
   EDIFFG = 0.1E-05   stopping-criterion for IOM
   NSW    =      0    number of steps for IOM
   NBLOCK =      1;   KBLOCK =      1    inner block; outer block 
   IBRION =     -1    ionic relax: 0-MD 1-quasi-New 2-CG
   NFREE  =      0    steps in history (QN), initial steepest desc. (CG)
   ISIF   =      2    stress and relaxation
   IWAVPR =     10    prediction:  0-non 1-charg 2-wave 3-comb
   ISYM   =      2    0-nonsym 1-usesym 2-fastsym
   LCORR  =      T    Harris-Foulkes like correction to forces

   POTIM  = 0.5000    time-step for ionic-motion
   TEIN   =    0.0    initial temperature
   TEBEG  =    0.0;   TEEND  =   0.0 temperature during run
   SMASS  =  -3.00    Nose mass-parameter (am)
   estimated Nose-frequenzy (Omega)   =  0.10E-29 period in steps = 0.13E+47 mass=  -0.600E-26a.u.
   SCALEE = 1.0000    scale energy and forces
   NPACO  =    256;   APACO  = 16.0  distance and # of slots for P.C.
   PSTRESS=    0.0 pullay stress

  Mass of Ions in am
   POMASS =  26.98
  Ionic Valenz
   ZVAL   =   3.00
  Atomic Wigner-Seitz radii
   RWIGS  =  -1.00
  virtual crystal weights 
   VCA    =   1.00
   NELECT =     768.0000    total number of electrons
   NUPDOWN=      -1.0000    fix difference up-down

 DOS related values:
   EMIN   =  10.00;   EMAX   =-10.00  energy-range for DOS
   EFERMI =   0.00
   ISMEAR =     0;   SIGMA  =   0.05  broadening in eV -4-tet -1-fermi 0-gaus

 Electronic relaxation 2 (details)
   IALGO  =     38    algorithm
   LDIAG  =      T    sub-space diagonalisation (order eigenvalues)
   LSUBROT=      F    optimize rotation matrix (better conditioning)
   TURBO    =      0    0=normal 1=particle mesh
   IRESTART =      0    0=no restart 2=restart with 2 vectors
   NREBOOT  =      0    no. of reboots
   NMIN     =      0    reboot dimension
   EREF     =   0.00    reference energy to select bands
   IMIX   =      4    mixing-type and parameters
     AMIX     =   0.40;   BMIX     =  1.00
     AMIX_MAG =   1.60;   BMIX_MAG =  1.00
     AMIN     =   0.10
     WC   =   100.;   INIMIX=   1;  MIXPRE=   1;  MAXMIX= -45

 Intra band minimization:
   WEIMIN = 0.0000     energy-eigenvalue tresh-hold
   EBREAK =  0.49E-10  absolut break condition
   DEPER  =   0.30     relativ break condition  

   TIME   =   0.40     timestep for ELM

  volume/ion in A,a.u.               =      16.60       112.03
  Fermi-wavevector in a.u.,A,eV,Ry     =   0.925551  1.749038 11.655366  0.856645
  Thomas-Fermi vector in A             =   2.051418
 
 Write flags
   LWAVE        =      F    write WAVECAR
   LDOWNSAMPLE  =      F    k-point downsampling of WAVECAR
   LCHARG       =      F    write CHGCAR
   LVTOT        =      F    write LOCPOT, total local potential
   LVHAR        =      F    write LOCPOT, Hartree potential only
   LELF         =      F    write electronic localiz. function (ELF)
   LORBIT       =      0    0 simple, 1 ext, 2 COOP (PROOUT), +10 PAW based schemes


 Dipole corrections
   LMONO  =      F    monopole corrections only (constant potential shift)
   LDIPOL =      F    correct potential (dipole corrections)
   IDIPOL =      0    1-x, 2-y, 3-z, 4-all directions 
   EPSILON=  1.0000000 bulk dielectric constant

 Exchange correlation treatment:
   GGA     =    --    GGA type
   LEXCH   =     8    internal setting for exchange type
   VOSKOWN=      0    Vosko Wilk Nusair interpolation
   LHFCALC =     F    Hartree Fock is set to
   LHFONE  =     F    Hartree Fock one center treatment
   AEXX    =    0.0000 exact exchange contribution

 Linear response parameters
   LEPSILON=     F    determine dielectric tensor
   LRPA    =     F    only Hartree local field effects (RPA)
   LNABLA  =     F    use nabla operator in PAW spheres
   LVEL    =     F    velocity operator in full k-point grid
   LINTERFAST=   F  fast interpolation
   KINTER  =     0    interpolate to denser k-point grid
   CSHIFT  =0.1000    complex shift for real part using Kramers Kronig
   OMEGAMAX=  -1.0    maximum frequency
   DEG_THRESHOLD= 0.2000000E-02 threshold for treating states as degnerate
   RTIME   =   -0.100 relaxation time in fs
  (WPLASMAI=    0.000 imaginary part of plasma frequency in eV, 0.658/RTIME)
   DFIELD  = 0.0000000 0.0000000 0.0000000 field for delta impulse in time
 
 Orbital magnetization related:
   ORBITALMAG=     F  switch on orbital magnetization
   LCHIMAG   =     F  perturbation theory with respect to B field
   DQ        =  0.001000  dq finite difference perturbation B field
   LLRAUG    =     F  two centre corrections for induced B field



--------------------------------------------------------------------------------------------------------


 Static calculation
 charge density and potential will be updated during run
 non-spin polarized calculation
 Variant of blocked Davidson
 Davidson routine will perform the subspace rotation
 perform sub-space diagonalisation
    after iterative eigenvector-optimisation
 modified Broyden-mixing scheme, WC =      100.0
 initial mixing is a Kerker type mixing with AMIX =  0.4000 and BMIX =      1.0000
 Hartree-type preconditioning will be used
 using additional bands           129
 real space projection scheme for non local part
 use partial core corrections
 calculate Harris-corrections to forces 
   (improved forces if not selfconsistent)
 use gradient corrections 
 use of overlap-Matrix (Vanderbilt PP)
 Gauss-broadening in eV      SIGMA  =   0.05


--------------------------------------------------------------------------------------------------------


  energy-cutoff  :      360.00
  volume of cell :     4249.95
      direct lattice vectors                 reciprocal lattice vectors
    16.198000000  0.000000000  0.000000000     0.061736017  0.000000000  0.000000000
     0.000000000 16.198000000  0.000000000     0.000000000  0.061736017  0.000000000
     0.000000000  0.000000000 16.198000000     0.000000000  0.000000000  0.061736017

  length of vectors
    16.198000000 16.198000000 16.198000000     0.061736017  0.061736017  0.061736017


 
 k-points in units of 2pi/SCALE and weight: Automatic generation                    
   0.00000000  0.00000000  0.00000000       0.125
   0.03086801  0.00000000  0.00000000       0.375
   0.03086801  0.03086801  0.00000000       0.375
   0.03086801  0.03086801  0.03086801       0.125
 
 k-points in reciprocal lattice and weights: Automatic generation                    
   0.00000000  0.00000000  0.00000000       0.125
   0.50000000  0.00000000  0.00000000       0.375
   0.50000000  0.50000000  0.00000000       0.375
   0.50000000  0.50000000  0.50000000       0.125
 
 position of ions in fractional coordinates (direct lattice) 
   0.00000000  0.00000000  0.00000000
   0.00000000  0.12500000  0.12500000
   0.12500000  0.00000000  0.12500000
   0.12500000  0.12500000  0.00000000
   0.00000000  0.00000000  0.25000000
   0.00000000  0.12500000  0.37500000
   0.12500000  0.00000000  0.37500000
   0.12500000  0.12500000  0.25000000
   0.00000000  0.00000000  0.50000000
   0.00000000  0.12500000  0.62500000
   0.12500000  0.00000000  0.62500000
   0.12500000  0.12500000  0.50000000
   0.00000000  0.00000000  0.75000000
   0.00000000  0.12500000  0.87500000
   0.12500000  0.00000000  0.87500000
   0.12500000  0.12500000  0.75000000
   0.00000000  0.25000000  0.00000000
   0.00000000  0.37500000  0.12500000
   0.12500000  0.25000000  0.12500000
   0.12500000  0.37500000  0.00000000
   0.00000000  0.25000000  0.25000000
   0.00000000  0.37500000  0.37500000
   0.12500000  0.25000000  0.37500000
   0.12500000  0.37500000  0.25000000
   0.00000000  0.25000000  0.50000000
   0.00000000  0.37500000  0.62500000
   0.12500000  0.25000000  0.62500000
   0.12500000  0.37500000  0.50000000
   0.00000000  0.25000000  0.75000000
   0.00000000  0.37500000  0.87500000
   0.12500000  0.25000000  0.87500000
   0.12500000  0.37500000  0.75000000
   0.00000000  0.50000000  0.00000000
   0.00000000  0.62500000  0.12500000
   0.12500000  0.50000000  0.12500000
   0.12500000  0.62500000  0.00000000
   0.00000000  0.50000000  0.25000000
   0.00000000  0.62500000  0.37500000
   0.12500000  0.50000000  0.37500000
   0.12500000  0.62500000  0.25000000
   0.00000000  0.50000000  0.50000000
   0.00000000  0.62500000  0.62500000
   0.12500000  0.50000000  0.62500000
   0.12500000  0.62500000  0.50000000
   0.00000000  0.50000000  0.75000000
   0.00000000  0.62500000  0.87500000
   0.12500000  0.50000000  0.87500000
   0.12500000  0.62500000  0.75000000
   0.00000000  0.75000000  0.00000000
   0.00000000  0.87500000  0.12500000
   0.12500000  0.75000000  0.12500000
   0.12500000  0.87500000  0.00000000
   0.00000000  0.75000000  0.25000000
   0.00000000  0.87500000  0.37500000
   0.12500000  0.75000000  0.37500000
   0.12500000  0.87500000  0.25000000
   0.00000000  0.75000000  0.50000000
   0.00000000  0.87500000  0.62500000
   0.12500000  0.75000000  0.62500000
   0.12500000  0.87500000  0.50000000
   0.00000000  0.75000000  0.75000000
   0.00000000  0.87500000  0.87500000
   0.12500000  0.75000000  0.87500000
   0.12500000  0.87500000  0.75000000
   0.25000000  0.00000000  0.00000000
   0.25000000  0.12500000  0.12500000
   0.37500000  0.00000000  0.12500000
   0.37500000  0.12500000  0.00000000
   0.25000000  0.00000000  0.25000000
   0.25000000  0.12500000  0.37500000
   0.37500000  0.00000000  0.37500000
   0.37500000  0.12500000  0.25000000
   0.25000000  0.00000000  0.50000000
   0.25000000  0.12500000  0.62500000
   0.37500000  0.00000000  0.62500000
   0.37500000  0.12500000  0.50000000
   0.25000000  0.00000000  0.75000000
   0.25000000  0.12500000  0.87500000
   0.37500000  0.00000000  0.87500000
   0.37500000  0.12500000  0.75000000
   0.25000000  0.25000000  0.00000000
   0.25000000  0.37500000  0.12500000
   0.37500000  0.25000000  0.12500000
   0.37500000  0.37500000  0.00000000
   0.25000000  0.25000000  0.25000000
   0.25000000  0.37500000  0.37500000
   0.37500000  0.25000000  0.37500000
   0.37500000  0.37500000  0.25000000
   0.25000000  0.25000000  0.50000000
   0.25000000  0.37500000  0.62500000
   0.37500000  0.25000000  0.62500000
   0.37500000  0.37500000  0.50000000
   0.25000000  0.25000000  0.75000000
   0.25000000  0.37500000  0.87500000
   0.37500000  0.25000000  0.87500000
   0.37500000  0.37500000  0.75000000
   0.25000000  0.50000000  0.00000000
   0.25000000  0.62500000  0.12500000
   0.37500000  0.50000000  0.12500000
   0.37500000  0.62500000  0.00000000
   0.25000000  0.50000000  0.25000000
   0.25000000  0.62500000  0.37500000
   0.37500000  0.50000000  0.37500000
   0.37500000  0.62500000  0.25000000
   0.25000000  0.50000000  0.50000000
   0.25000000  0.62500000  0.62500000
   0.37500000  0.50000000  0.62500000
   0.37500000  0.62500000  0.50000000
   0.25000000  0.50000000  0.75000000
   0.25000000  0.62500000  0.87500000
   0.37500000  0.50000000  0.87500000
   0.37500000  0.62500000  0.75000000
   0.25000000  0.75000000  0.00000000
   0.25000000  0.87500000  0.12500000
   0.37500000  0.75000000  0.12500000
   0.37500000  0.87500000  0.00000000
   0.25000000  0.75000000  0.25000000
   0.25000000  0.87500000  0.37500000
   0.37500000  0.75000000  0.37500000
   0.37500000  0.87500000  0.25000000
   0.25000000  0.75000000  0.50000000
   0.25000000  0.87500000  0.62500000
   0.37500000  0.75000000  0.62500000
   0.37500000  0.87500000  0.50000000
   0.25000000  0.75000000  0.75000000
   0.25000000  0.87500000  0.87500000
   0.37500000  0.75000000  0.87500000
   0.37500000  0.87500000  0.75000000
   0.50000000  0.00000000  0.00000000
   0.50000000  0.12500000  0.12500000
   0.62500000  0.00000000  0.12500000
   0.62500000  0.12500000  0.00000000
   0.50000000  0.00000000  0.25000000
   0.50000000  0.12500000  0.37500000
   0.62500000  0.00000000  0.37500000
   0.62500000  0.12500000  0.25000000
   0.50000000  0.00000000  0.50000000
   0.50000000  0.12500000  0.62500000
   0.62500000  0.00000000  0.62500000
   0.62500000  0.12500000  0.50000000
   0.50000000  0.00000000  0.75000000
   0.50000000  0.12500000  0.87500000
   0.62500000  0.00000000  0.87500000
   0.62500000  0.12500000  0.75000000
   0.50000000  0.25000000  0.00000000
   0.50000000  0.37500000  0.12500000
   0.62500000  0.25000000  0.12500000
   0.62500000  0.37500000  0.00000000
   0.50000000  0.25000000  0.25000000
   0.50000000  0.37500000  0.37500000
   0.62500000  0.25000000  0.37500000
   0.62500000  0.37500000  0.25000000
   0.50000000  0.25000000  0.50000000
   0.50000000  0.37500000  0.62500000
   0.62500000  0.25000000  0.62500000
   0.62500000  0.37500000  0.50000000
   0.50000000  0.25000000  0.75000000
   0.50000000  0.37500000  0.87500000
   0.62500000  0.25000000  0.87500000
   0.62500000  0.37500000  0.75000000
   0.50000000  0.50000000  0.00000000
   0.50000000  0.62500000  0.12500000
   0.62500000  0.50000000  0.12500000
   0.62500000  0.62500000  0.00000000
   0.50000000  0.50000000  0.25000000
   0.50000000  0.62500000  0.37500000
   0.62500000  0.50000000  0.37500000
   0.62500000  0.62500000  0.25000000
   0.50000000  0.50000000  0.50000000
   0.50000000  0.62500000  0.62500000
   0.62500000  0.50000000  0.62500000
   0.62500000  0.62500000  0.50000000
   0.50000000  0.50000000  0.75000000
   0.50000000  0.62500000  0.87500000
   0.62500000  0.50000000  0.87500000
   0.62500000  0.62500000  0.75000000
   0.50000000  0.75000000  0.00000000
   0.50000000  0.87500000  0.12500000
   0.62500000  0.75000000  0.12500000
   0.62500000  0.87500000  0.00000000
   0.50000000  0.75000000  0.25000000
   0.50000000  0.87500000  0.37500000
   0.62500000  0.75000000  0.37500000
   0.62500000  0.87500000  0.25000000
   0.50000000  0.75000000  0.50000000
   0.50000000  0.87500000  0.62500000
   0.62500000  0.75000000  0.62500000
   0.62500000  0.87500000  0.50000000
   0.50000000  0.75000000  0.75000000
   0.50000000  0.87500000  0.87500000
   0.62500000  0.75000000  0.87500000
   0.62500000  0.87500000  0.75000000
   0.75000000  0.00000000  0.00000000
   0.75000000  0.12500000  0.12500000
   0.87500000  0.00000000  0.12500000
   0.87500000  0.12500000  0.00000000
   0.75000000  0.00000000  0.25000000
   0.75000000  0.12500000  0.37500000
   0.87500000  0.00000000  0.37500000
   0.87500000  0.12500000  0.25000000
   0.75000000  0.00000000  0.50000000
   0.75000000  0.12500000  0.62500000
   0.87500000  0.00000000  0.62500000
   0.87500000  0.12500000  0.50000000
   0.75000000  0.00000000  0.75000000
   0.75000000  0.12500000  0.87500000
   0.87500000  0.00000000  0.87500000
   0.87500000  0.12500000  0.75000000
   0.75000000  0.25000000  0.00000000
   0.75000000  0.37500000  0.12500000
   0.87500000  0.25000000  0.12500000
   0.87500000  0.37500000  0.00000000
   0.75000000  0.25000000  0.25000000
   0.75000000  0.37500000  0.37500000
   0.87500000  0.25000000  0.37500000
   0.87500000  0.37500000  0.25000000
   0.75000000  0.25000000  0.50000000
   0.75000000  0.37500000  0.62500000
   0.87500000  0.25000000  0.62500000
   0.87500000  0.37500000  0.50000000
   0.75000000  0.25000000  0.75000000
   0.75000000  0.37500000  0.87500000
   0.87500000  0.25000000  0.87500000
   0.87500000  0.37500000  0.75000000
   0.75000000  0.50000000  0.00000000
   0.75000000  0.62500000  0.12500000
   0.87500000  0.50000000  0.12500000
   0.87500000  0.62500000  0.00000000
   0.75000000  0.50000000  0.25000000
   0.75000000  0.62500000  0.37500000
   0.87500000  0.50000000  0.37500000
   0.87500000  0.62500000  0.25000000
   0.75000000  0.50000000  0.50000000
   0.75000000  0.62500000  0.62500000
   0.87500000  0.50000000  0.62500000
   0.87500000  0.62500000  0.50000000
   0.75000000  0.50000000  0.75000000
   0.75000000  0.62500000  0.87500000
   0.87500000  0.50000000  0.87500000
   0.87500000  0.62500000  0.75000000
   0.75000000  0.75000000  0.00000000
   0.75000000  0.87500000  0.12500000
   0.87500000  0.75000000  0.12500000
   0.87500000  0.87500000  0.00000000
   0.75000000  0.75000000  0.25000000
   0.75000000  0.87500000  0.37500000
   0.87500000  0.75000000  0.37500000
   0.87500000  0.87500000  0.25000000
   0.75000000  0.75000000  0.50000000
   0.75000000  0.87500000  0.62500000
   0.87500000  0.75000000  0.62500000
   0.87500000  0.87500000  0.50000000
   0.75000000  0.75000000  0.75000000
   0.75000000  0.87500000  0.87500000
   0.87500000  0.75000000  0.87500000
   0.87500000  0.87500000  0.75000000
 
 position of ions in cartesian coordinates  (Angst):
   0.00000000  0.00000000  0.00000000
   0.00000000  2.02475000  2.02475000
   2.02475000  0.00000000  2.02475000
   2.02475000  2.02475000  0.00000000
   0.00000000  0.00000000  4.04950000
   0.00000000  2.02475000  6.07425000
   2.02475000  0.00000000  6.07425000
   2.02475000  2.02475000  4.04950000
   0.00000000  0.00000000  8.09900000
   0.00000000  2.02475000 10.12375000
   2.02475000  0.00000000 10.12375000
   2.02475000  2.02475000  8.09900000
   0.00000000  0.00000000 12.14850000
   0.00000000  2.02475000 14.17325000
   2.02475000  0.00000000 14.17325000
   2.02475000  2.02475000 12.14850000
   0.00000000  4.04950000  0.00000000
   0.00000000  6.07425000  2.02475000
   2.02475000  4.04950000  2.02475000
   2.02475000  6.07425000  0.00000000
   0.00000000  4.04950000  4.04950000
   0.00000000  6.07425000  6.07425000
   2.02475000  4.04950000  6.07425000
   2.02475000  6.07425000  4.04950000
   0.00000000  4.04950000  8.09900000
   0.00000000  6.07425000 10.12375000
   2.02475000  4.04950000 10.12375000
   2.02475000  6.07425000  8.09900000
   0.00000000  4.04950000 12.14850000
   0.00000000  6.07425000 14.17325000
   2.02475000  4.04950000 14.17325000
   2.02475000  6.07425000 12.14850000
   0.00000000  8.09900000  0.00000000
   0.00000000 10.12375000  2.02475000
   2.02475000  8.09900000  2.02475000
   2.02475000 10.12375000  0.00000000
   0.00000000  8.09900000  4.04950000
   0.00000000 10.12375000  6.07425000
   2.02475000  8.09900000  6.07425000
   2.02475000 10.12375000  4.04950000
   0.00000000  8.09900000  8.09900000
   0.00000000 10.12375000 10.12375000
   2.02475000  8.09900000 10.12375000
   2.02475000 10.12375000  8.09900000
   0.00000000  8.09900000 12.14850000
   0.00000000 10.12375000 14.17325000
   2.02475000  8.09900000 14.17325000
   2.02475000 10.12375000 12.14850000
   0.00000000 12.14850000  0.00000000
   0.00000000 14.17325000  2.02475000
   2.02475000 12.14850000  2.02475000
   2.02475000 14.17325000  0.00000000
   0.00000000 12.14850000  4.04950000
   0.00000000 14.17325000  6.07425000
   2.02475000 12.14850000  6.07425000
   2.02475000 14.17325000  4.04950000
   0.00000000 12.14850000  8.09900000
   0.00000000 14.17325000 10.12375000
   2.02475000 12.14850000 10.12375000
   2.02475000 14.17325000  8.09900000
   0.00000000 12.14850000 12.14850000
   0.00000000 14.17325000 14.17325000
   2.02475000 12.14850000 14.17325000
   2.02475000 14.17325000 12.14850000
   4.04950000  0.00000000  0.00000000
   4.04950000  2.02475000  2.02475000
   6.07425000  0.00000000  2.02475000
   6.07425000  2.02475000  0.00000000
   4.04950000  0.00000000  4.04950000
   4.04950000  2.02475000  6.07425000
   6.07425000  0.00000000  6.07425000
   6.07425000  2.02475000  4.04950000
   4.04950000  0.00000000  8.09900000
   4.04950000  2.02475000 10.12375000
   6.07425000  0.00000000 10.12375000
   6.07425000  2.02475000  8.09900000
   4.04950000  0.00000000 12.14850000
   4.04950000  2.02475000 14.17325000
   6.07425000  0.00000000 14.17325000
   6.07425000  2.02475000 12.14850000
   4.04950000  4.04950000  0.00000000
   4.04950000  6.07425000  2.02475000
   6.07425000  4.04950000  2.02475000
   6.07425000  6.07425000  0.00000000
   4.04950000  4.04950000  4.04950000
   4.04950000  6.07425000  6.07425000
   6.07425000  4.04950000  6.07425000
   6.07425000  6.07425000  4.04950000
   4.04950000  4.04950000  8.09900000
   4.04950000  6.07425000 10.12375000
   6.07425000  4.04950000 10.12375000
   6.07425000  6.07425000  8.09900000
   4.04950000  4.04950000 12.14850000
   4.04950000  6.07425000 14.17325000
   6.07425000  4.04950000 14.17325000
   6.07425000  6.07425000 12.14850000
   4.04950000  8.09900000  0.00000000
   4.04950000 10.12375000  2.02475000
   6.07425000  8.09900000  2.02475000
   6.07425000 10.12375000  0.00000000
   4.04950000  8.09900000  4.04950000
   4.04950000 10.12375000  6.07425000
   6.07425000  8.09900000  6.07425000
   6.07425000 10.12375000  4.04950000
   4.04950000  8.09900000  8.09900000
   4.04950000 10.12375000 10.12375000
   6.07425000  8.09900000 10.12375000
   6.07425000 10.12375000  8.09900000
   4.04950000  8.09900000 12.14850000
   4.04950000 10.12375000 14.17325000
   6.07425000  8.09900000 14.17325000
   6.07425000 10.12375000 12.14850000
   4.04950000 12.14850000  0.00000000
   4.04950000 14.17325000  2.02475000
   6.07425000 12.14850000  2.02475000
   6.07425000 14.17325000  0.00000000
   4.04950000 12.14850000  4.04950000
   4.04950000 14.17325000  6.07425000
   6.07425000 12.14850000  6.07425000
   6.07425000 14.17325000  4.04950000
   4.04950000 12.14850000  8.09900000
   4.04950000 14.17325000 10.12375000
   6.07425000 12.14850000 10.12375000
   6.07425000 14.17325000  8.09900000
   4.04950000 12.14850000 12.14850000
   4.04950000 14.17325000 14.17325000
   6.07425000 12.14850000 14.17325000
   6.07425000 14.17325000 12.14850000
   8.09900000  0.00000000  0.00000000
   8.09900000  2.02475000  2.02475000
  10.12375000  0.00000000  2.02475000
  10.12375000  2.02475000  0.00000000
   8.09900000  0.00000000  4.04950000
   8.09900000  2.02475000  6.07425000
  10.12375000  0.00000000  6.07425000
  10.12375000  2.02475000  4.04950000
   8.09900000  0.00000000  8.09900000
   8.09900000  2.02475000 10.12375000
  10.12375000  0.00000000 10.12375000
  10.12375000  2.02475000  8.09900000
   8.09900000  0.00000000 12.14850000
   8.09900000  2.02475000 14.17325000
  10.12375000  0.00000000 14.17325000
  10.12375000  2.02475000 12.14850000
   8.09900000  4.04950000  0.00000000
   8.09900000  6.07425000  2.02475000
  10.12375000  4.04950000  2.02475000
  10.12375000  6.07425000  0.00000000
   8.09900000  4.04950000  4.04950000
   8.09900000  6.07425000  6.07425000
  10.12375000  4.04950000  6.07425000
  10.12375000  6.07425000  4.04950000
   8.09900000  4.04950000  8.09900000
   8.09900000  6.07425000 10.12375000
  10.12375000  4.04950000 10.12375000
  10.12375000  6.07425000  8.09900000
   8.09900000  4.04950000 12.14850000
   8.09900000  6.07425000 14.17325000
  10.12375000  4.04950000 14.17325000
  10.12375000  6.07425000 12.14850000
   8.09900000  8.09900000  0.00000000
   8.09900000 10.12375000  2.02475000
  10.12375000  8.09900000  2.02475000
  10.12375000 10.12375000  0.00000000
   8.09900000  8.09900000  4.04950000
   8.09900000 10.12375000  6.07425000
  10.12375000  8.09900000  6.07425000
  10.12375000 10.12375000  4.04950000
   8.09900000  8.09900000  8.09900000
   8.09900000 10.12375000 10.12375000
  10.12375000  8.09900000 10.12375000
  10.12375000 10.12375000  8.09900000
   8.09900000  8.09900000 12.14850000
   8.09900000 10.12375000 14.17325000
  10.12375000  8.09900000 14.17325000
  10.12375000 10.12375000 12.14850000
   8.09900000 12.14850000  0.00000000
   8.09900000 14.17325000  2.02475000
  10.12375000 12.14850000  2.02475000
  10.12375000 14.17325000  0.00000000
   8.09900000 12.14850000  4.04950000
   8.09900000 14.17325000  6.07425000
  10.12375000 12.14850000  6.07425000
  10.12375000 14.17325000  4.04950000
   8.09900000 12.14850000  8.09900000
   8.09900000 14.17325000 10.12375000
  10.12375000 12.14850000 10.12375000
  10.12375000 14.17325000  8.09900000
   8.09900000 12.14850000 12.14850000
   8.09900000 14.17325000 14.17325000
  10.12375000 12.14850000 14.17325000
  10.12375000 14.17325000 12.14850000
  12.14850000  0.00000000  0.00000000
  12.14850000  2.02475000  2.02475000
  14.17325000  0.00000000  2.02475000
  14.17325000  2.02475000  0.00000000
  12.14850000  0.00000000  4.04950000
  12.14850000  2.02475000  6.07425000
  14.17325000  0.00000000  6.07425000
  14.17325000  2.02475000  4.04950000
  12.14850000  0.00000000  8.09900000
  12.14850000  2.02475000 10.12375000
  14.17325000  0.00000000 10.12375000
  14.17325000  2.02475000  8.09900000
  12.14850000  0.00000000 12.14850000
  12.14850000  2.02475000 14.17325000
  14.17325000  0.00000000 14.17325000
  14.17325000  2.02475000 12.14850000
  12.14850000  4.04950000  0.00000000
  12.14850000  6.07425000  2.02475000
  14.17325000  4.04950000  2.02475000
  14.17325000  6.07425000  0.00000000
  12.14850000  4.04950000  4.04950000
  12.14850000  6.07425000  6.07425000
  14.17325000  4.04950000  6.07425000
  14.17325000  6.07425000  4.04950000
  12.14850000  4.04950000  8.09900000
  12.14850000  6.07425000 10.12375000
  14.17325000  4.04950000 10.12375000
  14.17325000  6.07425000  8.09900000
  12.14850000  4.04950000 12.14850000
  12.14850000  6.07425000 14.17325000
  14.17325000  4.04950000 14.17325000
  14.17325000  6.07425000 12.14850000
  12.14850000  8.09900000  0.00000000
  12.14850000 10.12375000  2.02475000
  14.17325000  8.09900000  2.02475000
  14.17325000 10.12375000  0.00000000
  12.14850000  8.09900000  4.04950000
  12.14850000 10.12375000  6.07425000
  14.17325000  8.09900000  6.07425000
  14.17325000 10.12375000  4.04950000
  12.14850000  8.09900000  8.09900000
  12.14850000 10.12375000 10.12375000
  14.17325000  8.09900000 10.12375000
  14.17325000 10.12375000  8.09900000
  12.14850000  8.09900000 12.14850000
  12.14850000 10.12375000 14.17325000
  14.17325000  8.09900000 14.17325000
  14.17325000 10.12375000 12.14850000
  12.14850000 12.14850000  0.00000000
  12.14850000 14.17325000  2.02475000
  14.17325000 12.14850000  2.02475000
  14.17325000 14.17325000  0.00000000
  12.14850000 12.14850000  4.04950000
  12.14850000 14.17325000  6.07425000
  14.17325000 12.14850000  6.07425000
  14.17325000 14.17325000  4.04950000
  12.14850000 12.14850000  8.09900000
  12.14850000 14.17325000 10.12375000
  14.17325000 12.14850000 10.12375000
  14.17325000 14.17325000  8.09900000
  12.14850000 12.14850000 12.14850000
  12.14850000 14.17325000 14.17325000
  14.17325000 12.14850000 14.17325000
  14.17325000 14.17325000 12.14850000
 


--------------------------------------------------------------------------------------------------------


 k-point   1 :   0.0000 0.0000 0.0000  plane waves:   65795
 k-point   2 :   0.5000 0.0000 0.0000  plane waves:   65826
 k-point   3 :   0.5000 0.5000 0.0000  plane waves:   65936
 k-point   4 :   0.5000 0.5000 0.5000  plane waves:   66088

 maximum and minimum number of plane-waves per node :     66088    65795

 maximum number of plane-waves:     66088
 maximum index in each direction: 
   IXMAX=   25   IYMAX=   25   IZMAX=   25
   IXMIN=  -25   IYMIN=  -25   IZMIN=  -25


 serial   3D FFT for wavefunctions
 parallel 3D FFT for charge:
    minimum data exchange during FFTs selected (reduces bandwidth)


 total amount of memory used by VASP MPI-rank0  2782717. kBytes
=======================================================================

   base      :      30000. kBytes
   nonlr-proj:      67717. kBytes
   fftplans  :     141100. kBytes
   grid      :     218828. kBytes
   one-center:       3981. kBytes
   wavefun   :    2321091. kBytes
 
     INWAV:  cpu time    0.0001: real time    0.0003
 Broyden mixing: mesh for mixing (old mesh)
   NGX = 51   NGY = 51   NGZ = 51
  (NGX  =160   NGY  =160   NGZ  =160)
  gives a total of 132651 points

 initial charge density was supplied:
 charge density of overlapping atoms calculated
 number of electron     768.0000000 magnetization 
 keeping initial charge density in first step


--------------------------------------------------------------------------------------------------------


 Maximum index for non-local projection operator          1503
 Maximum index for augmentation-charges          4553 (set IRDMAX)


--------------------------------------------------------------------------------------------------------


 First call to EWALD:  gamma=   0.109
 Maximum number of real-space cells 3x 3x 3
 Maximum number of reciprocal cells 3x 3x 3

    FEWALD:  cpu time    0.3585: real time    0.3586


--------------------------------------- Iteration      1(   1)  ---------------------------------------


    POTLOK:  cpu time    0.0606: real time    0.0751
    SETDIJ:  cpu time    0.3839: real time    0.3840
     EDDAV:  cpu time    6.2839: real time    6.2947
       DOS:  cpu time    0.0026: real time    0.0026
    --------------------------------------------
      LOOP:  cpu time    6.7312: real time    6.7564

 eigenvalue-minimisations  :  4120
 total energy-change (2. order) : 0.1255564E+04  (-0.2130865E+05)
 number of electron     768.0000000 magnetization 
 augmentation part      768.0000000 magnetization 

 Free energy of the ion-electron system (eV)
  ---------------------------------------------------
  alpha Z        PSCENC =       920.63483911
  Ewald energy   TEWEN  =    -18781.64485854
  -Hartree energ DENC   =       -26.55351430
  -exchange      EXHF   =         0.00000000
  -V(xc)+E(xc)   XCENC  =     -6720.20672339
  PAW double counting   =     16947.24023729    -8766.87891394
  entropy T*S    EENTRO =        -0.05892614
  eigenvalues    EBANDS =      3977.27702304
  atomic energy  EATOM  =     13705.75474539
  Solvation  Ediel_sol  =         0.00000000
  ---------------------------------------------------
  free energy    TOTEN  =      1255.56390851 eV

  energy without entropy =     1255.62283465  energy(sigma->0) =     1255.59337158


--------------------------------------------------------------------------------------------------------




--------------------------------------- Iteration      1(   2)  ---------------------------------------


     EDDAV:  cpu time    8.1551: real time    8.1563
       DOS:  cpu time    0.0031: real time    0.0031
    --------------------------------------------
      LOOP:  cpu time    8.1581: real time    8.1593

 eigenvalue-minimisations  :  5704
 total energy-change (2. order) :-0.2081196E+04  (-0.1950102E+04)
 number of electron     768.0000000 magnetization 
 augmentation part      768.0000000 magnetization 

 Free energy of the ion-electron system (eV)
  ---------------------------------------------------
  alpha Z        PSCENC =       920.63483911
  Ewald energy   TEWEN  =    -18781.64485854
  -Hartree energ DENC   =       -26.55351430
  -exchange      EXHF   =         0.00000000
  -V(xc)+E(xc)   XCENC  =     -6720.20672339
  PAW double counting   =     16947.24023729    -8766.87891394
  entropy T*S    EENTRO =        -0.10241528
  eigenvalues    EBANDS =      1896.12488062
  atomic energy  EATOM  =     13705.75474539
  Solvation  Ediel_sol  =         0.00000000
  ---------------------------------------------------
  free energy    TOTEN  =      -825.63172305 eV

  energy without entropy =     -825.52930777  energy(sigma->0) =     -825.58051541


--------------------------------------------------------------------------------------------------------




--------------------------------------- Iteration      1(   3)  ---------------------------------------


     EDDAV:  cpu time    7.4720: real time    7.4729
       DOS:  cpu time    0.0032: real time    0.0032
    --------------------------------------------
      LOOP:  cpu time    7.4751: real time    7.4761

 eigenvalue-minimisations  :  5128
 total energy-change (2. order) :-0.1353062E+03  (-0.1269593E+03)
 number of electron     768.0000000 magnetization 
 augmentation part      768.0000000 magnetization 

 Free energy of the ion-electron system (eV)
  ---------------------------------------------------
  alpha Z        PSCENC =       920.63483911
  Ewald energy   TEWEN  =    -18781.64485854
  -Hartree energ DENC   =       -26.55351430
  -exchange      EXHF   =         0.00000000
  -V(xc)+E(xc)   XCENC  =     -6720.20672339
  PAW double counting   =     16947.24023729    -8766.87891394
  entropy T*S    EENTRO =        -0.18752581
  eigenvalues    EBANDS =      1760.90376913
  atomic energy  EATOM  =     13705.75474539
  Solvation  Ediel_sol  =         0.00000000
  ---------------------------------------------------
  free energy    TOTEN  =      -960.93794507 eV

  energy without entropy =     -960.75041926  energy(sigma->0) =     -960.84418217


--------------------------------------------------------------------------------------------------------




--------------------------------------- Iteration      1(   4)  ---------------------------------------


     EDDAV:  cpu time    8.0649: real time    8.0660
       DOS:  cpu time    0.0032: real time    0.0032
    --------------------------------------------
      LOOP:  cpu time    8.0682: real time    8.0692

 eigenvalue-minimisations  :  5640
 total energy-change (2. order) :-0.6296844E+01  (-0.6183817E+01)
 number of electron     768.0000000 magnetization 
 augmentation part      768.0000000 magnetization 

 Free energy of the ion-electron system (eV)
  ---------------------------------------------------
  alpha Z        PSCENC =       920.63483911
  Ewald energy   TEWEN  =    -18781.64485854
  -Hartree energ DENC   =       -26.55351430
  -exchange      EXHF   =         0.00000000
  -V(xc)+E(xc)   XCENC  =     -6720.20672339
  PAW double counting   =     16947.24023729    -8766.87891394
  entropy T*S    EENTRO =        -0.21185455
  eigenvalues    EBANDS =      1754.63125429
  atomic energy  EATOM  =     13705.75474539
  Solvation  Ediel_sol  =         0.00000000
  ---------------------------------------------------
  free energy    TOTEN  =      -967.23478865 eV

  energy without entropy =     -967.02293410  energy(sigma->0) =     -967.12886138


--------------------------------------------------------------------------------------------------------




--------------------------------------- Iteration      1(   5)  ---------------------------------------


     EDDAV:  cpu time    7.6806: real time    7.6816
       DOS:  cpu time    0.0031: real time    0.0031
    CHARGE:  cpu time    1.6431: real time    1.6486
    MIXING:  cpu time    0.0638: real time    0.0638
    --------------------------------------------
      LOOP:  cpu time    9.3906: real time    9.3971

 eigenvalue-minimisations  :  5320
 total energy-change (2. order) :-0.1151388E+00  (-0.1146531E+00)
 number of electron     767.9999817 magnetization 
 augmentation part      -10.2123604 magnetization 

 Broyden mixing:
  rms(total) = 0.15175E+01    rms(broyden)= 0.15175E+01
  rms(prec ) = 0.17084E+01
  weight for this iteration     100.00

 Free energy of the ion-electron system (eV)
  ---------------------------------------------------
  alpha Z        PSCENC =       920.63483911
  Ewald energy   TEWEN  =    -18781.64485854
  -Hartree energ DENC   =       -26.55351430
  -exchange      EXHF   =         0.00000000
  -V(xc)+E(xc)   XCENC  =     -6720.20672339
  PAW double counting   =     16947.24023729    -8766.87891394
  entropy T*S    EENTRO =        -0.21185640
  eigenvalues    EBANDS =      1754.51611733
  atomic energy  EATOM  =     13705.75474539
  Solvation  Ediel_sol  =         0.00000000
  ---------------------------------------------------
  free energy    TOTEN  =      -967.34992746 eV

  energy without entropy =     -967.13807105  energy(sigma->0) =     -967.24399926


--------------------------------------------------------------------------------------------------------




--------------------------------------- Iteration      1(   6)  ---------------------------------------


    POTLOK:  cpu time    0.0568: real time    0.0568
    SETDIJ:  cpu time    0.3907: real time    0.3908
     EDDAV:  cpu time    7.4032: real time    7.4041
       DOS:  cpu time    0.0032: real time    0.0032
    CHARGE:  cpu time    1.6223: real time    1.6225
    MIXING:  cpu time    0.0660: real time    0.0672
    --------------------------------------------
      LOOP:  cpu time    9.5423: real time    9.5446

 eigenvalue-minimisations  :  5080
 total energy-change (2. order) : 0.3421312E+01  (-0.4665138E-01)
 number of electron     767.9999815 magnetization 
 augmentation part      -10.3041155 magnetization 

 Broyden mixing:
  rms(total) = 0.94229E+00    rms(broyden)= 0.94229E+00
  rms(prec ) = 0.10625E+01
  weight for this iteration     100.00

 eigenvalues of (default mixing * dielectric matrix)
  average eigenvalue GAMMA=   2.6292
  2.6292

 Free energy of the ion-electron system (eV)
  ---------------------------------------------------
  alpha Z        PSCENC =       920.63483911
  Ewald energy   TEWEN  =    -18781.64485854
  -Hartree energ DENC   =       -22.23653035
  -exchange      EXHF   =         0.00000000
  -V(xc)+E(xc)   XCENC  =     -6711.04782949
  PAW double counting   =     18764.75229196   -10585.46462343
  entropy T*S    EENTRO =        -0.20957889
  eigenvalues    EBANDS =      1745.53292915
  atomic energy  EATOM  =     13705.75474539
  Solvation  Ediel_sol  =         0.00000000
  ---------------------------------------------------
  free energy    TOTEN  =      -963.92861510 eV

  energy without entropy =     -963.71903621  energy(sigma->0) =     -963.82382565


--------------------------------------------------------------------------------------------------------




--------------------------------------- Iteration      1(   7)  ---------------------------------------


    POTLOK:  cpu time    0.0560: real time    0.0560
    SETDIJ:  cpu time    0.3895: real time    0.3895
     EDDAV:  cpu time    7.1001: real time    7.1011
       DOS:  cpu time    0.0030: real time    0.0030
    CHARGE:  cpu time    1.6087: real time    1.6089
    MIXING:  cpu time    0.0682: real time    0.0692
    --------------------------------------------
      LOOP:  cpu time    9.2255: real time    9.2276

 eigenvalue-minimisations  :  4832
 total energy-change (2. order) : 0.2493194E+01  (-0.1260935E+00)
 number of electron     767.9999812 magnetization 
 augmentation part      -10.4763191 magnetization 

 Broyden mixing:
  rms(total) = 0.35906E-01    rms(broyden)= 0.35904E-01
  rms(prec ) = 0.38273E-01
  weight for this iteration     100.00

 eigenvalues of (default mixing * dielectric matrix)
  average eigenvalue GAMMA=   2.4268
  2.4268  2.4268

 Free energy of the ion-electron system (eV)
  ---------------------------------------------------
  alpha Z        PSCENC =       920.63483911
  Ewald energy   TEWEN  =    -18781.64485854
  -Hartree energ DENC   =       -26.46785418
  -exchange      EXHF   =         0.00000000
  -V(xc)+E(xc)   XCENC  =     -6692.51901460
  PAW double counting   =     22071.12453618   -13894.19819596
  entropy T*S    EENTRO =        -0.20326195
  eigenvalues    EBANDS =      1736.08364373
  atomic energy  EATOM  =     13705.75474539
  Solvation  Ediel_sol  =         0.00000000
  ---------------------------------------------------
  free energy    TOTEN  =      -961.43542082 eV

  energy without entropy =     -961.23215888  energy(sigma->0) =     -961.33378985


--------------------------------------------------------------------------------------------------------




--------------------------------------- Iteration      1(   8)  ---------------------------------------


    POTLOK:  cpu time    0.0503: real time    0.0503
    SETDIJ:  cpu time    0.3910: real time    0.3910
     EDDAV:  cpu time    7.2496: real time    7.2505
       DOS:  cpu time    0.0032: real time    0.0032
    CHARGE:  cpu time    1.6237: real time    1.6238
    MIXING:  cpu time    0.0737: real time    0.0747
    --------------------------------------------
      LOOP:  cpu time    9.3913: real time    9.3935

 eigenvalue-minimisations  :  4952
 total energy-change (2. order) :-0.5865029E-05  (-0.1365547E-02)
 number of electron     767.9999812 magnetization 
 augmentation part      -10.4783337 magnetization 

 Broyden mixing:
  rms(total) = 0.93170E-02    rms(broyden)= 0.93166E-02
  rms(prec ) = 0.10432E-01
  weight for this iteration     100.00

 eigenvalues of (default mixing * dielectric matrix)
  average eigenvalue GAMMA=   2.0700
  1.0086  2.6755  2.5260

 Free energy of the ion-electron system (eV)
  ---------------------------------------------------
  alpha Z        PSCENC =       920.63483911
  Ewald energy   TEWEN  =    -18781.64485854
  -Hartree energ DENC   =       -26.92719424
  -exchange      EXHF   =         0.00000000
  -V(xc)+E(xc)   XCENC  =     -6692.08831094
  PAW double counting   =     21957.32692086   -13780.95503788
  entropy T*S    EENTRO =        -0.20348818
  eigenvalues    EBANDS =      1736.66695774
  atomic energy  EATOM  =     13705.75474539
  Solvation  Ediel_sol  =         0.00000000
  ---------------------------------------------------
  free energy    TOTEN  =      -961.43542669 eV

  energy without entropy =     -961.23193851  energy(sigma->0) =     -961.33368260


--------------------------------------------------------------------------------------------------------




--------------------------------------- Iteration      1(   9)  ---------------------------------------


    POTLOK:  cpu time    0.0562: real time    0.0563
    SETDIJ:  cpu time    0.3875: real time    0.3876
     EDDAV:  cpu time    7.8794: real time    7.8804
       DOS:  cpu time    0.0031: real time    0.0031
    CHARGE:  cpu time    1.6078: real time    1.6080
    MIXING:  cpu time    0.0740: real time    0.0740
    --------------------------------------------
      LOOP:  cpu time   10.0081: real time   10.0093

 eigenvalue-minimisations  :  5488
 total energy-change (2. order) : 0.8785473E-05  (-0.4902621E-04)
 number of electron     767.9999812 magnetization 
 augmentation part      -10.4801394 magnetization 

 Broyden mixing:
  rms(total) = 0.41540E-03    rms(broyden)= 0.41508E-03
  rms(prec ) = 0.43849E-03
  weight for this iteration     100.00

 eigenvalues of (default mixing * dielectric matrix)
  average eigenvalue GAMMA=   1.8362
  2.6619  2.5535  0.9864  1.1430

 Free energy of the ion-electron system (eV)
  ---------------------------------------------------
  alpha Z        PSCENC =       920.63483911
  Ewald energy   TEWEN  =    -18781.64485854
  -Hartree energ DENC   =       -27.14862757
  -exchange      EXHF   =         0.00000000
  -V(xc)+E(xc)   XCENC  =     -6691.79905960
  PAW double counting   =     21948.97849501   -13772.78072851
  entropy T*S    EENTRO =        -0.20350445
  eigenvalues    EBANDS =      1736.77328127
  atomic energy  EATOM  =     13705.75474539
  Solvation  Ediel_sol  =         0.00000000
  ---------------------------------------------------
  free energy    TOTEN  =      -961.43541790 eV

  energy without entropy =     -961.23191346  energy(sigma->0) =     -961.33366568


--------------------------------------------------------------------------------------------------------




--------------------------------------- Iteration      1(  10)  ---------------------------------------


    POTLOK:  cpu time    0.0505: real time    0.0505
    SETDIJ:  cpu time    0.3889: real time    0.3889
     EDDAV:  cpu time    7.6592: real time    7.6602
       DOS:  cpu time    0.0032: real time    0.0032
    CHARGE:  cpu time    1.6187: real time    1.6189
    MIXING:  cpu time    0.0803: real time    0.0803
    --------------------------------------------
      LOOP:  cpu time    9.8008: real time    9.8020

 eigenvalue-minimisations  :  5296
 total energy-change (2. order) : 0.2593371E-05  (-0.8799348E-06)
 number of electron     767.9999812 magnetization 
 augmentation part      -10.4800690 magnetization 

 Broyden mixing:
  rms(total) = 0.18531E-03    rms(broyden)= 0.18529E-03
  rms(prec ) = 0.19096E-03
  weight for this iteration     100.00

 eigenvalues of (default mixing * dielectric matrix)
  average eigenvalue GAMMA=   1.9473
  2.6743  2.5388  2.5388  1.0302  0.9543

 Free energy of the ion-electron system (eV)
  ---------------------------------------------------
  alpha Z        PSCENC =       920.63483911
  Ewald energy   TEWEN  =    -18781.64485854
  -Hartree energ DENC   =       -27.14918148
  -exchange      EXHF   =         0.00000000
  -V(xc)+E(xc)   XCENC  =     -6691.80178818
  PAW double counting   =     21946.41496505   -13770.21526872
  entropy T*S    EENTRO =        -0.20350658
  eigenvalues    EBANDS =      1736.77463865
  atomic energy  EATOM  =     13705.75474539
  Solvation  Ediel_sol  =         0.00000000
  ---------------------------------------------------
  free energy    TOTEN  =      -961.43541531 eV

  energy without entropy =     -961.23190873  energy(sigma->0) =     -961.33366202


--------------------------------------------------------------------------------------------------------




--------------------------------------- Iteration      1(  11)  ---------------------------------------


    POTLOK:  cpu time    0.0514: real time    0.0514
    SETDIJ:  cpu time    0.3877: real time    0.3878
     EDDAV:  cpu time    5.9094: real time    5.9102
       DOS:  cpu time    0.0031: real time    0.0031
    CHARGE:  cpu time    1.6203: real time    1.6204
    MIXING:  cpu time    0.0807: real time    0.0807
    --------------------------------------------
      LOOP:  cpu time    8.0527: real time    8.0536

 eigenvalue-minimisations  :  3752
 total energy-change (2. order) : 0.2049618E-04  (-0.4051629E-07)
 number of electron     767.9999812 magnetization 
 augmentation part      -10.4801361 magnetization 

 Broyden mixing:
  rms(total) = 0.32177E-04    rms(broyden)= 0.32169E-04
  rms(prec ) = 0.36656E-04
  weight for this iteration     100.00

 eigenvalues of (default mixing * dielectric matrix)
  average eigenvalue GAMMA=   1.7771
  2.6442  2.6442  2.5307  1.0431  0.9316  0.8690

 Free energy of the ion-electron system (eV)
  ---------------------------------------------------
  alpha Z        PSCENC =       920.63483911
  Ewald energy   TEWEN  =    -18781.64485854
  -Hartree energ DENC   =       -27.14928132
  -exchange      EXHF   =         0.00000000
  -V(xc)+E(xc)   XCENC  =     -6691.80263451
  PAW double counting   =     21945.13651287   -13768.93008748
  entropy T*S    EENTRO =        -0.20350557
  eigenvalues    EBANDS =      1736.76887526
  atomic energy  EATOM  =     13705.75474539
  Solvation  Ediel_sol  =         0.00000000
  ---------------------------------------------------
  free energy    TOTEN  =      -961.43539481 eV

  energy without entropy =     -961.23188924  energy(sigma->0) =     -961.33364203


--------------------------------------------------------------------------------------------------------




--------------------------------------- Iteration      1(  12)  ---------------------------------------


    POTLOK:  cpu time    0.0567: real time    0.0567
    SETDIJ:  cpu time    0.3882: real time    0.3882
     EDDAV:  cpu time    4.8638: real time    4.8644
       DOS:  cpu time    0.0032: real time    0.0032
    CHARGE:  cpu time    1.6125: real time    1.6127
    MIXING:  cpu time    0.0846: real time    0.0846
    --------------------------------------------
      LOOP:  cpu time    7.0090: real time    7.0099

 eigenvalue-minimisations  :  2832
 total energy-change (2. order) : 0.3032474E-06  (-0.3321185E-08)
 number of electron     767.9999812 magnetization 
 augmentation part      -10.4801229 magnetization 

 Broyden mixing:
  rms(total) = 0.55726E-05    rms(broyden)= 0.55704E-05
  rms(prec ) = 0.58882E-05
  weight for this iteration     100.00

 eigenvalues of (default mixing * dielectric matrix)
  average eigenvalue GAMMA=   1.8796
  2.7131  2.4846  2.4435  2.4435  0.9616  1.0215  1.0891

 Free energy of the ion-electron system (eV)
  ---------------------------------------------------
  alpha Z        PSCENC =       920.63483911
  Ewald energy   TEWEN  =    -18781.64485854
  -Hartree energ DENC   =       -27.14876764
  -exchange      EXHF   =         0.00000000
  -V(xc)+E(xc)   XCENC  =     -6691.80359911
  PAW double counting   =     21945.00271820   -13768.79608511
  entropy T*S    EENTRO =        -0.20350577
  eigenvalues    EBANDS =      1736.76911896
  atomic energy  EATOM  =     13705.75474539
  Solvation  Ediel_sol  =         0.00000000
  ---------------------------------------------------
  free energy    TOTEN  =      -961.43539451 eV

  energy without entropy =     -961.23188875  energy(sigma->0) =     -961.33364163


--------------------------------------------------------------------------------------------------------




--------------------------------------- Iteration      1(  13)  ---------------------------------------


    POTLOK:  cpu time    0.0514: real time    0.0514
    SETDIJ:  cpu time    0.3877: real time    0.3877
     EDDAV:  cpu time    4.7969: real time    4.7976
       DOS:  cpu time    0.0032: real time    0.0032
    CHARGE:  cpu time    1.6133: real time    1.6134
    MIXING:  cpu time    0.0888: real time    0.0888
    --------------------------------------------
      LOOP:  cpu time    6.9413: real time    6.9421

 eigenvalue-minimisations  :  2776
 total energy-change (2. order) :-0.1010570E-05  (-0.7063307E-09)
 number of electron     767.9999812 magnetization 
 augmentation part      -10.4801297 magnetization 

 Broyden mixing:
  rms(total) = 0.31539E-05    rms(broyden)= 0.31537E-05
  rms(prec ) = 0.35790E-05
  weight for this iteration     100.00

 eigenvalues of (default mixing * dielectric matrix)
  average eigenvalue GAMMA=   1.8244
  2.9733  2.6755  2.5453  2.5050  1.0257  1.0257  0.9407  0.9041

 Free energy of the ion-electron system (eV)
  ---------------------------------------------------
  alpha Z        PSCENC =       920.63483911
  Ewald energy   TEWEN  =    -18781.64485854
  -Hartree energ DENC   =       -27.14887573
  -exchange      EXHF   =         0.00000000
  -V(xc)+E(xc)   XCENC  =     -6691.80348443
  PAW double counting   =     21945.08285579   -13768.87666219
  entropy T*S    EENTRO =        -0.20350582
  eigenvalues    EBANDS =      1736.76955091
  atomic energy  EATOM  =     13705.75474539
  Solvation  Ediel_sol  =         0.00000000
  ---------------------------------------------------
  free energy    TOTEN  =      -961.43539552 eV

  energy without entropy =     -961.23188970  energy(sigma->0) =     -961.33364261


--------------------------------------------------------------------------------------------------------




--------------------------------------- Iteration      1(  14)  ---------------------------------------


    POTLOK:  cpu time    0.0513: real time    0.0513
    SETDIJ:  cpu time    0.3863: real time    0.3863
     EDDAV:  cpu time    4.6980: real time    4.6986
       DOS:  cpu time    0.0032: real time    0.0032
    --------------------------------------------
      LOOP:  cpu time    5.1387: real time    5.1393

 eigenvalue-minimisations  :  2688
 total energy-change (2. order) : 0.4386902E-07  (-0.2484885E-09)
 number of electron     767.9999812 magnetization 
 augmentation part      -10.4801297 magnetization 

 Free energy of the ion-electron system (eV)
  ---------------------------------------------------
  alpha Z        PSCENC =       920.63483911
  Ewald energy   TEWEN  =    -18781.64485854
  -Hartree energ DENC   =       -27.14880309
  -exchange      EXHF   =         0.00000000
  -V(xc)+E(xc)   XCENC  =     -6691.80360615
  PAW double counting   =     21945.08246371   -13768.87625471
  entropy T*S    EENTRO =        -0.20350583
  eigenvalues    EBANDS =      1736.76958465
  atomic energy  EATOM  =     13705.75474539
  Solvation  Ediel_sol  =         0.00000000
  ---------------------------------------------------
  free energy    TOTEN  =      -961.43539548 eV

  energy without entropy =     -961.23188965  energy(sigma->0) =     -961.33364256


--------------------------------------------------------------------------------------------------------




 average (electrostatic) potential at core
  the test charge radii are     1.0406
  (the norm of the test charge is              1.0000)
       1 -51.2731       2 -51.2731       3 -51.2731       4 -51.2731       5 -51.2731
       6 -51.2731       7 -51.2731       8 -51.2731       9 -51.2731      10 -51.2731
      11 -51.2731      12 -51.2731      13 -51.2731      14 -51.2731      15 -51.2731
      16 -51.2731      17 -51.2731      18 -51.2731      19 -51.2731      20 -51.2731
      21 -51.2731      22 -51.2731      23 -51.2731      24 -51.2731      25 -51.2731
      26 -51.2731      27 -51.2731      28 -51.2731      29 -51.2731      30 -51.2731
      31 -51.2731      32 -51.2731      33 -51.2731      34 -51.2731      35 -51.2731
      36 -51.2731      37 -51.2731      38 -51.2731      39 -51.2731      40 -51.2731
      41 -51.2731      42 -51.2731      43 -51.2731      44 -51.2731      45 -51.2731
      46 -51.2731      47 -51.2731      48 -51.2731      49 -51.2731      50 -51.2731
      51 -51.2731      52 -51.2731      53 -51.2731      54 -51.2731      55 -51.2731
      56 -51.2731      57 -51.2731      58 -51.2731      59 -51.2731      60 -51.2731
      61 -51.2731      62 -51.2731      63 -51.2731      64 -51.2731      65 -51.2731
      66 -51.2731      67 -51.2731      68 -51.2731      69 -51.2731      70 -51.2731
      71 -51.2731      72 -51.2731      73 -51.2731      74 -51.2731      75 -51.2731
      76 -51.2731      77 -51.2731      78 -51.2731      79 -51.2731      80 -51.2731
      81 -51.2731      82 -51.2731      83 -51.2731      84 -51.2731      85 -51.2731
      86 -51.2731      87 -51.2731      88 -51.2731      89 -51.2731      90 -51.2731
      91 -51.2731      92 -51.2731      93 -51.2731      94 -51.2731      95 -51.2731
      96 -51.2731      97 -51.2731      98 -51.2731      99 -51.2731     100 -51.2731
     101 -51.2731     102 -51.2731     103 -51.2731     104 -51.2731     105 -51.2731
     106 -51.2731     107 -51.2731     108 -51.2731     109 -51.2731     110 -51.2731
     111 -51.2731     112 -51.2731     113 -51.2731     114 -51.2731     115 -51.2731
     116 -51.2731     117 -51.2731     118 -51.2731     119 -51.2731     120 -51.2731
     121 -51.2731     122 -51.2731     123 -51.2731     124 -51.2731     125 -51.2731
     126 -51.2731     127 -51.2731     128 -51.2731     129 -51.2731     130 -51.2731
     131 -51.2731     132 -51.2731     133 -51.2731     134 -51.2731     135 -51.2731
     136 -51.2731     137 -51.2731     138 -51.2731     139 -51.2731     140 -51.2731
     141 -51.2731     142 -51.2731     143 -51.2731     144 -51.2731     145 -51.2731
     146 -51.2731     147 -51.2731     148 -51.2731     149 -51.2731     150 -51.2731
     151 -51.2731     152 -51.2731     153 -51.2731     154 -51.2731     155 -51.2731
     156 -51.2731     157 -51.2731     158 -51.2731     159 -51.2731     160 -51.2731
     161 -51.2731     162 -51.2731     163 -51.2731     164 -51.2731     165 -51.2731
     166 -51.2731     167 -51.2731     168 -51.2731     169 -51.2731     170 -51.2731
     171 -51.2731     172 -51.2731     173 -51.2731     174 -51.2731     175 -51.2731
     176 -51.2731     177 -51.2731     178 -51.2731     179 -51.2731     180 -51.2731
     181 -51.2731     182 -51.2731     183 -51.2731     184 -51.2731     185 -51.2731
     186 -51.2731     187 -51.2731     188 -51.2731     189 -51.2731     190 -51.2731
     191 -51.2731     192 -51.2731     193 -51.2731     194 -51.2731     195 -51.2731
     196 -51.2731     197 -51.2731     198 -51.2731     199 -51.2731     200 -51.2731
     201 -51.2731     202 -51.2731     203 -51.2731     204 -51.2731     205 -51.2731
     206 -51.2731     207 -51.2731     208 -51.2731     209 -51.2731     210 -51.2731
     211 -51.2731     212 -51.2731     213 -51.2731     214 -51.2731     215 -51.2731
     216 -51.2731     217 -51.2731     218 -51.2731     219 -51.2731     220 -51.2731
     221 -51.2731     222 -51.2731     223 -51.2731     224 -51.2731     225 -51.2731
     226 -51.2731     227 -51.2731     228 -51.2731     229 -51.2731     230 -51.2731
     231 -51.2731     232 -51.2731     233 -51.2731     234 -51.2731     235 -51.2731
     236 -51.2731     237 -51.2731     238 -51.2731     239 -51.2731     240 -51.2731
     241 -51.2731     242 -51.2731     243 -51.2731     244 -51.2731     245 -51.2731
     246 -51.2731     247 -51.2731     248 -51.2731     249 -51.2731     250 -51.2731
     251 -51.2731     252 -51.2731     253 -51.2731     254 -51.2731     255 -51.2731
     256 -51.2731
 
 
 
 E-fermi :   6.8093     XC(G=0): -10.1748     alpha+bet :-13.5416

 Fermi energy:         6.8093434897

 k-point     1 :       0.0000    0.0000    0.0000
  band No.  band energies     occupation 
      1      -4.4228      2.00000
      2      -3.8599      2.00000
      3      -3.8599      2.00000
      4      -3.8599      2.00000
      5      -3.8599      2.00000
      6      -3.8599      2.00000
      7      -3.8599      2.00000
      8      -3.2991      2.00000
      9      -3.2991      2.00000
     10      -3.2991      2.00000
     11      -3.2991      2.00000
     12      -3.2991      2.00000
     13      -3.2991      2.00000
     14      -3.2991      2.00000
     15      -3.2991      2.00000
     16      -3.2991      2.00000
     17      -3.2991      2.00000
     18      -3.2991      2.00000
     19      -3.2991      2.00000
     20      -2.7404      2.00000
     21      -2.7404      2.00000
     22      -2.7404      2.00000
     23      -2.7404      2.00000
     24      -2.7404      2.00000
     25      -2.7404      2.00000
     26      -2.7404      2.00000
     27      -2.7404      2.00000
     28      -2.1840      2.00000
     29      -2.1840      2.00000
     30      -2.1840      2.00000
     31      -2.1840      2.00000
     32      -2.1840      2.00000
     33      -2.1840      2.00000
     34      -1.6296      2.00000
     35      -1.6296      2.00000
     36      -1.6296      2.00000
     37      -1.6296      2.00000
     38      -1.6296      2.00000
     39      -1.6296      2.00000
     40      -1.6296      2.00000
     41      -1.6296      2.00000
     42      -1.6296      2.00000
     43      -1.6296      2.00000
     44      -1.6296      2.00000
     45      -1.6296      2.00000
     46      -1.6296      2.00000
     47      -1.6296      2.00000
     48      -1.6296      2.00000
     49      -1.6296      2.00000
     50      -1.6296      2.00000
     51      -1.6296      2.00000
     52      -1.6296      2.00000
     53      -1.6296      2.00000
     54      -1.6296      2.00000
     55      -1.6296      2.00000
     56      -1.6296      2.00000
     57      -1.6296      2.00000
     58      -1.0772      2.00000
     59      -1.0772      2.00000
     60      -1.0772      2.00000
     61      -1.0772      2.00000
     62      -1.0772      2.00000
     63      -1.0772      2.00000
     64      -1.0772      2.00000
     65      -1.0772      2.00000
     66      -1.0772      2.00000
     67      -1.0772      2.00000
     68      -1.0772      2.00000
     69      -1.0772      2.00000
     70      -1.0772      2.00000
     71      -1.0772      2.00000
     72      -1.0772      2.00000
     73      -1.0772      2.00000
     74      -1.0772      2.00000
     75      -1.0772      2.00000
     76      -1.0772      2.00000
     77      -1.0772      2.00000
     78      -1.0772      2.00000
     79      -1.0772      2.00000
     80      -1.0772      2.00000
     81      -1.0772      2.00000
[...]
      2.02475     10.12375     12.14850         0.000000      0.000000      0.000000
      0.00000     12.14850      0.00000        -0.000000     -0.000000      0.000000
      0.00000     14.17325      2.02475        -0.000000     -0.000000      0.000000
      2.02475     12.14850      2.02475         0.000000     -0.000000      0.000000
      2.02475     14.17325      0.00000        -0.000000      0.000000      0.000000
      0.00000     12.14850      4.04950        -0.000000     -0.000000     -0.000000
      0.00000     14.17325      6.07425         0.000000     -0.000000      0.000000
      2.02475     12.14850      6.07425        -0.000000     -0.000000      0.000000
      2.02475     14.17325      4.04950        -0.000000     -0.000000     -0.000000
      0.00000     12.14850      8.09900         0.000000     -0.000000      0.000000
      0.00000     14.17325     10.12375         0.000000      0.000000     -0.000000
      2.02475     12.14850     10.12375         0.000000     -0.000000      0.000000
      2.02475     14.17325      8.09900         0.000000      0.000000     -0.000000
      0.00000     12.14850     12.14850        -0.000000      0.000000     -0.000000
      0.00000     14.17325     14.17325        -0.000000      0.000000      0.000000
      2.02475     12.14850     14.17325        -0.000000      0.000000     -0.000000
      2.02475     14.17325     12.14850         0.000000      0.000000     -0.000000
      4.04950      0.00000      0.00000         0.000000     -0.000000      0.000000
      4.04950      2.02475      2.02475        -0.000000     -0.000000     -0.000000
      6.07425      0.00000      2.02475        -0.000000     -0.000000      0.000000
      6.07425      2.02475      0.00000         0.000000     -0.000000     -0.000000
      4.04950      0.00000      4.04950        -0.000000      0.000000      0.000000
      4.04950      2.02475      6.07425        -0.000000      0.000000      0.000000
      6.07425      0.00000      6.07425        -0.000000     -0.000000     -0.000000
      6.07425      2.02475      4.04950        -0.000000     -0.000000     -0.000000
      4.04950      0.00000      8.09900         0.000000      0.000000      0.000000
      4.04950      2.02475     10.12375         0.000000     -0.000000      0.000000
      6.07425      0.00000     10.12375        -0.000000     -0.000000      0.000000
      6.07425      2.02475      8.09900        -0.000000      0.000000      0.000000
      4.04950      0.00000     12.14850         0.000000      0.000000      0.000000
      4.04950      2.02475     14.17325        -0.000000     -0.000000     -0.000000
      6.07425      0.00000     14.17325         0.000000      0.000000      0.000000
      6.07425      2.02475     12.14850        -0.000000     -0.000000      0.000000
      4.04950      4.04950      0.00000        -0.000000     -0.000000     -0.000000
      4.04950      6.07425      2.02475        -0.000000      0.000000      0.000000
      6.07425      4.04950      2.02475        -0.000000     -0.000000     -0.000000
      6.07425      6.07425      0.00000         0.000000     -0.000000     -0.000000
      4.04950      4.04950      4.04950        -0.000000     -0.000000      0.000000
      4.04950      6.07425      6.07425        -0.000000      0.000000     -0.000000
      6.07425      4.04950      6.07425        -0.000000      0.000000      0.000000
      6.07425      6.07425      4.04950        -0.000000      0.000000      0.000000
      4.04950      4.04950      8.09900         0.000000      0.000000      0.000000
      4.04950      6.07425     10.12375        -0.000000     -0.000000     -0.000000
      6.07425      4.04950     10.12375         0.000000      0.000000     -0.000000
      6.07425      6.07425      8.09900        -0.000000      0.000000      0.000000
      4.04950      4.04950     12.14850         0.000000     -0.000000     -0.000000
      4.04950      6.07425     14.17325         0.000000     -0.000000     -0.000000
      6.07425      4.04950     14.17325        -0.000000     -0.000000     -0.000000
      6.07425      6.07425     12.14850        -0.000000     -0.000000     -0.000000
      4.04950      8.09900      0.00000         0.000000      0.000000      0.000000
      4.04950     10.12375      2.02475         0.000000      0.000000     -0.000000
      6.07425      8.09900      2.02475         0.000000     -0.000000      0.000000
      6.07425     10.12375      0.00000         0.000000      0.000000      0.000000
      4.04950      8.09900      4.04950        -0.000000      0.000000     -0.000000
      4.04950     10.12375      6.07425         0.000000     -0.000000     -0.000000
      6.07425      8.09900      6.07425         0.000000      0.000000     -0.000000
      6.07425     10.12375      4.04950        -0.000000      0.000000     -0.000000
      4.04950      8.09900      8.09900        -0.000000     -0.000000     -0.000000
      4.04950     10.12375     10.12375         0.000000     -0.000000     -0.000000
      6.07425      8.09900     10.12375        -0.000000      0.000000     -0.000000
      6.07425     10.12375      8.09900         0.000000     -0.000000     -0.000000
      4.04950      8.09900     12.14850         0.000000     -0.000000     -0.000000
      4.04950     10.12375     14.17325         0.000000     -0.000000      0.000000
      6.07425      8.09900     14.17325         0.000000     -0.000000      0.000000
      6.07425     10.12375     12.14850         0.000000      0.000000      0.000000
      4.04950     12.14850      0.00000        -0.000000      0.000000     -0.000000
      4.04950     14.17325      2.02475        -0.000000     -0.000000     -0.000000
      6.07425     12.14850      2.02475        -0.000000      0.000000     -0.000000
      6.07425     14.17325      0.00000         0.000000      0.000000     -0.000000
      4.04950     12.14850      4.04950        -0.000000     -0.000000     -0.000000
      4.04950     14.17325      6.07425         0.000000     -0.000000     -0.000000
      6.07425     12.14850      6.07425        -0.000000     -0.000000     -0.000000
      6.07425     14.17325      4.04950        -0.000000     -0.000000      0.000000
      4.04950     12.14850      8.09900         0.000000     -0.000000     -0.000000
      4.04950     14.17325     10.12375         0.000000      0.000000     -0.000000
      6.07425     12.14850     10.12375        -0.000000     -0.000000      0.000000
      6.07425     14.17325      8.09900         0.000000     -0.000000     -0.000000
      4.04950     12.14850     12.14850         0.000000      0.000000      0.000000
      4.04950     14.17325     14.17325         0.000000      0.000000      0.000000
      6.07425     12.14850     14.17325         0.000000      0.000000      0.000000
      6.07425     14.17325     12.14850         0.000000     -0.000000     -0.000000
      8.09900      0.00000      0.00000         0.000000      0.000000      0.000000
      8.09900      2.02475      2.02475         0.000000     -0.000000     -0.000000
     10.12375      0.00000      2.02475         0.000000      0.000000     -0.000000
     10.12375      2.02475      0.00000        -0.000000     -0.000000      0.000000
      8.09900      0.00000      4.04950         0.000000     -0.000000      0.000000
      8.09900      2.02475      6.07425        -0.000000     -0.000000     -0.000000
     10.12375      0.00000      6.07425         0.000000      0.000000      0.000000
     10.12375      2.02475      4.04950         0.000000     -0.000000      0.000000
      8.09900      0.00000      8.09900        -0.000000      0.000000     -0.000000
      8.09900      2.02475     10.12375        -0.000000      0.000000      0.000000
     10.12375      0.00000     10.12375        -0.000000     -0.000000     -0.000000
     10.12375      2.02475      8.09900        -0.000000     -0.000000     -0.000000
      8.09900      0.00000     12.14850         0.000000     -0.000000     -0.000000
      8.09900      2.02475     14.17325         0.000000     -0.000000      0.000000
     10.12375      0.00000     14.17325        -0.000000      0.000000      0.000000
     10.12375      2.02475     12.14850        -0.000000     -0.000000      0.000000
      8.09900      4.04950      0.00000        -0.000000     -0.000000     -0.000000
      8.09900      6.07425      2.02475         0.000000      0.000000     -0.000000
     10.12375      4.04950      2.02475        -0.000000     -0.000000      0.000000
     10.12375      6.07425      0.00000         0.000000     -0.000000      0.000000
      8.09900      4.04950      4.04950        -0.000000     -0.000000     -0.000000
      8.09900      6.07425      6.07425        -0.000000      0.000000      0.000000
     10.12375      4.04950      6.07425        -0.000000     -0.000000     -0.000000
     10.12375      6.07425      4.04950         0.000000     -0.000000     -0.000000
      8.09900      4.04950      8.09900        -0.000000      0.000000      0.000000
      8.09900      6.07425     10.12375        -0.000000      0.000000      0.000000
     10.12375      4.04950     10.12375        -0.000000      0.000000      0.000000
     10.12375      6.07425      8.09900        -0.000000      0.000000      0.000000
      8.09900      4.04950     12.14850         0.000000      0.000000      0.000000
      8.09900      6.07425     14.17325         0.000000     -0.000000     -0.000000
     10.12375      4.04950     14.17325        -0.000000     -0.000000     -0.000000
     10.12375      6.07425     12.14850        -0.000000      0.000000     -0.000000
      8.09900      8.09900      0.00000         0.000000     -0.000000      0.000000
      8.09900     10.12375      2.02475         0.000000      0.000000      0.000000
     10.12375      8.09900      2.02475         0.000000     -0.000000     -0.000000
     10.12375     10.12375      0.00000         0.000000      0.000000     -0.000000
      8.09900      8.09900      4.04950         0.000000      0.000000      0.000000
      8.09900     10.12375      6.07425        -0.000000      0.000000     -0.000000
     10.12375      8.09900      6.07425         0.000000      0.000000      0.000000
     10.12375     10.12375      4.04950         0.000000      0.000000      0.000000
      8.09900      8.09900      8.09900         0.000000      0.000000      0.000000
      8.09900     10.12375     10.12375         0.000000     -0.000000     -0.000000
     10.12375      8.09900     10.12375        -0.000000      0.000000      0.000000
     10.12375     10.12375      8.09900        -0.000000      0.000000     -0.000000
      8.09900      8.09900     12.14850         0.000000      0.000000      0.000000
      8.09900     10.12375     14.17325         0.000000      0.000000      0.000000
     10.12375      8.09900     14.17325         0.000000      0.000000      0.000000
     10.12375     10.12375     12.14850         0.000000     -0.000000     -0.000000
      8.09900     12.14850      0.00000         0.000000      0.000000      0.000000
      8.09900     14.17325      2.02475         0.000000     -0.000000     -0.000000
     10.12375     12.14850      2.02475         0.000000      0.000000      0.000000
     10.12375     14.17325      0.00000         0.000000      0.000000      0.000000
      8.09900     12.14850      4.04950        -0.000000      0.000000      0.000000
      8.09900     14.17325      6.07425        -0.000000     -0.000000     -0.000000
     10.12375     12.14850      6.07425        -0.000000      0.000000      0.000000
     10.12375     14.17325      4.04950         0.000000      0.000000      0.000000
      8.09900     12.14850      8.09900         0.000000     -0.000000      0.000000
      8.09900     14.17325     10.12375        -0.000000     -0.000000      0.000000
     10.12375     12.14850     10.12375         0.000000     -0.000000     -0.000000
     10.12375     14.17325      8.09900        -0.000000     -0.000000      0.000000
      8.09900     12.14850     12.14850        -0.000000     -0.000000      0.000000
      8.09900     14.17325     14.17325         0.000000      0.000000      0.000000
     10.12375     12.14850     14.17325         0.000000     -0.000000      0.000000
     10.12375     14.17325     12.14850        -0.000000     -0.000000     -0.000000
     12.14850      0.00000      0.00000        -0.000000     -0.000000      0.000000
     12.14850      2.02475      2.02475        -0.000000     -0.000000      0.000000
     14.17325      0.00000      2.02475         0.000000      0.000000      0.000000
     14.17325      2.02475      0.00000        -0.000000     -0.000000     -0.000000
     12.14850      0.00000      4.04950         0.000000      0.000000     -0.000000
     12.14850      2.02475      6.07425         0.000000     -0.000000      0.000000
     14.17325      0.00000      6.07425         0.000000      0.000000     -0.000000
     14.17325      2.02475      4.04950         0.000000      0.000000      0.000000
     12.14850      0.00000      8.09900         0.000000     -0.000000     -0.000000
     12.14850      2.02475     10.12375        -0.000000     -0.000000     -0.000000
     14.17325      0.00000     10.12375         0.000000      0.000000      0.000000
     14.17325      2.02475      8.09900         0.000000     -0.000000     -0.000000
     12.14850      0.00000     12.14850        -0.000000     -0.000000     -0.000000
     12.14850      2.02475     14.17325        -0.000000     -0.000000      0.000000
     14.17325      0.00000     14.17325        -0.000000     -0.000000     -0.000000
     14.17325      2.02475     12.14850        -0.000000     -0.000000     -0.000000
     12.14850      4.04950      0.00000        -0.000000     -0.000000      0.000000
     12.14850      6.07425      2.02475         0.000000     -0.000000     -0.000000
     14.17325      4.04950      2.02475         0.000000     -0.000000      0.000000
     14.17325      6.07425      0.00000         0.000000      0.000000      0.000000
     12.14850      4.04950      4.04950        -0.000000     -0.000000     -0.000000
     12.14850      6.07425      6.07425         0.000000     -0.000000     -0.000000
     14.17325      4.04950      6.07425         0.000000     -0.000000     -0.000000
     14.17325      6.07425      4.04950         0.000000     -0.000000     -0.000000
     12.14850      4.04950      8.09900        -0.000000     -0.000000     -0.000000
     12.14850      6.07425     10.12375        -0.000000     -0.000000      0.000000
     14.17325      4.04950     10.12375        -0.000000      0.000000     -0.000000
     14.17325      6.07425      8.09900         0.000000     -0.000000     -0.000000
     12.14850      4.04950     12.14850        -0.000000      0.000000      0.000000
     12.14850      6.07425     14.17325        -0.000000      0.000000     -0.000000
     14.17325      4.04950     14.17325        -0.000000      0.000000      0.000000
     14.17325      6.07425     12.14850        -0.000000      0.000000      0.000000
     12.14850      8.09900      0.00000        -0.000000      0.000000     -0.000000
     12.14850     10.12375      2.02475         0.000000      0.000000      0.000000
     14.17325      8.09900      2.02475        -0.000000      0.000000     -0.000000
     14.17325     10.12375      0.00000         0.000000      0.000000     -0.000000
     12.14850      8.09900      4.04950         0.000000     -0.000000     -0.000000
     12.14850     10.12375      6.07425         0.000000      0.000000      0.000000
     14.17325      8.09900      6.07425         0.000000     -0.000000     -0.000000
     14.17325     10.12375      4.04950         0.000000     -0.000000     -0.000000
     12.14850      8.09900      8.09900         0.000000      0.000000      0.000000
     12.14850     10.12375     10.12375        -0.000000      0.000000     -0.000000
     14.17325      8.09900     10.12375         0.000000     -0.000000      0.000000
     14.17325     10.12375      8.09900         0.000000      0.000000      0.000000
     12.14850      8.09900     12.14850         0.000000      0.000000      0.000000
     12.14850     10.12375     14.17325        -0.000000      0.000000     -0.000000
     14.17325      8.09900     14.17325         0.000000      0.000000      0.000000
     14.17325     10.12375     12.14850         0.000000      0.000000     -0.000000
     12.14850     12.14850      0.00000        -0.000000     -0.000000      0.000000
     12.14850     14.17325      2.02475         0.000000      0.000000      0.000000
     14.17325     12.14850      2.02475         0.000000     -0.000000     -0.000000
     14.17325     14.17325      0.00000        -0.000000     -0.000000     -0.000000
     12.14850     12.14850      4.04950         0.000000      0.000000      0.000000
     12.14850     14.17325      6.07425         0.000000      0.000000     -0.000000
     14.17325     12.14850      6.07425         0.000000      0.000000      0.000000
     14.17325     14.17325      4.04950        -0.000000      0.000000     -0.000000
     12.14850     12.14850      8.09900        -0.000000      0.000000     -0.000000
     12.14850     14.17325     10.12375        -0.000000     -0.000000     -0.000000
     14.17325     12.14850     10.12375         0.000000      0.000000     -0.000000
     14.17325     14.17325      8.09900         0.000000      0.000000     -0.000000
     12.14850     12.14850     12.14850        -0.000000     -0.000000     -0.000000
     12.14850     14.17325     14.17325        -0.000000     -0.000000     -0.000000
     14.17325     12.14850     14.17325        -0.000000     -0.000000      0.000000
     14.17325     14.17325     12.14850        -0.000000     -0.000000      0.000000
 -----------------------------------------------------------------------------------
    total drift:                               -0.000000     -0.000000     -0.000000


--------------------------------------------------------------------------------------------------------



  FREE ENERGIE OF THE ION-ELECTRON SYSTEM (eV)
  ---------------------------------------------------
  free  energy   TOTEN  =     -1046.98835838 eV

  energy  without entropy=    -1046.78485254  energy(sigma->0) =    -1046.88660546
 


--------------------------------------------------------------------------------------------------------


    POTLOK:  cpu time    0.4811: real time    0.4812


--------------------------------------------------------------------------------------------------------


 stress matrix after NEB project (eV)
   -100.55974      0.00000      0.00000
     -0.00000   -100.55974      0.00000
      0.00000      0.00000   -100.55974
  FORCES: max atom, RMS     0.000000    0.000000
  FORCE total and by dimension    0.000000    0.000000
  Stress total and by dimension  174.174585  100.559743
     LOOP+:  cpu time  132.3117: real time  132.3751
    4ORBIT:  cpu time    0.0000: real time    0.0000

 total amount of memory used by VASP MPI-rank0  2782717. kBytes
=======================================================================

   base      :      30000. kBytes
   nonlr-proj:      67717. kBytes
   fftplans  :     141100. kBytes
   grid      :     218828. kBytes
   one-center:       3981. kBytes
   wavefun   :    2321091. kBytes
 
  
  
 General timing and accounting informations for this job:
 ========================================================
  
                  Total CPU time used (sec):      153.517
                            User time (sec):      150.398
                          System time (sec):        3.119
                         Elapsed time (sec):      155.122
  
                   Maximum memory used (kb):     4721728.
                   Average memory used (kb):          N/A
  
                          Minor page faults:      2693321
                          Major page faults:            0
                 Voluntary context switches:         7047
