 running on    1 total cores
 distrk:  each k-point on    1 cores,    1 groups
 distr:  one band on    1 cores,    1 groups
 OpenACC runtime initialized ...    1 GPUs detected
 vasp.6.2.1 16May21 (build Jun 16 2021 03:23:30) complex                         
 POSCAR found type information on POSCAR Al
 POSCAR found :  1 types and     256 ions
 scaLAPACK will be used selectively (only on CPU)
 LDA part: xc-table for Pade appr. of Perdew
 POSCAR found type information on POSCAR Al
 POSCAR found :  1 types and     256 ions
 POSCAR, INCAR and KPOINTS ok, starting setup
 FFT: planning ...
 WAVECAR not read
 entering main loop
       N       E                     dE             d eps       ncg     rms          rms(c)
DAV:   1     0.125556390851E+04    0.12556E+04   -0.21309E+05  4120   0.910E+02
DAV:   2    -0.825631723052E+03   -0.20812E+04   -0.19501E+04  5704   0.182E+02
DAV:   3    -0.960937945071E+03   -0.13531E+03   -0.12696E+03  5128   0.336E+01
DAV:   4    -0.967234788651E+03   -0.62968E+01   -0.61838E+01  5640   0.789E+00
DAV:   5    -0.967349927458E+03   -0.11514E+00   -0.11465E+00  5320   0.125E+00    0.152E+01
DAV:   6    -0.963928615096E+03    0.34213E+01   -0.46651E-01  5080   0.807E-01    0.942E+00
DAV:   7    -0.961435420825E+03    0.24932E+01   -0.12609E+00  4832   0.130E+00    0.359E-01
DAV:   8    -0.961435426690E+03   -0.58650E-05   -0.13655E-02  4952   0.160E-01    0.932E-02
DAV:   9    -0.961435417905E+03    0.87855E-05   -0.49026E-04  5488   0.278E-02    0.415E-03
DAV:  10    -0.961435415311E+03    0.25934E-05   -0.87993E-06  5296   0.345E-03    0.185E-03
DAV:  11    -0.961435394815E+03    0.20496E-04   -0.40516E-07  3752   0.865E-04    0.322E-04
DAV:  12    -0.961435394512E+03    0.30325E-06   -0.33212E-08  2832   0.337E-04    0.557E-05
DAV:  13    -0.961435395522E+03   -0.10106E-05   -0.70633E-09  2776   0.137E-04    0.315E-05
DAV:  14    -0.961435395478E+03    0.43869E-07   -0.24849E-09  2688   0.827E-05
   1 F= -.10469884E+04 E0= -.10468866E+04  d E =-.203506E+00
