NiAl                                    
            1
    16.198000    0.000000    0.000000
     0.000000   16.198000    0.000000
     0.000000    0.000000   16.198000
   Al
   256
Direct configuration=     1
   0.00000000  0.00000000  0.00000000
   0.00000000  0.12500000  0.12500000
   0.12500000  0.00000000  0.12500000
   0.12500000  0.12500000  0.00000000
   0.00000000  0.00000000  0.25000000
   0.00000000  0.12500000  0.37500000
   0.12500000  0.00000000  0.37500000
   0.12500000  0.12500000  0.25000000
   0.00000000  0.00000000  0.50000000
   0.00000000  0.12500000  0.62500000
   0.12500000  0.00000000  0.62500000
   0.12500000  0.12500000  0.50000000
   0.00000000  0.00000000  0.75000000
   0.00000000  0.12500000  0.87500000
   0.12500000  0.00000000  0.87500000
   0.12500000  0.12500000  0.75000000
   0.00000000  0.25000000  0.00000000
   0.00000000  0.37500000  0.12500000
   0.12500000  0.25000000  0.12500000
   0.12500000  0.37500000  0.00000000
   0.00000000  0.25000000  0.25000000
   0.00000000  0.37500000  0.37500000
   0.12500000  0.25000000  0.37500000
   0.12500000  0.37500000  0.25000000
   0.00000000  0.25000000  0.50000000
   0.00000000  0.37500000  0.62500000
   0.12500000  0.25000000  0.62500000
   0.12500000  0.37500000  0.50000000
   0.00000000  0.25000000  0.75000000
   0.00000000  0.37500000  0.87500000
   0.12500000  0.25000000  0.87500000
   0.12500000  0.37500000  0.75000000
   0.00000000  0.50000000  0.00000000
   0.00000000  0.62500000  0.12500000
   0.12500000  0.50000000  0.12500000
   0.12500000  0.62500000  0.00000000
   0.00000000  0.50000000  0.25000000
   0.00000000  0.62500000  0.37500000
   0.12500000  0.50000000  0.37500000
   0.12500000  0.62500000  0.25000000
   0.00000000  0.50000000  0.50000000
   0.00000000  0.62500000  0.62500000
   0.12500000  0.50000000  0.62500000
   0.12500000  0.62500000  0.50000000
   0.00000000  0.50000000  0.75000000
   0.00000000  0.62500000  0.87500000
   0.12500000  0.50000000  0.87500000
   0.12500000  0.62500000  0.75000000
   0.00000000  0.75000000  0.00000000
   0.00000000  0.87500000  0.12500000
   0.12500000  0.75000000  0.12500000
   0.12500000  0.87500000  0.00000000
   0.00000000  0.75000000  0.25000000
   0.00000000  0.87500000  0.37500000
   0.12500000  0.75000000  0.37500000
   0.12500000  0.87500000  0.25000000
   0.00000000  0.75000000  0.50000000
   0.00000000  0.87500000  0.62500000
   0.12500000  0.75000000  0.62500000
   0.12500000  0.87500000  0.50000000
   0.00000000  0.75000000  0.75000000
   0.00000000  0.87500000  0.87500000
   0.12500000  0.75000000  0.87500000
   0.12500000  0.87500000  0.75000000
   0.25000000  0.00000000  0.00000000
   0.25000000  0.12500000  0.12500000
   0.37500000  0.00000000  0.12500000
   0.37500000  0.12500000  0.00000000
   0.25000000  0.00000000  0.25000000
   0.25000000  0.12500000  0.37500000
   0.37500000  0.00000000  0.37500000
   0.37500000  0.12500000  0.25000000
   0.25000000  0.00000000  0.50000000
   0.25000000  0.12500000  0.62500000
   0.37500000  0.00000000  0.62500000
   0.37500000  0.12500000  0.50000000
   0.25000000  0.00000000  0.75000000
   0.25000000  0.12500000  0.87500000
   0.37500000  0.00000000  0.87500000
   0.37500000  0.12500000  0.75000000
   0.25000000  0.25000000  0.00000000
   0.25000000  0.37500000  0.12500000
   0.37500000  0.25000000  0.12500000
   0.37500000  0.37500000  0.00000000
   0.25000000  0.25000000  0.25000000
   0.25000000  0.37500000  0.37500000
   0.37500000  0.25000000  0.37500000
   0.37500000  0.37500000  0.25000000
   0.25000000  0.25000000  0.50000000
   0.25000000  0.37500000  0.62500000
   0.37500000  0.25000000  0.62500000
   0.37500000  0.37500000  0.50000000
   0.25000000  0.25000000  0.75000000
   0.25000000  0.37500000  0.87500000
   0.37500000  0.25000000  0.87500000
   0.37500000  0.37500000  0.75000000
   0.25000000  0.50000000  0.00000000
   0.25000000  0.62500000  0.12500000
   0.37500000  0.50000000  0.12500000
   0.37500000  0.62500000  0.00000000
   0.25000000  0.50000000  0.25000000
   0.25000000  0.62500000  0.37500000
   0.37500000  0.50000000  0.37500000
   0.37500000  0.62500000  0.25000000
   0.25000000  0.50000000  0.50000000
   0.25000000  0.62500000  0.62500000
   0.37500000  0.50000000  0.62500000
   0.37500000  0.62500000  0.50000000
   0.25000000  0.50000000  0.75000000
   0.25000000  0.62500000  0.87500000
   0.37500000  0.50000000  0.87500000
   0.37500000  0.62500000  0.75000000
   0.25000000  0.75000000  0.00000000
   0.25000000  0.87500000  0.12500000
   0.37500000  0.75000000  0.12500000
   0.37500000  0.87500000  0.00000000
   0.25000000  0.75000000  0.25000000
   0.25000000  0.87500000  0.37500000
   0.37500000  0.75000000  0.37500000
   0.37500000  0.87500000  0.25000000
   0.25000000  0.75000000  0.50000000
   0.25000000  0.87500000  0.62500000
   0.37500000  0.75000000  0.62500000
   0.37500000  0.87500000  0.50000000
   0.25000000  0.75000000  0.75000000
   0.25000000  0.87500000  0.87500000
   0.37500000  0.75000000  0.87500000
   0.37500000  0.87500000  0.75000000
   0.50000000  0.00000000  0.00000000
   0.50000000  0.12500000  0.12500000
   0.62500000  0.00000000  0.12500000
   0.62500000  0.12500000  0.00000000
   0.50000000  0.00000000  0.25000000
   0.50000000  0.12500000  0.37500000
   0.62500000  0.00000000  0.37500000
   0.62500000  0.12500000  0.25000000
   0.50000000  0.00000000  0.50000000
   0.50000000  0.12500000  0.62500000
   0.62500000  0.00000000  0.62500000
   0.62500000  0.12500000  0.50000000
   0.50000000  0.00000000  0.75000000
   0.50000000  0.12500000  0.87500000
   0.62500000  0.00000000  0.87500000
   0.62500000  0.12500000  0.75000000
   0.50000000  0.25000000  0.00000000
   0.50000000  0.37500000  0.12500000
   0.62500000  0.25000000  0.12500000
   0.62500000  0.37500000  0.00000000
   0.50000000  0.25000000  0.25000000
   0.50000000  0.37500000  0.37500000
   0.62500000  0.25000000  0.37500000
   0.62500000  0.37500000  0.25000000
   0.50000000  0.25000000  0.50000000
   0.50000000  0.37500000  0.62500000
   0.62500000  0.25000000  0.62500000
   0.62500000  0.37500000  0.50000000
   0.50000000  0.25000000  0.75000000
   0.50000000  0.37500000  0.87500000
   0.62500000  0.25000000  0.87500000
   0.62500000  0.37500000  0.75000000
   0.50000000  0.50000000  0.00000000
   0.50000000  0.62500000  0.12500000
   0.62500000  0.50000000  0.12500000
   0.62500000  0.62500000  0.00000000
   0.50000000  0.50000000  0.25000000
   0.50000000  0.62500000  0.37500000
   0.62500000  0.50000000  0.37500000
   0.62500000  0.62500000  0.25000000
   0.50000000  0.50000000  0.50000000
   0.50000000  0.62500000  0.62500000
   0.62500000  0.50000000  0.62500000
   0.62500000  0.62500000  0.50000000
   0.50000000  0.50000000  0.75000000
   0.50000000  0.62500000  0.87500000
   0.62500000  0.50000000  0.87500000
   0.62500000  0.62500000  0.75000000
   0.50000000  0.75000000  0.00000000
   0.50000000  0.87500000  0.12500000
   0.62500000  0.75000000  0.12500000
   0.62500000  0.87500000  0.00000000
   0.50000000  0.75000000  0.25000000
   0.50000000  0.87500000  0.37500000
   0.62500000  0.75000000  0.37500000
   0.62500000  0.87500000  0.25000000
   0.50000000  0.75000000  0.50000000
   0.50000000  0.87500000  0.62500000
   0.62500000  0.75000000  0.62500000
   0.62500000  0.87500000  0.50000000
   0.50000000  0.75000000  0.75000000
   0.50000000  0.87500000  0.87500000
   0.62500000  0.75000000  0.87500000
   0.62500000  0.87500000  0.75000000
   0.75000000  0.00000000  0.00000000
   0.75000000  0.12500000  0.12500000
   0.87500000  0.00000000  0.12500000
   0.87500000  0.12500000  0.00000000
   0.75000000  0.00000000  0.25000000
   0.75000000  0.12500000  0.37500000
   0.87500000  0.00000000  0.37500000
   0.87500000  0.12500000  0.25000000
   0.75000000  0.00000000  0.50000000
   0.75000000  0.12500000  0.62500000
   0.87500000  0.00000000  0.62500000
   0.87500000  0.12500000  0.50000000
   0.75000000  0.00000000  0.75000000
   0.75000000  0.12500000  0.87500000
   0.87500000  0.00000000  0.87500000
   0.87500000  0.12500000  0.75000000
   0.75000000  0.25000000  0.00000000
   0.75000000  0.37500000  0.12500000
   0.87500000  0.25000000  0.12500000
   0.87500000  0.37500000  0.00000000
   0.75000000  0.25000000  0.25000000
   0.75000000  0.37500000  0.37500000
   0.87500000  0.25000000  0.37500000
   0.87500000  0.37500000  0.25000000
   0.75000000  0.25000000  0.50000000
   0.75000000  0.37500000  0.62500000
   0.87500000  0.25000000  0.62500000
   0.87500000  0.37500000  0.50000000
   0.75000000  0.25000000  0.75000000
   0.75000000  0.37500000  0.87500000
   0.87500000  0.25000000  0.87500000
   0.87500000  0.37500000  0.75000000
   0.75000000  0.50000000  0.00000000
   0.75000000  0.62500000  0.12500000
   0.87500000  0.50000000  0.12500000
   0.87500000  0.62500000  0.00000000
   0.75000000  0.50000000  0.25000000
   0.75000000  0.62500000  0.37500000
   0.87500000  0.50000000  0.37500000
   0.87500000  0.62500000  0.25000000
   0.75000000  0.50000000  0.50000000
   0.75000000  0.62500000  0.62500000
   0.87500000  0.50000000  0.62500000
   0.87500000  0.62500000  0.50000000
   0.75000000  0.50000000  0.75000000
   0.75000000  0.62500000  0.87500000
   0.87500000  0.50000000  0.87500000
   0.87500000  0.62500000  0.75000000
   0.75000000  0.75000000  0.00000000
   0.75000000  0.87500000  0.12500000
   0.87500000  0.75000000  0.12500000
   0.87500000  0.87500000  0.00000000
   0.75000000  0.75000000  0.25000000
   0.75000000  0.87500000  0.37500000
   0.87500000  0.75000000  0.37500000
   0.87500000  0.87500000  0.25000000
   0.75000000  0.75000000  0.50000000
   0.75000000  0.87500000  0.62500000
   0.87500000  0.75000000  0.62500000
   0.87500000  0.87500000  0.50000000
   0.75000000  0.75000000  0.75000000
   0.75000000  0.87500000  0.87500000
   0.87500000  0.75000000  0.87500000
   0.87500000  0.87500000  0.75000000
