 250 250   0   0
  0.4057868E+01  0.1054150E-08  0.1054150E-08  0.1054150E-08  0.2000000E-15
   1.0000000000000000E-004
  CAR 
 NiAl                                    
     35.62757712    -13.44291837  301     20.08325200      1.00000000
    -13.443  0.0000E+00  0.0000E+00
    -13.279  0.0000E+00  0.0000E+00
    -13.116  0.0000E+00  0.0000E+00
    -12.952  0.0000E+00  0.0000E+00
    -12.789  0.0000E+00  0.0000E+00
    -12.625  0.0000E+00  0.0000E+00
    -12.462  0.0000E+00  0.0000E+00
    -12.298  0.0000E+00  0.0000E+00
    -12.134  0.0000E+00  0.0000E+00
    -11.971  0.0000E+00  0.0000E+00
    -11.807  0.0000E+00  0.0000E+00
    -11.644  0.0000E+00  0.0000E+00
    -11.480  0.7106E-15  0.1162E-15
    -11.317  0.6188E-04  0.1012E-04
    -11.153  0.3638E-01  0.5961E-02
    -10.989  0.3883E-02  0.6596E-02
    -10.826  0.2266E+00  0.4365E-01
    -10.662  0.9128E-01  0.5858E-01
    -10.499  0.4125E+00  0.1261E+00
    -10.335  0.3306E-01  0.1315E+00
    -10.172  0.1501E+00  0.1560E+00
    -10.008  0.2625E+00  0.1990E+00
     -9.844  0.3081E+00  0.2494E+00
     -9.681  0.8614E+00  0.3902E+00
     -9.517  0.1299E+00  0.4115E+00
     -9.354  0.1973E+00  0.4438E+00
     -9.190  0.4315E+00  0.5143E+00
     -9.027  0.2488E+00  0.5550E+00
     -8.863  0.9024E+00  0.7026E+00
     -8.699  0.3772E+00  0.7643E+00
     -8.536  0.7754E+00  0.8912E+00
     -8.372  0.3490E+00  0.9482E+00
     -8.209  0.5099E+00  0.1032E+01
     -8.045  0.1375E+01  0.1257E+01
     -7.882  0.5600E+00  0.1348E+01
     -7.718  0.1104E+01  0.1529E+01
     -7.554  0.1378E+01  0.1754E+01
     -7.391  0.2074E+01  0.2094E+01
     -7.227  0.2191E+01  0.2452E+01
     -7.064  0.2710E+01  0.2895E+01
     -6.900  0.2010E+01  0.3224E+01
     -6.737  0.2652E+01  0.3658E+01
     -6.573  0.1755E+01  0.3945E+01
     -6.409  0.7923E+00  0.4074E+01
     -6.246  0.1187E+01  0.4269E+01
     -6.082  0.3305E+01  0.4809E+01
     -5.919  0.9063E+00  0.4957E+01
     -5.755  0.7203E+00  0.5075E+01
     -5.592  0.2020E+01  0.5406E+01
     -5.428  0.1627E+01  0.5672E+01
     -5.265  0.3665E+00  0.5732E+01
     -5.101  0.1391E+01  0.5959E+01
     -4.937  0.5557E+00  0.6050E+01
     -4.774  0.4015E-01  0.6057E+01
     -4.610  0.2999E+00  0.6106E+01
     -4.447  0.7900E-01  0.6119E+01
     -4.283  0.1491E+00  0.6143E+01
     -4.120  0.7416E-01  0.6155E+01
     -3.956  0.2356E+00  0.6194E+01
     -3.792  0.1225E-02  0.6194E+01
     -3.629  0.1192E+00  0.6213E+01
     -3.465  0.1852E+00  0.6244E+01
     -3.302  0.1074E-03  0.6244E+01
     -3.138  0.1061E-16  0.6244E+01
     -2.975  0.9758E-05  0.6244E+01
     -2.811  0.3343E-01  0.6249E+01
     -2.647  0.4768E-02  0.6250E+01
     -2.484  0.1446E-09  0.6250E+01
     -2.320  0.0000E+00  0.6250E+01
     -2.157  0.0000E+00  0.6250E+01
     -1.993  0.0000E+00  0.6250E+01
     -1.830  0.0000E+00  0.6250E+01
     -1.666  0.0000E+00  0.6250E+01
     -1.502  0.0000E+00  0.6250E+01
     -1.339  0.0000E+00  0.6250E+01
     -1.175  0.0000E+00  0.6250E+01
     -1.012  0.0000E+00  0.6250E+01
     -0.848  0.0000E+00  0.6250E+01
     -0.685  0.0000E+00  0.6250E+01
     -0.521  0.0000E+00  0.6250E+01
     -0.357  0.0000E+00  0.6250E+01
     -0.194  0.0000E+00  0.6250E+01
     -0.030  0.0000E+00  0.6250E+01
      0.133  0.0000E+00  0.6250E+01
      0.297  0.0000E+00  0.6250E+01
      0.460  0.0000E+00  0.6250E+01
      0.624  0.0000E+00  0.6250E+01
      0.788  0.0000E+00  0.6250E+01
      0.951  0.3390E-08  0.6250E+01
      1.115  0.1278E-01  0.6252E+01
      1.278  0.1025E+00  0.6269E+01
      1.442  0.7509E-01  0.6281E+01
      1.605  0.1624E+00  0.6308E+01
      1.769  0.3519E+00  0.6365E+01
      1.933  0.2692E+00  0.6409E+01
      2.096  0.7358E+00  0.6530E+01
      2.260  0.6337E+00  0.6633E+01
      2.423  0.8517E+00  0.6773E+01
      2.587  0.1261E+01  0.6979E+01
      2.750  0.1128E+01  0.7163E+01
      2.914  0.8385E+00  0.7301E+01
      3.077  0.1509E+01  0.7547E+01
      3.241  0.1683E+01  0.7823E+01
      3.405  0.1213E+01  0.8021E+01
      3.568  0.1375E+01  0.8246E+01
      3.732  0.2314E+01  0.8625E+01
      3.895  0.2335E+01  0.9007E+01
      4.059  0.3010E+01  0.9499E+01
      4.222  0.2338E+01  0.9881E+01
      4.386  0.2813E+01  0.1034E+02
      4.550  0.2336E+01  0.1072E+02
      4.713  0.2176E+01  0.1108E+02
      4.877  0.1982E+01  0.1140E+02
      5.040  0.2094E+01  0.1175E+02
      5.204  0.1442E+01  0.1198E+02
      5.367  0.2685E+01  0.1242E+02
      5.531  0.4045E+01  0.1308E+02
      5.695  0.3178E+01  0.1360E+02
      5.858  0.2355E+01  0.1399E+02
      6.022  0.2810E+01  0.1445E+02
      6.185  0.3855E+01  0.1508E+02
      6.349  0.3164E+01  0.1560E+02
      6.512  0.4364E+01  0.1631E+02
      6.676  0.4232E+01  0.1700E+02
      6.840  0.3296E+01  0.1754E+02
      7.003  0.3238E+01  0.1807E+02
      7.167  0.2798E+01  0.1853E+02
      7.330  0.2913E+01  0.1900E+02
      7.494  0.2566E+01  0.1942E+02
      7.657  0.2728E+01  0.1987E+02
      7.821  0.1276E+01  0.2008E+02
      7.985  0.7599E+00  0.2020E+02
      8.148  0.3275E+01  0.2074E+02
      8.312  0.3317E+01  0.2128E+02
      8.475  0.1627E+01  0.2155E+02
      8.639  0.1919E+01  0.2186E+02
      8.802  0.1556E+01  0.2212E+02
      8.966  0.1716E+01  0.2240E+02
      9.130  0.1958E+01  0.2272E+02
      9.293  0.9352E+00  0.2287E+02
      9.457  0.8093E+00  0.2300E+02
      9.620  0.3227E+00  0.2306E+02
      9.784  0.1342E+01  0.2327E+02
      9.947  0.4429E+00  0.2335E+02
     10.111  0.1320E+01  0.2356E+02
     10.274  0.9994E+00  0.2373E+02
     10.438  0.2959E+00  0.2377E+02
     10.602  0.8482E+00  0.2391E+02
     10.765  0.9047E+00  0.2406E+02
     10.929  0.7881E+00  0.2419E+02
     11.092  0.5063E+00  0.2427E+02
     11.256  0.5198E+00  0.2436E+02
     11.419  0.6585E+00  0.2447E+02
     11.583  0.4960E+00  0.2455E+02
     11.747  0.1078E+01  0.2472E+02
     11.910  0.4134E+00  0.2479E+02
     12.074  0.5485E+00  0.2488E+02
     12.237  0.1002E+01  0.2504E+02
     12.401  0.7871E+00  0.2517E+02
     12.564  0.1166E+01  0.2536E+02
     12.728  0.1568E+01  0.2562E+02
     12.892  0.9116E+00  0.2577E+02
     13.055  0.1173E+01  0.2596E+02
     13.219  0.1277E+01  0.2617E+02
     13.382  0.2182E+01  0.2653E+02
     13.546  0.2120E+01  0.2687E+02
     13.709  0.3312E+01  0.2742E+02
     13.873  0.2334E+01  0.2780E+02
     14.037  0.1672E+01  0.2807E+02
     14.200  0.1905E+01  0.2838E+02
     14.364  0.3043E+01  0.2888E+02
     14.527  0.3586E+01  0.2947E+02
     14.691  0.4085E+01  0.3014E+02
     14.854  0.3276E+01  0.3067E+02
     15.018  0.3847E+01  0.3130E+02
     15.182  0.3788E+01  0.3192E+02
     15.345  0.4170E+01  0.3260E+02
     15.509  0.2885E+01  0.3307E+02
     15.672  0.2515E+01  0.3349E+02
     15.836  0.2520E+01  0.3390E+02
     15.999  0.2686E+01  0.3434E+02
     16.163  0.2908E+01  0.3481E+02
     16.327  0.4020E+01  0.3547E+02
     16.490  0.5718E+01  0.3641E+02
     16.654  0.3854E+01  0.3704E+02
     16.817  0.3173E+01  0.3755E+02
     16.981  0.4767E+01  0.3833E+02
     17.144  0.3415E+01  0.3889E+02
     17.308  0.3175E+01  0.3941E+02
     17.471  0.3827E+01  0.4004E+02
     17.635  0.6300E+01  0.4107E+02
     17.799  0.7513E+01  0.4230E+02
     17.962  0.3417E+01  0.4286E+02
     18.126  0.4643E+01  0.4362E+02
     18.289  0.4137E+01  0.4429E+02
     18.453  0.4655E+01  0.4505E+02
     18.616  0.4469E+01  0.4579E+02
     18.780  0.3712E+01  0.4639E+02
     18.944  0.3315E+01  0.4693E+02
     19.107  0.3658E+01  0.4753E+02
     19.271  0.4440E+01  0.4826E+02
     19.434  0.2480E+01  0.4866E+02
     19.598  0.3056E+01  0.4916E+02
     19.761  0.2158E+01  0.4952E+02
     19.925  0.1570E+01  0.4977E+02
     20.089  0.1423E+01  0.5001E+02
     20.252  0.1532E+01  0.5026E+02
     20.416  0.1724E+01  0.5054E+02
     20.579  0.8247E+00  0.5067E+02
     20.743  0.1239E+01  0.5088E+02
     20.906  0.9924E+00  0.5104E+02
     21.070  0.9367E+00  0.5119E+02
     21.234  0.7755E+00  0.5132E+02
     21.397  0.8398E+00  0.5146E+02
     21.561  0.5757E+00  0.5155E+02
     21.724  0.6591E+00  0.5166E+02
     21.888  0.1262E+01  0.5187E+02
     22.051  0.2088E+01  0.5221E+02
     22.215  0.8074E+00  0.5234E+02
     22.379  0.1269E+01  0.5255E+02
     22.542  0.2038E+01  0.5288E+02
     22.706  0.2637E+01  0.5331E+02
     22.869  0.2844E+01  0.5378E+02
     23.033  0.1042E+01  0.5395E+02
     23.196  0.1473E+01  0.5419E+02
     23.360  0.1344E+01  0.5441E+02
     23.524  0.8170E+00  0.5454E+02
     23.687  0.5473E+00  0.5463E+02
     23.851  0.6617E+00  0.5474E+02
     24.014  0.8934E+00  0.5489E+02
     24.178  0.9766E+00  0.5504E+02
     24.341  0.2319E+00  0.5508E+02
     24.505  0.4167E+00  0.5515E+02
     24.668  0.7061E+00  0.5527E+02
     24.832  0.7799E+00  0.5539E+02
     24.996  0.7610E+00  0.5552E+02
     25.159  0.5911E+00  0.5562E+02
     25.323  0.9889E+00  0.5578E+02
     25.486  0.7043E+00  0.5589E+02
     25.650  0.1022E+01  0.5606E+02
     25.813  0.6236E+00  0.5616E+02
     25.977  0.2572E+00  0.5620E+02
     26.141  0.2891E+00  0.5625E+02
     26.304  0.3357E+00  0.5631E+02
     26.468  0.3046E+00  0.5636E+02
     26.631  0.3859E+00  0.5642E+02
     26.795  0.7876E-01  0.5643E+02
     26.958  0.2568E-04  0.5643E+02
     27.122  0.0000E+00  0.5643E+02
     27.286  0.7803E-07  0.5643E+02
     27.449  0.1160E+00  0.5645E+02
     27.613  0.3456E+00  0.5651E+02
     27.776  0.7320E-01  0.5652E+02
     27.940  0.1242E+00  0.5654E+02
     28.103  0.1889E+00  0.5657E+02
     28.267  0.2831E+00  0.5662E+02
     28.431  0.2756E+00  0.5666E+02
     28.594  0.1841E+00  0.5669E+02
     28.758  0.1669E+00  0.5672E+02
     28.921  0.3698E-02  0.5672E+02
     29.085  0.2957E+00  0.5677E+02
     29.248  0.3890E+00  0.5683E+02
     29.412  0.2333E+00  0.5687E+02
     29.576  0.5830E+00  0.5696E+02
     29.739  0.5796E+00  0.5706E+02
     29.903  0.1319E+00  0.5708E+02
     30.066  0.3616E+00  0.5714E+02
     30.230  0.4840E+00  0.5722E+02
     30.393  0.2361E+00  0.5726E+02
     30.557  0.1081E+01  0.5743E+02
     30.721  0.4060E+00  0.5750E+02
     30.884  0.7692E+00  0.5763E+02
     31.048  0.8136E+00  0.5776E+02
     31.211  0.3537E+00  0.5782E+02
     31.375  0.1061E+01  0.5799E+02
     31.538  0.6385E+00  0.5810E+02
     31.702  0.2926E+00  0.5814E+02
     31.866  0.7582E+00  0.5827E+02
     32.029  0.1068E+01  0.5844E+02
     32.193  0.1222E+01  0.5864E+02
     32.356  0.1652E+01  0.5891E+02
     32.520  0.1375E+01  0.5914E+02
     32.683  0.1366E+01  0.5936E+02
     32.847  0.9161E+00  0.5951E+02
     33.010  0.1257E+01  0.5972E+02
     33.174  0.1038E+01  0.5989E+02
     33.338  0.6173E+00  0.5999E+02
     33.501  0.7714E-01  0.6000E+02
     33.665  0.6209E-04  0.6000E+02
     33.828  0.0000E+00  0.6000E+02
     33.992  0.0000E+00  0.6000E+02
     34.155  0.0000E+00  0.6000E+02
     34.319  0.0000E+00  0.6000E+02
     34.483  0.0000E+00  0.6000E+02
     34.646  0.0000E+00  0.6000E+02
     34.810  0.0000E+00  0.6000E+02
     34.973  0.0000E+00  0.6000E+02
     35.137  0.0000E+00  0.6000E+02
     35.300  0.0000E+00  0.6000E+02
     35.464  0.0000E+00  0.6000E+02
     35.628  0.0000E+00  0.6000E+02
