 250 250   0   0
  0.1098683E+02  0.1054150E-08  0.1054150E-08  0.2854150E-08  0.2000000E-15
   1.0000000000000000E-004
  CAR 
 NiAl                                    
     11.20658616    -22.02989517  301      3.10663272      1.00000000
    -22.030  0.0000E+00  0.0000E+00
    -21.919  0.0000E+00  0.0000E+00
    -21.808  0.0000E+00  0.0000E+00
    -21.698  0.0000E+00  0.0000E+00
    -21.587  0.0000E+00  0.0000E+00
    -21.476  0.0000E+00  0.0000E+00
    -21.365  0.0000E+00  0.0000E+00
    -21.254  0.0000E+00  0.0000E+00
    -21.144  0.0000E+00  0.0000E+00
    -21.033  0.0000E+00  0.0000E+00
    -20.922  0.0000E+00  0.0000E+00
    -20.811  0.1253E-16  0.1388E-17
    -20.700  0.3268E-07  0.3620E-08
    -20.590  0.5176E-02  0.5735E-03
    -20.479  0.1916E+00  0.2181E-01
    -20.368  0.2883E-01  0.2500E-01
    -20.257  0.1220E+00  0.3852E-01
    -20.146  0.1242E+01  0.1761E+00
    -20.036  0.2192E+00  0.2004E+00
    -19.925  0.1983E+00  0.2224E+00
    -19.814  0.9432E+00  0.3269E+00
    -19.703  0.6912E+00  0.4035E+00
    -19.593  0.2143E+01  0.6409E+00
    -19.482  0.5396E+00  0.7007E+00
    -19.371  0.1029E+01  0.8147E+00
    -19.260  0.2185E+01  0.1057E+01
    -19.149  0.8715E+00  0.1153E+01
    -19.039  0.1247E+01  0.1292E+01
    -18.928  0.1539E+01  0.1462E+01
    -18.817  0.1294E+01  0.1605E+01
    -18.706  0.1992E+01  0.1826E+01
    -18.595  0.1093E+01  0.1947E+01
    -18.485  0.2161E+01  0.2187E+01
    -18.374  0.1683E+01  0.2373E+01
    -18.263  0.1430E+00  0.2389E+01
    -18.152  0.2577E+01  0.2674E+01
    -18.042  0.1528E+01  0.2844E+01
    -17.931  0.3317E+01  0.3211E+01
    -17.820  0.2141E+01  0.3448E+01
    -17.709  0.3056E+01  0.3787E+01
    -17.598  0.7806E+00  0.3873E+01
    -17.488  0.5012E+00  0.3929E+01
    -17.377  0.8878E+00  0.4027E+01
    -17.266  0.1272E+01  0.4168E+01
    -17.155  0.1660E+01  0.4352E+01
    -17.044  0.4111E+01  0.4808E+01
    -16.934  0.2407E+01  0.5074E+01
    -16.823  0.1619E+01  0.5253E+01
    -16.712  0.2363E+01  0.5515E+01
    -16.601  0.2563E+01  0.5799E+01
    -16.490  0.4211E+01  0.6266E+01
    -16.380  0.2130E+01  0.6502E+01
    -16.269  0.1642E+01  0.6684E+01
    -16.158  0.3758E+00  0.6725E+01
    -16.047  0.1181E+01  0.6856E+01
    -15.937  0.4964E+01  0.7406E+01
    -15.826  0.4620E+01  0.7918E+01
    -15.715  0.4692E+01  0.8438E+01
    -15.604  0.2521E+01  0.8717E+01
    -15.493  0.3018E+01  0.9051E+01
    -15.383  0.5091E+01  0.9615E+01
    -15.272  0.4585E+01  0.1012E+02
    -15.161  0.4552E+01  0.1063E+02
    -15.050  0.1549E+01  0.1080E+02
    -14.939  0.1622E+01  0.1098E+02
    -14.829  0.1647E+01  0.1116E+02
    -14.718  0.5273E+01  0.1175E+02
    -14.607  0.2916E+01  0.1207E+02
    -14.496  0.1179E+01  0.1220E+02
    -14.386  0.8435E-02  0.1220E+02
    -14.275  0.4305E+00  0.1225E+02
    -14.164  0.9301E+00  0.1235E+02
    -14.053  0.1175E+01  0.1248E+02
    -13.942  0.1718E+00  0.1250E+02
    -13.832  0.1790E-04  0.1250E+02
    -13.721  0.1898E-12  0.1250E+02
    -13.610  0.0000E+00  0.1250E+02
    -13.499  0.0000E+00  0.1250E+02
    -13.388  0.0000E+00  0.1250E+02
    -13.278  0.0000E+00  0.1250E+02
    -13.167  0.0000E+00  0.1250E+02
    -13.056  0.0000E+00  0.1250E+02
    -12.945  0.0000E+00  0.1250E+02
    -12.834  0.0000E+00  0.1250E+02
    -12.724  0.0000E+00  0.1250E+02
    -12.613  0.0000E+00  0.1250E+02
    -12.502  0.0000E+00  0.1250E+02
    -12.391  0.0000E+00  0.1250E+02
    -12.281  0.0000E+00  0.1250E+02
    -12.170  0.0000E+00  0.1250E+02
    -12.059  0.0000E+00  0.1250E+02
    -11.948  0.0000E+00  0.1250E+02
    -11.837  0.0000E+00  0.1250E+02
    -11.727  0.0000E+00  0.1250E+02
    -11.616  0.0000E+00  0.1250E+02
    -11.505  0.0000E+00  0.1250E+02
    -11.394  0.0000E+00  0.1250E+02
    -11.283  0.0000E+00  0.1250E+02
    -11.173  0.0000E+00  0.1250E+02
    -11.062  0.0000E+00  0.1250E+02
    -10.951  0.0000E+00  0.1250E+02
    -10.840  0.0000E+00  0.1250E+02
    -10.729  0.0000E+00  0.1250E+02
    -10.619  0.0000E+00  0.1250E+02
    -10.508  0.0000E+00  0.1250E+02
    -10.397  0.0000E+00  0.1250E+02
    -10.286  0.0000E+00  0.1250E+02
    -10.176  0.0000E+00  0.1250E+02
    -10.065  0.0000E+00  0.1250E+02
     -9.954  0.0000E+00  0.1250E+02
     -9.843  0.0000E+00  0.1250E+02
     -9.732  0.0000E+00  0.1250E+02
     -9.622  0.0000E+00  0.1250E+02
     -9.511  0.0000E+00  0.1250E+02
     -9.400  0.0000E+00  0.1250E+02
     -9.289  0.0000E+00  0.1250E+02
     -9.178  0.0000E+00  0.1250E+02
     -9.068  0.0000E+00  0.1250E+02
     -8.957  0.3132E-16  0.1250E+02
     -8.846  0.5411E-07  0.1250E+02
     -8.735  0.6368E-02  0.1250E+02
     -8.625  0.1941E+00  0.1252E+02
     -8.514  0.2515E-01  0.1252E+02
     -8.403  0.2234E-03  0.1253E+02
     -8.292  0.3680E+00  0.1257E+02
     -8.181  0.9749E+00  0.1267E+02
     -8.071  0.1281E-01  0.1268E+02
     -7.960  0.1729E+00  0.1269E+02
     -7.849  0.5078E-01  0.1270E+02
     -7.738  0.2284E-03  0.1270E+02
     -7.627  0.4560E+00  0.1275E+02
     -7.517  0.1864E+01  0.1296E+02
     -7.406  0.3877E+00  0.1300E+02
     -7.295  0.3663E+00  0.1304E+02
     -7.184  0.8484E+00  0.1313E+02
     -7.073  0.9368E+00  0.1324E+02
     -6.963  0.3213E+00  0.1327E+02
     -6.852  0.1179E+01  0.1340E+02
     -6.741  0.1828E+01  0.1361E+02
     -6.630  0.2426E+01  0.1388E+02
     -6.520  0.1806E+01  0.1408E+02
     -6.409  0.1177E+01  0.1421E+02
     -6.298  0.2186E+01  0.1445E+02
     -6.187  0.3338E+01  0.1482E+02
     -6.076  0.4056E+01  0.1527E+02
     -5.966  0.1671E+01  0.1545E+02
     -5.855  0.4890E+01  0.1599E+02
     -5.744  0.4562E+01  0.1650E+02
     -5.633  0.5330E+01  0.1709E+02
     -5.522  0.3473E+01  0.1748E+02
     -5.412  0.5911E+01  0.1813E+02
     -5.301  0.7526E+01  0.1896E+02
     -5.190  0.7516E+01  0.1980E+02
     -5.079  0.4469E+01  0.2029E+02
     -4.969  0.6468E+01  0.2101E+02
     -4.858  0.6489E+01  0.2173E+02
     -4.747  0.7153E+01  0.2252E+02
     -4.636  0.5834E+01  0.2317E+02
     -4.525  0.8268E+01  0.2408E+02
     -4.415  0.7553E+01  0.2492E+02
     -4.304  0.3779E+01  0.2534E+02
     -4.193  0.6180E+01  0.2602E+02
     -4.082  0.6284E+01  0.2672E+02
     -3.971  0.4489E+01  0.2722E+02
     -3.861  0.7610E+01  0.2806E+02
     -3.750  0.4366E+01  0.2854E+02
     -3.639  0.5718E+01  0.2918E+02
     -3.528  0.8149E+01  0.3008E+02
     -3.417  0.3997E+01  0.3052E+02
     -3.307  0.8674E+01  0.3148E+02
     -3.196  0.7461E+01  0.3231E+02
     -3.085  0.5962E+01  0.3297E+02
     -2.974  0.9659E+01  0.3404E+02
     -2.864  0.7708E+01  0.3489E+02
     -2.753  0.8228E+01  0.3581E+02
     -2.642  0.7593E+01  0.3665E+02
     -2.531  0.8855E+01  0.3763E+02
     -2.420  0.7375E+01  0.3844E+02
     -2.310  0.7328E+01  0.3926E+02
     -2.199  0.9578E+01  0.4032E+02
     -2.088  0.8224E+01  0.4123E+02
     -1.977  0.8147E+01  0.4213E+02
     -1.866  0.1310E+02  0.4358E+02
     -1.756  0.7853E+01  0.4445E+02
     -1.645  0.6959E+01  0.4522E+02
     -1.534  0.6516E+01  0.4595E+02
     -1.423  0.5157E+01  0.4652E+02
     -1.312  0.4005E+01  0.4696E+02
     -1.202  0.6544E+01  0.4769E+02
     -1.091  0.4729E+01  0.4821E+02
     -0.980  0.7353E+01  0.4902E+02
     -0.869  0.6313E+01  0.4972E+02
     -0.759  0.7962E+01  0.5061E+02
     -0.648  0.5402E+01  0.5120E+02
     -0.537  0.7905E+01  0.5208E+02
     -0.426  0.7777E+01  0.5294E+02
     -0.315  0.9930E+01  0.5404E+02
     -0.205  0.9920E+01  0.5514E+02
     -0.094  0.8964E+01  0.5613E+02
      0.017  0.1252E+02  0.5752E+02
      0.128  0.1214E+02  0.5887E+02
      0.239  0.1312E+02  0.6032E+02
      0.349  0.7390E+01  0.6114E+02
      0.460  0.1046E+02  0.6230E+02
      0.571  0.1014E+02  0.6342E+02
      0.682  0.1321E+02  0.6488E+02
      0.792  0.1590E+02  0.6665E+02
      0.903  0.1528E+02  0.6834E+02
      1.014  0.1164E+02  0.6963E+02
      1.125  0.1470E+02  0.7126E+02
      1.236  0.1368E+02  0.7277E+02
      1.346  0.1374E+02  0.7430E+02
      1.457  0.1699E+02  0.7618E+02
      1.568  0.1257E+02  0.7757E+02
      1.679  0.1362E+02  0.7908E+02
      1.790  0.1909E+02  0.8119E+02
      1.900  0.1810E+02  0.8320E+02
      2.011  0.1930E+02  0.8534E+02
      2.122  0.1540E+02  0.8704E+02
      2.233  0.1496E+02  0.8870E+02
      2.344  0.1616E+02  0.9049E+02
      2.454  0.1648E+02  0.9232E+02
      2.565  0.1323E+02  0.9378E+02
      2.676  0.9595E+01  0.9485E+02
      2.787  0.8843E+01  0.9583E+02
      2.897  0.1085E+02  0.9703E+02
      3.008  0.1257E+02  0.9842E+02
      3.119  0.1568E+02  0.1002E+03
      3.230  0.1379E+02  0.1017E+03
      3.341  0.1490E+02  0.1033E+03
      3.451  0.1254E+02  0.1047E+03
      3.562  0.9874E+01  0.1058E+03
      3.673  0.9953E+01  0.1069E+03
      3.784  0.1140E+02  0.1082E+03
      3.895  0.9419E+01  0.1092E+03
      4.005  0.7506E+01  0.1101E+03
      4.116  0.6231E+01  0.1108E+03
      4.227  0.7359E+01  0.1116E+03
      4.338  0.3736E+01  0.1120E+03
      4.449  0.1988E+01  0.1122E+03
      4.559  0.3091E+01  0.1125E+03
      4.670  0.2815E+01  0.1129E+03
      4.781  0.2811E+01  0.1132E+03
      4.892  0.1560E+01  0.1133E+03
      5.002  0.3141E+00  0.1134E+03
      5.113  0.2294E+00  0.1134E+03
      5.224  0.8692E+00  0.1135E+03
      5.335  0.1038E+01  0.1136E+03
      5.446  0.7257E+00  0.1137E+03
      5.556  0.1841E+01  0.1139E+03
      5.667  0.1088E+01  0.1140E+03
      5.778  0.9584E+00  0.1141E+03
      5.889  0.1326E+01  0.1143E+03
      6.000  0.5646E-01  0.1143E+03
      6.110  0.6510E+00  0.1143E+03
      6.221  0.1519E+01  0.1145E+03
      6.332  0.1755E+01  0.1147E+03
      6.443  0.1476E+00  0.1147E+03
      6.553  0.8434E+00  0.1148E+03
      6.664  0.5098E+00  0.1149E+03
      6.775  0.7261E+00  0.1150E+03
      6.886  0.8244E+00  0.1150E+03
      6.997  0.2484E+01  0.1153E+03
      7.107  0.1568E+01  0.1155E+03
      7.218  0.2941E+00  0.1155E+03
      7.329  0.1328E+01  0.1157E+03
      7.440  0.2787E+01  0.1160E+03
      7.551  0.8504E+00  0.1161E+03
      7.661  0.1900E+01  0.1163E+03
      7.772  0.2464E+01  0.1166E+03
      7.883  0.1307E+01  0.1167E+03
      7.994  0.3872E+01  0.1171E+03
      8.105  0.5459E+01  0.1177E+03
      8.215  0.1955E+01  0.1180E+03
      8.326  0.2456E+01  0.1182E+03
      8.437  0.1741E+01  0.1184E+03
      8.548  0.2215E+01  0.1187E+03
      8.658  0.4624E+01  0.1192E+03
      8.769  0.1303E+01  0.1193E+03
      8.880  0.1969E+01  0.1195E+03
      8.991  0.1757E+01  0.1197E+03
      9.102  0.1567E+00  0.1198E+03
      9.212  0.1150E+01  0.1199E+03
      9.323  0.8266E+00  0.1200E+03
      9.434  0.3598E-01  0.1200E+03
      9.545  0.8118E-01  0.1200E+03
      9.656  0.1499E-01  0.1200E+03
      9.766  0.9587E-01  0.1200E+03
      9.877  0.2603E-02  0.1200E+03
      9.988  0.1655E-07  0.1200E+03
     10.099  0.0000E+00  0.1200E+03
     10.209  0.0000E+00  0.1200E+03
     10.320  0.0000E+00  0.1200E+03
     10.431  0.0000E+00  0.1200E+03
     10.542  0.0000E+00  0.1200E+03
     10.653  0.0000E+00  0.1200E+03
     10.763  0.0000E+00  0.1200E+03
     10.874  0.0000E+00  0.1200E+03
     10.985  0.0000E+00  0.1200E+03
     11.096  0.0000E+00  0.1200E+03
     11.207  0.0000E+00  0.1200E+03
