 216 216   0   0
  0.1900214E+02  0.1264986E-08  0.1264986E-08  0.2564986E-08  0.2000000E-15
   1.0000000000000000E-004
  CAR 
 NiAl                                    
      7.92395824    -21.45628748  301      0.27331706      1.00000000
    -21.456  0.0000E+00  0.0000E+00
    -21.358  0.0000E+00  0.0000E+00
    -21.260  0.0000E+00  0.0000E+00
    -21.162  0.0000E+00  0.0000E+00
    -21.065  0.0000E+00  0.0000E+00
    -20.967  0.0000E+00  0.0000E+00
    -20.869  0.0000E+00  0.0000E+00
    -20.771  0.0000E+00  0.0000E+00
    -20.673  0.0000E+00  0.0000E+00
    -20.575  0.0000E+00  0.0000E+00
    -20.477  0.0000E+00  0.0000E+00
    -20.379  0.1800E-13  0.1762E-14
    -20.281  0.3716E-06  0.3639E-07
    -20.183  0.4976E-02  0.4873E-03
    -20.085  0.1236E+00  0.1259E-01
    -19.987  0.4577E+00  0.5742E-01
    -19.889  0.4955E+00  0.1059E+00
    -19.791  0.1719E+00  0.1228E+00
    -19.693  0.8882E+00  0.2098E+00
    -19.596  0.1299E+01  0.3370E+00
    -19.498  0.4298E+00  0.3791E+00
    -19.400  0.1204E+01  0.4971E+00
    -19.302  0.2080E+01  0.7008E+00
    -19.204  0.7983E+00  0.7790E+00
    -19.106  0.2447E+01  0.1019E+01
    -19.008  0.2748E+01  0.1288E+01
    -18.910  0.3682E+01  0.1648E+01
    -18.812  0.4733E+01  0.2112E+01
    -18.714  0.8589E+01  0.2953E+01
    -18.616  0.7327E+01  0.3671E+01
    -18.518  0.6329E+01  0.4290E+01
    -18.420  0.7144E+01  0.4990E+01
    -18.322  0.3610E+01  0.5344E+01
    -18.224  0.5741E+00  0.5400E+01
    -18.127  0.1520E-02  0.5400E+01
    -18.029  0.7960E-08  0.5400E+01
    -17.931  0.2834E-16  0.5400E+01
    -17.833  0.0000E+00  0.5400E+01
    -17.735  0.0000E+00  0.5400E+01
    -17.637  0.0000E+00  0.5400E+01
    -17.539  0.0000E+00  0.5400E+01
    -17.441  0.0000E+00  0.5400E+01
    -17.343  0.0000E+00  0.5400E+01
    -17.245  0.0000E+00  0.5400E+01
    -17.147  0.0000E+00  0.5400E+01
    -17.049  0.0000E+00  0.5400E+01
    -16.951  0.0000E+00  0.5400E+01
    -16.853  0.0000E+00  0.5400E+01
    -16.755  0.0000E+00  0.5400E+01
    -16.658  0.0000E+00  0.5400E+01
    -16.560  0.0000E+00  0.5400E+01
    -16.462  0.0000E+00  0.5400E+01
    -16.364  0.0000E+00  0.5400E+01
    -16.266  0.0000E+00  0.5400E+01
    -16.168  0.0000E+00  0.5400E+01
    -16.070  0.0000E+00  0.5400E+01
    -15.972  0.0000E+00  0.5400E+01
    -15.874  0.0000E+00  0.5400E+01
    -15.776  0.0000E+00  0.5400E+01
    -15.678  0.0000E+00  0.5400E+01
    -15.580  0.0000E+00  0.5400E+01
    -15.482  0.0000E+00  0.5400E+01
    -15.384  0.0000E+00  0.5400E+01
    -15.286  0.0000E+00  0.5400E+01
    -15.189  0.0000E+00  0.5400E+01
    -15.091  0.0000E+00  0.5400E+01
    -14.993  0.0000E+00  0.5400E+01
    -14.895  0.0000E+00  0.5400E+01
    -14.797  0.0000E+00  0.5400E+01
    -14.699  0.0000E+00  0.5400E+01
    -14.601  0.0000E+00  0.5400E+01
    -14.503  0.0000E+00  0.5400E+01
    -14.405  0.0000E+00  0.5400E+01
    -14.307  0.0000E+00  0.5400E+01
    -14.209  0.0000E+00  0.5400E+01
    -14.111  0.0000E+00  0.5400E+01
    -14.013  0.0000E+00  0.5400E+01
    -13.915  0.0000E+00  0.5400E+01
    -13.817  0.0000E+00  0.5400E+01
    -13.719  0.0000E+00  0.5400E+01
    -13.622  0.0000E+00  0.5400E+01
    -13.524  0.0000E+00  0.5400E+01
    -13.426  0.0000E+00  0.5400E+01
    -13.328  0.0000E+00  0.5400E+01
    -13.230  0.0000E+00  0.5400E+01
    -13.132  0.0000E+00  0.5400E+01
    -13.034  0.0000E+00  0.5400E+01
    -12.936  0.0000E+00  0.5400E+01
    -12.838  0.0000E+00  0.5400E+01
    -12.740  0.0000E+00  0.5400E+01
    -12.642  0.0000E+00  0.5400E+01
    -12.544  0.0000E+00  0.5400E+01
    -12.446  0.0000E+00  0.5400E+01
    -12.348  0.0000E+00  0.5400E+01
    -12.250  0.0000E+00  0.5400E+01
    -12.153  0.0000E+00  0.5400E+01
    -12.055  0.0000E+00  0.5400E+01
    -11.957  0.0000E+00  0.5400E+01
    -11.859  0.0000E+00  0.5400E+01
    -11.761  0.0000E+00  0.5400E+01
    -11.663  0.0000E+00  0.5400E+01
    -11.565  0.0000E+00  0.5400E+01
    -11.467  0.0000E+00  0.5400E+01
    -11.369  0.0000E+00  0.5400E+01
    -11.271  0.0000E+00  0.5400E+01
    -11.173  0.0000E+00  0.5400E+01
    -11.075  0.0000E+00  0.5400E+01
    -10.977  0.0000E+00  0.5400E+01
    -10.879  0.0000E+00  0.5400E+01
    -10.781  0.0000E+00  0.5400E+01
    -10.684  0.0000E+00  0.5400E+01
    -10.586  0.0000E+00  0.5400E+01
    -10.488  0.0000E+00  0.5400E+01
    -10.390  0.0000E+00  0.5400E+01
    -10.292  0.0000E+00  0.5400E+01
    -10.194  0.0000E+00  0.5400E+01
    -10.096  0.0000E+00  0.5400E+01
     -9.998  0.0000E+00  0.5400E+01
     -9.900  0.0000E+00  0.5400E+01
     -9.802  0.0000E+00  0.5400E+01
     -9.704  0.0000E+00  0.5400E+01
     -9.606  0.0000E+00  0.5400E+01
     -9.508  0.0000E+00  0.5400E+01
     -9.410  0.0000E+00  0.5400E+01
     -9.312  0.0000E+00  0.5400E+01
     -9.215  0.0000E+00  0.5400E+01
     -9.117  0.0000E+00  0.5400E+01
     -9.019  0.0000E+00  0.5400E+01
     -8.921  0.0000E+00  0.5400E+01
     -8.823  0.0000E+00  0.5400E+01
     -8.725  0.0000E+00  0.5400E+01
     -8.627  0.0000E+00  0.5400E+01
     -8.529  0.0000E+00  0.5400E+01
     -8.431  0.0000E+00  0.5400E+01
     -8.333  0.0000E+00  0.5400E+01
     -8.235  0.0000E+00  0.5400E+01
     -8.137  0.0000E+00  0.5400E+01
     -8.039  0.0000E+00  0.5400E+01
     -7.941  0.0000E+00  0.5400E+01
     -7.843  0.9411E-11  0.5400E+01
     -7.746  0.3063E-04  0.5400E+01
     -7.648  0.7192E-01  0.5407E+01
     -7.550  0.4179E+00  0.5448E+01
     -7.452  0.5929E+00  0.5506E+01
     -7.354  0.1566E+01  0.5659E+01
     -7.256  0.9650E+00  0.5754E+01
     -7.158  0.5894E+00  0.5812E+01
     -7.060  0.4559E+00  0.5856E+01
     -6.962  0.2084E+01  0.6060E+01
     -6.864  0.2593E+01  0.6314E+01
     -6.766  0.3382E+01  0.6646E+01
     -6.668  0.3259E+01  0.6965E+01
     -6.570  0.3855E+01  0.7342E+01
     -6.472  0.6003E+01  0.7930E+01
     -6.374  0.4708E+01  0.8391E+01
     -6.276  0.2048E+01  0.8592E+01
     -6.179  0.2928E+01  0.8879E+01
     -6.081  0.3590E+01  0.9230E+01
     -5.983  0.4176E+01  0.9639E+01
     -5.885  0.2523E+01  0.9886E+01
     -5.787  0.1726E+01  0.1006E+02
     -5.689  0.1034E+01  0.1016E+02
     -5.591  0.9988E+00  0.1025E+02
     -5.493  0.2382E+01  0.1049E+02
     -5.395  0.3439E+01  0.1082E+02
     -5.297  0.3677E+01  0.1118E+02
     -5.199  0.5239E+01  0.1170E+02
     -5.101  0.5422E+01  0.1223E+02
     -5.003  0.7922E+01  0.1300E+02
     -4.905  0.8509E+01  0.1384E+02
     -4.807  0.1005E+02  0.1482E+02
     -4.710  0.7182E+01  0.1553E+02
     -4.612  0.7497E+01  0.1626E+02
     -4.514  0.8309E+01  0.1707E+02
     -4.416  0.6689E+01  0.1773E+02
     -4.318  0.5355E+01  0.1825E+02
     -4.220  0.6729E+01  0.1891E+02
     -4.122  0.4176E+01  0.1932E+02
     -4.024  0.3595E+01  0.1967E+02
     -3.926  0.3471E+01  0.2001E+02
     -3.828  0.4046E+01  0.2041E+02
     -3.730  0.4210E+01  0.2082E+02
     -3.632  0.1473E+01  0.2097E+02
     -3.534  0.1011E+01  0.2106E+02
     -3.436  0.1580E+01  0.2122E+02
     -3.338  0.1161E+01  0.2133E+02
     -3.241  0.5021E+00  0.2138E+02
     -3.143  0.4521E+00  0.2143E+02
     -3.045  0.6634E+00  0.2149E+02
     -2.947  0.3567E+00  0.2153E+02
     -2.849  0.4149E+00  0.2157E+02
     -2.751  0.8037E-01  0.2158E+02
     -2.653  0.1035E+00  0.2159E+02
     -2.555  0.1501E+00  0.2160E+02
     -2.457  0.4035E-02  0.2160E+02
     -2.359  0.9506E-01  0.2161E+02
     -2.261  0.3016E-01  0.2161E+02
     -2.163  0.5524E-01  0.2162E+02
     -2.065  0.8459E-01  0.2163E+02
     -1.967  0.4094E+00  0.2167E+02
     -1.869  0.5376E+00  0.2172E+02
     -1.772  0.1954E+01  0.2191E+02
     -1.674  0.2395E+01  0.2214E+02
     -1.576  0.2148E+01  0.2236E+02
     -1.478  0.1790E+01  0.2253E+02
     -1.380  0.2654E+01  0.2279E+02
     -1.282  0.7529E+01  0.2353E+02
     -1.184  0.6749E+01  0.2419E+02
     -1.086  0.7139E+01  0.2489E+02
     -0.988  0.7416E+01  0.2561E+02
     -0.890  0.1389E+02  0.2697E+02
     -0.792  0.1505E+02  0.2845E+02
     -0.694  0.1333E+02  0.2975E+02
     -0.596  0.1268E+02  0.3100E+02
     -0.498  0.1325E+02  0.3229E+02
     -0.400  0.2120E+02  0.3437E+02
     -0.303  0.2691E+02  0.3701E+02
     -0.205  0.1950E+02  0.3892E+02
     -0.107  0.1376E+02  0.4026E+02
     -0.009  0.9023E+01  0.4115E+02
      0.089  0.6534E+01  0.4179E+02
      0.187  0.7142E+01  0.4249E+02
      0.285  0.8235E+01  0.4329E+02
      0.383  0.4579E+01  0.4374E+02
      0.481  0.4285E+01  0.4416E+02
      0.579  0.4614E+01  0.4461E+02
      0.677  0.5443E+01  0.4515E+02
      0.775  0.4635E+01  0.4560E+02
      0.873  0.3457E+01  0.4594E+02
      0.971  0.2789E+01  0.4621E+02
      1.069  0.3816E+01  0.4659E+02
      1.167  0.6778E+01  0.4725E+02
      1.264  0.3521E+01  0.4759E+02
      1.362  0.3047E+01  0.4789E+02
      1.460  0.2653E+01  0.4815E+02
      1.558  0.3669E+01  0.4851E+02
      1.656  0.8392E+00  0.4859E+02
      1.754  0.1183E+00  0.4861E+02
      1.852  0.7239E-01  0.4861E+02
      1.950  0.9528E-01  0.4862E+02
      2.048  0.3032E-01  0.4862E+02
      2.146  0.3492E-04  0.4863E+02
      2.244  0.2861E-01  0.4863E+02
      2.342  0.5026E+00  0.4868E+02
      2.440  0.4704E+00  0.4872E+02
      2.538  0.1950E-01  0.4873E+02
      2.636  0.6765E-01  0.4873E+02
      2.733  0.7800E+00  0.4881E+02
      2.831  0.1732E+00  0.4882E+02
      2.929  0.2153E-03  0.4882E+02
      3.027  0.2507E-09  0.4883E+02
      3.125  0.2834E-16  0.4883E+02
      3.223  0.1271E-07  0.4883E+02
      3.321  0.2562E-02  0.4883E+02
      3.419  0.5009E+00  0.4887E+02
      3.517  0.6462E+00  0.4894E+02
      3.615  0.1325E+01  0.4907E+02
      3.713  0.7541E+00  0.4914E+02
      3.811  0.4273E+00  0.4918E+02
      3.909  0.4554E-01  0.4919E+02
      4.007  0.1299E+00  0.4920E+02
      4.105  0.3943E+00  0.4924E+02
      4.202  0.7780E+00  0.4932E+02
      4.300  0.2291E+00  0.4934E+02
      4.398  0.2214E-03  0.4934E+02
      4.496  0.5242E-01  0.4934E+02
      4.594  0.1033E+01  0.4944E+02
      4.692  0.1222E+01  0.4956E+02
      4.790  0.1698E+01  0.4973E+02
      4.888  0.8688E+00  0.4981E+02
      4.986  0.9765E+00  0.4991E+02
      5.084  0.2086E+01  0.5011E+02
      5.182  0.9940E+00  0.5021E+02
      5.280  0.4308E-02  0.5021E+02
      5.378  0.1325E-01  0.5021E+02
      5.476  0.4238E+00  0.5026E+02
      5.574  0.1203E+01  0.5037E+02
      5.671  0.1757E+01  0.5055E+02
      5.769  0.2940E+01  0.5083E+02
      5.867  0.2425E+01  0.5107E+02
      5.965  0.1139E+01  0.5118E+02
      6.063  0.1243E+01  0.5130E+02
      6.161  0.1597E+01  0.5146E+02
      6.259  0.9385E+00  0.5155E+02
      6.357  0.1093E+01  0.5166E+02
      6.455  0.4159E+00  0.5170E+02
      6.553  0.1681E+00  0.5172E+02
      6.651  0.8165E+00  0.5180E+02
      6.749  0.3756E-01  0.5180E+02
      6.847  0.2630E-05  0.5180E+02
      6.945  0.1194E-12  0.5180E+02
      7.043  0.0000E+00  0.5180E+02
      7.140  0.0000E+00  0.5180E+02
      7.238  0.0000E+00  0.5180E+02
      7.336  0.0000E+00  0.5180E+02
      7.434  0.0000E+00  0.5180E+02
      7.532  0.0000E+00  0.5180E+02
      7.630  0.0000E+00  0.5180E+02
      7.728  0.0000E+00  0.5180E+02
      7.826  0.0000E+00  0.5180E+02
      7.924  0.0000E+00  0.5180E+02
