  216  216   40    1
  0.1900214E+02  0.1264986E-08  0.1264986E-08  0.2564986E-08  0.2000000E-15
   1.0000000000000000E-004
  CAR 
 NiAl                                    
   1728      3   1036
 
  0.1262379E-14  0.1262379E-14  0.1262379E-14  0.2500000E+00
      1        -20.120822   1.000000
      2        -19.758745   1.000000
      3        -19.758740   1.000000
      4        -19.758738   1.000000
      5        -19.758737   1.000000
      6        -19.747653   1.000000
      7        -19.445277   1.000000
      8        -19.445272   1.000000
      9        -19.445272   1.000000
     10        -19.445267   1.000000
     11        -19.426268   1.000000
     12        -19.426265   1.000000
     13        -19.426261   1.000000
     14        -19.426261   1.000000
     15        -19.276549   1.000000
     16        -19.163035   1.000000
     17        -19.163031   1.000000
     18        -19.163030   1.000000
     19        -19.163025   1.000000
     20        -19.059124   1.000000
     21        -19.059123   1.000000
     22        -19.059119   1.000000
     23        -19.059119   1.000000
     24        -19.023476   1.000000
     25        -19.023472   1.000000
     26        -19.023469   1.000000
     27        -19.023469   1.000000
     28        -18.995409   1.000000
     29        -18.890449   1.000000
     30        -18.890446   1.000000
     31        -18.890446   1.000000
     32        -18.890441   1.000000
     33        -18.890438   1.000000
     34        -18.890434   1.000000
     35        -18.890433   1.000000
     36        -18.890431   1.000000
     37        -18.849808   1.000000
     38        -18.849803   1.000000
     39        -18.849803   1.000000
     40        -18.849797   1.000000
     41        -18.846444   1.000000
     42        -18.846442   1.000000
     43        -18.846438   1.000000
     44        -18.846438   1.000000
     45        -18.803042   1.000000
     46        -18.803036   1.000000
     47        -18.803034   1.000000
     48        -18.803034   1.000000
     49        -18.749667   1.000000
     50        -18.749654   1.000000
     51        -18.747089   1.000000
     52        -18.747082   1.000000
     53        -18.747082   1.000000
     54        -18.747075   1.000000
     55        -18.747017   1.000000
     56        -18.747015   1.000000
     57        -18.747014   1.000000
     58        -18.747010   1.000000
     59        -18.722042   1.000000
     60        -18.722037   1.000000
     61        -18.722037   1.000000
     62        -18.722033   1.000000
     63        -18.712168   1.000000
     64        -18.666775   1.000000
     65        -18.666774   1.000000
     66        -18.666769   1.000000
     67        -18.666769   1.000000
     68        -18.660643   1.000000
     69        -18.660640   1.000000
     70        -18.660636   1.000000
     71        -18.660636   1.000000
     72        -18.617670   1.000000
     73        -18.609292   1.000000
     74        -18.609221   1.000000
     75        -18.584060   1.000000
     76        -18.584056   1.000000
     77        -18.584052   1.000000
     78        -18.584052   1.000000
     79        -18.551999   1.000000
     80        -18.551995   1.000000
     81        -18.551991   1.000000
     82        -18.551991   1.000000
     83        -18.537424   1.000000
     84        -18.537419   1.000000
     85        -18.537419   1.000000
     86        -18.537413   1.000000
     87        -18.530907   1.000000
     88        -18.530902   1.000000
     89        -18.530902   1.000000
     90        -18.530895   1.000000
     91        -18.451784   1.000000
     92        -18.451779   1.000000
     93        -18.451779   1.000000
     94        -18.451769   1.000000
     95        -18.451663   1.000000
     96        -18.451657   1.000000
     97        -18.451657   1.000000
     98        -18.451655   1.000000
     99        -18.409315   1.000000
    100        -18.409312   1.000000
    101        -18.409308   1.000000
    102        -18.409308   1.000000
    103        -18.407747   1.000000
    104        -18.407745   1.000000
    105        -18.407740   1.000000
    106        -18.407740   1.000000
    107        -18.318430   1.000000
    108        -18.318310   1.000000
    109         -7.321004   1.000000
    110         -7.321001   1.000000
    111         -7.321001   1.000000
    112         -7.320999   1.000000
    113         -7.320998   1.000000
    114         -7.320998   1.000000
    115         -7.320996   1.000000
    116         -7.320993   1.000000
    117         -7.218178   1.000000
    118         -7.218176   1.000000
    119         -7.218176   1.000000
    120         -7.218174   1.000000
    121         -7.136980   1.000000
    122         -7.136979   1.000000
    123         -7.136979   1.000000
    124         -7.136976   1.000000
    125         -6.780004   1.000000
    126         -6.780004   1.000000
    127         -6.780002   1.000000
    128         -6.779996   1.000000
    129         -6.779987   1.000000
    130         -6.779984   1.000000
    131         -6.779984   1.000000
    132         -6.779980   1.000000
    133         -6.692763   1.000000
    134         -6.692763   1.000000
    135         -6.692756   1.000000
    136         -6.692756   1.000000
    137         -6.647701   1.000000
    138         -6.647701   1.000000
    139         -6.647694   1.000000
    140         -6.647694   1.000000
    141         -6.599793   1.000000
    142         -6.599793   1.000000
    143         -6.597840   1.000000
    144         -6.597837   1.000000
    145         -6.597836   1.000000
    146         -6.597835   1.000000
    147         -6.540342   1.000000
    148         -6.538035   1.000000
    149         -6.538032   1.000000
    150         -6.538031   1.000000
    151         -6.538031   1.000000
    152         -6.520587   1.000000
    153         -6.520584   1.000000
    154         -6.520584   1.000000
    155         -6.520579   1.000000
    156         -6.514419   1.000000
    157         -6.514418   1.000000
    158         -6.514418   1.000000
    159         -6.514415   1.000000
    160         -6.439527   1.000000
    161         -6.439526   1.000000
    162         -6.439517   1.000000
    163         -6.439517   1.000000
    164         -6.415341   1.000000
    165         -6.415339   1.000000
    166         -6.415339   1.000000
    167         -6.415333   1.000000
    168         -6.415259   1.000000
    169         -6.415258   1.000000
    170         -6.415258   1.000000
    171         -6.415253   1.000000
    172         -6.402111   1.000000
    173         -6.268787   1.000000
    174         -6.268787   1.000000
    175         -6.234340   1.000000
    176         -6.234340   1.000000
    177         -6.234338   1.000000
    178         -6.234337   1.000000
    179         -6.153507   1.000000
    180         -6.153507   1.000000
    181         -6.153500   1.000000
    182         -6.153500   1.000000
    183         -6.067450   1.000000
    184         -6.067448   1.000000
    185         -6.067448   1.000000
    186         -6.067443   1.000000
    187         -6.022636   1.000000
    188         -6.022634   1.000000
    189         -6.022632   1.000000
    190         -6.022632   1.000000
    191         -5.933300   1.000000
    192         -5.933299   1.000000
    193         -5.933297   1.000000
    194         -5.933295   1.000000
    195         -5.851365   1.000000
    196         -5.826757   1.000000
    197         -5.826756   1.000000
    198         -5.826750   1.000000
    199         -5.826750   1.000000
    200         -5.765964   1.000000
    201         -5.765961   1.000000
    202         -5.765961   1.000000
    203         -5.765956   1.000000
    204         -5.702250   1.000000
    205         -5.702250   1.000000
    206         -5.626451   1.000000
    207         -5.626449   1.000000
    208         -5.626444   1.000000
    209         -5.626444   1.000000
    210         -5.425530   1.000000
    211         -5.425512   1.000000
    212         -5.407889   1.000000
    213         -5.407889   1.000000
    214         -5.407887   1.000000
    215         -5.407885   1.000000
    216         -5.385633   1.000000
    217         -5.385630   1.000000
    218         -5.385630   1.000000
    219         -5.385625   1.000000
    220         -5.325702   1.000000
    221         -5.325702   1.000000
    222         -5.228998   1.000000
    223         -5.228993   1.000000
    224         -5.228992   1.000000
    225         -5.228992   1.000000
    226         -5.228983   1.000000
    227         -5.228983   1.000000
    228         -5.228979   1.000000
    229         -5.228970   1.000000
    230         -5.206492   1.000000
    231         -5.195073   1.000000
    232         -5.195073   1.000000
    233         -5.195071   1.000000
    234         -5.195070   1.000000
    235         -5.189425   1.000000
    236         -5.189421   1.000000
    237         -5.189421   1.000000
    238         -5.189414   1.000000
    239         -5.113230   1.000000
    240         -5.113229   1.000000
    241         -5.113218   1.000000
    242         -5.113218   1.000000
    243         -5.099284   1.000000
    244         -5.099282   1.000000
    245         -5.099282   1.000000
    246         -5.099274   1.000000
    247         -5.099262   1.000000
    248         -5.099254   1.000000
    249         -5.099254   1.000000
    250         -5.099248   1.000000
    251         -5.057923   1.000000
    252         -5.057923   1.000000
    253         -5.057921   1.000000
    254         -5.057920   1.000000
    255         -5.041271   1.000000
    256         -5.041270   1.000000
    257         -5.041261   1.000000
    258         -5.041261   1.000000
    259         -4.985169   1.000000
    260         -4.985169   1.000000
    261         -4.985154   1.000000
    262         -4.985154   1.000000
    263         -4.969300   1.000000
    264         -4.969300   1.000000
    265         -4.969297   1.000000
    266         -4.969296   1.000000
    267         -4.967051   1.000000
    268         -4.967051   1.000000
    269         -4.967038   1.000000
    270         -4.967038   1.000000
    271         -4.956207   1.000000
    272         -4.956204   1.000000
    273         -4.956204   1.000000
    274         -4.956198   1.000000
    275         -4.915051   1.000000
    276         -4.915051   1.000000
    277         -4.915040   1.000000
    278         -4.915040   1.000000
    279         -4.869957   1.000000
    280         -4.869949   1.000000
    281         -4.869948   1.000000
    282         -4.869948   1.000000
    283         -4.869940   1.000000
    284         -4.869940   1.000000
    285         -4.869934   1.000000
    286         -4.869926   1.000000
    287         -4.863684   1.000000
    288         -4.863671   1.000000
    289         -4.863671   1.000000
    290         -4.863659   1.000000
    291         -4.836406   1.000000
    292         -4.836393   1.000000
    293         -4.836393   1.000000
    294         -4.836381   1.000000
    295         -4.813361   1.000000
    296         -4.813360   1.000000
    297         -4.813347   1.000000
    298         -4.813347   1.000000
    299         -4.788260   1.000000
    300         -4.788258   1.000000
    301         -4.788245   1.000000
    302         -4.788245   1.000000
    303         -4.752915   1.000000
    304         -4.752911   1.000000
    305         -4.752911   1.000000
    306         -4.752905   1.000000
    307         -4.719529   1.000000
    308         -4.719526   1.000000
    309         -4.719512   1.000000
    310         -4.719512   1.000000
    311         -4.716469   1.000000
    312         -4.716469   1.000000
    313         -4.650310   1.000000
    314         -4.650296   1.000000
    315         -4.650296   1.000000
    316         -4.650283   1.000000
    317         -4.647224   1.000000
    318         -4.647216   1.000000
    319         -4.647216   1.000000
    320         -4.647209   1.000000
    321         -4.647205   1.000000
    322         -4.647201   1.000000
    323         -4.647201   1.000000
    324         -4.647189   1.000000
    325         -4.590000   1.000000
    326         -4.589986   1.000000
    327         -4.582247   1.000000
    328         -4.582246   1.000000
    329         -4.582237   1.000000
    330         -4.582237   1.000000
    331         -4.577386   1.000000
    332         -4.577386   1.000000
    333         -4.577372   1.000000
    334         -4.577372   1.000000
    335         -4.577228   1.000000
    336         -4.577224   1.000000
    337         -4.577223   1.000000
    338         -4.577215   1.000000
    339         -4.577209   1.000000
    340         -4.577204   1.000000
    341         -4.577204   1.000000
    342         -4.577194   1.000000
    343         -4.561609   1.000000
    344         -4.561609   1.000000
    345         -4.561601   1.000000
    346         -4.561601   1.000000
    347         -4.537486   1.000000
    348         -4.537486   1.000000
    349         -4.537483   1.000000
    350         -4.537483   1.000000
    351         -4.516643   1.000000
    352         -4.516629   1.000000
    353         -4.516629   1.000000
    354         -4.516616   1.000000
    355         -4.499889   1.000000
    356         -4.499888   1.000000
    357         -4.499886   1.000000
    358         -4.499885   1.000000
    359         -4.354136   1.000000
    360         -4.354122   1.000000
    361         -4.354122   1.000000
    362         -4.354109   1.000000
    363         -4.329837   1.000000
    364         -4.316599   1.000000
    365         -4.316596   1.000000
    366         -4.316596   1.000000
    367         -4.316591   1.000000
    368         -4.315921   1.000000
    369         -4.315919   1.000000
    370         -4.315919   1.000000
    371         -4.315914   1.000000
    372         -4.315847   1.000000
    373         -4.315845   1.000000
    374         -4.315844   1.000000
    375         -4.315844   1.000000
    376         -4.301068   1.000000
    377         -4.301053   1.000000
    378         -4.301053   1.000000
    379         -4.301038   1.000000
    380         -4.263976   1.000000
    381         -4.263976   1.000000
    382         -4.263973   1.000000
    383         -4.263973   1.000000
    384         -4.223627   1.000000
    385         -4.223624   1.000000
    386         -4.223622   1.000000
    387         -4.223622   1.000000
    388         -4.149544   1.000000
    389         -4.149544   1.000000
    390         -4.113192   1.000000
    391         -4.113192   1.000000
    392         -4.113185   1.000000
    393         -4.113185   1.000000
    394         -4.057773   1.000000
    395         -4.057773   1.000000
    396         -3.867076   1.000000
    397         -3.867076   1.000000
    398         -3.865467   1.000000
    399         -3.865465   1.000000
    400         -3.865465   1.000000
    401         -3.865462   1.000000
    402         -3.844944   1.000000
    403         -3.844944   1.000000
    404         -3.844942   1.000000
    405         -3.844941   1.000000
    406         -3.835487   1.000000
    407         -3.835485   1.000000
    408         -3.835481   1.000000
    409         -3.835481   1.000000
    410         -3.778253   1.000000
    411         -3.778176   1.000000
    412         -3.764971   1.000000
    413         -3.764971   1.000000
    414         -3.764968   1.000000
    415         -3.764967   1.000000
    416         -3.680471   1.000000
    417         -3.680471   1.000000
    418         -3.488138   1.000000
    419         -3.488138   1.000000
    420         -3.380338   1.000000
    421         -3.380335   1.000000
    422         -3.380333   1.000000
    423         -3.380333   1.000000
    424         -3.279592   1.000000
    425         -3.279592   1.000000
    426         -3.279590   1.000000
    427         -3.279589   1.000000
    428         -3.186319   1.000000
    429         -3.186319   1.000000
    430         -3.118737   1.000000
    431         -2.644570   1.000000
    432         -2.644570   1.000000
    433         -2.384683   1.000000
    434         -2.157400   1.000000
    435         -1.926448   1.000000
    436         -1.873701   1.000000
    437         -1.873701   1.000000
    438         -1.763792   1.000000
    439         -1.763791   1.000000
    440         -1.763788   1.000000
    441         -1.763788   1.000000
    442         -1.656281   1.000000
    443         -1.514913   1.000000
    444         -1.514912   1.000000
    445         -1.514911   1.000000
    446         -1.514911   1.000000
    447         -1.485990   1.000000
    448         -1.408792   1.000000
    449         -1.344923   1.000000
    450         -1.344923   1.000000
    451         -1.341502   1.000000
    452         -1.341501   1.000000
    453         -1.341496   1.000000
    454         -1.341496   1.000000
    455         -1.336510   1.000000
    456         -1.336510   1.000000
    457         -1.336506   1.000000
    458         -1.336503   1.000000
    459         -1.313604   1.000000
    460         -1.313604   1.000000
    461         -1.313600   1.000000
    462         -1.313598   1.000000
    463         -1.293863   1.000000
    464         -1.293863   1.000000
    465         -1.293860   1.000000
    466         -1.293858   1.000000
    467         -1.293858   1.000000
    468         -1.293857   1.000000
    469         -1.293854   1.000000
    470         -1.293854   1.000000
    471         -1.283281   1.000000
    472         -1.283280   1.000000
    473         -1.283277   1.000000
    474         -1.283277   1.000000
    475         -1.225290   1.000000
    476         -1.215501   1.000000
    477         -1.215501   1.000000
    478         -1.215501   1.000000
    479         -1.215501   1.000000
    480         -1.157683   1.000000
    481         -1.157683   1.000000
    482         -1.157682   1.000000
    483         -1.157680   1.000000
    484         -1.153569   1.000000
    485         -1.153569   1.000000
    486         -1.153566   1.000000
    487         -1.153563   1.000000
    488         -1.137829   1.000000
    489         -1.137829   1.000000
    490         -1.137823   1.000000
    491         -1.137823   1.000000
    492         -1.119407   1.000000
    493         -1.101868   1.000000
    494         -1.101868   1.000000
    495         -1.098674   1.000000
    496         -1.098674   1.000000
    497         -1.098673   1.000000
    498         -1.098671   1.000000
    499         -1.098656   1.000000
    500         -1.098655   1.000000
    501         -1.098654   1.000000
    502         -1.098653   1.000000
    503         -1.071844   1.000000
    504         -1.071844   1.000000
    505         -1.071842   1.000000
    506         -1.071842   1.000000
    507         -1.064431   1.000000
    508         -1.064422   1.000000
    509         -1.064422   1.000000
    510         -1.064420   1.000000
    511         -1.023707   1.000000
    512         -1.023702   1.000000
    513         -1.023701   1.000000
    514         -1.023699   1.000000
    515         -1.015023   1.000000
    516         -0.975794   1.000000
    517         -0.975787   1.000000
    518         -0.975787   1.000000
    519         -0.975786   1.000000
    520         -0.970154   1.000000
    521         -0.970153   1.000000
    522         -0.970153   1.000000
    523         -0.970151   1.000000
    524         -0.968126   1.000000
    525         -0.968126   1.000000
    526         -0.968122   1.000000
    527         -0.968122   1.000000
    528         -0.965565   1.000000
    529         -0.965559   1.000000
    530         -0.965559   1.000000
    531         -0.965557   1.000000
    532         -0.953647   1.000000
    533         -0.953647   1.000000
    534         -0.938868   1.000000
    535         -0.938867   1.000000
    536         -0.938864   1.000000
    537         -0.938864   1.000000
    538         -0.928412   1.000000
    539         -0.894459   1.000000
    540         -0.894459   1.000000
    541         -0.894456   1.000000
    542         -0.894456   1.000000
    543         -0.886189   1.000000
    544         -0.872029   1.000000
    545         -0.872024   1.000000
    546         -0.872024   1.000000
    547         -0.872023   1.000000
    548         -0.838786   1.000000
    549         -0.838785   1.000000
    550         -0.838781   1.000000
    551         -0.838781   1.000000
    552         -0.825073   1.000000
    553         -0.825073   1.000000
    554         -0.825073   1.000000
    555         -0.825071   1.000000
    556         -0.825058   1.000000
    557         -0.825057   1.000000
    558         -0.825057   1.000000
    559         -0.825054   1.000000
    560         -0.798606   1.000000
    561         -0.798606   1.000000
    562         -0.798604   1.000000
    563         -0.798604   1.000000
    564         -0.796310   1.000000
    565         -0.793249   1.000000
    566         -0.793248   1.000000
    567         -0.793248   1.000000
    568         -0.793246   1.000000
    569         -0.786234   1.000000
    570         -0.786234   1.000000
    571         -0.786233   1.000000
    572         -0.786233   1.000000
    573         -0.784480   1.000000
    574         -0.782127   1.000000
    575         -0.782127   1.000000
    576         -0.782121   1.000000
    577         -0.782119   1.000000
    578         -0.755214   1.000000
    579         -0.755213   1.000000
    580         -0.755213   1.000000
    581         -0.755213   1.000000
    582         -0.729248   1.000000
    583         -0.729248   1.000000
    584         -0.718914   1.000000
    585         -0.718913   1.000000
    586         -0.718910   1.000000
    587         -0.718910   1.000000
    588         -0.702524   1.000000
    589         -0.702515   1.000000
    590         -0.702515   1.000000
    591         -0.702513   1.000000
    592         -0.702465   1.000000
    593         -0.702465   1.000000
    594         -0.702464   1.000000
    595         -0.702464   1.000000
    596         -0.683550   1.000000
    597         -0.683550   1.000000
    598         -0.683545   1.000000
    599         -0.683544   1.000000
    600         -0.671208   1.000000
    601         -0.671206   1.000000
    602         -0.671206   1.000000
    603         -0.671201   1.000000
    604         -0.671184   1.000000
    605         -0.671181   1.000000
    606         -0.671179   1.000000
    607         -0.671176   1.000000
    608         -0.671156   1.000000
    609         -0.671152   1.000000
    610         -0.671152   1.000000
    611         -0.671150   1.000000
    612         -0.661361   1.000000
    613         -0.661361   1.000000
    614         -0.661360   1.000000
    615         -0.661360   1.000000
    616         -0.658373   1.000000
    617         -0.658368   1.000000
    618         -0.619979   1.000000
    619         -0.619971   1.000000
    620         -0.619971   1.000000
    621         -0.619969   1.000000
    622         -0.616775   1.000000
    623         -0.616766   1.000000
    624         -0.616766   1.000000
    625         -0.616765   1.000000
    626         -0.577216   1.000000
    627         -0.577214   1.000000
    628         -0.577214   1.000000
    629         -0.577211   1.000000
    630         -0.577189   1.000000
    631         -0.577187   1.000000
    632         -0.577187   1.000000
    633         -0.577182   1.000000
    634         -0.576263   1.000000
    635         -0.576263   1.000000
    636         -0.576260   1.000000
    637         -0.576257   1.000000
    638         -0.557550   1.000000
    639         -0.557550   1.000000
    640         -0.557547   1.000000
    641         -0.557546   1.000000
    642         -0.544846   1.000000
    643         -0.544846   1.000000
    644         -0.537100   1.000000
    645         -0.533343   1.000000
    646         -0.533343   1.000000
    647         -0.519656   1.000000
    648         -0.519591   1.000000
    649         -0.508609   1.000000
    650         -0.508603   1.000000
    651         -0.508603   1.000000
    652         -0.508601   1.000000
    653         -0.505221   1.000000
    654         -0.505221   1.000000
    655         -0.505220   1.000000
    656         -0.505219   1.000000
    657         -0.489588   1.000000
    658         -0.489587   1.000000
    659         -0.489584   1.000000
    660         -0.489584   1.000000
    661         -0.458080   1.000000
    662         -0.458080   1.000000
    663         -0.450958   1.000000
    664         -0.450958   1.000000
    665         -0.450956   1.000000
    666         -0.450956   1.000000
    667         -0.450183   1.000000
    668         -0.450182   1.000000
    669         -0.450177   1.000000
    670         -0.450177   1.000000
    671         -0.449995   1.000000
    672         -0.449994   1.000000
    673         -0.449990   1.000000
    674         -0.449990   1.000000
    675         -0.444073   1.000000
    676         -0.444073   1.000000
    677         -0.444069   1.000000
    678         -0.444069   1.000000
    679         -0.437996   1.000000
    680         -0.437996   1.000000
    681         -0.435821   1.000000
    682         -0.435818   1.000000
    683         -0.435818   1.000000
    684         -0.435816   1.000000
    685         -0.427914   1.000000
    686         -0.427833   1.000000
    687         -0.424364   1.000000
    688         -0.424364   1.000000
    689         -0.422028   1.000000
    690         -0.422011   1.000000
    691         -0.417766   1.000000
    692         -0.417765   1.000000
    693         -0.417765   1.000000
    694         -0.417762   1.000000
    695         -0.417759   1.000000
    696         -0.417757   1.000000
    697         -0.417757   1.000000
    698         -0.417755   1.000000
    699         -0.399774   1.000000
    700         -0.399774   1.000000
    701         -0.399770   1.000000
    702         -0.399768   1.000000
    703         -0.387911   1.000000
    704         -0.387911   1.000000
    705         -0.387906   1.000000
    706         -0.387904   1.000000
    707         -0.357204   1.000000
    708         -0.350197   1.000000
    709         -0.350194   1.000000
    710         -0.350194   1.000000
    711         -0.350191   1.000000
    712         -0.350140   1.000000
    713         -0.350138   1.000000
    714         -0.350138   1.000000
    715         -0.350134   1.000000
    716         -0.349199   1.000000
    717         -0.349199   1.000000
    718         -0.349195   1.000000
    719         -0.349194   1.000000
    720         -0.342645   1.000000
    721         -0.342644   1.000000
    722         -0.342643   1.000000
    723         -0.342643   1.000000
    724         -0.323735   1.000000
    725         -0.323735   1.000000
    726         -0.323735   1.000000
    727         -0.323734   1.000000
    728         -0.313760   1.000000
    729         -0.313758   1.000000
    730         -0.313758   1.000000
    731         -0.313755   1.000000
    732         -0.313714   1.000000
    733         -0.313712   1.000000
    734         -0.313703   1.000000
    735         -0.313701   1.000000
    736         -0.313701   1.000000
    737         -0.313697   1.000000
    738         -0.309448   1.000000
    739         -0.309448   1.000000
    740         -0.309447   1.000000
    741         -0.309447   1.000000
    742         -0.308584   1.000000
    743         -0.308583   1.000000
    744         -0.308583   1.000000
    745         -0.308583   1.000000
    746         -0.306712   1.000000
    747         -0.306711   1.000000
    748         -0.306711   1.000000
    749         -0.306710   1.000000
    750         -0.300910   1.000000
    751         -0.300907   1.000000
    752         -0.300907   1.000000
    753         -0.300906   1.000000
    754         -0.298298   1.000000
    755         -0.298297   1.000000
    756         -0.298297   1.000000
    757         -0.298297   1.000000
    758         -0.295496   1.000000
    759         -0.295496   1.000000
    760         -0.295495   1.000000
    761         -0.295495   1.000000
    762         -0.278665   1.000000
    763         -0.278664   1.000000
    764         -0.278660   1.000000
    765         -0.278660   1.000000
    766         -0.277798   1.000000
    767         -0.254911   1.000000
    768         -0.254911   1.000000
    769         -0.254910   1.000000
    770         -0.254910   1.000000
    771         -0.252400   1.000000
    772         -0.252305   1.000000
    773         -0.251362   1.000000
    774         -0.251360   1.000000
    775         -0.251360   1.000000
    776         -0.251355   1.000000
    777         -0.251342   1.000000
    778         -0.251339   1.000000
    779         -0.251339   1.000000
    780         -0.251335   1.000000
    781         -0.247454   1.000000
    782         -0.247453   1.000000
    783         -0.247449   1.000000
    784         -0.247449   1.000000
    785         -0.226910   1.000000
    786         -0.226910   1.000000
    787         -0.203424   1.000000
    788         -0.203424   1.000000
    789         -0.181105   1.000000
    790         -0.181105   1.000000
    791         -0.181100   1.000000
    792         -0.181097   1.000000
    793         -0.180410   1.000000
    794         -0.180297   1.000000
    795         -0.179291   1.000000
    796         -0.179291   1.000000
    797         -0.179286   1.000000
    798         -0.179284   1.000000
    799         -0.179155   1.000000
    800         -0.179155   1.000000
    801         -0.179153   1.000000
    802         -0.179152   1.000000
    803         -0.169225   1.000000