         258
 Energy:   539.38654240000005     
 X   0.00000000       0.00000000       0.00000000    
 X   10.5415001       0.00000000       0.00000000    
 X   5.27075005       9.12920666       0.00000000    
 X   0.00000000       0.00000000       28.5415001    
 X   15.8122501       9.12920666       0.00000000    
 X   10.5415001       0.00000000       28.5415001    
 X   5.27075005       9.12920666       28.5415001    
 X   15.8122501       9.12920666       28.5415001    
 Ni   0.00000000       0.00000000       0.00000000    
 Ni   0.00000000       0.00000000       2.10829997    
 Ni   0.00000000       0.00000000       4.21659994    
 Ni   0.00000000       0.00000000       6.32490015    
 Ni   0.00000000       0.00000000       8.43319988    
 Ni   1.05414999       1.82584000       0.00000000    
 Ni   1.05414999       1.82584000       2.10829997    
 Ni   1.05414999       1.82584000       4.21659994    
 Ni   1.05414999       1.82584000       6.32490015    
 Ni   1.05414999       1.82584000       8.43319988    
 Ni   2.10829997       3.65167999       0.00000000    
 Ni   2.10829997       3.65167999       2.10829997    
 Ni   2.10829997       3.65167999       4.21659994    
 Ni   2.10829997       3.65167999       6.32490015    
 Ni   2.10829997       3.65167999       8.43319988    
 Ni   3.16245008       5.47751999       0.00000000    
 Ni   3.16245008       5.47751999       2.10829997    
 Ni   3.16245008       5.47751999       4.21659994    
 Ni   3.16245008       5.47751999       6.32490015    
 Ni   3.16245008       5.47751999       8.43319988    
 Ni   4.21659994       7.30337000       0.00000000    
 Ni   4.21659994       7.30337000       2.10829997    
 Ni   4.21659994       7.30337000       4.21659994    
 Ni   4.21659994       7.30337000       6.32490015    
 Ni   4.21659994       7.30337000       8.43319988    
 Ni   2.10829997       0.00000000       0.00000000    
 Ni   2.10829997       0.00000000       2.10829997    
 Ni   2.10829997       0.00000000       4.21659994    
 Ni   2.10829997       0.00000000       6.32490015    
 Ni   2.10829997       0.00000000       8.43319988    
 Ni   3.16245008       1.82584000       0.00000000    
 Ni   3.16245008       1.82584000       2.10829997    
 Ni   3.16245008       1.82584000       4.21659994    
 Ni   3.16245008       1.82584000       6.32490015    
 Ni   3.16245008       1.82584000       8.43319988    
 Ni   4.21659994       3.65167999       0.00000000    
 Ni   4.21659994       3.65167999       2.10829997    
 Ni   4.21659994       3.65167999       4.21659994    
 Ni   4.21659994       3.65167999       6.32490015    
 Ni   4.21659994       3.65167999       8.43319988    
 Ni   5.27075005       5.47751999       0.00000000    
 Ni   5.27075005       5.47751999       2.10829997    
 Ni   5.27075005       5.47751999       4.21659994    
 Ni   5.27075005       5.47751999       6.32490015    
 Ni   5.27075005       5.47751999       8.43319988    
 Ni   6.32490015       7.30337000       0.00000000    
 Ni   6.32490015       7.30337000       2.10829997    
 Ni   6.32490015       7.30337000       4.21659994    
 Ni   6.32490015       7.30337000       6.32490015    
 Ni   6.32490015       7.30337000       8.43319988    
 Ni   4.21659994       0.00000000       0.00000000    
 Ni   4.21659994       0.00000000       2.10829997    
 Ni   4.21659994       0.00000000       4.21659994    
 Ni   4.21659994       0.00000000       6.32490015    
 Ni   4.21659994       0.00000000       8.43319988    
 Ni   5.27075005       1.82584000       0.00000000    
 Ni   5.27075005       1.82584000       2.10829997    
 Ni   5.27075005       1.82584000       4.21659994    
 Ni   5.27075005       1.82584000       6.32490015    
 Ni   5.27075005       1.82584000       8.43319988    
 Ni   6.32490015       3.65167999       0.00000000    
 Ni   6.32490015       3.65167999       2.10829997    
 Ni   6.32490015       3.65167999       4.21659994    
 Ni   6.32490015       3.65167999       6.32490015    
 Ni   6.32490015       3.65167999       8.43319988    
 Ni   7.37904978       5.47751999       0.00000000    
 Ni   7.37904978       5.47751999       2.10829997    
 Ni   7.37904978       5.47751999       4.21659994    
 Ni   7.37904978       5.47751999       6.32490015    
 Ni   7.37904978       5.47751999       8.43319988    
 Ni   8.43319988       7.30337000       0.00000000    
 Ni   8.43319988       7.30337000       2.10829997    
 Ni   8.43319988       7.30337000       4.21659994    
 Ni   8.43319988       7.30337000       6.32490015    
 Ni   8.43319988       7.30337000       8.43319988    
 Ni   6.32490015       0.00000000       0.00000000    
 Ni   6.32490015       0.00000000       2.10829997    
 Ni   6.32490015       0.00000000       4.21659994    
 Ni   6.32490015       0.00000000       6.32490015    
 Ni   6.32490015       0.00000000       8.43319988    
 Ni   7.37904978       1.82584000       0.00000000    
 Ni   7.37904978       1.82584000       2.10829997    
 Ni   7.37904978       1.82584000       4.21659994    
 Ni   7.37904978       1.82584000       6.32490015    
 Ni   7.37904978       1.82584000       8.43319988    
 Ni   8.43319988       3.65167999       0.00000000    
 Ni   8.43319988       3.65167999       2.10829997    
 Ni   8.43319988       3.65167999       4.21659994    
 Ni   8.43319988       3.65167999       6.32490015    
 Ni   8.43319988       3.65167999       8.43319988    
 Ni   9.48735046       5.47751999       0.00000000    
 Ni   9.48735046       5.47751999       2.10829997    
 Ni   9.48735046       5.47751999       4.21659994    
 Ni   9.48735046       5.47751999       6.32490015    
 Ni   9.48735046       5.47751999       8.43319988    
 Ni   10.5415001       7.30337000       0.00000000    
 Ni   10.5415001       7.30337000       2.10829997    
 Ni   10.5415001       7.30337000       4.21659994    
 Ni   10.5415001       7.30337000       6.32490015    
 Ni   10.5415001       7.30337000       8.43319988    
 Ni   8.43319988       0.00000000       0.00000000    
 Ni   8.43319988       0.00000000       2.10829997    
 Ni   8.43319988       0.00000000       4.21659994    
 Ni   8.43319988       0.00000000       6.32490015    
 Ni   8.43319988       0.00000000       8.43319988    
 Ni   9.48735046       1.82584000       0.00000000    
 Ni   9.48735046       1.82584000       2.10829997    
 Ni   9.48735046       1.82584000       4.21659994    
 Ni   9.48735046       1.82584000       6.32490015    
 Ni   9.48735046       1.82584000       8.43319988    
 Ni   10.5415001       3.65167999       0.00000000    
 Ni   10.5415001       3.65167999       2.10829997    
 Ni   10.5415001       3.65167999       4.21659994    
 Ni   10.5415001       3.65167999       6.32490015    
 Ni   10.5415001       3.65167999       8.43319988    
 Ni   11.5956497       5.47751999       0.00000000    
 Ni   11.5956497       5.47751999       2.10829997    
 Ni   11.5956497       5.47751999       4.21659994    
 Ni   11.5956497       5.47751999       6.32490015    
 Ni   11.5956497       5.47751999       8.43319988    
 Ni   12.6498003       7.30337000       0.00000000    
 Ni   12.6498003       7.30337000       2.10829997    
 Ni   12.6498003       7.30337000       4.21659994    
 Ni   12.6498003       7.30337000       6.32490015    
 Ni   12.6498003       7.30337000       8.43319988    
 O    1.58123004      0.912919998       1.05414999    
 O    1.58123004      0.912919998       3.16245008    
 O    1.58123004      0.912919998       5.27075005    
 O    1.58123004      0.912919998       7.37904978    
 O    1.58123004      0.912919998       9.48735046    
 O    2.63538003       2.73875999       1.05414999    
 O    2.63538003       2.73875999       3.16245008    
 O    2.63538003       2.73875999       5.27075005    
 O    2.63538003       2.73875999       7.37904978    
 O    2.63538003       2.73875999       9.48735046    
 O    3.68952990       4.56459999       1.05414999    
 O    3.68952990       4.56459999       3.16245008    
 O    3.68952990       4.56459999       5.27075005    
 O    3.68952990       4.56459999       7.37904978    
 O    3.68952990       4.56459999       9.48735046    
 O    4.74366999       6.39043999       1.05414999    
 O    4.74366999       6.39043999       3.16245008    
 O    4.74366999       6.39043999       5.27075005    
 O    4.74366999       6.39043999       7.37904978    
 O    4.74366999       6.39043999       9.48735046    
 O    5.79782009       8.21629047       1.05414999    
 O    5.79782009       8.21629047       3.16245008    
 O    5.79782009       8.21629047       5.27075005    
 O    5.79782009       8.21629047       7.37904978    
 O    5.79782009       8.21629047       9.48735046    
 O    3.68952990      0.912919998       1.05414999    
 O    3.68952990      0.912919998       3.16245008    
 O    3.68952990      0.912919998       5.27075005    
 O    3.68952990      0.912919998       7.37904978    
 O    3.68952990      0.912919998       9.48735046    
 O    4.74368000       2.73875999       1.05414999    
 O    4.74368000       2.73875999       3.16245008    
 O    4.74368000       2.73875999       5.27075005    
 O    4.74368000       2.73875999       7.37904978    
 O    4.74368000       2.73875999       9.48735046    
 O    5.79783010       4.56459999       1.05414999    
 O    5.79783010       4.56459999       3.16245008    
 O    5.79783010       4.56459999       5.27075005    
 O    5.79783010       4.56459999       7.37904978    
 O    5.79783010       4.56459999       9.48735046    
 O    6.85198021       6.39043999       1.05414999    
 O    6.85198021       6.39043999       3.16245008    
 O    6.85198021       6.39043999       5.27075005    
 O    6.85198021       6.39043999       7.37904978    
 O    6.85198021       6.39043999       9.48735046    
 O    7.90612984       8.21629047       1.05414999    
 O    7.90612984       8.21629047       3.16245008    
 O    7.90612984       8.21629047       5.27075005    
 O    7.90612984       8.21629047       7.37904978    
 O    7.90612984       8.21629047       9.48735046    
 O    5.79783010      0.912919998       1.05414999    
 O    5.79783010      0.912919998       3.16245008    
 O    5.79783010      0.912919998       5.27075005    
 O    5.79783010      0.912919998       7.37904978    
 O    5.79783010      0.912919998       9.48735046    
 O    6.85198021       2.73875999       1.05414999    
 O    6.85198021       2.73875999       3.16245008    
 O    6.85198021       2.73875999       5.27075005    
 O    6.85198021       2.73875999       7.37904978    
 O    6.85198021       2.73875999       9.48735046    
 O    7.90612984       4.56459999       1.05414999    
 O    7.90612984       4.56459999       3.16245008    
 O    7.90612984       4.56459999       5.27075005    
 O    7.90612984       4.56459999       7.37904978    
 O    7.90612984       4.56459999       9.48735046    
 O    8.96028042       6.39043999       1.05414999    
 O    8.96028042       6.39043999       3.16245008    
 O    8.96028042       6.39043999       5.27075005    
 O    8.96028042       6.39043999       7.37904978    
 O    8.96028042       6.39043999       9.48735046    
 O    10.0144196       8.21629047       1.05414999    
 O    10.0144196       8.21629047       3.16245008    
 O    10.0144196       8.21629047       5.27075005    
 O    10.0144196       8.21629047       7.37904978    
 O    10.0144196       8.21629047       9.48735046    
 O    7.90611982      0.912919998       1.05414999    
 O    7.90611982      0.912919998       3.16245008    
 O    7.90611982      0.912919998       5.27075005    
 O    7.90611982      0.912919998       7.37904978    
 O    7.90611982      0.912919998       9.48735046    
 O    8.96028042       2.73875999       1.05414999    
 O    8.96028042       2.73875999       3.16245008    
 O    8.96028042       2.73875999       5.27075005    
 O    8.96028042       2.73875999       7.37904978    
 O    8.96028042       2.73875999       9.48735046    
 O    10.0144196       4.56459999       1.05414999    
 O    10.0144196       4.56459999       3.16245008    
 O    10.0144196       4.56459999       5.27075005    
 O    10.0144196       4.56459999       7.37904978    
 O    10.0144196       4.56459999       9.48735046    
 O    11.0685701       6.39043999       1.05414999    
 O    11.0685701       6.39043999       3.16245008    
 O    11.0685701       6.39043999       5.27075005    
 O    11.0685701       6.39043999       7.37904978    
 O    11.0685701       6.39043999       9.48735046    
 O    12.1227198       8.21629047       1.05414999    
 O    12.1227198       8.21629047       3.16245008    
 O    12.1227198       8.21629047       5.27075005    
 O    12.1227198       8.21629047       7.37904978    
 O    12.1227198       8.21629047       9.48735046    
 O    10.0144196      0.912919998       1.05414999    
 O    10.0144196      0.912919998       3.16245008    
 O    10.0144196      0.912919998       5.27075005    
 O    10.0144196      0.912919998       7.37904978    
 O    10.0144196      0.912919998       9.48735046    
 O    11.0685701       2.73875999       1.05414999    
 O    11.0685701       2.73875999       3.16245008    
 O    11.0685701       2.73875999       5.27075005    
 O    11.0685701       2.73875999       7.37904978    
 O    11.0685701       2.73875999       9.48735046    
 O    12.1227198       4.56459999       1.05414999    
 O    12.1227198       4.56459999       3.16245008    
 O    12.1227198       4.56459999       5.27075005    
 O    12.1227198       4.56459999       7.37904978    
 O    12.1227198       4.56459999       9.48735046    
 O    13.1768703       6.39043999       1.05414999    
 O    13.1768703       6.39043999       3.16245008    
 O    13.1768703       6.39043999       5.27075005    
 O    13.1768703       6.39043999       7.37904978    
 O    13.1768703       6.39043999       9.48735046    
 O    14.2310200       8.21629047       1.05414999    
 O    14.2310200       8.21629047       3.16245008    
 O    14.2310200       8.21629047       5.27075005    
 O    14.2310200       8.21629047       7.37904978    
 O    14.2310200       8.21629047       9.48735046    
         258
 Energy:   200.25594999999998     
 X   0.00000000       0.00000000       0.00000000    
 X   10.5415001       0.00000000       0.00000000    
 X   5.27075005       9.12920666       0.00000000    
 X   0.00000000       0.00000000       28.5415001    
 X   15.8122501       9.12920666       0.00000000    
 X   10.5415001       0.00000000       28.5415001    
 X   5.27075005       9.12920666       28.5415001    
 X   15.8122501       9.12920666       28.5415001    
 Ni  -0.00000000       0.00000000     -0.544659972    
 Ni  -0.00000000      -0.00000000       2.05334997    
 Ni   0.00000000       0.00000000       4.22162008    
 Ni  -0.00000000       0.00000000       6.33171988    
 Ni   0.00000000       0.00000000       8.59220028    
 Ni   1.05414999       1.82584000     -0.544659972    
 Ni   1.05414999       1.82584000       2.05334997    
 Ni   1.05414999       1.82584000       4.22162008    
 Ni   1.05414999       1.82584000       6.33171988    
 Ni   1.05414999       1.82584000       8.59220028    
 Ni   2.10829997       3.65167999     -0.544659972    
 Ni   2.10829997       3.65167999       2.05334997    
 Ni   2.10829997       3.65167999       4.22162008    
 Ni   2.10829997       3.65167999       6.33171988    
 Ni   2.10829997       3.65167999       8.59220028    
 Ni   3.16245008       5.47751999     -0.544659972    
 Ni   3.16245008       5.47751999       2.05334997    
 Ni   3.16245008       5.47751999       4.22162008    
 Ni   3.16245008       5.47751999       6.33171988    
 Ni   3.16245008       5.47751999       8.59220028    
 Ni   4.21659994       7.30337000     -0.544659972    
 Ni   4.21659994       7.30337000       2.05334997    
 Ni   4.21659994       7.30337000       4.22162008    
 Ni   4.21659994       7.30337000       6.33171988    
 Ni   4.21659994       7.30337000       8.59220028    
 Ni   2.10829997       0.00000000     -0.544659972    
 Ni   2.10829997      -0.00000000       2.05334997    
 Ni   2.10829997       0.00000000       4.22162008    
 Ni   2.10829997       0.00000000       6.33171988    
 Ni   2.10829997       0.00000000       8.59220028    
 Ni   3.16245008       1.82584000     -0.544659972    
 Ni   3.16245008       1.82584000       2.05334997    
 Ni   3.16245008       1.82584000       4.22162008    
 Ni   3.16245008       1.82584000       6.33171988    
 Ni   3.16245008       1.82584000       8.59220028    
 Ni   4.21659994       3.65167999     -0.544659972    
 Ni   4.21659994       3.65167999       2.05334997    
 Ni   4.21659994       3.65167999       4.22162008    
 Ni   4.21659994       3.65167999       6.33171988    
 Ni   4.21659994       3.65167999       8.59220028    
 Ni   5.27075005       5.47751999     -0.544659972    
 Ni   5.27075005       5.47751999       2.05334997    
 Ni   5.27075005       5.47751999       4.22162008    
 Ni   5.27075005       5.47751999       6.33171988    
 Ni   5.27075005       5.47751999       8.59220028    
 Ni   6.32490015       7.30337000     -0.544659972    
 Ni   6.32490015       7.30337000       2.05334997    
 Ni   6.32490015       7.30337000       4.22162008    
 Ni   6.32490015       7.30337000       6.33171988    
 Ni   6.32490015       7.30337000       8.59220028    
 Ni   4.21659994      -0.00000000     -0.544659972    
 Ni   4.21659994      -0.00000000       2.05334997    
 Ni   4.21659994       0.00000000       4.22162008    
 Ni   4.21659994      -0.00000000       6.33171988    
 Ni   4.21659994       0.00000000       8.59220028    
 Ni   5.27075005       1.82584000     -0.544659972    
 Ni   5.27075005       1.82584000       2.05334997    
 Ni   5.27075005       1.82584000       4.22162008    
 Ni   5.27075005       1.82584000       6.33171988    
 Ni   5.27075005       1.82584000       8.59220028    
 Ni   6.32490015       3.65167999     -0.544659972    
 Ni   6.32490015       3.65167999       2.05334997    
 Ni   6.32490015       3.65167999       4.22162008    
 Ni   6.32490015       3.65167999       6.33171988    
 Ni   6.32490015       3.65167999       8.59220028    
 Ni   7.37904978       5.47751999     -0.544659972    
 Ni   7.37904978       5.47751999       2.05334997    
 Ni   7.37904978       5.47751999       4.22162008    
 Ni   7.37904978       5.47751999       6.33171988    
 Ni   7.37904978       5.47751999       8.59220028    
 Ni   8.43319988       7.30337000     -0.544659972    
 Ni   8.43319988       7.30337000       2.05334997    
 Ni   8.43319988       7.30337000       4.22162008    
 Ni   8.43319988       7.30337000       6.33171988    
 Ni   8.43319988       7.30337000       8.59220028    
 Ni   6.32490015      -0.00000000     -0.544659972    
 Ni   6.32490015       0.00000000       2.05334997    
 Ni   6.32490015      -0.00000000       4.22162008    
 Ni   6.32490015      -0.00000000       6.33171988    
 Ni   6.32490015      -0.00000000       8.59220028    
 Ni   7.37904978       1.82584000     -0.544659972    
 Ni   7.37904978       1.82584000       2.05334997    
 Ni   7.37904978       1.82584000       4.22162008    
 Ni   7.37904978       1.82584000       6.33171988    
 Ni   7.37904978       1.82584000       8.59220028    
 Ni   8.43319988       3.65167999     -0.544659972    
 Ni   8.43319988       3.65167999       2.05334997    
 Ni   8.43319988       3.65167999       4.22162008    
 Ni   8.43319988       3.65167999       6.33171988    
 Ni   8.43319988       3.65167999       8.59220028    
 Ni   9.48735046       5.47751999     -0.544659972    
 Ni   9.48735046       5.47751999       2.05334997    
 Ni   9.48735046       5.47751999       4.22162008    
 Ni   9.48735046       5.47751999       6.33171988    
 Ni   9.48735046       5.47751999       8.59220028    
 Ni   10.5415001       7.30337000     -0.544659972    
 Ni   10.5415001       7.30337000       2.05334997    
 Ni   10.5415001       7.30337000       4.22162008    
 Ni   10.5415001       7.30337000       6.33171988    
 Ni   10.5415001       7.30337000       8.59220028    
 Ni   8.43319988      -0.00000000     -0.544659972    
 Ni   8.43319988       0.00000000       2.05334997    
 Ni   8.43319988       0.00000000       4.22162008    
 Ni   8.43319988      -0.00000000       6.33171988    
 Ni   8.43319988      -0.00000000       8.59220028    
 Ni   9.48735046       1.82584000     -0.544659972    
 Ni   9.48735046       1.82584000       2.05334997    
 Ni   9.48735046       1.82584000       4.22162008    
 Ni   9.48735046       1.82584000       6.33171988    
 Ni   9.48735046       1.82584000       8.59220028    
 Ni   10.5415001       3.65167999     -0.544659972    
 Ni   10.5415001       3.65167999       2.05334997    
 Ni   10.5415001       3.65167999       4.22162008    
 Ni   10.5415001       3.65167999       6.33171988    
 Ni   10.5415001       3.65167999       8.59220028    
 Ni   11.5956497       5.47751999     -0.544659972    
 Ni   11.5956497       5.47751999       2.05334997    
 Ni   11.5956497       5.47751999       4.22162008    
 Ni   11.5956497       5.47751999       6.33171988    
 Ni   11.5956497       5.47751999       8.59220028    
 Ni   12.6498003       7.30337000     -0.544659972    
 Ni   12.6498003       7.30337000       2.05334997    
 Ni   12.6498003       7.30337000       4.22162008    
 Ni   12.6498003       7.30337000       6.33171988    
 Ni   12.6498003       7.30337000       8.59220028    
 O    1.58123004      0.912919998       1.02987003    
 O    1.58123004      0.912919998       3.16019011    
 O    1.58123004      0.912919998       5.27210999    
 O    1.58123004      0.912919998       7.35976982    
 O    1.58123004      0.912919998       9.96057987    
 O    2.63538003       2.73875999       1.02987003    
 O    2.63538003       2.73875999       3.16019011    
 O    2.63538003       2.73875999       5.27210999    
 O    2.63538003       2.73875999       7.35976982    
 O    2.63538003       2.73875999       9.96057987    
 O    3.68952990       4.56459999       1.02987003    
 O    3.68952990       4.56459999       3.16019011    
 O    3.68952990       4.56459999       5.27210999    
 O    3.68952990       4.56459999       7.35976982    
 O    3.68952990       4.56459999       9.96057987    
 O    4.74366999       6.39043999       1.02987003    
 O    4.74366999       6.39043999       3.16019011    
 O    4.74366999       6.39043999       5.27210999    
 O    4.74366999       6.39043999       7.35976982    
 O    4.74366999       6.39043999       9.96057987    
 O    5.79782009       8.21629047       1.02987003    
 O    5.79782009       8.21629047       3.16019011    
 O    5.79782009       8.21629047       5.27210999    
 O    5.79782009       8.21629047       7.35976982    
 O    5.79782009       8.21629047       9.96057987    
 O    3.68952990      0.912919998       1.02987003    
 O    3.68952990      0.912919998       3.16019011    
 O    3.68952990      0.912919998       5.27210999    
 O    3.68952990      0.912919998       7.35976982    
 O    3.68952990      0.912919998       9.96057987    
 O    4.74368000       2.73875999       1.02987003    
 O    4.74368000       2.73875999       3.16019011    
 O    4.74368000       2.73875999       5.27210999    
 O    4.74368000       2.73875999       7.35976982    
 O    4.74368000       2.73875999       9.96057987    
 O    5.79783010       4.56459999       1.02987003    
 O    5.79783010       4.56459999       3.16019011    
 O    5.79783010       4.56459999       5.27210999    
 O    5.79783010       4.56459999       7.35976982    
 O    5.79783010       4.56459999       9.96057987    
 O    6.85198021       6.39043999       1.02987003    
 O    6.85198021       6.39043999       3.16019011    
 O    6.85198021       6.39043999       5.27210999    
 O    6.85198021       6.39043999       7.35976982    
 O    6.85198021       6.39043999       9.96057987    
 O    7.90612984       8.21629047       1.02987003    
 O    7.90612984       8.21629047       3.16019011    
 O    7.90612984       8.21629047       5.27210999    
 O    7.90612984       8.21629047       7.35976982    
 O    7.90612984       8.21629047       9.96057987    
 O    5.79783010      0.912919998       1.02987003    
 O    5.79783010      0.912919998       3.16019011    
 O    5.79783010      0.912919998       5.27210999    
 O    5.79783010      0.912919998       7.35976982    
 O    5.79783010      0.912919998       9.96057987    
 O    6.85198021       2.73875999       1.02987003    
 O    6.85198021       2.73875999       3.16019011    
 O    6.85198021       2.73875999       5.27210999    
 O    6.85198021       2.73875999       7.35976982    
 O    6.85198021       2.73875999       9.96057987    
 O    7.90612984       4.56459999       1.02987003    
 O    7.90612984       4.56459999       3.16019011    
 O    7.90612984       4.56459999       5.27210999    
 O    7.90612984       4.56459999       7.35976982    
 O    7.90612984       4.56459999       9.96057987    
 O    8.96028042       6.39043999       1.02987003    
 O    8.96028042       6.39043999       3.16019011    
 O    8.96028042       6.39043999       5.27210999    
 O    8.96028042       6.39043999       7.35976982    
 O    8.96028042       6.39043999       9.96057987    
 O    10.0144196       8.21629047       1.02987003    
 O    10.0144196       8.21629047       3.16019011    
 O    10.0144196       8.21629047       5.27210999    
 O    10.0144196       8.21629047       7.35976982    
 O    10.0144196       8.21629047       9.96057987    
 O    7.90611982      0.912919998       1.02987003    
 O    7.90611982      0.912919998       3.16019011    
 O    7.90611982      0.912919998       5.27210999    
 O    7.90611982      0.912919998       7.35976982    
 O    7.90611982      0.912919998       9.96057987    
 O    8.96028042       2.73875999       1.02987003    
 O    8.96028042       2.73875999       3.16019011    
 O    8.96028042       2.73875999       5.27210999    
 O    8.96028042       2.73875999       7.35976982    
 O    8.96028042       2.73875999       9.96057987    
 O    10.0144196       4.56459999       1.02987003    
 O    10.0144196       4.56459999       3.16019011    
 O    10.0144196       4.56459999       5.27210999    
 O    10.0144196       4.56459999       7.35976982    
 O    10.0144196       4.56459999       9.96057987    
 O    11.0685701       6.39043999       1.02987003    
 O    11.0685701       6.39043999       3.16019011    
 O    11.0685701       6.39043999       5.27210999    
 O    11.0685701       6.39043999       7.35976982    
 O    11.0685701       6.39043999       9.96057987    
 O    12.1227198       8.21629047       1.02987003    
 O    12.1227198       8.21629047       3.16019011    
 O    12.1227198       8.21629047       5.27210999    
 O    12.1227198       8.21629047       7.35976982    
 O    12.1227198       8.21629047       9.96057987    
 O    10.0144196      0.912919998       1.02987003    
 O    10.0144196      0.912919998       3.16019011    
 O    10.0144196      0.912919998       5.27210999    
 O    10.0144196      0.912919998       7.35976982    
 O    10.0144196      0.912919998       9.96057987    
 O    11.0685701       2.73875999       1.02987003    
 O    11.0685701       2.73875999       3.16019011    
 O    11.0685701       2.73875999       5.27210999    
 O    11.0685701       2.73875999       7.35976982    
 O    11.0685701       2.73875999       9.96057987    
 O    12.1227198       4.56459999       1.02987003    
 O    12.1227198       4.56459999       3.16019011    
 O    12.1227198       4.56459999       5.27210999    
 O    12.1227198       4.56459999       7.35976982    
 O    12.1227198       4.56459999       9.96057987    
 O    13.1768703       6.39043999       1.02987003    
 O    13.1768703       6.39043999       3.16019011    
 O    13.1768703       6.39043999       5.27210999    
 O    13.1768703       6.39043999       7.35976982    
 O    13.1768703       6.39043999       9.96057987    
 O    14.2310200       8.21629047       1.02987003    
 O    14.2310200       8.21629047       3.16019011    
 O    14.2310200       8.21629047       5.27210999    
 O    14.2310200       8.21629047       7.35976982    
 O    14.2310200       8.21629047       9.96057987    
         258
 Energy:   160.80262769999999     
 X   0.00000000       0.00000000       0.00000000    
 X   10.5415001       0.00000000       0.00000000    
 X   5.27075005       9.12920666       0.00000000    
 X   0.00000000       0.00000000       28.5415001    
 X   15.8122501       9.12920666       0.00000000    
 X   10.5415001       0.00000000       28.5415001    
 X   5.27075005       9.12920666       28.5415001    
 X   15.8122501       9.12920666       28.5415001    
 Ni  -0.00000000       0.00000000     -0.700230002    
 Ni  -0.00000000      -0.00000000       2.03765011    
 Ni   0.00000000       0.00000000       4.22306013    
 Ni  -0.00000000       0.00000000       6.33367014    
 Ni   0.00000000       0.00000000       8.63761044    
 Ni   1.05414999       1.82584000     -0.700230002    
 Ni   1.05414999       1.82584000       2.03765011    
 Ni   1.05414999       1.82584000       4.22306013    
 Ni   1.05414999       1.82584000       6.33367014    
 Ni   1.05414999       1.82584000       8.63761044    
 Ni   2.10829997       3.65167999     -0.700230002    
 Ni   2.10829997       3.65167999       2.03765011    
 Ni   2.10829997       3.65167999       4.22306013    
 Ni   2.10829997       3.65167999       6.33367014    
 Ni   2.10829997       3.65167999       8.63761044    
 Ni   3.16245008       5.47751999     -0.700230002    
 Ni   3.16245008       5.47751999       2.03765011    
 Ni   3.16245008       5.47751999       4.22306013    
 Ni   3.16245008       5.47751999       6.33367014    