         224
 Energy:  -1240.2176459000000      en  -1193.2475959000001      edisp  -46.970050000000001     
 X   0.00000000       0.00000000       0.00000000    
 X   12.6498585       0.00000000       0.00000000    
 X   0.00000000       12.6498585       0.00000000    
 X   0.00000000       0.00000000       25.6498585    
 X   12.6498585       12.6498585       0.00000000    
 X   12.6498585       0.00000000       25.6498585    
 X   0.00000000       12.6498585       25.6498585    
 X   12.6498585       12.6498585       25.6498585    
 Ni   0.00000000       0.00000000       0.00000000    
 Ni   0.00000000       0.00000000       4.21661997    
 Ni   0.00000000       0.00000000       8.43323994    
 Ni   0.00000000       4.21661997       0.00000000    
 Ni   0.00000000       4.21661997       4.21661997    
 Ni   0.00000000       4.21661997       8.43323994    
 Ni   0.00000000       8.43323994       0.00000000    
 Ni   0.00000000       8.43323994       4.21661997    
 Ni   0.00000000       8.43323994       8.43323994    
 Ni   4.21661997       0.00000000       0.00000000    
 Ni   4.21661997       0.00000000       4.21661997    
 Ni   4.21661997       0.00000000       8.43323994    
 Ni   4.21661997       4.21661997       0.00000000    
 Ni   4.21661997       4.21661997       4.21661997    
 Ni   4.21661997       4.21661997       8.43323994    
 Ni   4.21661997       8.43323994       0.00000000    
 Ni   4.21661997       8.43323994       4.21661997    
 Ni   4.21661997       8.43323994       8.43323994    
 Ni   8.43323994       0.00000000       0.00000000    
 Ni   8.43323994       0.00000000       4.21661997    
 Ni   8.43323994       0.00000000       8.43323994    
 Ni   8.43323994       4.21661997       0.00000000    
 Ni   8.43323994       4.21661997       4.21661997    
 Ni   8.43323994       4.21661997       8.43323994    
 Ni   8.43323994       8.43323994       0.00000000    
 Ni   8.43323994       8.43323994       4.21661997    
 Ni   8.43323994       8.43323994       8.43323994    
 Ni   0.00000000       2.10830998       2.10830998    
 Ni   0.00000000       2.10830998       6.32493019    
 Ni   0.00000000       2.10830998       10.5415497    
 Ni   0.00000000       6.32493019       2.10830998    
 Ni   0.00000000       6.32493019       6.32493019    
 Ni   0.00000000       6.32493019       10.5415497    
 Ni   0.00000000       10.5415497       2.10830998    
 Ni   0.00000000       10.5415497       6.32493019    
 Ni   0.00000000       10.5415497       10.5415497    
 Ni   4.21661997       2.10830998       2.10830998    
 Ni   4.21661997       2.10830998       6.32493019    
 Ni   4.21661997       2.10830998       10.5415497    
 Ni   4.21661997       6.32493019       2.10830998    
 Ni   4.21661997       6.32493019       6.32493019    
 Ni   4.21661997       6.32493019       10.5415497    
 Ni   4.21661997       10.5415497       2.10830998    
 Ni   4.21661997       10.5415497       6.32493019    
 Ni   4.21661997       10.5415497       10.5415497    
 Ni   8.43323994       2.10830998       2.10830998    
 Ni   8.43323994       2.10830998       6.32493019    
 Ni   8.43323994       2.10830998       10.5415497    
 Ni   8.43323994       6.32493019       2.10830998    
 Ni   8.43323994       6.32493019       6.32493019    
 Ni   8.43323994       6.32493019       10.5415497    
 Ni   8.43323994       10.5415497       2.10830998    
 Ni   8.43323994       10.5415497       6.32493019    
 Ni   8.43323994       10.5415497       10.5415497    
 Ni   2.10830998       0.00000000       2.10830998    
 Ni   2.10830998       0.00000000       6.32493019    
 Ni   2.10830998       0.00000000       10.5415497    
 Ni   2.10830998       4.21661997       2.10830998    
 Ni   2.10830998       4.21661997       6.32493019    
 Ni   2.10830998       4.21661997       10.5415497    
 Ni   2.10830998       8.43323994       2.10830998    
 Ni   2.10830998       8.43323994       6.32493019    
 Ni   2.10830998       8.43323994       10.5415497    
 Ni   6.32493019       0.00000000       2.10830998    
 Ni   6.32493019       0.00000000       6.32493019    
 Ni   6.32493019       0.00000000       10.5415497    
 Ni   6.32493019       4.21661997       2.10830998    
 Ni   6.32493019       4.21661997       6.32493019    
 Ni   6.32493019       4.21661997       10.5415497    
 Ni   6.32493019       8.43323994       2.10830998    
 Ni   6.32493019       8.43323994       6.32493019    
 Ni   6.32493019       8.43323994       10.5415497    
 Ni   10.5415497       0.00000000       2.10830998    
 Ni   10.5415497       0.00000000       6.32493019    
 Ni   10.5415497       0.00000000       10.5415497    
 Ni   10.5415497       4.21661997       2.10830998    
 Ni   10.5415497       4.21661997       6.32493019    
 Ni   10.5415497       4.21661997       10.5415497    
 Ni   10.5415497       8.43323994       2.10830998    
 Ni   10.5415497       8.43323994       6.32493019    
 Ni   10.5415497       8.43323994       10.5415497    
 Ni   2.10830998       2.10830998       0.00000000    
 Ni   2.10830998       2.10830998       4.21661997    
 Ni   2.10830998       2.10830998       8.43323994    
 Ni   2.10830998       6.32493019       0.00000000    
 Ni   2.10830998       6.32493019       4.21661997    
 Ni   2.10830998       6.32493019       8.43323994    
 Ni   2.10830998       10.5415497       0.00000000    
 Ni   2.10830998       10.5415497       4.21661997    
 Ni   2.10830998       10.5415497       8.43323994    
 Ni   6.32493019       2.10830998       0.00000000    
 Ni   6.32493019       2.10830998       4.21661997    
 Ni   6.32493019       2.10830998       8.43323994    
 Ni   6.32493019       6.32493019       0.00000000    
 Ni   6.32493019       6.32493019       4.21661997    
 Ni   6.32493019       6.32493019       8.43323994    
 Ni   6.32493019       10.5415497       0.00000000    
 Ni   6.32493019       10.5415497       4.21661997    
 Ni   6.32493019       10.5415497       8.43323994    
 Ni   10.5415497       2.10830998       0.00000000    
 Ni   10.5415497       2.10830998       4.21661997    
 Ni   10.5415497       2.10830998       8.43323994    
 Ni   10.5415497       6.32493019       0.00000000    
 Ni   10.5415497       6.32493019       4.21661997    
 Ni   10.5415497       6.32493019       8.43323994    
 Ni   10.5415497       10.5415497       0.00000000    
 Ni   10.5415497       10.5415497       4.21661997    
 Ni   10.5415497       10.5415497       8.43323994    
 O    2.10830998       0.00000000       0.00000000    
 O    2.10830998       0.00000000       4.21661997    
 O    2.10830998       0.00000000       8.43323994    
 O    2.10830998       4.21661997       0.00000000    
 O    2.10830998       4.21661997       4.21661997    
 O    2.10830998       4.21661997       8.43323994    
 O    2.10830998       8.43323994       0.00000000    
 O    2.10830998       8.43323994       4.21661997    
 O    2.10830998       8.43323994       8.43323994    
 O    6.32493019       0.00000000       0.00000000    
 O    6.32493019       0.00000000       4.21661997    
 O    6.32493019       0.00000000       8.43323994    
 O    6.32493019       4.21661997       0.00000000    
 O    6.32493019       4.21661997       4.21661997    
 O    6.32493019       4.21661997       8.43323994    
 O    6.32493019       8.43323994       0.00000000    
 O    6.32493019       8.43323994       4.21661997    
 O    6.32493019       8.43323994       8.43323994    
 O    10.5415497       0.00000000       0.00000000    
 O    10.5415497       0.00000000       4.21661997    
 O    10.5415497       0.00000000       8.43323994    
 O    10.5415497       4.21661997       0.00000000    
 O    10.5415497       4.21661997       4.21661997    
 O    10.5415497       4.21661997       8.43323994    
 O    10.5415497       8.43323994       0.00000000    
 O    10.5415497       8.43323994       4.21661997    
 O    10.5415497       8.43323994       8.43323994    
 O    2.10830998       2.10830998       2.10830998    
 O    2.10830998       2.10830998       6.32493019    
 O    2.10830998       2.10830998       10.5415497    
 O    2.10830998       6.32493019       2.10830998    
 O    2.10830998       6.32493019       6.32493019    
 O    2.10830998       6.32493019       10.5415497    
 O    2.10830998       10.5415497       2.10830998    
 O    2.10830998       10.5415497       6.32493019    
 O    2.10830998       10.5415497       10.5415497    
 O    6.32493019       2.10830998       2.10830998    
 O    6.32493019       2.10830998       6.32493019    
 O    6.32493019       2.10830998       10.5415497    
 O    6.32493019       6.32493019       2.10830998    
 O    6.32493019       6.32493019       6.32493019    
 O    6.32493019       6.32493019       10.5415497    
 O    6.32493019       10.5415497       2.10830998    
 O    6.32493019       10.5415497       6.32493019    
 O    6.32493019       10.5415497       10.5415497    
 O    10.5415497       2.10830998       2.10830998    
 O    10.5415497       2.10830998       6.32493019    
 O    10.5415497       2.10830998       10.5415497    
 O    10.5415497       6.32493019       2.10830998    
 O    10.5415497       6.32493019       6.32493019    
 O    10.5415497       6.32493019       10.5415497    
 O    10.5415497       10.5415497       2.10830998    
 O    10.5415497       10.5415497       6.32493019    
 O    10.5415497       10.5415497       10.5415497    
 O    0.00000000       0.00000000       2.10830998    
 O    0.00000000       0.00000000       6.32493019    
 O    0.00000000       0.00000000       10.5415497    
 O    0.00000000       4.21661997       2.10830998    
 O    0.00000000       4.21661997       6.32493019    
 O    0.00000000       4.21661997       10.5415497    
 O    0.00000000       8.43323994       2.10830998    
 O    0.00000000       8.43323994       6.32493019    
 O    0.00000000       8.43323994       10.5415497    
 O    4.21661997       0.00000000       2.10830998    
 O    4.21661997       0.00000000       6.32493019    
 O    4.21661997       0.00000000       10.5415497    
 O    4.21661997       4.21661997       2.10830998    
 O    4.21661997       4.21661997       6.32493019    
 O    4.21661997       4.21661997       10.5415497    
 O    4.21661997       8.43323994       2.10830998    
 O    4.21661997       8.43323994       6.32493019    
 O    4.21661997       8.43323994       10.5415497    
 O    8.43323994       0.00000000       2.10830998    
 O    8.43323994       0.00000000       6.32493019    
 O    8.43323994       0.00000000       10.5415497    
 O    8.43323994       4.21661997       2.10830998    
 O    8.43323994       4.21661997       6.32493019    
 O    8.43323994       4.21661997       10.5415497    
 O    8.43323994       8.43323994       2.10830998    
 O    8.43323994       8.43323994       6.32493019    
 O    8.43323994       8.43323994       10.5415497    
 O    0.00000000       2.10830998       0.00000000    
 O    0.00000000       2.10830998       4.21661997    
 O    0.00000000       2.10830998       8.43323994    
 O    0.00000000       6.32493019       0.00000000    
 O    0.00000000       6.32493019       4.21661997    
 O    0.00000000       6.32493019       8.43323994    
 O    0.00000000       10.5415497       0.00000000    
 O    0.00000000       10.5415497       4.21661997    
 O    0.00000000       10.5415497       8.43323994    
 O    4.21661997       2.10830998       0.00000000    
 O    4.21661997       2.10830998       4.21661997    
 O    4.21661997       2.10830998       8.43323994    
 O    4.21661997       6.32493019       0.00000000    
 O    4.21661997       6.32493019       4.21661997    
 O    4.21661997       6.32493019       8.43323994    
 O    4.21661997       10.5415497       0.00000000    
 O    4.21661997       10.5415497       4.21661997    
 O    4.21661997       10.5415497       8.43323994    
 O    8.43323994       2.10830998       0.00000000    
 O    8.43323994       2.10830998       4.21661997    
 O    8.43323994       2.10830998       8.43323994    
 O    8.43323994       6.32493019       0.00000000    
 O    8.43323994       6.32493019       4.21661997    
 O    8.43323994       6.32493019       8.43323994    
 O    8.43323994       10.5415497       0.00000000    
 O    8.43323994       10.5415497       4.21661997    
 O    8.43323994       10.5415497       8.43323994    
         224
 Energy:  -1241.8886218000000      en  -1194.2766418000001      edisp  -47.611980000000003     
 X   0.00000000       0.00000000       0.00000000    
 X   12.6498585       0.00000000       0.00000000    
 X   0.00000000       12.6498585       0.00000000    
 X   0.00000000       0.00000000       25.6498585    
 X   12.6498585       12.6498585       0.00000000    
 X   12.6498585       0.00000000       25.6498585    
 X   0.00000000       12.6498585       25.6498585    
 X   12.6498585       12.6498585       25.6498585    
 Ni  -0.00000000      -0.00000000      -1.09999999E-02
 Ni  -0.00000000      -0.00000000       4.21321011    
 Ni  -0.00000000      -0.00000000       8.43962002    
 Ni  -0.00000000       4.21661997      -1.09999999E-02
 Ni   0.00000000       4.21661997       4.21321011    
 Ni  -0.00000000       4.21661997       8.43962002    
 Ni  -0.00000000       8.43323994      -1.09999999E-02
 Ni  -0.00000000       8.43323994       4.21321011    
 Ni  -0.00000000       8.43323994       8.43962002    
 Ni   4.21661997       0.00000000      -1.09999999E-02
 Ni   4.21661997       0.00000000       4.21321011    
 Ni   4.21661997       0.00000000       8.43962002    
 Ni   4.21661997       4.21661997      -1.09999999E-02
 Ni   4.21661997       4.21661997       4.21321011    
 Ni   4.21661997       4.21661997       8.43962002    
 Ni   4.21661997       8.43323994      -1.09999999E-02
 Ni   4.21661997       8.43323994       4.21321011    
 Ni   4.21661997       8.43323994       8.43962002    
 Ni   8.43323994      -0.00000000      -1.09999999E-02
 Ni   8.43323994       0.00000000       4.21321011    
 Ni   8.43323994      -0.00000000       8.43962002    
 Ni   8.43323994       4.21661997      -1.09999999E-02
 Ni   8.43323994       4.21661997       4.21321011    
 Ni   8.43323994       4.21661997       8.43962002    
 Ni   8.43323994       8.43323994      -1.09999999E-02
 Ni   8.43323994       8.43323994       4.21321011    
 Ni   8.43323994       8.43323994       8.43962002    
 Ni  -0.00000000       2.10830998       2.10191989    
 Ni   0.00000000       2.10830998       6.32833004    
 Ni  -0.00000000       2.10830998       10.5525503    
 Ni  -0.00000000       6.32493019       2.10191989    
 Ni   0.00000000       6.32493019       6.32833004    
 Ni  -0.00000000       6.32493019       10.5525503    
 Ni  -0.00000000       10.5415497       2.10191989    
 Ni  -0.00000000       10.5415497       6.32833004    
 Ni  -0.00000000       10.5415497       10.5525503    
 Ni   4.21661997       2.10830998       2.10191989    
 Ni   4.21661997       2.10830998       6.32833004    
 Ni   4.21661997       2.10830998       10.5525503    
 Ni   4.21661997       6.32493019       2.10191989    
 Ni   4.21661997       6.32493019       6.32833004    
 Ni   4.21661997       6.32493019       10.5525503    
 Ni   4.21661997       10.5415497       2.10191989    
 Ni   4.21661997       10.5415497       6.32833004    
 Ni   4.21661997       10.5415497       10.5525503    
 Ni   8.43323994       2.10830998       2.10191989    
 Ni   8.43323994       2.10830998       6.32833004    
 Ni   8.43323994       2.10830998       10.5525503    
 Ni   8.43323994       6.32493019       2.10191989    
 Ni   8.43323994       6.32493019       6.32833004    
 Ni   8.43323994       6.32493019       10.5525503    
 Ni   8.43323994       10.5415497       2.10191989    
 Ni   8.43323994       10.5415497       6.32833004    
 Ni   8.43323994       10.5415497       10.5525503    
 Ni   2.10830998       0.00000000       2.10191989    
 Ni   2.10830998      -0.00000000       6.32833004    
 Ni   2.10830998       0.00000000       10.5525503    
 Ni   2.10830998       4.21661997       2.10191989    
 Ni   2.10830998       4.21661997       6.32833004    
 Ni   2.10830998       4.21661997       10.5525503    
 Ni   2.10830998       8.43323994       2.10191989    
 Ni   2.10830998       8.43323994       6.32833004    
 Ni   2.10830998       8.43323994       10.5525503    
 Ni   6.32493019       0.00000000       2.10191989    
 Ni   6.32493019      -0.00000000       6.32833004    
 Ni   6.32493019       0.00000000       10.5525503    
 Ni   6.32493019       4.21661997       2.10191989    
 Ni   6.32493019       4.21661997       6.32833004    
 Ni   6.32493019       4.21661997       10.5525503    
 Ni   6.32493019       8.43323994       2.10191989    
 Ni   6.32493019       8.43323994       6.32833004    
 Ni   6.32493019       8.43323994       10.5525503    
 Ni   10.5415497       0.00000000       2.10191989    
 Ni   10.5415497       0.00000000       6.32833004    
 Ni   10.5415497      -0.00000000       10.5525503    
 Ni   10.5415497       4.21661997       2.10191989    
 Ni   10.5415497       4.21661997       6.32833004    
 Ni   10.5415497       4.21661997       10.5525503    
 Ni   10.5415497       8.43323994       2.10191989    
 Ni   10.5415497       8.43323994       6.32833004    
 Ni   10.5415497       8.43323994       10.5525503    
 Ni   2.10830998       2.10830998      -1.09999999E-02
 Ni   2.10830998       2.10830998       4.21321011    
 Ni   2.10830998       2.10830998       8.43962002    
 Ni   2.10830998       6.32493019      -1.09999999E-02
 Ni   2.10830998       6.32493019       4.21321011    
 Ni   2.10830998       6.32493019       8.43962002    
 Ni   2.10830998       10.5415497      -1.09999999E-02
 Ni   2.10830998       10.5415497       4.21321011    
 Ni   2.10830998       10.5415497       8.43962002    
 Ni   6.32493019       2.10830998      -1.09999999E-02
 Ni   6.32493019       2.10830998       4.21321011    
 Ni   6.32493019       2.10830998       8.43962002    
 Ni   6.32493019       6.32493019      -1.09999999E-02
 Ni   6.32493019       6.32493019       4.21321011    
 Ni   6.32493019       6.32493019       8.43962002    
 Ni   6.32493019       10.5415497      -1.09999999E-02
 Ni   6.32493019       10.5415497       4.21321011    
 Ni   6.32493019       10.5415497       8.43962002    
 Ni   10.5415497       2.10830998      -1.09999999E-02
 Ni   10.5415497       2.10830998       4.21321011    
 Ni   10.5415497       2.10830998       8.43962002    
 Ni   10.5415497       6.32493019      -1.09999999E-02
 Ni   10.5415497       6.32493019       4.21321011    
 Ni   10.5415497       6.32493019       8.43962002    
 Ni   10.5415497       10.5415497      -1.09999999E-02
 Ni   10.5415497       10.5415497       4.21321011    
 Ni   10.5415497       10.5415497       8.43962002    
 O    2.10830998      -0.00000000       1.46899996E-02
 O    2.10830998      -0.00000000       4.21380997    
 O    2.10830998      -0.00000000       8.41553020    
 O    2.10830998       4.21661997       1.46899996E-02
 O    2.10830998       4.21661997       4.21380997    
 O    2.10830998       4.21661997       8.41553020    
 O    2.10830998       8.43323994       1.46899996E-02
 O    2.10830998       8.43323994       4.21380997    
 O    2.10830998       8.43323994       8.41553020    
 O    6.32493019      -0.00000000       1.46899996E-02
 O    6.32493019       0.00000000       4.21380997    
 O    6.32493019       0.00000000       8.41553020    
 O    6.32493019       4.21661997       1.46899996E-02
 O    6.32493019       4.21661997       4.21380997    
 O    6.32493019       4.21661997       8.41553020    
 O    6.32493019       8.43323994       1.46899996E-02
 O    6.32493019       8.43323994       4.21380997    
 O    6.32493019       8.43323994       8.41553020    
 O    10.5415497       0.00000000       1.46899996E-02
 O    10.5415497      -0.00000000       4.21380997    
 O    10.5415497       0.00000000       8.41553020    
 O    10.5415497       4.21661997       1.46899996E-02
 O    10.5415497       4.21661997       4.21380997    
 O    10.5415497       4.21661997       8.41553020    
 O    10.5415497       8.43323994       1.46899996E-02
 O    10.5415497       8.43323994       4.21380997    
 O    10.5415497       8.43323994       8.41553020    
 O    2.10830998       2.10830998       2.12600994    
 O    2.10830998       2.10830998       6.32774019    
 O    2.10830998       2.10830998       10.5268602    
 O    2.10830998       6.32493019       2.12600994    
 O    2.10830998       6.32493019       6.32774019    
 O    2.10830998       6.32493019       10.5268602    
 O    2.10830998       10.5415497       2.12600994    
 O    2.10830998       10.5415497       6.32774019    
 O    2.10830998       10.5415497       10.5268602    
 O    6.32493019       2.10830998       2.12600994    
 O    6.32493019       2.10830998       6.32774019    
 O    6.32493019       2.10830998       10.5268602    
 O    6.32493019       6.32493019       2.12600994    
 O    6.32493019       6.32493019       6.32774019    
 O    6.32493019       6.32493019       10.5268602    
 O    6.32493019       10.5415497       2.12600994    
 O    6.32493019       10.5415497       6.32774019    
 O    6.32493019       10.5415497       10.5268602    
 O    10.5415497       2.10830998       2.12600994    
 O    10.5415497       2.10830998       6.32774019    
 O    10.5415497       2.10830998       10.5268602    
 O    10.5415497       6.32493019       2.12600994    
 O    10.5415497       6.32493019       6.32774019    
 O    10.5415497       6.32493019       10.5268602    
 O    10.5415497       10.5415497       2.12600994    
 O    10.5415497       10.5415497       6.32774019    
 O    10.5415497       10.5415497       10.5268602    
 O    0.00000000      -0.00000000       2.12600994    
 O   -0.00000000       0.00000000       6.32774019    
 O   -0.00000000       0.00000000       10.5268602    
 O    0.00000000       4.21661997       2.12600994    
 O   -0.00000000       4.21661997       6.32774019    
 O    0.00000000       4.21661997       10.5268602    
 O    0.00000000       8.43323994       2.12600994    
 O    0.00000000       8.43323994       6.32774019    
 O    0.00000000       8.43323994       10.5268602    
 O    4.21661997      -0.00000000       2.12600994    
 O    4.21661997      -0.00000000       6.32774019    
 O    4.21661997      -0.00000000       10.5268602    
 O    4.21661997       4.21661997       2.12600994    
 O    4.21661997       4.21661997       6.32774019    
 O    4.21661997       4.21661997       10.5268602    
 O    4.21661997       8.43323994       2.12600994    
 O    4.21661997       8.43323994       6.32774019    
 O    4.21661997       8.43323994       10.5268602    
 O    8.43323994       0.00000000       2.12600994    
 O    8.43323994       0.00000000       6.32774019    
 O    8.43323994       0.00000000       10.5268602    
 O    8.43323994       4.21661997       2.12600994    
 O    8.43323994       4.21661997       6.32774019    
 O    8.43323994       4.21661997       10.5268602    
 O    8.43323994       8.43323994       2.12600994    
 O    8.43323994       8.43323994       6.32774019    
 O    8.43323994       8.43323994       10.5268602    
 O   -0.00000000       2.10830998       1.46899996E-02
 O   -0.00000000       2.10830998       4.21380997    
 O    0.00000000       2.10830998       8.41553020    
 O   -0.00000000       6.32493019       1.46899996E-02
 O   -0.00000000       6.32493019       4.21380997    
 O    0.00000000       6.32493019       8.41553020    
 O    0.00000000       10.5415497       1.46899996E-02
 O   -0.00000000       10.5415497       4.21380997    
 O    0.00000000       10.5415497       8.41553020    
 O    4.21661997       2.10830998       1.46899996E-02
 O    4.21661997       2.10830998       4.21380997    
 O    4.21661997       2.10830998       8.41553020    
 O    4.21661997       6.32493019       1.46899996E-02
 O    4.21661997       6.32493019       4.21380997    
 O    4.21661997       6.32493019       8.41553020    
 O    4.21661997       10.5415497       1.46899996E-02
 O    4.21661997       10.5415497       4.21380997    
 O    4.21661997       10.5415497       8.41553020    
 O    8.43323994       2.10830998       1.46899996E-02
 O    8.43323994       2.10830998       4.21380997    
 O    8.43323994       2.10830998       8.41553020    
 O    8.43323994       6.32493019       1.46899996E-02
 O    8.43323994       6.32493019       4.21380997    
 O    8.43323994       6.32493019       8.41553020    
 O    8.43323994       10.5415497       1.46899996E-02
 O    8.43323994       10.5415497       4.21380997    
 O    8.43323994       10.5415497       8.41553020    
         224
 Energy:  -1245.3230547999999      en  -1196.4298547999999      edisp  -48.893200000000000     
 X   0.00000000       0.00000000       0.00000000    
 X   12.6498585       0.00000000       0.00000000    
 X   0.00000000       12.6498585       0.00000000    
 X   0.00000000       0.00000000       25.6498585    
 X   12.6498585       12.6498585       0.00000000    
 X   12.6498585       0.00000000       25.6498585    
 X   0.00000000       12.6498585       25.6498585    
 X   12.6498585       12.6498585       25.6498585    
 Ni  -0.00000000      -0.00000000      -4.40099984E-02
 Ni  -0.00000000      -0.00000000       4.20300007    
 Ni  -0.00000000      -0.00000000       8.45878029    
 Ni  -0.00000000       4.21661997      -4.40099984E-02
 Ni   0.00000000       4.21661997       4.20300007    
 Ni  -0.00000000       4.21661997       8.45878029    
 Ni  -0.00000000       8.43323994      -4.40099984E-02
 Ni  -0.00000000       8.43323994       4.20300007    
 Ni  -0.00000000       8.43323994       8.45878029    
 Ni   4.21661997       0.00000000      -4.40099984E-02
 Ni   4.21661997       0.00000000       4.20300007    
 Ni   4.21661997       0.00000000       8.45878029    
 Ni   4.21661997       4.21661997      -4.40099984E-02
 Ni   4.21661997       4.21661997       4.20300007    
 Ni   4.21661997       4.21661997       8.45878029    
 Ni   4.21661997       8.43323994      -4.40099984E-02
 Ni   4.21661997       8.43323994       4.20300007    
 Ni   4.21661997       8.43323994       8.45878029    
 Ni   8.43323994      -0.00000000      -4.40099984E-02
 Ni   8.43323994       0.00000000       4.20300007    
 Ni   8.43323994      -0.00000000       8.45878029    
 Ni   8.43323994       4.21661997      -4.40099984E-02
 Ni   8.43323994       4.21661997       4.20300007    
 Ni   8.43323994       4.21661997       8.45878029    
 Ni   8.43323994       8.43323994      -4.40099984E-02
 Ni   8.43323994       8.43323994       4.20300007    
 Ni   8.43323994       8.43323994       8.45878029    
 Ni  -0.00000000       2.10830998       2.08277011    
 Ni   0.00000000       2.10830998       6.33855009    
 Ni  -0.00000000       2.10830998       10.5855598    
 Ni  -0.00000000       6.32493019       2.08277011    
 Ni   0.00000000       6.32493019       6.33855009    
 Ni  -0.00000000       6.32493019       10.5855598    
 Ni  -0.00000000       10.5415497       2.08277011    
 Ni  -0.00000000       10.5415497       6.33855009    
 Ni  -0.00000000       10.5415497       10.5855598    
 Ni   4.21661997       2.10830998       2.08277011    
 Ni   4.21661997       2.10830998       6.33855009    
 Ni   4.21661997       2.10830998       10.5855598    
 Ni   4.21661997       6.32493019       2.08277011    
 Ni   4.21661997       6.32493019       6.33855009    
 Ni   4.21661997       6.32493019       10.5855598    
 Ni   4.21661997       10.5415497       2.08277011    
 Ni   4.21661997       10.5415497       6.33855009    
 Ni   4.21661997       10.5415497       10.5855598    
 Ni   8.43323994       2.10830998       2.08277011    
 Ni   8.43323994       2.10830998       6.33855009    
 Ni   8.43323994       2.10830998       10.5855598    
 Ni   8.43323994       6.32493019       2.08277011    
 Ni   8.43323994       6.32493019       6.33855009    
 Ni   8.43323994       6.32493019       10.5855598    
 Ni   8.43323994       10.5415497       2.08277011    
 Ni   8.43323994       10.5415497       6.33855009    
 Ni   8.43323994       10.5415497       10.5855598    
 Ni   2.10830998       0.00000000       2.08277011    
 Ni   2.10830998      -0.00000000       6.33855009    
 Ni   2.10830998       0.00000000       10.5855598    
 Ni   2.10830998       4.21661997       2.08277011    
 Ni   2.10830998       4.21661997       6.33855009    
 Ni   2.10830998       4.21661997       10.5855598    
 Ni   2.10830998       8.43323994       2.08277011    
 Ni   2.10830998       8.43323994       6.33855009    
 Ni   2.10830998       8.43323994       10.5855598    
 Ni   6.32493019       0.00000000       2.08277011    
 Ni   6.32493019      -0.00000000       6.33855009    
 Ni   6.32493019       0.00000000       10.5855598    
 Ni   6.32493019       4.21661997       2.08277011    
 Ni   6.32493019       4.21661997       6.33855009    
 Ni   6.32493019       4.21661997       10.5855598    
 Ni   6.32493019       8.43323994       2.08277011    
 Ni   6.32493019       8.43323994       6.33855009    
 Ni   6.32493019       8.43323994       10.5855598    
 Ni   10.5415497       0.00000000       2.08277011    
 Ni   10.5415497       0.00000000       6.33855009    
 Ni   10.5415497      -0.00000000       10.5855598    
 Ni   10.5415497       4.21661997       2.08277011    
 Ni   10.5415497       4.21661997       6.33855009    
 Ni   10.5415497       4.21661997       10.5855598    
 Ni   10.5415497       8.43323994       2.08277011    
 Ni   10.5415497       8.43323994       6.33855009    
 Ni   10.5415497       8.43323994       10.5855598    
 Ni   2.10830998       2.10830998      -4.40099984E-02
 Ni   2.10830998       2.10830998       4.20300007    