         224
 Energy:  -1247.9993307000000      en  -1198.1237607000000      edisp  -49.875570000000003     
 X   0.00000000       0.00000000       0.00000000    
 X   12.6498585       0.00000000       0.00000000    
 X   0.00000000       12.6498585       0.00000000    
 X   0.00000000       0.00000000       25.6498585    
 X   12.6498585       12.6498585       0.00000000    
 X   12.6498585       0.00000000       25.6498585    
 X   0.00000000       12.6498585       25.6498585    
 X   12.6498585       12.6498585       25.6498585    
 Ni  -0.00000000      -0.00000000      0.102629997    
 Ni  -0.00000000      -0.00000000       4.26885986    
 Ni  -0.00000000      -0.00000000       8.35044956    
 Ni  -0.00000000       4.21661997      0.102629997    
 Ni   0.00000000       4.21661997       4.26885986    
 Ni   0.00000000       4.21661997       8.35044956    
 Ni  -0.00000000       8.43323994      0.102629997    
 Ni  -0.00000000       8.43323994       4.26885986    
 Ni   0.00000000       8.43323994       8.35044956    
 Ni   4.21661997       0.00000000      0.102629997    
 Ni   4.21661997      -0.00000000       4.26885986    
 Ni   4.21661997      -0.00000000       8.35044956    
 Ni   4.21661997       4.21661997      0.102629997    
 Ni   4.21661997       4.21661997       4.26885986    
 Ni   4.21661997       4.21661997       8.35044956    
 Ni   4.21661997       8.43323994      0.102629997    
 Ni   4.21661997       8.43323994       4.26885986    
 Ni   4.21661997       8.43323994       8.35044956    
 Ni   8.43323994       0.00000000      0.102629997    
 Ni   8.43323994      -0.00000000       4.26885986    
 Ni   8.43323994       0.00000000       8.35044956    
 Ni   8.43323994       4.21661997      0.102629997    
 Ni   8.43323994       4.21661997       4.26885986    
 Ni   8.43323994       4.21661997       8.35044956    
 Ni   8.43323994       8.43323994      0.102629997    
 Ni   8.43323994       8.43323994       4.26885986    
 Ni   8.43323994       8.43323994       8.35044956    
 Ni  -0.00000000       2.10830998       2.19109988    
 Ni  -0.00000000       2.10830998       6.27268982    
 Ni  -0.00000000       2.10830998       10.4389200    
 Ni   0.00000000       6.32493019       2.19109988    
 Ni   0.00000000       6.32493019       6.27268982    
 Ni  -0.00000000       6.32493019       10.4389200    
 Ni  -0.00000000       10.5415497       2.19109988    
 Ni  -0.00000000       10.5415497       6.27268982    
 Ni  -0.00000000       10.5415497       10.4389200    
 Ni   4.21661997       2.10830998       2.19109988    
 Ni   4.21661997       2.10830998       6.27268982    
 Ni   4.21661997       2.10830998       10.4389200    
 Ni   4.21661997       6.32493019       2.19109988    
 Ni   4.21661997       6.32493019       6.27268982    
 Ni   4.21661997       6.32493019       10.4389200    
 Ni   4.21661997       10.5415497       2.19109988    
 Ni   4.21661997       10.5415497       6.27268982    
 Ni   4.21661997       10.5415497       10.4389200    
 Ni   8.43323994       2.10830998       2.19109988    
 Ni   8.43323994       2.10830998       6.27268982    
 Ni   8.43323994       2.10830998       10.4389200    
 Ni   8.43323994       6.32493019       2.19109988    
 Ni   8.43323994       6.32493019       6.27268982    
 Ni   8.43323994       6.32493019       10.4389200    
 Ni   8.43323994       10.5415497       2.19109988    
 Ni   8.43323994       10.5415497       6.27268982    
 Ni   8.43323994       10.5415497       10.4389200    
 Ni   2.10830998      -0.00000000       2.19109988    
 Ni   2.10830998       0.00000000       6.27268982    
 Ni   2.10830998       0.00000000       10.4389200    
 Ni   2.10830998       4.21661997       2.19109988    
 Ni   2.10830998       4.21661997       6.27268982    
 Ni   2.10830998       4.21661997       10.4389200    
 Ni   2.10830998       8.43323994       2.19109988    
 Ni   2.10830998       8.43323994       6.27268982    
 Ni   2.10830998       8.43323994       10.4389200    
 Ni   6.32493019       0.00000000       2.19109988    
 Ni   6.32493019       0.00000000       6.27268982    
 Ni   6.32493019      -0.00000000       10.4389200    
 Ni   6.32493019       4.21661997       2.19109988    
 Ni   6.32493019       4.21661997       6.27268982    
 Ni   6.32493019       4.21661997       10.4389200    
 Ni   6.32493019       8.43323994       2.19109988    
 Ni   6.32493019       8.43323994       6.27268982    
 Ni   6.32493019       8.43323994       10.4389200    
 Ni   10.5415497       0.00000000       2.19109988    
 Ni   10.5415497       0.00000000       6.27268982    
 Ni   10.5415497       0.00000000       10.4389200    
 Ni   10.5415497       4.21661997       2.19109988    
 Ni   10.5415497       4.21661997       6.27268982    
 Ni   10.5415497       4.21661997       10.4389200    
 Ni   10.5415497       8.43323994       2.19109988    
 Ni   10.5415497       8.43323994       6.27268982    
 Ni   10.5415497       8.43323994       10.4389200    
 Ni   2.10830998       2.10830998      0.102629997    
 Ni   2.10830998       2.10830998       4.26885986    
 Ni   2.10830998       2.10830998       8.35044956    
 Ni   2.10830998       6.32493019      0.102629997    
 Ni   2.10830998       6.32493019       4.26885986    
 Ni   2.10830998       6.32493019       8.35044956    
 Ni   2.10830998       10.5415497      0.102629997    
 Ni   2.10830998       10.5415497       4.26885986    
 Ni   2.10830998       10.5415497       8.35044956    
 Ni   6.32493019       2.10830998      0.102629997    
 Ni   6.32493019       2.10830998       4.26885986    
 Ni   6.32493019       2.10830998       8.35044956    
 Ni   6.32493019       6.32493019      0.102629997    
 Ni   6.32493019       6.32493019       4.26885986    
 Ni   6.32493019       6.32493019       8.35044956    
 Ni   6.32493019       10.5415497      0.102629997    
 Ni   6.32493019       10.5415497       4.26885986    
 Ni   6.32493019       10.5415497       8.35044956    
 Ni   10.5415497       2.10830998      0.102629997    
 Ni   10.5415497       2.10830998       4.26885986    
 Ni   10.5415497       2.10830998       8.35044956    
 Ni   10.5415497       6.32493019      0.102629997    
 Ni   10.5415497       6.32493019       4.26885986    
 Ni   10.5415497       6.32493019       8.35044956    
 Ni   10.5415497       10.5415497      0.102629997    
 Ni   10.5415497       10.5415497       4.26885986    
 Ni   10.5415497       10.5415497       8.35044956    
 O    2.10830998       0.00000000      0.250719994    
 O    2.10830998      -0.00000000       4.25078011    
 O    2.10830998      -0.00000000       8.20357990    
 O    2.10830998       4.21661997      0.250719994    
 O    2.10830998       4.21661997       4.25078011    
 O    2.10830998       4.21661997       8.20357990    
 O    2.10830998       8.43323994      0.250719994    
 O    2.10830998       8.43323994       4.25078011    
 O    2.10830998       8.43323994       8.20357990    
 O    6.32493019       0.00000000      0.250719994    
 O    6.32493019      -0.00000000       4.25078011    
 O    6.32493019      -0.00000000       8.20357990    
 O    6.32493019       4.21661997      0.250719994    
 O    6.32493019       4.21661997       4.25078011    
 O    6.32493019       4.21661997       8.20357990    
 O    6.32493019       8.43323994      0.250719994    
 O    6.32493019       8.43323994       4.25078011    
 O    6.32493019       8.43323994       8.20357990    
 O    10.5415497      -0.00000000      0.250719994    
 O    10.5415497      -0.00000000       4.25078011    
 O    10.5415497       0.00000000       8.20357990    
 O    10.5415497       4.21661997      0.250719994    
 O    10.5415497       4.21661997       4.25078011    
 O    10.5415497       4.21661997       8.20357990    
 O    10.5415497       8.43323994      0.250719994    
 O    10.5415497       8.43323994       4.25078011    
 O    10.5415497       8.43323994       8.20357990    
 O    2.10830998       2.10830998       2.33796000    
 O    2.10830998       2.10830998       6.29077005    
 O    2.10830998       2.10830998       10.2908297    
 O    2.10830998       6.32493019       2.33796000    
 O    2.10830998       6.32493019       6.29077005    
 O    2.10830998       6.32493019       10.2908297    
 O    2.10830998       10.5415497       2.33796000    
 O    2.10830998       10.5415497       6.29077005    
 O    2.10830998       10.5415497       10.2908297    
 O    6.32493019       2.10830998       2.33796000    
 O    6.32493019       2.10830998       6.29077005    
 O    6.32493019       2.10830998       10.2908297    
 O    6.32493019       6.32493019       2.33796000    
 O    6.32493019       6.32493019       6.29077005    
 O    6.32493019       6.32493019       10.2908297    
 O    6.32493019       10.5415497       2.33796000    
 O    6.32493019       10.5415497       6.29077005    
 O    6.32493019       10.5415497       10.2908297    
 O    10.5415497       2.10830998       2.33796000    
 O    10.5415497       2.10830998       6.29077005    
 O    10.5415497       2.10830998       10.2908297    
 O    10.5415497       6.32493019       2.33796000    
 O    10.5415497       6.32493019       6.29077005    
 O    10.5415497       6.32493019       10.2908297    
 O    10.5415497       10.5415497       2.33796000    
 O    10.5415497       10.5415497       6.29077005    
 O    10.5415497       10.5415497       10.2908297    
 O    0.00000000       0.00000000       2.33796000    
 O    0.00000000      -0.00000000       6.29077005    
 O   -0.00000000       0.00000000       10.2908297    
 O    0.00000000       4.21661997       2.33796000    
 O    0.00000000       4.21661997       6.29077005    
 O   -0.00000000       4.21661997       10.2908297    
 O    0.00000000       8.43323994       2.33796000    
 O    0.00000000       8.43323994       6.29077005    
 O   -0.00000000       8.43323994       10.2908297    
 O    4.21661997      -0.00000000       2.33796000    
 O    4.21661997       0.00000000       6.29077005    
 O    4.21661997      -0.00000000       10.2908297    
 O    4.21661997       4.21661997       2.33796000    
 O    4.21661997       4.21661997       6.29077005    
 O    4.21661997       4.21661997       10.2908297    
 O    4.21661997       8.43323994       2.33796000    
 O    4.21661997       8.43323994       6.29077005    
 O    4.21661997       8.43323994       10.2908297    
 O    8.43323994       0.00000000       2.33796000    
 O    8.43323994      -0.00000000       6.29077005    
 O    8.43323994       0.00000000       10.2908297    
 O    8.43323994       4.21661997       2.33796000    
 O    8.43323994       4.21661997       6.29077005    
 O    8.43323994       4.21661997       10.2908297    
 O    8.43323994       8.43323994       2.33796000    
 O    8.43323994       8.43323994       6.29077005    
 O    8.43323994       8.43323994       10.2908297    
 O   -0.00000000       2.10830998      0.250719994    
 O    0.00000000       2.10830998       4.25078011    
 O    0.00000000       2.10830998       8.20357990    
 O   -0.00000000       6.32493019      0.250719994    
 O    0.00000000       6.32493019       4.25078011    
 O    0.00000000       6.32493019       8.20357990    
 O   -0.00000000       10.5415497      0.250719994    
 O    0.00000000       10.5415497       4.25078011    
 O    0.00000000       10.5415497       8.20357990    
 O    4.21661997       2.10830998      0.250719994    
 O    4.21661997       2.10830998       4.25078011    
 O    4.21661997       2.10830998       8.20357990    
 O    4.21661997       6.32493019      0.250719994    
 O    4.21661997       6.32493019       4.25078011    
 O    4.21661997       6.32493019       8.20357990    
 O    4.21661997       10.5415497      0.250719994    
 O    4.21661997       10.5415497       4.25078011    
 O    4.21661997       10.5415497       8.20357990    
 O    8.43323994       2.10830998      0.250719994    
 O    8.43323994       2.10830998       4.25078011    
 O    8.43323994       2.10830998       8.20357990    
 O    8.43323994       6.32493019      0.250719994    
 O    8.43323994       6.32493019       4.25078011    
 O    8.43323994       6.32493019       8.20357990    
 O    8.43323994       10.5415497      0.250719994    
 O    8.43323994       10.5415497       4.25078011    
 O    8.43323994       10.5415497       8.20357990    
