         258
 Energy:  -959.51000640000007     
 X   0.00000000       0.00000000       0.00000000    
 X   10.5415001       0.00000000       0.00000000    
 X   5.27075005       9.12920666       0.00000000    
 X   0.00000000       0.00000000       28.5415001    
 X   15.8122501       9.12920666       0.00000000    
 X   10.5415001       0.00000000       28.5415001    
 X   5.27075005       9.12920666       28.5415001    
 X   15.8122501       9.12920666       28.5415001    
 Ni  -0.00000000      -0.00000000      -2.81590009    
 Ni   0.00000000      -0.00000000      0.581619978    
 Ni   0.00000000       0.00000000       4.02123022    
 Ni   0.00000000       0.00000000       7.28760004    
 Ni   0.00000000       0.00000000       10.5106602    
 Ni   1.05414999       1.82584000      -2.81590009    
 Ni   1.05414999       1.82584000      0.581619978    
 Ni   1.05414999       1.82584000       4.02123022    
 Ni   1.05414999       1.82584000       7.28760004    
 Ni   1.05414999       1.82584000       10.5106602    
 Ni   2.10829997       3.65167999      -2.81590009    
 Ni   2.10829997       3.65167999      0.581619978    
 Ni   2.10829997       3.65167999       4.02123022    
 Ni   2.10829997       3.65167999       7.28760004    
 Ni   2.10829997       3.65167999       10.5106602    
 Ni   3.16245008       5.47751999      -2.81590009    
 Ni   3.16245008       5.47751999      0.581619978    
 Ni   3.16245008       5.47751999       4.02123022    
 Ni   3.16245008       5.47751999       7.28760004    
 Ni   3.16245008       5.47751999       10.5106602    
 Ni   4.21659994       7.30337000      -2.81590009    
 Ni   4.21659994       7.30337000      0.581619978    
 Ni   4.21659994       7.30337000       4.02123022    
 Ni   4.21659994       7.30337000       7.28760004    
 Ni   4.21659994       7.30337000       10.5106602    
 Ni   2.10829997       0.00000000      -2.81590009    
 Ni   2.10829997      -0.00000000      0.581619978    
 Ni   2.10829997      -0.00000000       4.02123022    
 Ni   2.10829997       0.00000000       7.28760004    
 Ni   2.10829997       0.00000000       10.5106602    
 Ni   3.16245008       1.82584000      -2.81590009    
 Ni   3.16245008       1.82584000      0.581619978    
 Ni   3.16245008       1.82584000       4.02123022    
 Ni   3.16245008       1.82584000       7.28760004    
 Ni   3.16245008       1.82584000       10.5106602    
 Ni   4.21659994       3.65167999      -2.81590009    
 Ni   4.21659994       3.65167999      0.581619978    
 Ni   4.21659994       3.65167999       4.02123022    
 Ni   4.21659994       3.65167999       7.28760004    
 Ni   4.21659994       3.65167999       10.5106602    
 Ni   5.27075005       5.47751999      -2.81590009    
 Ni   5.27075005       5.47751999      0.581619978    
 Ni   5.27075005       5.47751999       4.02123022    
 Ni   5.27075005       5.47751999       7.28760004    
 Ni   5.27075005       5.47751999       10.5106602    
 Ni   6.32490015       7.30337000      -2.81590009    
 Ni   6.32490015       7.30337000      0.581619978    
 Ni   6.32490015       7.30337000       4.02123022    
 Ni   6.32490015       7.30337000       7.28760004    
 Ni   6.32490015       7.30337000       10.5106602    
 Ni   4.21659994      -0.00000000      -2.81590009    
 Ni   4.21659994      -0.00000000      0.581619978    
 Ni   4.21659994       0.00000000       4.02123022    
 Ni   4.21659994       0.00000000       7.28760004    
 Ni   4.21659994      -0.00000000       10.5106602    
 Ni   5.27075005       1.82584000      -2.81590009    
 Ni   5.27075005       1.82584000      0.581619978    
 Ni   5.27075005       1.82584000       4.02123022    
 Ni   5.27075005       1.82584000       7.28760004    
 Ni   5.27075005       1.82584000       10.5106602    
 Ni   6.32490015       3.65167999      -2.81590009    
 Ni   6.32490015       3.65167999      0.581619978    
 Ni   6.32490015       3.65167999       4.02123022    
 Ni   6.32490015       3.65167999       7.28760004    
 Ni   6.32490015       3.65167999       10.5106602    
 Ni   7.37904978       5.47751999      -2.81590009    
 Ni   7.37904978       5.47751999      0.581619978    
 Ni   7.37904978       5.47751999       4.02123022    
 Ni   7.37904978       5.47751999       7.28760004    
 Ni   7.37904978       5.47751999       10.5106602    
 Ni   8.43319988       7.30337000      -2.81590009    
 Ni   8.43319988       7.30337000      0.581619978    
 Ni   8.43319988       7.30337000       4.02123022    
 Ni   8.43319988       7.30337000       7.28760004    
 Ni   8.43319988       7.30337000       10.5106602    
 Ni   6.32490015      -0.00000000      -2.81590009    
 Ni   6.32490015       0.00000000      0.581619978    
 Ni   6.32490015      -0.00000000       4.02123022    
 Ni   6.32490015       0.00000000       7.28760004    
 Ni   6.32490015       0.00000000       10.5106602    
 Ni   7.37904978       1.82584000      -2.81590009    
 Ni   7.37904978       1.82584000      0.581619978    
 Ni   7.37904978       1.82584000       4.02123022    
 Ni   7.37904978       1.82584000       7.28760004    
 Ni   7.37904978       1.82584000       10.5106602    
 Ni   8.43319988       3.65167999      -2.81590009    
 Ni   8.43319988       3.65167999      0.581619978    
 Ni   8.43319988       3.65167999       4.02123022    
 Ni   8.43319988       3.65167999       7.28760004    
 Ni   8.43319988       3.65167999       10.5106602    
 Ni   9.48735046       5.47751999      -2.81590009    
 Ni   9.48735046       5.47751999      0.581619978    
 Ni   9.48735046       5.47751999       4.02123022    
 Ni   9.48735046       5.47751999       7.28760004    
 Ni   9.48735046       5.47751999       10.5106602    
 Ni   10.5415001       7.30337000      -2.81590009    
 Ni   10.5415001       7.30337000      0.581619978    
 Ni   10.5415001       7.30337000       4.02123022    
 Ni   10.5415001       7.30337000       7.28760004    
 Ni   10.5415001       7.30337000       10.5106602    
 Ni   8.43319988       0.00000000      -2.81590009    
 Ni   8.43319988       0.00000000      0.581619978    
 Ni   8.43319988      -0.00000000       4.02123022    
 Ni   8.43319988       0.00000000       7.28760004    
 Ni   8.43319988       0.00000000       10.5106602    
 Ni   9.48735046       1.82584000      -2.81590009    
 Ni   9.48735046       1.82584000      0.581619978    
 Ni   9.48735046       1.82584000       4.02123022    
 Ni   9.48735046       1.82584000       7.28760004    
 Ni   9.48735046       1.82584000       10.5106602    
 Ni   10.5415001       3.65167999      -2.81590009    
 Ni   10.5415001       3.65167999      0.581619978    
 Ni   10.5415001       3.65167999       4.02123022    
 Ni   10.5415001       3.65167999       7.28760004    
 Ni   10.5415001       3.65167999       10.5106602    
 Ni   11.5956497       5.47751999      -2.81590009    
 Ni   11.5956497       5.47751999      0.581619978    
 Ni   11.5956497       5.47751999       4.02123022    
 Ni   11.5956497       5.47751999       7.28760004    
 Ni   11.5956497       5.47751999       10.5106602    
 Ni   12.6498003       7.30337000      -2.81590009    
 Ni   12.6498003       7.30337000      0.581619978    
 Ni   12.6498003       7.30337000       4.02123022    
 Ni   12.6498003       7.30337000       7.28760004    
 Ni   12.6498003       7.30337000       10.5106602    
 O    1.58123004      0.912919998      -1.09859002    
 O    1.58123004      0.912919998       2.32153010    
 O    1.58123004      0.912919998       5.68689013    
 O    1.58123004      0.912919998       8.85762024    
 O    1.58123004      0.912919998       12.0840902    
 O    2.63538003       2.73875999      -1.09859002    
 O    2.63538003       2.73875999       2.32153010    
 O    2.63538003       2.73875999       5.68689013    
 O    2.63538003       2.73875999       8.85762024    
 O    2.63538003       2.73875999       12.0840902    
 O    3.68952990       4.56459999      -1.09859002    
 O    3.68952990       4.56459999       2.32153010    
 O    3.68952990       4.56459999       5.68689013    
 O    3.68952990       4.56459999       8.85762024    
 O    3.68952990       4.56459999       12.0840902    
 O    4.74366999       6.39043999      -1.09859002    
 O    4.74366999       6.39043999       2.32153010    
 O    4.74366999       6.39043999       5.68689013    
 O    4.74366999       6.39043999       8.85762024    
 O    4.74366999       6.39043999       12.0840902    
 O    5.79782009       8.21629047      -1.09859002    
 O    5.79782009       8.21629047       2.32153010    
 O    5.79782009       8.21629047       5.68689013    
 O    5.79782009       8.21629047       8.85762024    
 O    5.79782009       8.21629047       12.0840902    
 O    3.68952990      0.912919998      -1.09859002    
 O    3.68952990      0.912919998       2.32153010    
 O    3.68952990      0.912919998       5.68689013    
 O    3.68952990      0.912919998       8.85762024    
 O    3.68952990      0.912919998       12.0840902    
 O    4.74368000       2.73875999      -1.09859002    
 O    4.74368000       2.73875999       2.32153010    
 O    4.74368000       2.73875999       5.68689013    
 O    4.74368000       2.73875999       8.85762024    
 O    4.74368000       2.73875999       12.0840902    
 O    5.79783010       4.56459999      -1.09859002    
 O    5.79783010       4.56459999       2.32153010    
 O    5.79783010       4.56459999       5.68689013    
 O    5.79783010       4.56459999       8.85762024    
 O    5.79783010       4.56459999       12.0840902    
 O    6.85198021       6.39043999      -1.09859002    
 O    6.85198021       6.39043999       2.32153010    
 O    6.85198021       6.39043999       5.68689013    
 O    6.85198021       6.39043999       8.85762024    
 O    6.85198021       6.39043999       12.0840902    
 O    7.90612984       8.21629047      -1.09859002    
 O    7.90612984       8.21629047       2.32153010    
 O    7.90612984       8.21629047       5.68689013    
 O    7.90612984       8.21629047       8.85762024    
 O    7.90612984       8.21629047       12.0840902    
 O    5.79783010      0.912919998      -1.09859002    
 O    5.79783010      0.912919998       2.32153010    
 O    5.79783010      0.912919998       5.68689013    
 O    5.79783010      0.912919998       8.85762024    
 O    5.79783010      0.912919998       12.0840902    
 O    6.85198021       2.73875999      -1.09859002    
 O    6.85198021       2.73875999       2.32153010    
 O    6.85198021       2.73875999       5.68689013    
 O    6.85198021       2.73875999       8.85762024    
 O    6.85198021       2.73875999       12.0840902    
 O    7.90612984       4.56459999      -1.09859002    
 O    7.90612984       4.56459999       2.32153010    
 O    7.90612984       4.56459999       5.68689013    
 O    7.90612984       4.56459999       8.85762024    
 O    7.90612984       4.56459999       12.0840902    
 O    8.96028042       6.39043999      -1.09859002    
 O    8.96028042       6.39043999       2.32153010    
 O    8.96028042       6.39043999       5.68689013    
 O    8.96028042       6.39043999       8.85762024    
 O    8.96028042       6.39043999       12.0840902    
 O    10.0144196       8.21629047      -1.09859002    
 O    10.0144196       8.21629047       2.32153010    
 O    10.0144196       8.21629047       5.68689013    
 O    10.0144196       8.21629047       8.85762024    
 O    10.0144196       8.21629047       12.0840902    
 O    7.90611982      0.912919998      -1.09859002    
 O    7.90611982      0.912919998       2.32153010    
 O    7.90611982      0.912919998       5.68689013    
 O    7.90611982      0.912919998       8.85762024    
 O    7.90611982      0.912919998       12.0840902    
 O    8.96028042       2.73875999      -1.09859002    
 O    8.96028042       2.73875999       2.32153010    
 O    8.96028042       2.73875999       5.68689013    
 O    8.96028042       2.73875999       8.85762024    
 O    8.96028042       2.73875999       12.0840902    
 O    10.0144196       4.56459999      -1.09859002    
 O    10.0144196       4.56459999       2.32153010    
 O    10.0144196       4.56459999       5.68689013    
 O    10.0144196       4.56459999       8.85762024    
 O    10.0144196       4.56459999       12.0840902    
 O    11.0685701       6.39043999      -1.09859002    
 O    11.0685701       6.39043999       2.32153010    
 O    11.0685701       6.39043999       5.68689013    
 O    11.0685701       6.39043999       8.85762024    
 O    11.0685701       6.39043999       12.0840902    
 O    12.1227198       8.21629047      -1.09859002    
 O    12.1227198       8.21629047       2.32153010    
 O    12.1227198       8.21629047       5.68689013    
 O    12.1227198       8.21629047       8.85762024    
 O    12.1227198       8.21629047       12.0840902    
 O    10.0144196      0.912919998      -1.09859002    
 O    10.0144196      0.912919998       2.32153010    
 O    10.0144196      0.912919998       5.68689013    
 O    10.0144196      0.912919998       8.85762024    
 O    10.0144196      0.912919998       12.0840902    
 O    11.0685701       2.73875999      -1.09859002    
 O    11.0685701       2.73875999       2.32153010    
 O    11.0685701       2.73875999       5.68689013    
 O    11.0685701       2.73875999       8.85762024    
 O    11.0685701       2.73875999       12.0840902    
 O    12.1227198       4.56459999      -1.09859002    
 O    12.1227198       4.56459999       2.32153010    
 O    12.1227198       4.56459999       5.68689013    
 O    12.1227198       4.56459999       8.85762024    
 O    12.1227198       4.56459999       12.0840902    
 O    13.1768703       6.39043999      -1.09859002    
 O    13.1768703       6.39043999       2.32153010    
 O    13.1768703       6.39043999       5.68689013    
 O    13.1768703       6.39043999       8.85762024    
 O    13.1768703       6.39043999       12.0840902    
 O    14.2310200       8.21629047      -1.09859002    
 O    14.2310200       8.21629047       2.32153010    
 O    14.2310200       8.21629047       5.68689013    
 O    14.2310200       8.21629047       8.85762024    
 O    14.2310200       8.21629047       12.0840902    
